unknown system                          
   1.00000000000000     
    -2.429117    2.429117    1.337881
     2.429117   -2.429117    1.337881
     2.429117    2.429117   -1.337881
   Si
     2
Direct
  0.750000  0.250000  0.500000
  0.500000  0.500000  0.000000
 
   36   36   36
  9.7219      9.6523      9.4497      9.1315      8.7228      8.2510      7.7421      7.2171      6.6925      6.1809    
  5.6933      5.2406      4.8333      4.4806      4.1889      3.9620      3.8008      3.7049      3.6730      3.7049    
  3.8008      3.9620      4.1889      4.4806      4.8333      5.2406      5.6933      6.1809      6.6925      7.2171    
  7.7421      8.2510      8.7228      9.1315      9.4497      9.6523      9.6523      9.8066      9.8197      9.6946    
  9.4458      9.0955      8.6688      8.1895      7.6777      7.1493      6.6183      6.0979      5.6024      5.1455    
  4.7395      4.3936      4.1130      3.8997      3.7534      3.6729      3.6573      3.7066      3.8215      4.0026    
  4.2495      4.5598      4.9289      5.3507      5.8180      6.3231      6.8573      7.4089      7.9612      8.4909    
  8.9696      9.3663      9.4497      9.8197      10.055      10.143      10.085      9.8930      9.5877      9.1930    
  8.7313      8.2213      7.6788      7.1181      6.5547      6.0056      5.4887      5.0197      4.6109      4.2699    
  3.9999      3.8012      3.6725      3.6122      3.6198      3.6954      3.8394      4.0515      4.3304      4.6737    
  5.0778      5.5389      6.0521      6.6109      7.2038      7.8129      8.4123      8.9696      9.1315      9.6946    
  10.143      10.450      10.600      10.594      10.443      10.169      9.7950      9.3416      8.8261      8.2625    
  7.6651      7.0507      6.4395      5.8535      5.3130      4.8343      4.4278      4.0984      3.8470      3.6720    
  3.5712      3.5430      3.5867      3.7024      3.8900      4.1491      4.4792      4.8797      5.3496      5.8868    
  6.4858      7.1346      7.8129      8.4909      8.7228      9.4458      10.085      10.600      10.961      11.154    
  11.181      11.056      10.801      10.440      9.9906      9.4669      8.8798      8.2418      7.5709      6.8908    
  6.2284      5.6099      5.0562      4.5813      4.1920      3.8895      3.6717      3.5355      3.4781      3.4978    
  3.5942      3.7674      4.0183      4.3484      4.7597      5.2541      5.8313      6.4858      7.2038      7.9612    
  8.2510      9.0955      9.8930      10.594      11.154      11.546      11.752      11.780      11.656      11.413    
  11.073      10.641      10.117      9.5083      8.8290      8.0985      7.3446      6.6009      5.9001      5.2689    
  4.7251      4.2775      3.9273      3.6717      3.5061      3.4265      3.4301      3.5161      3.6851      3.9393    
  4.2826      4.7195      5.2541      5.8868      6.6109      7.4089      7.7421      8.6688      9.5877      10.443    
  11.181      11.752      12.114      12.265      12.244      12.103      11.882      11.595      11.223      10.738    
  10.126      9.4071      8.6155      7.7853      6.9575      6.1729      5.4645      4.8542      4.3520      3.9594    
  3.6720      3.4838      3.3892      3.3846      3.4690      3.6438      3.9129      4.2826      4.7597      5.3496    
  6.0521      6.8573      7.2171      8.1895      9.1930      10.169      11.056      11.780      12.265      12.497    
  12.519      12.412      12.255      12.092      11.913      11.663      11.274      10.701      9.9567      9.1043    
  8.1969      7.2850      6.4181      5.6358      4.9637      4.4131      3.9846      3.6725      3.4688      3.3667    
  3.3618      3.4533      3.6438      3.9393      4.3484      4.8797      5.5389      6.3231      6.6925      7.6777    
  8.7313      9.7950      10.801      11.656      12.244      12.519      12.519      12.348      12.140      11.997    
  11.954      11.963      11.914      11.685      11.199      10.458      9.5478      8.5645      7.5712      6.6265    
  5.7764      5.0497      4.4585      4.0021      3.6729      3.4613      3.3592      3.3618      3.4690      3.6851    
  4.0183      4.4792      5.0778      5.8180      6.1809      7.1493      8.2213      9.3416      10.440      11.413    
  12.103      12.412      12.348      12.026      11.625      11.332      11.264      11.431      11.723      11.959    
  11.956      11.600      10.889      9.9314      8.8750      7.8053      6.7900      5.8808      5.1090      4.4864    
  4.0110      3.6731      3.4613      3.3667      3.3846      3.5161      3.7674      4.1491      4.6737      5.3507    
  5.6933      6.6183      7.6788      8.8261      9.9906      11.073      11.882      12.255      12.140      11.625    
  10.920      10.288      9.9626      10.063      10.545      11.219      11.817      12.091      11.897      11.235    
  10.242      9.1174      7.9788      6.9025      5.9450      5.1392      4.4959      4.0110      3.6729      3.4688    
  3.3892      3.4301      3.5942      3.8900      4.3304      4.9289      5.2406      6.0979      7.1181      8.2626    
  9.4669      10.641      11.595      12.092      11.997      11.332      10.288      9.1804      8.3585      8.0912    
  8.4712      9.3787      10.522      11.540      12.121      12.100      11.493      10.471      9.2835      8.0854    
  6.9598      5.9667      5.1392      4.4864      4.0021      3.6725      3.4838      3.4265      3.4978      3.7024    
  4.0515      4.5598      4.8333      5.6024      6.5547      7.6651      8.8798      10.117      11.223      11.913    
  11.954      11.264      9.9627      8.3586      6.8813      5.9554      5.8628      6.6417      8.0701      9.7414    
  11.201      12.087      12.226      11.661      10.610      9.3679      8.1214      6.9598      5.9450      5.1090    
  4.4585      3.9846      3.6720      3.5061      3.4781      3.5867      3.8394      4.2495      4.4806      5.1455    
  6.0056      7.0507      8.2418      9.5083      10.738      11.663      11.963      11.431      10.063      8.0912    
  5.9555      4.1936      3.2859      3.4966      4.7792      6.7896      9.0029      10.882      12.032      12.292    
  11.744      10.656      9.3679      8.0854      6.9025      5.8808      5.0497      4.4131      3.9594      3.6717    
  3.5355      3.5430      3.6954      4.0026      4.1889      4.7395      5.4887      6.4395      7.5709      8.8291    
  10.126      11.274      11.914      11.723      10.545      8.4712      5.8628      3.2860      1.3712     0.62422    
  1.2573      3.1125      5.7145      8.4286      10.656      11.994      12.312      11.744      10.610      9.2835    
  7.9788      6.7900      5.7764      4.9637      4.3520      3.9273      3.6717      3.5712      3.6198      3.8215    
  3.9620      4.3936      5.0197      5.8535      6.8908      8.0985      9.4071      10.701      11.685      11.959    
  11.219      9.3787      6.6417      3.4966     0.62422     -1.2815     -1.7267     -.58461      1.8582      4.9991    
  8.1150      10.575      11.994      12.292      11.661      10.471      9.1174      7.8053      6.6265      5.6358    
  4.8542      4.2775      3.8895      3.6720      3.6122      3.7066      3.8008      4.1130      4.6110      5.3130    
  6.2284      7.3446      8.6155      9.9567      11.199      11.956      11.817      10.522      8.0701      4.7792    
  1.2573     -1.7267     -3.4537     -3.4815     -1.7955      1.1851      4.7483      8.1150      10.656      12.032    
  12.226      11.493      10.242      8.8750      7.5712      6.4181      5.4645      4.7251      4.1920      3.8470    
  3.6725      3.6573      3.7049      3.8997      4.2699      4.8343      5.6099      6.6009      7.7853      9.1043    
  10.458      11.600      12.091      11.540      9.7414      6.7896      3.1125     -.58463     -3.4816     -4.8780    
 -4.4192     -2.2177      1.1851      4.9991      8.4286      10.882      12.087      12.100      11.235      9.9314    
  8.5645      7.2850      6.1729      5.2689      4.5813      4.0984      3.8012      3.6729      3.6730      3.7534    
  3.9999      4.4278      5.0562      5.9001      6.9575      8.1969      9.5478      10.889      11.897      12.121    
  11.201      9.0028      5.7145      1.8582     -1.7955     -4.4193     -5.3740     -4.4192     -1.7955      1.8582    
  5.7145      9.0029      11.201      12.121      11.897      10.889      9.5478      8.1969      6.9575      5.9001    
  5.0562      4.4278      3.9999      3.7534      3.7049      3.6729      3.8012      4.0984      4.5813      5.2689    
  6.1729      7.2850      8.5645      9.9313      11.235      12.100      12.087      10.882      8.4286      4.9991    
  1.1851     -2.2177     -4.4193     -4.8780     -3.4815     -.58461      3.1125      6.7896      9.7414      11.540    
  12.091      11.600      10.458      9.1043      7.7853      6.6009      5.6099      4.8343      4.2699      3.8997    
  3.8008      3.6573      3.6725      3.8470      4.1920      4.7251      5.4645      6.4181      7.5712      8.8750    
  10.242      11.492      12.226      12.032      10.656      8.1149      4.7483      1.1851     -1.7955     -3.4816    
 -3.4537     -1.7267      1.2573      4.7792      8.0701      10.522      11.817      11.956      11.199      9.9567    
  8.6155      7.3446      6.2284      5.3130      4.6109      4.1130      3.9620      3.7066      3.6122      3.6720    
  3.8895      4.2775      4.8542      5.6358      6.6264      7.8053      9.1174      10.471      11.661      12.291    
  11.994      10.575      8.1149      4.9991      1.8582     -.58463     -1.7267     -1.2815     0.62422      3.4966    
  6.6417      9.3787      11.219      11.959      11.685      10.701      9.4071      8.0985      6.8908      5.8535    
  5.0197      4.3936      4.1889      3.8215      3.6198      3.5712      3.6717      3.9273      4.3521      4.9637    
  5.7764      6.7899      7.9788      9.2835      10.610      11.744      12.312      11.994      10.656      8.4286    
  5.7145      3.1125      1.2573     0.62422      1.3712      3.2859      5.8628      8.4712      10.545      11.723    
  11.914      11.274      10.126      8.8290      7.5709      6.4395      5.4887      4.7395      4.4806      4.0026    
  3.6954      3.5430      3.5355      3.6717      3.9594      4.4131      5.0497      5.8807      6.9025      8.0854    
  9.3679      10.656      11.744      12.291      12.032      10.882      9.0028      6.7896      4.7792      3.4966    
  3.2860      4.1936      5.9554      8.0912      10.063      11.431      11.963      11.663      10.738      9.5083    
  8.2418      7.0507      6.0056      5.1455      4.8333      4.2495      3.8394      3.5868      3.4781      3.5062    
  3.6721      3.9847      4.4585      5.1090      5.9450      6.9598      8.1213      9.3679      10.610      11.661    
  12.226      12.087      11.201      9.7414      8.0701      6.6417      5.8628      5.9555      6.8813      8.3585    
  9.9626      11.264      11.954      11.913      11.223      10.117      8.8798      7.6651      6.5547      5.6024    
  5.2406      4.5598      4.0515      3.7024      3.4978      3.4265      3.4838      3.6725      4.0021      4.4864    
  5.1392      5.9667      6.9598      8.0854      9.2835      10.471      11.492      12.100      12.121      11.540    
  10.522      9.3787      8.4712      8.0912      8.3586      9.1804      10.288      11.332      11.997      12.092    
  11.595      10.641      9.4669      8.2625      7.1181      6.0979      5.6933      4.9289      4.3304      3.8900    
  3.5942      3.4302      3.3892      3.4688      3.6729      4.0110      4.4959      5.1392      5.9450      6.9025    
  7.9788      9.1174      10.242      11.235      11.897      12.091      11.817      11.219      10.545      10.063    
  9.9627      10.288      10.920      11.625      12.140      12.255      11.882      11.073      9.9906      8.8261    
  7.6788      6.6183      6.1809      5.3507      4.6737      4.1491      3.7674      3.5161      3.3847      3.3667    
  3.4613      3.6731      4.0110      4.4864      5.1090      5.8807      6.7899      7.8053      8.8750      9.9313    
  10.889      11.600      11.956      11.959      11.723      11.431      11.264      11.332      11.625      12.026    
  12.348      12.412      12.103      11.413      10.440      9.3416      8.2213      7.1493      6.6925      5.8180    
  5.0778      4.4792      4.0183      3.6851      3.4690      3.3618      3.3592      3.4613      3.6729      4.0021    
  4.4585      5.0497      5.7764      6.6264      7.5712      8.5645      9.5478      10.458      11.199      11.685    
  11.914      11.963      11.954      11.997      12.140      12.348      12.519      12.519      12.244      11.656    
  10.801      9.7950      8.7313      7.6777      7.2171      6.3231      5.5388      4.8797      4.3483      3.9393    
  3.6438      3.4533      3.3618      3.3667      3.4688      3.6725      3.9847      4.4131      4.9637      5.6358    
  6.4181      7.2850      8.1969      9.1043      9.9567      10.701      11.274      11.663      11.913      12.092    
  12.255      12.412      12.519      12.497      12.265      11.780      11.056      10.169      9.1930      8.1895    
  7.7421      6.8573      6.0521      5.3496      4.7597      4.2826      3.9129      3.6438      3.4690      3.3847    
  3.3892      3.4838      3.6721      3.9594      4.3521      4.8542      5.4645      6.1729      6.9575      7.7853    
  8.6155      9.4071      10.126      10.738      11.223      11.595      11.882      12.103      12.244      12.265    
  12.114      11.752      11.181      10.443      9.5877      8.6688      8.2510      7.4089      6.6109      5.8868    
  5.2541      4.7195      4.2826      3.9393      3.6851      3.5161      3.4302      3.4265      3.5062      3.6717    
  3.9273      4.2775      4.7251      5.2689      5.9001      6.6009      7.3446      8.0985      8.8291      9.5083    
  10.117      10.641      11.073      11.413      11.656      11.780      11.752      11.546      11.154      10.594    
  9.8930      9.0955      8.7228      7.9612      7.2038      6.4858      5.8313      5.2541      4.7597      4.3483    
  4.0183      3.7674      3.5942      3.4978      3.4781      3.5355      3.6717      3.8895      4.1920      4.5813    
  5.0562      5.6099      6.2284      6.8908      7.5709      8.2418      8.8798      9.4669      9.9906      10.440    
  10.801      11.056      11.181      11.154      10.961      10.600      10.085      9.4458      9.1315      8.4909    
  7.8129      7.1346      6.4858      5.8868      5.3496      4.8797      4.4792      4.1491      3.8900      3.7024    
  3.5868      3.5430      3.5712      3.6720      3.8470      4.0984      4.4278      4.8343      5.3130      5.8535    
  6.4395      7.0507      7.6651      8.2626      8.8261      9.3416      9.7950      10.169      10.443      10.594    
  10.600      10.450      10.143      9.6946      9.4497      8.9696      8.4123      7.8129      7.2038      6.6109    
  6.0521      5.5388      5.0778      4.6737      4.3304      4.0515      3.8394      3.6954      3.6198      3.6122    
  3.6725      3.8012      3.9999      4.2699      4.6110      5.0197      5.4887      6.0056      6.5547      7.1181    
  7.6788      8.2213      8.7313      9.1930      9.5877      9.8930      10.085      10.143      10.055      9.8197    
  9.6523      9.3663      8.9696      8.4909      7.9612      7.4089      6.8573      6.3231      5.8180      5.3507    
  4.9289      4.5598      4.2495      4.0026      3.8215      3.7066      3.6573      3.6729      3.7534      3.8997    
  4.1130      4.3936      4.7395      5.1455      5.6024      6.0979      6.6183      7.1493      7.6777      8.1895    
  8.6688      9.0955      9.4458      9.6946      9.8197      9.8066      9.6523      9.5424      9.3126      8.9806    
  8.5706      8.1093      7.6213      7.1265      6.6394      6.1706      5.7290      5.3230      4.9612      4.6512    
  4.3990      4.2082      4.0801      4.0145      4.0110      4.0693      4.1900      4.3737      4.6204      4.9277    
  5.2906      5.7004      6.1464      6.6162      7.0982      7.5810      8.0530      8.5002      8.9043      9.2433    
  9.4938      9.6348      9.5424      9.6523      9.6348      9.4938      9.2433      8.9043      8.5002      8.0530    
  7.5810      7.0982      6.6162      6.1464      5.7005      5.2906      4.9278      4.6204      4.3737      4.1900    
  4.0693      4.0110      4.0145      4.0801      4.2082      4.3990      4.6512      4.9612      5.3230      5.7290    
  6.1706      6.6394      7.1265      7.6213      8.1093      8.5706      8.9806      9.3126      9.2965      9.6182    
  9.8197      9.8901      9.8299      9.6505      9.3703      9.0105      8.5910      8.1287      7.6371      7.1290    
  6.6180      6.1195      5.6493      5.2223      4.8499      4.5394      4.2944      4.1155      4.0021      3.9531    
  3.9684      4.0481      4.1922      4.4000      4.6693      4.9962      5.3761      5.8039      6.2742      6.7803    
  7.3123      7.8547      8.3853      8.8760      8.9338      9.4450      9.8566      10.143      10.292      10.300    
  10.178      9.9439      9.6159      9.2127      8.7493      8.2386      7.6938      7.1308      6.5684      6.0272    
  5.5260      5.0801      4.6996      4.3896      4.1516      3.9846      3.8873      3.8586      3.8979      4.0052    
  4.1799      4.4209      4.7266      5.0950      5.5243      6.0118      6.5525      7.1362      7.7458      8.3557    
  8.4816      9.1491      9.7477      10.241      10.600      10.811      10.872      10.793      10.591      10.285    
  9.8898      9.4183      8.8815      8.2924      7.6687      7.0335      6.4120      5.8285      5.3029      4.8484    
  4.4722      4.1763      3.9594      3.8193      3.7538      3.7616      3.8421      3.9950      4.2203      4.5185    
  4.8905      5.3371      5.8578      6.4484      7.0977      7.7853      7.9696      8.7545      9.5072      10.183    
  10.742      11.155      11.408      11.501      11.448      11.268      10.979      10.591      10.109      9.5425    
  8.9043      8.2138      7.4986      6.7901      6.1188      5.5098      4.9803      4.5392      4.1888      3.9273    
  3.7512      3.6569      3.6422      3.7059      3.8481      4.0702      4.3747      4.7652      5.2448      5.8145    
  6.4695      7.1961      7.4261      8.2884      9.1575      9.9837      10.718      11.318      11.752      12.004    
  12.087      12.036      11.877      11.623      11.265      10.790      10.197      9.5076      8.7466      7.9468    
  7.1472      6.3856      5.6929      5.0902      4.5881      4.1888      3.8895      3.6850      3.5703      3.5420    
  3.5987      3.7412      3.9722      4.2966      4.7202      5.2481      5.8814      6.6134      6.8744      7.7770    
  8.7243      9.6651      10.544      11.306      11.892      12.265      12.443      12.473      12.413      12.296    
  12.115      11.836      11.411      10.819      10.081      9.2472      8.3610      7.4694      6.6182      5.8447    
  5.1737      4.6170      4.1763      3.8470      3.6224      3.4957      3.4628      3.5221      3.6753      3.9271    
  4.2845      4.7555      5.3460      6.0558      6.3321      7.2422      8.2323      9.2524      10.243      11.139    
  11.848      12.306      12.519      12.554      12.505      12.450      12.418      12.374      12.238      11.920    
  11.370      10.602      9.6969      8.7250      7.7436      6.8072      5.9593      5.2277      4.6249      4.1516    
  3.8012      3.5650      3.4348      3.4059      3.4770      3.6512      3.9352      4.3383      4.8699      5.5356    
  5.8124      6.7017      7.7026      8.7696      9.8415      10.846      11.663      12.185      12.390      12.348    
  12.191      12.060      12.052      12.176      12.350      12.432      12.283      11.818      11.050      10.079    
  9.0248      7.9592      6.9452      6.0320      5.2500      4.6115      4.1155      3.7534      3.5142      3.3889    
  3.3723      3.4642      3.6693      3.9965      4.4572      5.0613      5.3261      6.1697      7.1528      8.2367    
  9.3620      10.454      11.378      11.972      12.164      11.998      11.625      11.254      11.073      11.183    
  11.554      12.036      12.414      12.490      12.149      11.403      10.380      9.2491      8.1078      7.0269    
  6.0603      5.2399      4.5773      4.0693      3.7049      3.4715      3.3592      3.3631      3.4843      3.7297    
  4.1105      4.6395      4.8827      5.6592      6.5981      7.6703      8.8223      9.9799      11.015      11.717    
  11.938      11.665      11.032      10.288      9.7194      9.5541      9.8768      10.596      11.474      12.213    
  12.554      12.361      11.653      10.590      9.3905      8.1844      7.0495      6.0433      5.1980      4.5237    
  4.0145      3.6573      3.4380      3.3464      3.3786      3.5373      3.8320      4.2759      4.4907      5.1825    
  6.0532      7.0855      8.2363      9.4355      10.576      11.429      11.763      11.473      10.628      9.4717    
  8.3586      7.6506      7.5958      8.2388      9.4021      10.746      11.886      12.509      12.466      11.798    
  10.702      9.4449      8.1870      7.0128      5.9820      5.1261      4.4527      3.9531      3.6122      3.4150    
  3.3515      3.4191      3.6231      3.9752      4.1574      4.7513      5.5331      6.4984      7.6177      8.8314    
  10.050      11.078      11.618      11.454      10.547      9.0696      7.3852      5.9555      5.2030      5.3713    
  6.4376      8.1181      9.9641      11.507      12.396      12.485      11.844      10.716      9.4119      8.1164    
  6.9188      5.8792      5.0272      4.3670      3.8873      3.5712      3.4032      3.3744      3.4842      3.7404    
  3.8875      4.3754      5.0527      5.9264      6.9829      8.1783      9.4358      10.621      11.428      11.541    
  10.785      9.2045      7.0918      4.9333      3.2860      2.6097      3.1139      4.6825      6.9131      9.2498    
  11.156      12.261      12.437      11.798      10.634      9.2940      7.9761      6.7715      5.7391      4.9050    
  4.2697      3.8193      3.5355      3.4033      3.4151      3.5729      3.6834      4.0615      4.6246      5.3878    
  6.3521      7.4927      8.7501      10.028      11.101      11.595      11.204      9.8111      7.5639      4.8775    
  2.3542     0.62425     0.15315      1.0854      3.1930      5.9529      8.7161      10.901      12.139      12.339    
  11.666      10.460      9.0966      7.7719      6.5770      5.5672      4.7641      4.1642      3.7512      3.5062    
  3.4150      3.4725      3.5451      3.8131      4.2581      4.8989      5.7476      6.7978      8.0121      9.3156    
  10.577      11.466      11.585      10.658      8.6460      5.8046      2.6679     -.66447E-01 -1.7266     -1.8769    
 -.46395      2.1636      5.3726      8.4458      10.785      12.049      12.197      11.454      10.202      8.8272    
  7.5116      6.3425      5.3698      4.6094      4.0539      3.6850      3.4838      3.4380      3.4715      3.6310    
  3.9586      4.4723      5.1906      6.1215      7.2498      8.5251      9.8581      11.055      11.711      11.434    
  9.9961      7.4444      4.1430     0.72775     -2.0386     -3.4815     -3.2286     -1.3357      1.7318      5.2535    
  8.4765      10.818      11.988      12.010      11.164      9.8671      8.4956      7.2049      6.0768      5.1540    
  4.4463      3.9422      3.6224      3.4688      3.4613      3.5142      3.7277      4.1157      4.6977      5.4907    
  6.4974      7.6932      9.0153      10.358      11.450      11.856      11.206      9.3345      6.3784      2.7980    
 -.69608     -3.3145     -4.4193     -3.7293     -1.4162      1.9545      5.6082      8.7941      10.976      11.935    
  11.765      10.797      9.4674      8.1132      6.8628      5.7895      4.9275      4.2800      3.8324      3.5650    
  3.5142      3.4613      3.5650      3.8324      4.2800      4.9275      5.7895      6.8628      8.1132      9.4673    
  10.797      11.765      11.935      10.976      8.7941      5.6082      1.9545     -1.4162     -3.7293     -4.4193    
 -3.3145     -.69608      2.7980      6.3784      9.3345      11.206      11.856      11.450      10.358      9.0153    
  7.6932      6.4975      5.4907      4.6977      4.1157      3.7277      3.6310      3.4715      3.4688      3.6224    
  3.9422      4.4463      5.1540      6.0768      7.2049      8.4955      9.8671      11.164      12.010      11.988    
  10.818      8.4765      5.2535      1.7317     -1.3357     -3.2286     -3.4816     -2.0387     0.72773      4.1430    
  7.4444      9.9961      11.434      11.711      11.055      9.8581      8.5251      7.2498      6.1215      5.1906    
  4.4723      3.9586      3.8131      3.5451      3.4380      3.4838      3.6850      4.0539      4.6094      5.3698    
  6.3425      7.5116      8.8271      10.202      11.454      12.197      12.048      10.785      8.4458      5.3726    
  2.1636     -.46399     -1.8770     -1.7267     -.66498E-01  2.6678      5.8046      8.6460      10.658      11.585    
  11.466      10.577      9.3156      8.0121      6.7978      5.7476      4.8989      4.2581      4.0615      3.6834    
  3.4725      3.4150      3.5062      3.7512      4.1642      4.7641      5.5672      6.5769      7.7718      9.0965    
  10.460      11.666      12.339      12.139      10.901      8.7161      5.9528      3.1930      1.0853     0.15309    
 0.62419      2.3541      4.8775      7.5639      9.8111      11.204      11.595      11.101      10.028      8.7501    
  7.4927      6.3521      5.3878      4.6246      4.3754      3.8875      3.5729      3.4151      3.4033      3.5355    
  3.8193      4.2697      4.9050      5.7391      6.7715      7.9760      9.2940      10.634      11.798      12.437    
  12.261      11.156      9.2498      6.9131      4.6825      3.1138      2.6097      3.2859      4.9332      7.0918    
  9.2045      10.785      11.541      11.428      10.621      9.4358      8.1783      6.9829      5.9264      5.0527    
  4.7513      4.1574      3.7404      3.4842      3.3745      3.4033      3.5712      3.8874      4.3670      5.0272    
  5.8792      6.9188      8.1164      9.4119      10.716      11.844      12.485      12.396      11.507      9.9641    
  8.1181      6.4376      5.3712      5.2029      5.9554      7.3852      9.0695      10.547      11.454      11.618    
  11.078      10.050      8.8314      7.6177      6.4984      5.5331      5.1825      4.4907      3.9752      3.6230    
  3.4191      3.3515      3.4150      3.6123      3.9532      4.4527      5.1261      5.9820      7.0128      8.1870    
  9.4449      10.702      11.798      12.466      12.509      11.886      10.746      9.4021      8.2388      7.5958    
  7.6506      8.3585      9.4717      10.628      11.473      11.763      11.429      10.576      9.4355      8.2363    
  7.0855      6.0531      5.6592      4.8826      4.2759      3.8320      3.5373      3.3786      3.3465      3.4381    
  3.6573      4.0145      4.5237      5.1980      6.0433      7.0495      8.1845      9.3905      10.590      11.653    
  12.361      12.554      12.213      11.474      10.596      9.8768      9.5541      9.7194      10.288      11.032    
  11.665      11.938      11.717      11.015      9.9799      8.8223      7.6703      6.5981      6.1697      5.3261    
  4.6395      4.1105      3.7297      3.4843      3.3631      3.3592      3.4715      3.7049      4.0693      4.5773    
  5.2399      6.0603      7.0269      8.1078      9.2492      10.380      11.403      12.149      12.490      12.414    
  12.036      11.554      11.183      11.073      11.254      11.625      11.998      12.164      11.972      11.378    
  10.454      9.3621      8.2367      7.1528      6.7017      5.8124      5.0613      4.4572      3.9965      3.6693    
  3.4643      3.3724      3.3890      3.5142      3.7534      4.1155      4.6115      5.2500      6.0320      6.9452    
  7.9592      9.0248      10.079      11.050      11.818      12.283      12.432      12.350      12.176      12.052    
  12.060      12.191      12.348      12.390      12.185      11.663      10.846      9.8415      8.7696      7.7026    
  7.2422      6.3321      5.5356      4.8699      4.3383      3.9352      3.6512      3.4770      3.4059      3.4348    
  3.5650      3.8012      4.1516      4.6249      5.2277      5.9593      6.8073      7.7437      8.7251      9.6970    
  10.602      11.370      11.920      12.238      12.374      12.418      12.450      12.505      12.554      12.519    
  12.306      11.848      11.139      10.243      9.2524      8.2323      7.7770      6.8744      6.0558      5.3459    
  4.7555      4.2845      3.9271      3.6753      3.5221      3.4628      3.4957      3.6224      3.8470      4.1763    
  4.6170      5.1737      5.8448      6.6182      7.4694      8.3611      9.2473      10.081      10.819      11.411    
  11.836      12.115      12.296      12.413      12.473      12.443      12.265      11.892      11.306      10.544    
  9.6651      8.7243      8.2884      7.4261      6.6134      5.8814      5.2481      4.7202      4.2966      3.9722    
  3.7412      3.5987      3.5420      3.5703      3.6849      3.8895      4.1888      4.5881      5.0902      5.6929    
  6.3856      7.1472      7.9469      8.7466      9.5077      10.197      10.790      11.265      11.623      11.877    
  12.036      12.087      12.004      11.752      11.318      10.718      9.9837      9.1575      8.7545      7.9696    