   2   2   0   0
  0.1578863E+02  0.3686617E-09  0.3686617E-09  0.3686617E-09  0.5000000E-15
  1.000000000000000E-004
  CAR 
 unknown system                          
     22.70609950     -6.62933309  301      8.69176825      1.00000000
     -6.629  0.0000E+00  0.0000E+00
     -6.532  0.0000E+00  0.0000E+00
     -6.434  0.0000E+00  0.0000E+00
     -6.336  0.0000E+00  0.0000E+00
     -6.238  0.0000E+00  0.0000E+00
     -6.140  0.0000E+00  0.0000E+00
     -6.043  0.0000E+00  0.0000E+00
     -5.945  0.0000E+00  0.0000E+00
     -5.847  0.0000E+00  0.0000E+00
     -5.749  0.1301E-16  0.1272E-17
     -5.651  0.2603E-14  0.2558E-15
     -5.554  0.3333E-12  0.3285E-13
     -5.456  0.2667E-10  0.2641E-11
     -5.358  0.1336E-08  0.1333E-09
     -5.260  0.4190E-07  0.4231E-08
     -5.163  0.8248E-06  0.8488E-07
     -5.065  0.1020E-04  0.1083E-05
     -4.967  0.7948E-04  0.8855E-05
     -4.869  0.3914E-03  0.4712E-04
     -4.771  0.1228E-02  0.1672E-03
     -4.674  0.2518E-02  0.4134E-03
     -4.576  0.3671E-02  0.7724E-03
     -4.478  0.4820E-02  0.1244E-02
     -4.380  0.7370E-02  0.1964E-02
     -4.282  0.1149E-01  0.3088E-02
     -4.185  0.1451E-01  0.4507E-02
     -4.087  0.1431E-01  0.5906E-02
     -3.989  0.1201E-01  0.7081E-02
     -3.891  0.9650E-02  0.8024E-02
     -3.794  0.8736E-02  0.8879E-02
     -3.696  0.1083E-01  0.9938E-02
     -3.598  0.1641E-01  0.1154E-01
     -3.500  0.2280E-01  0.1377E-01
     -3.402  0.2475E-01  0.1619E-01
     -3.305  0.2060E-01  0.1821E-01
     -3.207  0.1609E-01  0.1978E-01
     -3.109  0.1671E-01  0.2141E-01
     -3.011  0.2034E-01  0.2340E-01
     -2.914  0.2149E-01  0.2550E-01
     -2.816  0.1966E-01  0.2743E-01
     -2.718  0.1918E-01  0.2930E-01
     -2.620  0.2185E-01  0.3144E-01
     -2.522  0.2487E-01  0.3387E-01
     -2.425  0.2594E-01  0.3641E-01
     -2.327  0.2536E-01  0.3889E-01
     -2.229  0.2380E-01  0.4121E-01
     -2.131  0.2314E-01  0.4348E-01
     -2.033  0.2646E-01  0.4606E-01
     -1.936  0.3132E-01  0.4913E-01
     -1.838  0.3083E-01  0.5214E-01
     -1.740  0.2421E-01  0.5451E-01
     -1.642  0.1743E-01  0.5621E-01
     -1.545  0.1492E-01  0.5767E-01
     -1.447  0.1756E-01  0.5939E-01
     -1.349  0.2581E-01  0.6191E-01
     -1.251  0.3851E-01  0.6568E-01
     -1.153  0.4910E-01  0.7048E-01
     -1.056  0.5029E-01  0.7540E-01
     -0.958  0.4347E-01  0.7965E-01
     -0.860  0.3663E-01  0.8323E-01
     -0.762  0.3351E-01  0.8651E-01
     -0.664  0.3076E-01  0.8952E-01
     -0.567  0.2583E-01  0.9204E-01
     -0.469  0.2079E-01  0.9408E-01
     -0.371  0.1825E-01  0.9586E-01
     -0.273  0.1967E-01  0.9778E-01
     -0.176  0.2515E-01  0.1002E+00
     -0.078  0.3189E-01  0.1034E+00
      0.020  0.3622E-01  0.1069E+00
      0.118  0.3872E-01  0.1107E+00
      0.216  0.4251E-01  0.1148E+00
      0.313  0.4740E-01  0.1195E+00
      0.411  0.4983E-01  0.1244E+00
      0.509  0.4781E-01  0.1290E+00
      0.607  0.4388E-01  0.1333E+00
      0.705  0.4107E-01  0.1373E+00
      0.802  0.4092E-01  0.1413E+00
      0.900  0.4336E-01  0.1456E+00
      0.998  0.4512E-01  0.1500E+00
      1.096  0.4690E-01  0.1546E+00
      1.193  0.5339E-01  0.1598E+00
      1.291  0.5896E-01  0.1656E+00
      1.389  0.5194E-01  0.1706E+00
      1.487  0.3473E-01  0.1740E+00
      1.585  0.2071E-01  0.1761E+00
      1.682  0.1566E-01  0.1776E+00
      1.780  0.1551E-01  0.1791E+00
      1.878  0.1629E-01  0.1807E+00
      1.976  0.1975E-01  0.1826E+00
      2.074  0.2904E-01  0.1855E+00
      2.171  0.4150E-01  0.1895E+00
      2.269  0.5093E-01  0.1945E+00
      2.367  0.5378E-01  0.1998E+00
      2.465  0.5094E-01  0.2048E+00
      2.562  0.4708E-01  0.2094E+00
      2.660  0.4598E-01  0.2139E+00
      2.758  0.4678E-01  0.2184E+00
      2.856  0.4785E-01  0.2231E+00
      2.954  0.4914E-01  0.2279E+00
      3.051  0.4736E-01  0.2325E+00
      3.149  0.3786E-01  0.2362E+00
      3.247  0.2539E-01  0.2387E+00
      3.345  0.2069E-01  0.2407E+00
      3.442  0.2593E-01  0.2433E+00
      3.540  0.3332E-01  0.2465E+00
      3.638  0.3618E-01  0.2501E+00
      3.736  0.3470E-01  0.2535E+00
      3.834  0.3274E-01  0.2567E+00
      3.931  0.3502E-01  0.2601E+00
      4.029  0.4588E-01  0.2646E+00
      4.127  0.6410E-01  0.2709E+00
      4.225  0.7869E-01  0.2785E+00
      4.323  0.7990E-01  0.2864E+00
      4.420  0.7241E-01  0.2934E+00
      4.518  0.6458E-01  0.2998E+00
      4.616  0.5603E-01  0.3052E+00
      4.714  0.4637E-01  0.3098E+00
      4.811  0.4059E-01  0.3137E+00
      4.909  0.4124E-01  0.3178E+00
      5.007  0.4332E-01  0.3220E+00
      5.105  0.4050E-01  0.3260E+00
      5.203  0.3534E-01  0.3294E+00
      5.300  0.3670E-01  0.3330E+00
      5.398  0.4702E-01  0.3376E+00
      5.496  0.5890E-01  0.3434E+00
      5.594  0.6410E-01  0.3496E+00
      5.692  0.6375E-01  0.3559E+00
      5.789  0.6583E-01  0.3623E+00
      5.887  0.6960E-01  0.3691E+00
      5.985  0.6662E-01  0.3756E+00
      6.083  0.5705E-01  0.3812E+00
      6.180  0.4866E-01  0.3860E+00
      6.278  0.4678E-01  0.3905E+00
      6.376  0.5203E-01  0.3956E+00
      6.474  0.5971E-01  0.4015E+00
      6.572  0.6269E-01  0.4076E+00
      6.669  0.5937E-01  0.4134E+00
      6.767  0.5573E-01  0.4189E+00
      6.865  0.5921E-01  0.4246E+00
      6.963  0.6986E-01  0.4315E+00
      7.061  0.8056E-01  0.4394E+00
      7.158  0.8784E-01  0.4479E+00
      7.256  0.9125E-01  0.4569E+00
      7.354  0.8767E-01  0.4654E+00
      7.452  0.7768E-01  0.4730E+00
      7.549  0.6601E-01  0.4795E+00
      7.647  0.5508E-01  0.4849E+00
      7.745  0.4694E-01  0.4895E+00
      7.843  0.4292E-01  0.4937E+00
      7.941  0.4094E-01  0.4977E+00
      8.038  0.3986E-01  0.5016E+00
      8.136  0.4081E-01  0.5056E+00
      8.234  0.4314E-01  0.5098E+00
      8.332  0.4393E-01  0.5141E+00
      8.430  0.4374E-01  0.5183E+00
      8.527  0.4843E-01  0.5231E+00
      8.625  0.5927E-01  0.5289E+00
      8.723  0.6713E-01  0.5354E+00
      8.821  0.6324E-01  0.5416E+00
      8.918  0.5348E-01  0.5469E+00
      9.016  0.5281E-01  0.5520E+00
      9.114  0.6170E-01  0.5581E+00
      9.212  0.6156E-01  0.5641E+00
      9.310  0.4390E-01  0.5684E+00
      9.407  0.2348E-01  0.5707E+00
      9.505  0.1542E-01  0.5722E+00
      9.603  0.2014E-01  0.5741E+00
      9.701  0.2975E-01  0.5770E+00
      9.799  0.3708E-01  0.5807E+00
      9.896  0.4090E-01  0.5847E+00
      9.994  0.4445E-01  0.5890E+00
     10.092  0.4812E-01  0.5937E+00
     10.190  0.4838E-01  0.5985E+00
     10.287  0.4610E-01  0.6030E+00
     10.385  0.4762E-01  0.6076E+00
     10.483  0.5639E-01  0.6131E+00
     10.581  0.6854E-01  0.6198E+00
     10.679  0.7575E-01  0.6272E+00
     10.776  0.7538E-01  0.6346E+00
     10.874  0.7366E-01  0.6418E+00
     10.972  0.7260E-01  0.6489E+00
     11.070  0.6715E-01  0.6555E+00
     11.167  0.5817E-01  0.6612E+00
     11.265  0.5618E-01  0.6667E+00
     11.363  0.6884E-01  0.6734E+00
     11.461  0.8951E-01  0.6821E+00
     11.559  0.1052E+00  0.6924E+00
     11.656  0.1092E+00  0.7031E+00
     11.754  0.1009E+00  0.7130E+00
     11.852  0.8232E-01  0.7210E+00
     11.950  0.6010E-01  0.7269E+00
     12.048  0.4328E-01  0.7311E+00
     12.145  0.3449E-01  0.7345E+00
     12.243  0.2950E-01  0.7374E+00
     12.341  0.2942E-01  0.7403E+00
     12.439  0.4138E-01  0.7443E+00
     12.536  0.6241E-01  0.7504E+00
     12.634  0.7744E-01  0.7580E+00
     12.732  0.7773E-01  0.7656E+00
     12.830  0.7098E-01  0.7725E+00
     12.928  0.6861E-01  0.7792E+00
     13.025  0.7020E-01  0.7861E+00
     13.123  0.6755E-01  0.7927E+00
     13.221  0.5831E-01  0.7984E+00
     13.319  0.4850E-01  0.8032E+00
     13.417  0.4600E-01  0.8077E+00
     13.514  0.5745E-01  0.8133E+00
     13.612  0.8295E-01  0.8214E+00
     13.710  0.1072E+00  0.8319E+00
     13.808  0.1132E+00  0.8429E+00
     13.905  0.1047E+00  0.8532E+00
     14.003  0.9457E-01  0.8624E+00
     14.101  0.8447E-01  0.8707E+00
     14.199  0.7138E-01  0.8777E+00
     14.297  0.5846E-01  0.8834E+00
     14.394  0.5259E-01  0.8885E+00
     14.492  0.5679E-01  0.8941E+00
     14.590  0.6660E-01  0.9006E+00
     14.688  0.7433E-01  0.9078E+00
     14.786  0.7515E-01  0.9152E+00
     14.883  0.6896E-01  0.9219E+00
     14.981  0.6069E-01  0.9279E+00
     15.079  0.5660E-01  0.9334E+00
     15.177  0.5777E-01  0.9391E+00
     15.274  0.6138E-01  0.9451E+00
     15.372  0.6348E-01  0.9513E+00
     15.470  0.6042E-01  0.9572E+00
     15.568  0.5414E-01  0.9625E+00
     15.666  0.4784E-01  0.9671E+00
     15.763  0.4056E-01  0.9711E+00
     15.861  0.3355E-01  0.9744E+00
     15.959  0.3068E-01  0.9774E+00
     16.057  0.3215E-01  0.9805E+00
     16.155  0.3484E-01  0.9839E+00
     16.252  0.3844E-01  0.9877E+00
     16.350  0.4644E-01  0.9922E+00
     16.448  0.5772E-01  0.9979E+00
     16.546  0.6559E-01  0.1004E+01
     16.643  0.6721E-01  0.1011E+01
     16.741  0.6307E-01  0.1017E+01
     16.839  0.5312E-01  0.1022E+01
     16.937  0.3989E-01  0.1026E+01
     17.035  0.2715E-01  0.1029E+01
     17.132  0.1765E-01  0.1031E+01
     17.230  0.1310E-01  0.1032E+01
     17.328  0.1263E-01  0.1033E+01
     17.426  0.1401E-01  0.1034E+01
     17.524  0.1689E-01  0.1036E+01
     17.621  0.2279E-01  0.1038E+01
     17.719  0.3164E-01  0.1041E+01
     17.817  0.3831E-01  0.1045E+01
     17.915  0.3693E-01  0.1049E+01
     18.012  0.2830E-01  0.1052E+01
     18.110  0.1814E-01  0.1053E+01
     18.208  0.1036E-01  0.1054E+01
     18.306  0.5465E-02  0.1055E+01
     18.404  0.2682E-02  0.1055E+01
     18.501  0.1628E-02  0.1055E+01
     18.599  0.2598E-02  0.1056E+01
     18.697  0.5748E-02  0.1056E+01
     18.795  0.9816E-02  0.1057E+01
     18.892  0.1253E-01  0.1058E+01
     18.990  0.1259E-01  0.1059E+01
     19.088  0.1014E-01  0.1060E+01
     19.186  0.6300E-02  0.1061E+01
     19.284  0.2957E-02  0.1061E+01
     19.381  0.1636E-02  0.1062E+01
     19.479  0.2604E-02  0.1062E+01
     19.577  0.4781E-02  0.1062E+01
     19.675  0.6038E-02  0.1063E+01
     19.773  0.5412E-02  0.1063E+01
     19.870  0.4303E-02  0.1064E+01
     19.968  0.3797E-02  0.1064E+01
     20.066  0.3537E-02  0.1065E+01
     20.164  0.3407E-02  0.1065E+01
     20.261  0.3305E-02  0.1065E+01
     20.359  0.2665E-02  0.1065E+01
     20.457  0.1757E-02  0.1066E+01
     20.555  0.1601E-02  0.1066E+01
     20.653  0.2353E-02  0.1066E+01
     20.750  0.2896E-02  0.1066E+01
     20.848  0.2340E-02  0.1067E+01
     20.946  0.1199E-02  0.1067E+01
     21.044  0.3883E-03  0.1067E+01
     21.142  0.7927E-04  0.1067E+01
     21.239  0.1019E-04  0.1067E+01
     21.337  0.8245E-06  0.1067E+01
     21.435  0.4190E-07  0.1067E+01
     21.533  0.1336E-08  0.1067E+01
     21.630  0.2667E-10  0.1067E+01
     21.728  0.3333E-12  0.1067E+01
     21.826  0.2603E-14  0.1067E+01
     21.924  0.1301E-16  0.1067E+01
     22.022  0.0000E+00  0.1067E+01
     22.119  0.0000E+00  0.1067E+01
     22.217  0.0000E+00  0.1067E+01
     22.315  0.0000E+00  0.1067E+01
     22.413  0.0000E+00  0.1067E+01
     22.511  0.0000E+00  0.1067E+01
     22.608  0.0000E+00  0.1067E+01
     22.706  0.0000E+00  0.1067E+01
