    2    2   15    1
  0.1578863E+02  0.3686617E-09  0.3686617E-09  0.3686617E-09  0.5000000E-15
  1.000000000000000E-004
  CAR 
 unknown system                          
      8     56      8
 
  0.6250000E-01  0.6250000E-01  0.6250000E-01  0.1562500E-01
    1       -4.220995   1.000000
    2        4.441458   1.000000
    3        6.706114   1.000000
    4        8.233963   0.999396
    5       11.861545   0.000000
    6       13.729254   0.000000
    7       14.295534   0.000000
    8       16.149886   0.000000
 
  0.1875000E+00  0.6250000E-01  0.6250000E-01  0.3125000E-01
    1       -3.003179   1.000000
    2        4.195867   1.000000
    3        7.005603   1.000000
    4        9.170402   0.000357
    5       10.830222   0.000000
    6       10.938607   0.000000
    7       13.695168   0.000000
    8       14.454198   0.000000
 
  0.3125000E+00  0.6250000E-01  0.6250000E-01  0.3125000E-01
    1       -1.003651   1.000000
    2        4.493426   1.000000
    3        5.566928   1.000000
    4        7.275562   1.000000
    5        8.628586   0.672479
    6       11.753823   0.000000
    7       13.213286   0.000000
    8       13.600808   0.000000
 
  0.4375000E+00  0.6250000E-01  0.6250000E-01  0.1562500E-01
    1        1.334516   1.000000
    2        2.247653   1.000000
    3        5.793703   1.000000
    4        6.182764   1.000000
    5        8.511874   0.898321
    6       10.587757   0.000000
    7       13.120079   0.000000
    8       14.061610   0.000000
 
 -0.6250000E-01  0.6250000E-01  0.6250000E-01  0.7812500E-02
    1       -4.629333   1.000000
    2        5.048773   1.000000
    3        5.899135   1.000000
    4        7.902539   1.000000
    5       10.992485   0.000000
    6       14.879057   0.000000
    7       17.355609   0.000000
    8       17.452220   0.000000
 
  0.1875000E+00  0.1875000E+00  0.6250000E-01  0.1562500E-01
    1       -1.186806   1.000000
    2        4.483127   1.000000
    3        6.451771   1.000000
    4        6.644787   1.000000
    5        9.597406   0.000000
    6       11.596666   0.000000
    7       12.890043   0.000000
    8       13.082136   0.000000
 
  0.3125000E+00  0.1875000E+00  0.6250000E-01  0.3125000E-01
    1        1.280321   1.000000
    2        2.978359   1.000000
    3        4.326621   1.000000
    4        5.802127   1.000000
    5        9.854256   0.000000
    6       11.589865   0.000000
    7       12.613901   0.000000
    8       14.655125   0.000000
 
  0.4375000E+00  0.1875000E+00  0.6250000E-01  0.3125000E-01
    1       -0.088289   1.000000
    2        2.749134   1.000000
    3        4.926798   1.000000
    4        7.279146   1.000000
    5        9.098468   0.002015
    6       11.759357   0.000000
    7       13.679600   0.000000
    8       14.567683   0.000000
 
 -0.4375000E+00  0.1875000E+00  0.6250000E-01  0.3125000E-01
    1       -2.254277   1.000000
    2        2.128344   1.000000
    3        7.550810   1.000000
    4        8.829553   0.164957
    5       10.359821   0.000000
    6       11.486340   0.000000
    7       12.695119   0.000000
    8       15.038973   0.000000
 
 -0.3125000E+00  0.1875000E+00  0.6250000E-01  0.1562500E-01
    1       -3.654319   1.000000
    2        2.217690   1.000000
    3        7.213425   1.000000
    4        9.157040   0.000501
    5       12.150145   0.000000
    6       13.663033   0.000000
    7       14.211922   0.000000
    8       14.843940   0.000000
 
 -0.1875000E+00  0.1875000E+00  0.6250000E-01  0.1562500E-01
    1       -4.250492   1.000000
    2        3.031705   1.000000
    3        6.016360   1.000000
    4        9.137887   0.000804
    5       12.804593   0.000000
    6       12.961089   0.000000
    7       15.889694   0.000000
    8       17.243469   0.000000
 
 -0.6250000E-01  0.1875000E+00  0.6250000E-01  0.1562500E-01
    1       -4.032053   1.000000
    2        4.160353   1.000000
    3        5.381378   1.000000
    4        9.719831   0.000000
    5       12.586586   0.000000
    6       12.716511   0.000000
    7       13.756793   0.000000
    8       15.741320   0.000000
 
  0.3125000E+00  0.3125000E+00  0.6250000E-01  0.1562500E-01
    1        1.141633   1.000000
    2        1.208120   1.000000
    3        4.734578   1.000000
    4        7.221812   1.000000
    5        9.838190   0.000000
    6       10.665725   0.000000
    7       14.709798   0.000000
    8       15.562291   0.000000
 
  0.4375000E+00  0.3125000E+00  0.6250000E-01  0.3125000E-01
    1       -1.139230   1.000000
    2        0.329680   1.000000
    3        8.078034   0.999993
    4        8.686967   0.513540
    5       10.008659   0.000000
    6       11.403045   0.000000
    7       12.504662   0.000000
    8       13.897294   0.000000
 
 -0.4375000E+00  0.3125000E+00  0.6250000E-01  0.1562500E-01
    1       -2.714789   1.000000
    2        0.242953   1.000000
    3        8.050467   0.999997
    4       10.121494   0.000000
    5       10.639598   0.000000
    6       12.725470   0.000000
    7       13.771866   0.000000
    8       13.858055   0.000000
 
 -0.3125000E+00  0.3125000E+00  0.6250000E-01  0.1562500E-01
    1       -3.495738   1.000000
    2        0.930342   1.000000
    3        6.701212   1.000000
    4       10.076354   0.000000
    5       10.829383   0.000000
    6       14.167700   0.000000
    7       15.866242   0.000000
    8       16.937936   0.000000
 
 -0.1875000E+00  0.3125000E+00  0.6250000E-01  0.3125000E-01
    1       -3.466727   1.000000
    2        2.342531   1.000000
    3        5.502777   1.000000
    4       10.672073   0.000000
    5       11.067271   0.000000
    6       12.975416   0.000000
    7       14.746997   0.000000
    8       15.656487   0.000000
 
 -0.6250000E-01  0.3125000E+00  0.6250000E-01  0.1562500E-01
    1       -2.629058   1.000000
    2        4.022482   1.000000
    3        5.388032   1.000000
    4        8.472311   0.939645
    5       11.105897   0.000000
    6       12.655389   0.000000
    7       13.320033   0.000000
    8       13.677865   0.000000
 
  0.4375000E+00  0.4375000E+00  0.6250000E-01  0.7812500E-02
    1       -1.410816   1.000000
    2       -1.410816   1.000000
    3        9.196187   0.000181
    4        9.196188   0.000181
    5       11.373250   0.000000
    6       11.373251   0.000000
    7       13.574197   0.000000
    8       13.574198   0.000000
 
 -0.4375000E+00  0.4375000E+00  0.6250000E-01  0.1562500E-01
    1       -2.371415   1.000000
    2       -0.888841   1.000000
    3        7.745453   1.000000
    4        9.128579   0.001005
    5       11.188711   0.000000
    6       12.562352   0.000000
    7       16.638882   0.000000
    8       16.737248   0.000000
 
 -0.3125000E+00  0.4375000E+00  0.6250000E-01  0.3125000E-01
    1       -2.529897   1.000000
    2        0.410596   1.000000
    3        6.337326   1.000000
    4        9.070535   0.003700
    5       11.421638   0.000000
    6       12.900271   0.000000
    7       14.842535   0.000000
    8       15.363163   0.000000
 
 -0.1875000E+00  0.4375000E+00  0.6250000E-01  0.3125000E-01
    1       -1.884430   1.000000
    2        2.413373   1.000000
    3        5.595658   1.000000
    4        7.833024   1.000000
    5        9.693310   0.000000
    6       12.513789   0.000000
    7       14.009792   0.000000
    8       15.349026   0.000000
 
 -0.6250000E-01  0.4375000E+00  0.6250000E-01  0.1562500E-01
    1       -0.457157   1.000000
    2        4.069048   1.000000
    3        5.216633   1.000000
    4        6.005829   1.000000
    5        9.160717   0.000457
    6       11.571210   0.000000
    7       11.891637   0.000000
    8       15.186753   0.000000
 
 -0.4375000E+00 -0.4375000E+00  0.6250000E-01  0.1562500E-01
    1       -1.234385   1.000000
    2       -1.227830   1.000000
    3        7.537332   1.000000
    4        7.550624   1.000000
    5       11.512370   0.000000
    6       13.408340   0.000000
    7       14.249426   0.000000
    8       14.848866   0.000000
 
 -0.3125000E+00 -0.4375000E+00  0.6250000E-01  0.3125000E-01
    1       -0.777779   1.000000
    2        0.673149   1.000000
    3        6.495692   1.000000
    4        7.412178   1.000000
    5        8.272494   0.998485
    6       12.165450   0.000000
    7       15.103934   0.000000
    8       16.411235   0.000000
 
 -0.1875000E+00 -0.4375000E+00  0.6250000E-01  0.3125000E-01
    1        0.441201   1.000000
    2        3.063833   1.000000
    3        4.225821   1.000000
    4        6.439854   1.000000
    5        8.670132   0.560798
    6       10.608070   0.000000
    7       13.110056   0.000000
    8       16.497224   0.000000
 
 -0.6250000E-01 -0.4375000E+00  0.6250000E-01  0.1562500E-01
    1        0.928331   1.000000
    2        2.654796   1.000000
    3        6.246331   1.000000
    4        6.976219   1.000000
    5        7.597997   1.000000
    6       10.203220   0.000000
    7       11.651073   0.000000
    8       15.399021   0.000000
 
 -0.3125000E+00 -0.3125000E+00  0.6250000E-01  0.1562500E-01
    1        1.577307   1.000000
    2        1.751658   1.000000
    3        3.926928   1.000000
    4        7.312365   1.000000
    5        7.720117   1.000000
    6       10.230715   0.000000
    7       14.962386   0.000000
    8       15.632695   0.000000
 
 -0.1875000E+00 -0.3125000E+00  0.6250000E-01  0.3125000E-01
    1        0.614624   1.000000
    2        3.654413   1.000000
    3        4.996761   1.000000
    4        7.172299   1.000000
    5        8.283284   0.998064
    6       10.093914   0.000000
    7       11.682472   0.000000
    8       14.089436   0.000000
 
 -0.6250000E-01 -0.3125000E+00  0.6250000E-01  0.1562500E-01
    1       -1.557334   1.000000
    2        5.840642   1.000000
    3        6.846578   1.000000
    4        7.217744   1.000000
    5        8.459083   0.950049
    6       10.933443   0.000000
    7       11.672035   0.000000
    8       13.337314   0.000000
 
 -0.1875000E+00 -0.1875000E+00  0.6250000E-01  0.1562500E-01
    1       -1.742567   1.000000
    2        6.470921   1.000000
    3        7.136446   1.000000
    4        7.431628   1.000000
    5        8.793951   0.234982
    6       10.458248   0.000000
    7       11.631885   0.000000
    8       11.855929   0.000000
 
 -0.6250000E-01 -0.1875000E+00  0.6250000E-01  0.1562500E-01
    1       -3.379133   1.000000
    2        6.158367   1.000000
    3        6.900906   1.000000
    4        8.756826   0.322748
    5       10.888126   0.000000
    6       11.319885   0.000000
    7       12.103710   0.000000
    8       13.848515   0.000000
 
 -0.6250000E-01 -0.6250000E-01  0.6250000E-01  0.3906250E-02
    1       -4.410376   1.000000
    2        6.536231   1.000000
    3        6.536232   1.000000
    4        6.816814   1.000000
    5       10.746451   0.000000
    6       14.525954   0.000000
    7       14.640516   0.000000
    8       16.520468   0.000000
 
  0.1875000E+00  0.1875000E+00  0.1875000E+00  0.1562500E-01
    1       -0.266959   1.000000
    2        2.606828   1.000000
    3        6.020195   1.000000
    4        6.109405   1.000000
    5       10.590350   0.000000
    6       12.437289   0.000000
    7       13.661942   0.000000
    8       14.103545   0.000000
 
  0.3125000E+00  0.1875000E+00  0.1875000E+00  0.1562500E-01
    1        2.041856   1.000000
    2        2.787189   1.000000
    3        3.816207   1.000000
    4        4.463887   1.000000
    5       11.516990   0.000000
    6       13.434596   0.000000
    7       13.744303   0.000000
    8       13.932709   0.000000
 
 -0.1875000E+00  0.1875000E+00  0.1875000E+00  0.7812500E-02
    1       -3.873447   1.000000
    2        2.855255   1.000000
    3        4.274886   1.000000
    4       10.681376   0.000000
    5       11.262977   0.000000
    6       14.035556   0.000000
    7       16.284008   0.000000
    8       16.804486   0.000000
 
  0.3125000E+00  0.3125000E+00  0.1875000E+00  0.7812500E-02
    1        1.005419   1.000000
    2        1.005419   1.000000
    3        5.899579   1.000000
    4        5.899579   1.000000
    5       11.841442   0.000000
    6       11.841444   0.000000
    7       13.650808   0.000000
    8       13.650813   0.000000
 
 -0.3125000E+00  0.3125000E+00  0.1875000E+00  0.1562500E-01
    1       -3.122751   1.000000
    2        1.220394   1.000000
    3        4.496166   1.000000
    4        8.650600   0.614513
    5       12.601475   0.000000
    6       15.513820   0.000000
    7       16.113364   0.000000
    8       16.895316   0.000000
 
 -0.1875000E+00  0.3125000E+00  0.1875000E+00  0.1562500E-01
    1       -2.905919   1.000000
    2        2.319244   1.000000
    3        3.828949   1.000000
    4        8.806484   0.208636
    5       11.405900   0.000000
    6       14.043585   0.000000
    7       16.054502   0.000000
    8       16.374702   0.000000
 
 -0.4375000E+00  0.4375000E+00  0.1875000E+00  0.1562500E-01
    1       -2.006368   1.000000
    2       -0.541372   1.000000
    3        5.506165   1.000000
    4        6.908569   1.000000
    5       13.648198   0.000000
    6       14.649263   0.000000
    7       16.210286   0.000000
    8       16.594101   0.000000
 
 -0.3125000E+00  0.4375000E+00  0.1875000E+00  0.3125000E-01
    1       -1.978473   1.000000
    2        0.876762   1.000000
    3        4.191739   1.000000
    4        6.932830   1.000000
    5       11.044226   0.000000
    6       15.358663   0.000000
    7       16.423986   0.000000
    8       17.873961   0.000000
 
 -0.1875000E+00  0.4375000E+00  0.1875000E+00  0.1562500E-01
    1       -1.150087   1.000000
    2        2.552436   1.000000
    3        4.104147   1.000000
    4        7.026965   1.000000
    5        7.934582   1.000000
    6       13.758978   0.000000
    7       15.167746   0.000000
    8       16.510148   0.000000
 
 -0.4375000E+00 -0.4375000E+00  0.1875000E+00  0.1562500E-01
    1       -0.707173   1.000000
    2       -0.693279   1.000000
    3        5.357322   1.000000
    4        5.379368   1.000000
    5       10.899424   0.000000
    6       16.028858   0.000000
    7       16.692253   0.000000
    8       17.008958   0.000000
 
 -0.3125000E+00 -0.4375000E+00  0.1875000E+00  0.3125000E-01
    1       -0.066716   1.000000
    2        1.314244   1.000000
    3        4.605044   1.000000
    4        5.871214   1.000000
    5        7.059595   1.000000
    6       13.942273   0.000000
    7       16.701115   0.000000
    8       17.746206   0.000000
 
 -0.1875000E+00 -0.4375000E+00  0.1875000E+00  0.1562500E-01
    1        1.288159   1.000000
    2        3.017933   1.000000
    3        4.179782   1.000000
    4        5.091047   1.000000
    5        7.283401   1.000000
    6       11.724203   0.000000
    7       13.048058   0.000000
    8       16.667944   0.000000
 
 -0.3125000E+00 -0.3125000E+00  0.1875000E+00  0.1562500E-01
    1        2.128367   1.000000
    2        2.595870   1.000000
    3        3.659918   1.000000
    4        5.783334   1.000000
    5        5.899166   1.000000
    6       11.970985   0.000000
    7       14.427275   0.000000
    8       15.239601   0.000000
 
 -0.1875000E+00 -0.3125000E+00  0.1875000E+00  0.1562500E-01
    1        0.266970   1.000000
    2        4.650469   1.000000
    3        5.580444   1.000000
    4        6.649121   1.000000
    5        7.449791   1.000000
    6       10.477506   0.000000
    7       11.533910   0.000000
    8       13.027939   0.000000
 
 -0.1875000E+00 -0.1875000E+00  0.1875000E+00  0.3906250E-02
    1       -1.928419   1.000000
    2        7.820289   1.000000
    3        7.820289   1.000000
    4        7.916181   1.000000
    5        8.135735   0.999958
    6        9.433783   0.000000
    7       11.351650   0.000000
    8       11.351652   0.000000
 
 -0.3125000E+00  0.3125000E+00  0.3125000E+00  0.7812500E-02
    1       -2.381848   1.000000
    2        1.363449   1.000000
    3        2.949228   1.000000
    4        6.584745   1.000000
    5       14.261216   0.000000
    6       15.143259   0.000000
    7       16.712069   0.000000
    8       18.128579   0.000000
 
 -0.4375000E+00  0.4375000E+00  0.3125000E+00  0.1562500E-01
    1       -1.287642   1.000000
    2        0.107927   1.000000
    3        3.471948   1.000000
    4        4.831311   1.000000
    5       14.592247   0.000000
    6       14.780127   0.000000
    7       17.692439   0.000000
    8       18.762584   0.000000
 
 -0.3125000E+00  0.4375000E+00  0.3125000E+00  0.1562500E-01
    1       -1.073711   1.000000
    2        1.196677   1.000000
    3        2.812313   1.000000
    4        5.029227   1.000000
    5       10.589975   0.000000
    6       17.523851   0.000000
    7       17.879375   0.000000
    8       18.893572   0.000000
 
 -0.4375000E+00 -0.4375000E+00  0.3125000E+00  0.1562500E-01
    1        0.120855   1.000000
    2        0.144965   1.000000
    3        3.494252   1.000000
    4        3.509036   1.000000
    5       10.429223   0.000000
    6       17.765224   0.000000
    7       19.044528   0.000000
    8       19.619785   0.000000
 
 -0.3125000E+00 -0.4375000E+00  0.3125000E+00  0.1562500E-01
    1        0.941263   1.000000
    2        1.809687   1.000000
    3        3.427939   1.000000
    4        4.266412   1.000000
    5        6.628706   1.000000
    6       15.614484   0.000000
    7       16.840106   0.000000
    8       18.021489   0.000000
 
 -0.3125000E+00 -0.3125000E+00  0.3125000E+00  0.3906250E-02
    1        2.344608   1.000000
    2        3.311867   1.000000
    3        4.057046   1.000000
    4        4.768535   1.000000
    5        4.768535   1.000000
    6       13.697875   0.000000
    7       14.245722   0.000000
    8       14.245728   0.000000
 
 -0.4375000E+00  0.4375000E+00  0.4375000E+00  0.7812500E-02
    1       -0.266141   1.000000
    2        0.609305   1.000000
    3        2.258828   1.000000
    4        3.122435   1.000000
    5       14.493167   0.000000
    6       14.531054   0.000000
    7       19.937546   0.000000
    8       20.706099   0.000000
 
 -0.4375000E+00 -0.4375000E+00  0.4375000E+00  0.3906250E-02
    1        0.800058   1.000000
    2        0.839157   1.000000
    3        2.466012   1.000000
    4        2.466012   1.000000
    5       10.265600   0.000000
    6       18.279012   0.000000
    7       20.217251   0.000000
    8       20.251916   0.000000
