 vasp.5.4.4.18Apr17-6-g9f103f2a35 (build Dec 09 2018 21:25:21) complex          
  
 executed on IFC18.0.1.163_CrayMP date 2019.03.23  21:11:33
 running on    8 total cores
 distrk:  each k-point on    8 cores,    1 groups
 distr:  one band on NCORES_PER_BAND=   1 cores,    8 groups


--------------------------------------------------------------------------------------------------------


 INCAR:
 POTCAR:   PAW_PBE Si 05Jan2001                   

 ----------------------------------------------------------------------------- 
|                                                                             |
|           W    W    AA    RRRRR   N    N  II  N    N   GGGG   !!!           |
|           W    W   A  A   R    R  NN   N  II  NN   N  G    G  !!!           |
|           W    W  A    A  R    R  N N  N  II  N N  N  G       !!!           |
|           W WW W  AAAAAA  RRRRR   N  N N  II  N  N N  G  GGG   !            |
|           WW  WW  A    A  R   R   N   NN  II  N   NN  G    G                |
|           W    W  A    A  R    R  N    N  II  N    N   GGGG   !!!           |
|                                                                             |
|      For optimal performance we recommend to set                            |
|        NCORE= 4 - approx SQRT( number of cores)                             |
|      NCORE specifies how many cores store one orbital (NPAR=cpu/NCORE).     |
|      This setting can  greatly improve the performance of VASP for DFT.     |
|      The default,   NCORE=1            might be grossly inefficient         |
|      on modern multi-core architectures or massively parallel machines.     |
|      Do your own testing !!!!                                               |
|      Unfortunately you need to use the default for GW and RPA calculations. |
|      (for HF NCORE is supported but not extensively tested yet)             |
|                                                                             |
 ----------------------------------------------------------------------------- 

 POTCAR:   PAW_PBE Si 05Jan2001                   
   VRHFIN =Si: s2p2                                                             
   LEXCH  = PE                                                                  
   EATOM  =   103.0669 eV,    7.5752 Ry                                         
                                                                                
   TITEL  = PAW_PBE Si 05Jan2001                                                
   LULTRA =        F    use ultrasoft PP ?                                      
   IUNSCR =        1    unscreen: 0-lin 1-nonlin 2-no                           
   RPACOR =    1.500    partial core radius                                     
   POMASS =   28.085; ZVAL   =    4.000    mass and valenz                      
   RCORE  =    1.900    outmost cutoff radius                                   
   RWIGS  =    2.480; RWIGS  =    1.312    wigner-seitz radius (au A)           
   ENMAX  =  245.345; ENMIN  =  184.009 eV                                      
   ICORE  =        2    local potential                                         
   LCOR   =        T    correct aug charges                                     
   LPAW   =        T    paw PP                                                  
   EAUG   =  322.069                                                            
   DEXC   =    -.007                                                            
   RMAX   =    2.944    core radius for proj-oper                               
   RAUG   =    1.300    factor for augmentation sphere                          
   RDEP   =    1.993    radius for radial grids                                 
   QCUT   =   -4.246; QGAM   =    8.493    optimization parameters              
                                                                                
   Description                                                                  
     l     E      TYP  RCUT    TYP  RCUT                                        
     0   .000     23  1.900                                                     
     0   .000     23  1.900                                                     
     1   .000     23  1.900                                                     
     1   .000     23  1.900                                                     
     2   .000      7  1.900                                                     
  local pseudopotential read in
  partial core-charges read in
  atomic valenz-charges read in
  non local Contribution for L=           0  read in
    real space projection operators read in
  non local Contribution for L=           0  read in
    real space projection operators read in
  non local Contribution for L=           1  read in
    real space projection operators read in
  non local Contribution for L=           1  read in
    real space projection operators read in
    PAW grid and wavefunctions read in
 
   number of l-projection  operators is LMAX  =           4
   number of lm-projection operators is LMMAX =           8
 
 PAW_PBE Si 05Jan2001                   :
 energy of atom  1       EATOM= -103.0669
 kinetic energy error for atom=    0.0013 (will be added to EATOM!!)
 
 
 POSCAR: Si2                                     
  positions in direct lattice
  No initial velocities read in
 exchange correlation table for  LEXCH =        8
   RHO(1)=    0.500       N(1)  =     2000
   RHO(2)=  100.500       N(2)  =     4000
 


--------------------------------------------------------------------------------------------------------


 ion  position               nearest neighbor table
   1  0.750  0.250  0.500-   2 2.52   2 2.52   2 2.52   2 2.52
   2  0.500  0.500  0.000-   1 2.52   1 2.52   1 2.52   1 2.52
 
  LATTYP: Found a body centered tetragonal cell.
 ALAT       =     4.8582340000
 C/A-ratio  =     0.5507684480
  
  Lattice vectors:
  
 A1 = (  -2.4291170000,   2.4291170000,   1.3378810000)
 A2 = (   2.4291170000,  -2.4291170000,   1.3378810000)
 A3 = (   2.4291170000,   2.4291170000,  -1.3378810000)


Analysis of symmetry for initial positions (statically):
=====================================================================
 Subroutine PRICEL returns:
 Original cell was already a primitive cell.
 

 Routine SETGRP: Setting up the symmetry group for a 
 body centered tetragonal supercell.


 Subroutine GETGRP returns: Found 16 space group operations
 (whereof  8 operations were pure point group operations)
 out of a pool of 16 trial point group operations.


The static configuration has the point symmetry D_2d.
 The point group associated with its full space group is D_4h.


Analysis of symmetry for dynamics (positions and initial velocities):
=====================================================================
 Subroutine PRICEL returns:
 Original cell was already a primitive cell.
 

 Routine SETGRP: Setting up the symmetry group for a 
 body centered tetragonal supercell.


 Subroutine GETGRP returns: Found 16 space group operations
 (whereof  8 operations were pure point group operations)
 out of a pool of 16 trial point group operations.


The dynamic configuration has the point symmetry D_2d.
 The point group associated with its full space group is D_4h.


 Subroutine INISYM returns: Found 16 space group operations
 (whereof  8 operations are pure point group operations),
 and found     1 'primitive' translations

 
 
 KPOINTS: Automatic kpoint scheme                 

Automatic generation of k-mesh.
Space group operators:
 irot       det(A)        alpha          n_x          n_y          n_z        tau_x        tau_y        tau_z
    1     1.000000     0.000000     1.000000     0.000000     0.000000     0.000000     0.000000     0.000000
    2    -1.000000    90.000000    -0.000000    -0.000000    -1.000000     0.000000     0.000000     0.000000
    3     1.000000   180.000000    -0.000000     0.000000     1.000000     0.000000     0.000000     0.000000
    4    -1.000000    90.000000     0.000000    -0.000000     1.000000     0.000000     0.000000     0.000000
    5    -1.000000   180.000000    -0.000000    -1.000000     0.000000     0.000000     0.000000     0.000000
    6     1.000000   180.000000     0.707107     0.707107     0.000000     0.000000     0.000000     0.000000
    7    -1.000000   180.000000     1.000000     0.000000     0.000000     0.000000     0.000000     0.000000
    8     1.000000   180.000000     0.707107    -0.707107    -0.000000     0.000000     0.000000     0.000000
    9    -1.000000     0.000000     1.000000     0.000000     0.000000     0.250000     0.750000     0.500000
   10     1.000000    90.000000    -0.000000    -0.000000    -1.000000     0.250000     0.750000     0.500000
   11    -1.000000   180.000000    -0.000000     0.000000     1.000000     0.250000     0.750000     0.500000
   12     1.000000    90.000000     0.000000    -0.000000     1.000000     0.250000     0.750000     0.500000
   13     1.000000   180.000000    -0.000000    -1.000000     0.000000     0.250000     0.750000     0.500000
   14    -1.000000   180.000000     0.707107     0.707107     0.000000     0.250000     0.750000     0.500000
   15     1.000000   180.000000     1.000000     0.000000     0.000000     0.250000     0.750000     0.500000
   16    -1.000000   180.000000     0.707107    -0.707107    -0.000000     0.250000     0.750000     0.500000
 
 Subroutine IBZKPT returns following result:
 ===========================================
 
 Found     56 irreducible k-points:
 
 Following reciprocal coordinates:
            Coordinates               Weight
  0.062500  0.062500  0.062500    128.000000
  0.187500  0.062500  0.062500    256.000000
  0.312500  0.062500  0.062500    256.000000
  0.437500  0.062500  0.062500    128.000000
 -0.062500  0.062500  0.062500     64.000000
  0.187500  0.187500  0.062500    128.000000
  0.312500  0.187500  0.062500    256.000000
  0.437500  0.187500  0.062500    256.000000
 -0.437500  0.187500  0.062500    256.000000
 -0.312500  0.187500  0.062500    128.000000
 -0.187500  0.187500  0.062500    128.000000
 -0.062500  0.187500  0.062500    128.000000
  0.312500  0.312500  0.062500    128.000000
  0.437500  0.312500  0.062500    256.000000
 -0.437500  0.312500  0.062500    128.000000
 -0.312500  0.312500  0.062500    128.000000
 -0.187500  0.312500  0.062500    256.000000
 -0.062500  0.312500  0.062500    128.000000
  0.437500  0.437500  0.062500     64.000000
 -0.437500  0.437500  0.062500    128.000000
 -0.312500  0.437500  0.062500    256.000000
 -0.187500  0.437500  0.062500    256.000000
 -0.062500  0.437500  0.062500    128.000000
 -0.437500 -0.437500  0.062500    128.000000
 -0.312500 -0.437500  0.062500    256.000000
 -0.187500 -0.437500  0.062500    256.000000
 -0.062500 -0.437500  0.062500    128.000000
 -0.312500 -0.312500  0.062500    128.000000
 -0.187500 -0.312500  0.062500    256.000000
 -0.062500 -0.312500  0.062500    128.000000
 -0.187500 -0.187500  0.062500    128.000000
 -0.062500 -0.187500  0.062500    128.000000
 -0.062500 -0.062500  0.062500     32.000000
  0.187500  0.187500  0.187500    128.000000
  0.312500  0.187500  0.187500    128.000000
 -0.187500  0.187500  0.187500     64.000000
  0.312500  0.312500  0.187500     64.000000
 -0.312500  0.312500  0.187500    128.000000
 -0.187500  0.312500  0.187500    128.000000
 -0.437500  0.437500  0.187500    128.000000
 -0.312500  0.437500  0.187500    256.000000
 -0.187500  0.437500  0.187500    128.000000
 -0.437500 -0.437500  0.187500    128.000000
 -0.312500 -0.437500  0.187500    256.000000
 -0.187500 -0.437500  0.187500    128.000000
 -0.312500 -0.312500  0.187500    128.000000
 -0.187500 -0.312500  0.187500    128.000000
 -0.187500 -0.187500  0.187500     32.000000
 -0.312500  0.312500  0.312500     64.000000
 -0.437500  0.437500  0.312500    128.000000
 -0.312500  0.437500  0.312500    128.000000
 -0.437500 -0.437500  0.312500    128.000000
 -0.312500 -0.437500  0.312500    128.000000
 -0.312500 -0.312500  0.312500     32.000000
 -0.437500  0.437500  0.437500     64.000000
 -0.437500 -0.437500  0.437500     32.000000
 
 Following cartesian coordinates:
            Coordinates               Weight
  0.025730  0.025730  0.046716    128.000000
  0.025730  0.051459  0.093431    256.000000
  0.025730  0.077189  0.140147    256.000000
  0.025730  0.102918  0.186863    128.000000
  0.025730  0.000000  0.000000     64.000000
  0.051459  0.051459  0.140147    128.000000
  0.051459  0.077189  0.186863    256.000000
  0.051459  0.102918  0.233578    256.000000
  0.051459 -0.077189 -0.093431    256.000000
  0.051459 -0.051459 -0.046716    128.000000
  0.051459 -0.025730  0.000000    128.000000
  0.051459  0.000000  0.046716    128.000000
  0.077189  0.077189  0.233578    128.000000
  0.077189  0.102918  0.280294    256.000000
  0.077189 -0.077189 -0.046716    128.000000
  0.077189 -0.051459  0.000000    128.000000
  0.077189 -0.025730  0.046716    256.000000
  0.077189  0.000000  0.093431    128.000000
  0.102918  0.102918  0.327010     64.000000
  0.102918 -0.077189  0.000000    128.000000
  0.102918 -0.051459  0.046716    256.000000
  0.102918 -0.025730  0.093431    256.000000
  0.102918  0.000000  0.140147    128.000000
 -0.077189 -0.077189 -0.327010    128.000000
 -0.077189 -0.051459 -0.280294    256.000000
 -0.077189 -0.025730 -0.233578    256.000000
 -0.077189 -0.000000 -0.186863    128.000000
 -0.051459 -0.051459 -0.233578    128.000000
 -0.051459 -0.025730 -0.186863    256.000000
 -0.051459 -0.000000 -0.140147    128.000000
 -0.025730 -0.025730 -0.140147    128.000000
 -0.025730  0.000000 -0.093431    128.000000
 -0.000000  0.000000 -0.046716     32.000000
  0.077189  0.077189  0.140147    128.000000
  0.077189  0.102918  0.186863    128.000000
  0.077189  0.000000  0.000000     64.000000
  0.102918  0.102918  0.233578     64.000000
  0.102918 -0.025730  0.000000    128.000000
  0.102918  0.000000  0.046716    128.000000
  0.128648 -0.051459  0.000000    128.000000
  0.128648 -0.025730  0.046716    256.000000
  0.128648  0.000000  0.093431    128.000000
 -0.051459 -0.051459 -0.327010    128.000000
 -0.051459 -0.025730 -0.280294    256.000000
 -0.051459 -0.000000 -0.233578    128.000000
 -0.025730 -0.025730 -0.233578    128.000000
 -0.025730  0.000000 -0.186863    128.000000
  0.000000  0.000000 -0.140147     32.000000
  0.128648  0.000000  0.000000     64.000000
  0.154377 -0.025730  0.000000    128.000000
  0.154377  0.000000  0.046716    128.000000
 -0.025730 -0.025730 -0.327010    128.000000
 -0.025730  0.000000 -0.280294    128.000000
 -0.000000  0.000000 -0.233578     32.000000
  0.180107  0.000000  0.000000     64.000000
  0.000000 -0.000000 -0.327010     32.000000
 


--------------------------------------------------------------------------------------------------------




 Dimension of arrays:
   k-points           NKPTS =     56   k-points in BZ     NKDIM =     56   number of bands    NBANDS=      8
   number of dos      NEDOS =    301   number of ions     NIONS =      2
   non local maximal  LDIM  =      4   non local SUM 2l+1 LMDIM =      8
   total plane-waves  NPLWV =   5832
   max r-space proj   IRMAX =      1   max aug-charges    IRDMAX=   6374
   dimension x,y,z NGX =    18 NGY =   18 NGZ =   18
   dimension x,y,z NGXF=    36 NGYF=   36 NGZF=   36
   support grid    NGXF=    36 NGYF=   36 NGZF=   36
   ions per type =               2
   NGX,Y,Z   is equivalent  to a cutoff of   8.12,  8.12,  8.12 a.u.
   NGXF,Y,Z  is equivalent  to a cutoff of  16.23, 16.23, 16.23 a.u.

 SYSTEM =  unknown system                          
 POSCAR =  Si2                                     

 Startparameter for this run:
   NWRITE =      2    write-flag & timer
   PREC   = normal    normal or accurate (medium, high low for compatibility)
   ISTART =      0    job   : 0-new  1-cont  2-samecut
   ICHARG =      2    charge: 1-file 2-atom 10-const
   ISPIN  =      1    spin polarized calculation?
   LNONCOLLINEAR =      F non collinear calculations
   LSORBIT =      F    spin-orbit coupling
   INIWAV =      1    electr: 0-lowe 1-rand  2-diag
   LASPH  =      F    aspherical Exc in radial PAW
   METAGGA=      F    non-selfconsistent MetaGGA calc.

 Electronic Relaxation 1
   ENCUT  =  350.0 eV  25.72 Ry    5.07 a.u.   5.62  5.62  5.62*2*pi/ulx,y,z
   ENINI  =  350.0     initial cutoff
   ENAUG  =  322.1 eV  augmentation charge cutoff
   NELM   =     60;   NELMIN=  2; NELMDL= -5     # of ELM steps 
   EDIFF  = 0.4E-03   stopping-criterion for ELM
   LREAL  =      F    real-space projection
   NLSPLINE    = F    spline interpolate recip. space projectors
   LCOMPAT=      F    compatible to vasp.4.4
   GGA_COMPAT  = T    GGA compatible to vasp.4.4-vasp.4.6
   LMAXPAW     = -100 max onsite density
   LMAXMIX     =    2 max onsite mixed and CHGCAR
   VOSKOWN=      0    Vosko Wilk Nusair interpolation
   ROPT   =    0.00000
 Ionic relaxation
   EDIFFG = -.1E-01   stopping-criterion for IOM
   NSW    =     15    number of steps for IOM
   NBLOCK =      1;   KBLOCK =     15    inner block; outer block 
   IBRION =      2    ionic relax: 0-MD 1-quasi-New 2-CG
   NFREE  =      1    steps in history (QN), initial steepest desc. (CG)
   ISIF   =      2    stress and relaxation
   IWAVPR =     11    prediction:  0-non 1-charg 2-wave 3-comb
   ISYM   =      2    0-nonsym 1-usesym 2-fastsym
   LCORR  =      T    Harris-Foulkes like correction to forces

   POTIM  = 0.5000    time-step for ionic-motion
   TEIN   =    0.0    initial temperature
   TEBEG  =    0.0;   TEEND  =   0.0 temperature during run
   SMASS  =  -3.00    Nose mass-parameter (am)
   estimated Nose-frequenzy (Omega)   =  0.10E-29 period in steps =****** mass=  -0.311E-27a.u.
   SCALEE = 1.0000    scale energy and forces
   NPACO  =    256;   APACO  = 16.0  distance and # of slots for P.C.
   PSTRESS=    0.0 pullay stress

  Mass of Ions in am
   POMASS =  28.09
  Ionic Valenz
   ZVAL   =   4.00
  Atomic Wigner-Seitz radii
   RWIGS  =  -1.00
  virtual crystal weights 
   VCA    =   1.00
   NELECT =       8.0000    total number of electrons
   NUPDOWN=      -1.0000    fix difference up-down

 DOS related values:
   EMIN   =  10.00;   EMAX   =-10.00  energy-range for DOS
   EFERMI =   0.00
   ISMEAR =     0;   SIGMA  =   0.20  broadening in eV -4-tet -1-fermi 0-gaus

 Electronic relaxation 2 (details)
   IALGO  =     38    algorithm
   LDIAG  =      T    sub-space diagonalisation (order eigenvalues)
   LSUBROT=      F    optimize rotation matrix (better conditioning)
   TURBO    =      0    0=normal 1=particle mesh
   IRESTART =      0    0=no restart 2=restart with 2 vectors
   NREBOOT  =      0    no. of reboots
   NMIN     =      0    reboot dimension
   EREF     =   0.00    reference energy to select bands
   IMIX   =      4    mixing-type and parameters
     AMIX     =   0.40;   BMIX     =  1.00
     AMIX_MAG =   1.60;   BMIX_MAG =  1.00
     AMIN     =   0.10
     WC   =   100.;   INIMIX=   1;  MIXPRE=   1;  MAXMIX= -45

 Intra band minimization:
   WEIMIN = 0.0010     energy-eigenvalue tresh-hold
   EBREAK =  0.13E-04  absolut break condition
   DEPER  =   0.30     relativ break condition  

   TIME   =   0.40     timestep for ELM

  volume/ion in A,a.u.               =      15.79       106.55
  Fermi-wavevector in a.u.,A,eV,Ry     =   1.035889  1.957547 14.599960  1.073067
  Thomas-Fermi vector in A             =   2.170254
 
 Write flags
   LWAVE        =      T    write WAVECAR
   LDOWNSAMPLE  =      F    k-point downsampling of WAVECAR
   LCHARG       =      T    write CHGCAR
   LVTOT        =      F    write LOCPOT, total local potential
   LVHAR        =      F    write LOCPOT, Hartree potential only
   LELF         =      F    write electronic localiz. function (ELF)
   LORBIT       =      0    0 simple, 1 ext, 2 COOP (PROOUT), +10 PAW based schemes


 Dipole corrections
   LMONO  =      F    monopole corrections only (constant potential shift)
   LDIPOL =      F    correct potential (dipole corrections)
   IDIPOL =      0    1-x, 2-y, 3-z, 4-all directions 
   EPSILON=  1.0000000 bulk dielectric constant

 Exchange correlation treatment:
   GGA     =    --    GGA type
   LEXCH   =     8    internal setting for exchange type
   VOSKOWN=      0    Vosko Wilk Nusair interpolation
   LHFCALC =     F    Hartree Fock is set to
   LHFONE  =     F    Hartree Fock one center treatment
   AEXX    =    0.0000 exact exchange contribution

 Linear response parameters
   LEPSILON=     F    determine dielectric tensor
   LRPA    =     F    only Hartree local field effects (RPA)
   LNABLA  =     F    use nabla operator in PAW spheres
   LVEL    =     F    velocity operator in full k-point grid
   LINTERFAST=   F  fast interpolation
   KINTER  =     0    interpolate to denser k-point grid
   CSHIFT  =0.1000    complex shift for real part using Kramers Kronig
   OMEGAMAX=  -1.0    maximum frequency
   DEG_THRESHOLD= 0.2000000E-02 threshold for treating states as degnerate
   RTIME   =   -0.100 relaxation time in fs
  (WPLASMAI=    0.000 imaginary part of plasma frequency in eV, 0.658/RTIME)
   DFIELD  = 0.0000000 0.0000000 0.0000000 field for delta impulse in time
 
 Orbital magnetization related:
   ORBITALMAG=     F  switch on orbital magnetization
   LCHIMAG   =     F  perturbation theory with respect to B field
   DQ        =  0.001000  dq finite difference perturbation B field
   LLRAUG    =     F  two centre corrections for induced B field



--------------------------------------------------------------------------------------------------------


 conjugate gradient relaxation of ions
 charge density and potential will be updated during run
 non-spin polarized calculation
 Variant of blocked Davidson
 Davidson routine will perform the subspace rotation
 perform sub-space diagonalisation
    after iterative eigenvector-optimisation
 modified Broyden-mixing scheme, WC =      100.0
 initial mixing is a Kerker type mixing with AMIX =  0.4000 and BMIX =      1.0000
 Hartree-type preconditioning will be used
 using additional bands            4
 reciprocal scheme for non local part
 use partial core corrections
 calculate Harris-corrections to forces 
   (improved forces if not selfconsistent)
 use gradient corrections 
 use of overlap-Matrix (Vanderbilt PP)
 Gauss-broadening in eV      SIGMA  =   0.20


--------------------------------------------------------------------------------------------------------


  energy-cutoff  :      350.00
  volume of cell :       31.58
      direct lattice vectors                 reciprocal lattice vectors
    -2.429117000  2.429117000  1.337881000     0.000000000  0.205836112  0.373725316
     2.429117000 -2.429117000  1.337881000     0.205836112  0.000000000  0.373725316
     2.429117000  2.429117000 -1.337881000     0.205836112  0.205836112 -0.000000000

  length of vectors
     3.686616927  3.686616927  3.686616927     0.426660424  0.426660424  0.291096222


 
 k-points in units of 2pi/SCALE and weight: Automatic kpoint scheme                 
   0.02572951  0.02572951  0.04671566       0.016
   0.02572951  0.05145903  0.09343133       0.031
   0.02572951  0.07718854  0.14014699       0.031
   0.02572951  0.10291806  0.18686266       0.016
   0.02572951  0.00000000 -0.00000000       0.008
   0.05145903  0.05145903  0.14014699       0.016
   0.05145903  0.07718854  0.18686266       0.031
   0.05145903  0.10291806  0.23357832       0.031
   0.05145903 -0.07718854 -0.09343133       0.031
   0.05145903 -0.05145903 -0.04671566       0.016
   0.05145903 -0.02572951 -0.00000000       0.016
   0.05145903  0.00000000  0.04671566       0.016
   0.07718854  0.07718854  0.23357832       0.016
   0.07718854  0.10291806  0.28029399       0.031
   0.07718854 -0.07718854 -0.04671566       0.016
   0.07718854 -0.05145903 -0.00000000       0.016
   0.07718854 -0.02572951  0.04671566       0.031
   0.07718854  0.00000000  0.09343133       0.016
   0.10291806  0.10291806  0.32700965       0.008
   0.10291806 -0.07718854  0.00000000       0.016
   0.10291806 -0.05145903  0.04671566       0.031
   0.10291806 -0.02572951  0.09343133       0.031
   0.10291806  0.00000000  0.14014699       0.016
  -0.07718854 -0.07718854 -0.32700965       0.016
  -0.07718854 -0.05145903 -0.28029399       0.031
  -0.07718854 -0.02572951 -0.23357832       0.031
  -0.07718854 -0.00000000 -0.18686266       0.016
  -0.05145903 -0.05145903 -0.23357832       0.016
  -0.05145903 -0.02572951 -0.18686266       0.031
  -0.05145903 -0.00000000 -0.14014699       0.016
  -0.02572951 -0.02572951 -0.14014699       0.016
  -0.02572951 -0.00000000 -0.09343133       0.016
   0.00000000  0.00000000 -0.04671566       0.004
   0.07718854  0.07718854  0.14014699       0.016
   0.07718854  0.10291806  0.18686266       0.016
   0.07718854  0.00000000 -0.00000000       0.008
   0.10291806  0.10291806  0.23357832       0.008
   0.10291806 -0.02572951 -0.00000000       0.016
   0.10291806 -0.00000000  0.04671566       0.016
   0.12864757 -0.05145903  0.00000000       0.016
   0.12864757 -0.02572951  0.04671566       0.031
   0.12864757  0.00000000  0.09343133       0.016
  -0.05145903 -0.05145903 -0.32700965       0.016
  -0.05145903 -0.02572951 -0.28029399       0.031
  -0.05145903 -0.00000000 -0.23357832       0.016
  -0.02572951 -0.02572951 -0.23357832       0.016
  -0.02572951 -0.00000000 -0.18686266       0.016
  -0.00000000 -0.00000000 -0.14014699       0.004
   0.12864757  0.00000000 -0.00000000       0.008
   0.15437708 -0.02572951  0.00000000       0.016
   0.15437708 -0.00000000  0.04671566       0.016
  -0.02572951 -0.02572951 -0.32700965       0.016
  -0.02572951  0.00000000 -0.28029399       0.016
   0.00000000  0.00000000 -0.23357832       0.004
   0.18010660  0.00000000 -0.00000000       0.008
   0.00000000 -0.00000000 -0.32700965       0.004
 
 k-points in reciprocal lattice and weights: Automatic kpoint scheme                 
   0.06250000  0.06250000  0.06250000       0.016
   0.18750000  0.06250000  0.06250000       0.031
   0.31250000  0.06250000  0.06250000       0.031
   0.43750000  0.06250000  0.06250000       0.016
  -0.06250000  0.06250000  0.06250000       0.008
   0.18750000  0.18750000  0.06250000       0.016
   0.31250000  0.18750000  0.06250000       0.031
   0.43750000  0.18750000  0.06250000       0.031
  -0.43750000  0.18750000  0.06250000       0.031
  -0.31250000  0.18750000  0.06250000       0.016
  -0.18750000  0.18750000  0.06250000       0.016
  -0.06250000  0.18750000  0.06250000       0.016
   0.31250000  0.31250000  0.06250000       0.016
   0.43750000  0.31250000  0.06250000       0.031
  -0.43750000  0.31250000  0.06250000       0.016
  -0.31250000  0.31250000  0.06250000       0.016
  -0.18750000  0.31250000  0.06250000       0.031
  -0.06250000  0.31250000  0.06250000       0.016
   0.43750000  0.43750000  0.06250000       0.008
  -0.43750000  0.43750000  0.06250000       0.016
  -0.31250000  0.43750000  0.06250000       0.031
  -0.18750000  0.43750000  0.06250000       0.031
  -0.06250000  0.43750000  0.06250000       0.016
  -0.43750000 -0.43750000  0.06250000       0.016
  -0.31250000 -0.43750000  0.06250000       0.031
  -0.18750000 -0.43750000  0.06250000       0.031
  -0.06250000 -0.43750000  0.06250000       0.016
  -0.31250000 -0.31250000  0.06250000       0.016
  -0.18750000 -0.31250000  0.06250000       0.031
  -0.06250000 -0.31250000  0.06250000       0.016
  -0.18750000 -0.18750000  0.06250000       0.016
  -0.06250000 -0.18750000  0.06250000       0.016
  -0.06250000 -0.06250000  0.06250000       0.004
   0.18750000  0.18750000  0.18750000       0.016
   0.31250000  0.18750000  0.18750000       0.016
  -0.18750000  0.18750000  0.18750000       0.008
   0.31250000  0.31250000  0.18750000       0.008
  -0.31250000  0.31250000  0.18750000       0.016
  -0.18750000  0.31250000  0.18750000       0.016
  -0.43750000  0.43750000  0.18750000       0.016
  -0.31250000  0.43750000  0.18750000       0.031
  -0.18750000  0.43750000  0.18750000       0.016
  -0.43750000 -0.43750000  0.18750000       0.016
  -0.31250000 -0.43750000  0.18750000       0.031
  -0.18750000 -0.43750000  0.18750000       0.016
  -0.31250000 -0.31250000  0.18750000       0.016
  -0.18750000 -0.31250000  0.18750000       0.016
  -0.18750000 -0.18750000  0.18750000       0.004
  -0.31250000  0.31250000  0.31250000       0.008
  -0.43750000  0.43750000  0.31250000       0.016
  -0.31250000  0.43750000  0.31250000       0.016
  -0.43750000 -0.43750000  0.31250000       0.016
  -0.31250000 -0.43750000  0.31250000       0.016
  -0.31250000 -0.31250000  0.31250000       0.004
  -0.43750000  0.43750000  0.43750000       0.008
  -0.43750000 -0.43750000  0.43750000       0.004
 
 position of ions in fractional coordinates (direct lattice) 
   0.75000000  0.25000000  0.50000000
   0.50000000  0.50000000  0.00000000
 
 position of ions in cartesian coordinates  (Angst):
   0.00000000  2.42911700  0.66894050
   0.00000000  0.00000000  1.33788100
 


--------------------------------------------------------------------------------------------------------


 k-point  1 :   0.0625 0.0625 0.0625  plane waves:     472
 k-point  2 :   0.1875 0.0625 0.0625  plane waves:     476
 k-point  3 :   0.3125 0.0625 0.0625  plane waves:     473
 k-point  4 :   0.4375 0.0625 0.0625  plane waves:     474
 k-point  5 :  -0.0625 0.0625 0.0625  plane waves:     475
 k-point  6 :   0.1875 0.1875 0.0625  plane waves:     478
 k-point  7 :   0.3125 0.1875 0.0625  plane waves:     476
 k-point  8 :   0.4375 0.1875 0.0625  plane waves:     477
 k-point  9 :  -0.4375 0.1875 0.0625  plane waves:     472
 k-point 10 :  -0.3125 0.1875 0.0625  plane waves:     475
 k-point 11 :  -0.1875 0.1875 0.0625  plane waves:     467
 k-point 12 :  -0.0625 0.1875 0.0625  plane waves:     475
 k-point 13 :   0.3125 0.3125 0.0625  plane waves:     466
 k-point 14 :   0.4375 0.3125 0.0625  plane waves:     469
 k-point 15 :  -0.4375 0.3125 0.0625  plane waves:     465
 k-point 16 :  -0.3125 0.3125 0.0625  plane waves:     469
 k-point 17 :  -0.1875 0.3125 0.0625  plane waves:     466
 k-point 18 :  -0.0625 0.3125 0.0625  plane waves:     471
 k-point 19 :   0.4375 0.4375 0.0625  plane waves:     470
 k-point 20 :  -0.4375 0.4375 0.0625  plane waves:     459
 k-point 21 :  -0.3125 0.4375 0.0625  plane waves:     463
 k-point 22 :  -0.1875 0.4375 0.0625  plane waves:     467
 k-point 23 :  -0.0625 0.4375 0.0625  plane waves:     471
 k-point 24 :  -0.4375-0.4375 0.0625  plane waves:     462
 k-point 25 :  -0.3125-0.4375 0.0625  plane waves:     470
 k-point 26 :  -0.1875-0.4375 0.0625  plane waves:     471
 k-point 27 :  -0.0625-0.4375 0.0625  plane waves:     466
 k-point 28 :  -0.3125-0.3125 0.0625  plane waves:     470
 k-point 29 :  -0.1875-0.3125 0.0625  plane waves:     471
 k-point 30 :  -0.0625-0.3125 0.0625  plane waves:     476
 k-point 31 :  -0.1875-0.1875 0.0625  plane waves:     478
 k-point 32 :  -0.0625-0.1875 0.0625  plane waves:     477
 k-point 33 :  -0.0625-0.0625 0.0625  plane waves:     472
 k-point 34 :   0.1875 0.1875 0.1875  plane waves:     475
 k-point 35 :   0.3125 0.1875 0.1875  plane waves:     478
 k-point 36 :  -0.1875 0.1875 0.1875  plane waves:     465
 k-point 37 :   0.3125 0.3125 0.1875  plane waves:     462
 k-point 38 :  -0.3125 0.3125 0.1875  plane waves:     464
 k-point 39 :  -0.1875 0.3125 0.1875  plane waves:     466
 k-point 40 :  -0.4375 0.4375 0.1875  plane waves:     468
 k-point 41 :  -0.3125 0.4375 0.1875  plane waves:     465
 k-point 42 :  -0.1875 0.4375 0.1875  plane waves:     472
 k-point 43 :  -0.4375-0.4375 0.1875  plane waves:     454
 k-point 44 :  -0.3125-0.4375 0.1875  plane waves:     468
 k-point 45 :  -0.1875-0.4375 0.1875  plane waves:     464
 k-point 46 :  -0.3125-0.3125 0.1875  plane waves:     469
 k-point 47 :  -0.1875-0.3125 0.1875  plane waves:     471
 k-point 48 :  -0.1875-0.1875 0.1875  plane waves:     488
 k-point 49 :  -0.3125 0.3125 0.3125  plane waves:     466
 k-point 50 :  -0.4375 0.4375 0.3125  plane waves:     465
 k-point 51 :  -0.3125 0.4375 0.3125  plane waves:     466
 k-point 52 :  -0.4375-0.4375 0.3125  plane waves:     472
 k-point 53 :  -0.3125-0.4375 0.3125  plane waves:     469
 k-point 54 :  -0.3125-0.3125 0.3125  plane waves:     464
 k-point 55 :  -0.4375 0.4375 0.4375  plane waves:     468
 k-point 56 :  -0.4375-0.4375 0.4375  plane waves:     480

 maximum and minimum number of plane-waves per node :       488      454

 maximum number of plane-waves:       488
 maximum index in each direction: 
   IXMAX=    6   IYMAX=    6   IZMAX=    5
   IXMIN=   -6   IYMIN=   -6   IZMIN=   -6


 serial   3D FFT for wavefunctions
 parallel 3D FFT for charge:
    minimum data exchange during FFTs selected (reduces bandwidth)


 total amount of memory used by VASP MPI-rank0    33029. kBytes
=======================================================================

   base      :      30000. kBytes
   nonl-proj :       1764. kBytes
   fftplans  :        247. kBytes
   grid      :        561. kBytes
   one-center:          6. kBytes
   wavefun   :        451. kBytes
 
     INWAV:  cpu time    0.0000: real time    0.0004
 Broyden mixing: mesh for mixing (old mesh)
   NGX = 11   NGY = 11   NGZ = 11
  (NGX  = 36   NGY  = 36   NGZ  = 36)
  gives a total of   1331 points

 initial charge density was supplied:
 charge density of overlapping atoms calculated
 number of electron       8.0000000 magnetization 
 keeping initial charge density in first step


--------------------------------------------------------------------------------------------------------


 Maximum index for augmentation-charges          879 (set IRDMAX)


--------------------------------------------------------------------------------------------------------


 First call to EWALD:  gamma=   0.561
 Maximum number of real-space cells 4x 4x 3
 Maximum number of reciprocal cells 3x 3x 3

    FEWALD:  cpu time    0.0080: real time    0.0074


--------------------------------------- Iteration      1(   1)  ---------------------------------------


    POTLOK:  cpu time    0.0360: real time    0.0467
    SETDIJ:  cpu time    0.0080: real time    0.0092
     EDDAV:  cpu time    0.7240: real time    0.7285
       DOS:  cpu time    0.0040: real time    0.0034
    --------------------------------------------
      LOOP:  cpu time    0.7720: real time    0.7885

 eigenvalue-minimisations  :   912
 total energy-change (2. order) : 0.6405134E+00  (-0.2642198E+03)
 number of electron       8.0000000 magnetization 
 augmentation part        8.0000000 magnetization 

 Free energy of the ion-electron system (eV)
  ---------------------------------------------------
  alpha Z        PSCENC =         4.26421875
  Ewald energy   TEWEN  =      -262.49331928
  -Hartree energ DENC   =        -2.43485351
  -exchange      EXHF   =         0.00000000
  -V(xc)+E(xc)   XCENC  =       -17.97856137
  PAW double counting   =        65.95520812      -30.76852678
  entropy T*S    EENTRO =        -0.00672545
  eigenvalues    EBANDS =        37.97181878
  atomic energy  EATOM  =       206.13125414
  Solvation  Ediel_sol  =         0.00000000
  ---------------------------------------------------
  free energy    TOTEN  =         0.64051340 eV

  energy without entropy =        0.64723885  energy(sigma->0) =        0.64387613


--------------------------------------------------------------------------------------------------------




--------------------------------------- Iteration      1(   2)  ---------------------------------------


     EDDAV:  cpu time    1.0360: real time    1.0468
       DOS:  cpu time    0.0040: real time    0.0030
    --------------------------------------------
      LOOP:  cpu time    1.0400: real time    1.0499

 eigenvalue-minimisations  :  1336
 total energy-change (2. order) :-0.1075747E+02  (-0.1025006E+02)
 number of electron       8.0000000 magnetization 
 augmentation part        8.0000000 magnetization 

 Free energy of the ion-electron system (eV)
  ---------------------------------------------------
  alpha Z        PSCENC =         4.26421875
  Ewald energy   TEWEN  =      -262.49331928
  -Hartree energ DENC   =        -2.43485351
  -exchange      EXHF   =         0.00000000
  -V(xc)+E(xc)   XCENC  =       -17.97856137
  PAW double counting   =        65.95520812      -30.76852678
  entropy T*S    EENTRO =        -0.02127675
  eigenvalues    EBANDS =        27.22890297
  atomic energy  EATOM  =       206.13125414
  Solvation  Ediel_sol  =         0.00000000
  ---------------------------------------------------
  free energy    TOTEN  =       -10.11695371 eV

  energy without entropy =      -10.09567696  energy(sigma->0) =      -10.10631534


--------------------------------------------------------------------------------------------------------




--------------------------------------- Iteration      1(   3)  ---------------------------------------


     EDDAV:  cpu time    0.6440: real time    0.6572
       DOS:  cpu time    0.0040: real time    0.0034
    --------------------------------------------
      LOOP:  cpu time    0.6480: real time    0.6611

 eigenvalue-minimisations  :  1192
 total energy-change (2. order) :-0.1512297E+00  (-0.1447635E+00)
 number of electron       8.0000000 magnetization 
 augmentation part        8.0000000 magnetization 

 Free energy of the ion-electron system (eV)
  ---------------------------------------------------
  alpha Z        PSCENC =         4.26421875
  Ewald energy   TEWEN  =      -262.49331928
  -Hartree energ DENC   =        -2.43485351
  -exchange      EXHF   =         0.00000000
  -V(xc)+E(xc)   XCENC  =       -17.97856137
  PAW double counting   =        65.95520812      -30.76852678
  entropy T*S    EENTRO =        -0.02033344
  eigenvalues    EBANDS =        27.07672992
  atomic energy  EATOM  =       206.13125414
  Solvation  Ediel_sol  =         0.00000000
  ---------------------------------------------------
  free energy    TOTEN  =       -10.26818346 eV

  energy without entropy =      -10.24785002  energy(sigma->0) =      -10.25801674


--------------------------------------------------------------------------------------------------------




--------------------------------------- Iteration      1(   4)  ---------------------------------------


     EDDAV:  cpu time    0.4160: real time    0.4365
       DOS:  cpu time    0.0040: real time    0.0056
    --------------------------------------------
      LOOP:  cpu time    0.4200: real time    0.4417

 eigenvalue-minimisations  :  1336
 total energy-change (2. order) :-0.5661654E-03  (-0.5657285E-03)
 number of electron       8.0000000 magnetization 
 augmentation part        8.0000000 magnetization 

 Free energy of the ion-electron system (eV)
  ---------------------------------------------------
  alpha Z        PSCENC =         4.26421875
  Ewald energy   TEWEN  =      -262.49331928
  -Hartree energ DENC   =        -2.43485351
  -exchange      EXHF   =         0.00000000
  -V(xc)+E(xc)   XCENC  =       -17.97856137
  PAW double counting   =        65.95520812      -30.76852678
  entropy T*S    EENTRO =        -0.02030136
  eigenvalues    EBANDS =        27.07613167
  atomic energy  EATOM  =       206.13125414
  Solvation  Ediel_sol  =         0.00000000
  ---------------------------------------------------
  free energy    TOTEN  =       -10.26874962 eV

  energy without entropy =      -10.24844826  energy(sigma->0) =      -10.25859894


--------------------------------------------------------------------------------------------------------




--------------------------------------- Iteration      1(   5)  ---------------------------------------


     EDDAV:  cpu time    0.3880: real time    0.4204
       DOS:  cpu time    0.0000: real time    0.0024
    CHARGE:  cpu time    0.0200: real time    0.0195
    MIXING:  cpu time    0.0000: real time    0.0013
    --------------------------------------------
      LOOP:  cpu time    0.4080: real time    0.4434

 eigenvalue-minimisations  :  1224
 total energy-change (2. order) :-0.3863200E-06  (-0.3865800E-06)
 number of electron       7.9999994 magnetization 
 augmentation part       -0.4700197 magnetization 

 Broyden mixing:
  rms(total) = 0.15391E+00    rms(broyden)= 0.15391E+00
  rms(prec ) = 0.35209E+00
  weight for this iteration     100.00

 Free energy of the ion-electron system (eV)
  ---------------------------------------------------
  alpha Z        PSCENC =         4.26421875
  Ewald energy   TEWEN  =      -262.49331928
  -Hartree energ DENC   =        -2.43485351
  -exchange      EXHF   =         0.00000000
  -V(xc)+E(xc)   XCENC  =       -17.97856137
  PAW double counting   =        65.95520812      -30.76852678
  entropy T*S    EENTRO =        -0.02030134
  eigenvalues    EBANDS =        27.07613127
  atomic energy  EATOM  =       206.13125414
  Solvation  Ediel_sol  =         0.00000000
  ---------------------------------------------------
  free energy    TOTEN  =       -10.26875001 eV

  energy without entropy =      -10.24844866  energy(sigma->0) =      -10.25859934


--------------------------------------------------------------------------------------------------------




--------------------------------------- Iteration      1(   6)  ---------------------------------------


    POTLOK:  cpu time    0.0120: real time    0.0173
    SETDIJ:  cpu time    0.0040: real time    0.0042
     EDDAV:  cpu time    0.3600: real time    0.3601
       DOS:  cpu time    0.0040: real time    0.0022
    CHARGE:  cpu time    0.0160: real time    0.0188
    MIXING:  cpu time    0.0040: real time    0.0011
    --------------------------------------------
      LOOP:  cpu time    0.4000: real time    0.4036

 eigenvalue-minimisations  :  1168
 total energy-change (2. order) : 0.6340086E-02  (-0.3621508E-03)
 number of electron       7.9999994 magnetization 
 augmentation part       -0.4716952 magnetization 

 Broyden mixing:
  rms(total) = 0.95646E-01    rms(broyden)= 0.95646E-01
  rms(prec ) = 0.21840E+00
  weight for this iteration     100.00

 eigenvalues of (default mixing * dielectric matrix)
  average eigenvalue GAMMA=   2.6326
  2.6326

 Free energy of the ion-electron system (eV)
  ---------------------------------------------------
  alpha Z        PSCENC =         4.26421875
  Ewald energy   TEWEN  =      -262.49331928
  -Hartree energ DENC   =        -2.45201135
  -exchange      EXHF   =         0.00000000
  -V(xc)+E(xc)   XCENC  =       -17.90365372
  PAW double counting   =        67.41192299      -32.25471871
  entropy T*S    EENTRO =        -0.02034959
  eigenvalues    EBANDS =        27.05424683
  atomic energy  EATOM  =       206.13125414
  Solvation  Ediel_sol  =         0.00000000
  ---------------------------------------------------
  free energy    TOTEN  =       -10.26240992 eV

  energy without entropy =      -10.24206034  energy(sigma->0) =      -10.25223513


--------------------------------------------------------------------------------------------------------




--------------------------------------- Iteration      1(   7)  ---------------------------------------


    POTLOK:  cpu time    0.0120: real time    0.0189
    SETDIJ:  cpu time    0.0040: real time    0.0044
     EDDAV:  cpu time    0.3400: real time    0.3394
       DOS:  cpu time    0.0000: real time    0.0025
    CHARGE:  cpu time    0.0200: real time    0.0181
    MIXING:  cpu time    0.0000: real time    0.0010
    --------------------------------------------
      LOOP:  cpu time    0.3760: real time    0.3845

 eigenvalue-minimisations  :  1104
 total energy-change (2. order) : 0.4462768E-02  (-0.9441278E-03)
 number of electron       7.9999994 magnetization 
 augmentation part       -0.4748393 magnetization 

 Broyden mixing:
  rms(total) = 0.50282E-02    rms(broyden)= 0.50279E-02
  rms(prec ) = 0.14519E-01
  weight for this iteration     100.00

 eigenvalues of (default mixing * dielectric matrix)
  average eigenvalue GAMMA=   2.5630
  2.5630  2.5630

 Free energy of the ion-electron system (eV)
  ---------------------------------------------------
  alpha Z        PSCENC =         4.26421875
  Ewald energy   TEWEN  =      -262.49331928
  -Hartree energ DENC   =        -2.57799980
  -exchange      EXHF   =         0.00000000
  -V(xc)+E(xc)   XCENC  =       -17.76317262
  PAW double counting   =        69.67457112      -34.56694350
  entropy T*S    EENTRO =        -0.02039500
  eigenvalues    EBANDS =        27.09383903
  atomic energy  EATOM  =       206.13125414
  Solvation  Ediel_sol  =         0.00000000
  ---------------------------------------------------
  free energy    TOTEN  =       -10.25794715 eV

  energy without entropy =      -10.23755215  energy(sigma->0) =      -10.24774965


--------------------------------------------------------------------------------------------------------




--------------------------------------- Iteration      1(   8)  ---------------------------------------


    POTLOK:  cpu time    0.0120: real time    0.0206
    SETDIJ:  cpu time    0.0040: real time    0.0043
     EDDAV:  cpu time    0.2160: real time    0.2155
       DOS:  cpu time    0.0040: real time    0.0022
    --------------------------------------------
      LOOP:  cpu time    0.2360: real time    0.2425

 eigenvalue-minimisations  :   624
 total energy-change (2. order) : 0.5103607E-04  (-0.3807155E-04)
 number of electron       7.9999994 magnetization 
 augmentation part       -0.4748393 magnetization 

 Free energy of the ion-electron system (eV)
  ---------------------------------------------------
  alpha Z        PSCENC =         4.26421875
  Ewald energy   TEWEN  =      -262.49331928
  -Hartree energ DENC   =        -2.59814198
  -exchange      EXHF   =         0.00000000
  -V(xc)+E(xc)   XCENC  =       -17.76144394
  PAW double counting   =        69.54463755      -34.43915978
  entropy T*S    EENTRO =        -0.02038518
  eigenvalues    EBANDS =        27.11444361
  atomic energy  EATOM  =       206.13125414
  Solvation  Ediel_sol  =         0.00000000
  ---------------------------------------------------
  free energy    TOTEN  =       -10.25789612 eV

  energy without entropy =      -10.23751094  energy(sigma->0) =      -10.24770353


--------------------------------------------------------------------------------------------------------




 average (electrostatic) potential at core
  the test charge radii are     0.9892
  (the norm of the test charge is              1.0000)
       1 -80.9607       2 -80.9607
 
 
 
 E-fermi :   8.6918     XC(G=0): -10.7663     alpha+bet :-15.1910


 k-point     1 :       0.0625    0.0625    0.0625
  band No.  band energies     occupation 
      1      -4.2210      2.00000
      2       4.4415      2.00000
      3       6.7061      2.00000
      4       8.2340      1.99879
      5      11.8615      0.00000
      6      13.7293      0.00000
      7      14.2955      0.00000
      8      16.1499      0.00000

 k-point     2 :       0.1875    0.0625    0.0625
  band No.  band energies     occupation 
      1      -3.0032      2.00000
      2       4.1959      2.00000
      3       7.0056      2.00000
      4       9.1704      0.00071
      5      10.8302      0.00000
      6      10.9386      0.00000
      7      13.6952      0.00000
      8      14.4542      0.00000

 k-point     3 :       0.3125    0.0625    0.0625
  band No.  band energies     occupation 
      1      -1.0037      2.00000
      2       4.4934      2.00000
      3       5.5669      2.00000
      4       7.2756      2.00000
      5       8.6286      1.34496
      6      11.7538      0.00000
      7      13.2133      0.00000
      8      13.6008      0.00000

 k-point     4 :       0.4375    0.0625    0.0625
  band No.  band energies     occupation 
      1       1.3345      2.00000
      2       2.2477      2.00000
      3       5.7937      2.00000
      4       6.1828      2.00000
      5       8.5119      1.79664
      6      10.5878      0.00000
      7      13.1201      0.00000
      8      14.0616      0.00000

 k-point     5 :      -0.0625    0.0625    0.0625
  band No.  band energies     occupation 
      1      -4.6293      2.00000
      2       5.0488      2.00000
      3       5.8991      2.00000
      4       7.9025      2.00000
      5      10.9925      0.00000
      6      14.8791      0.00000
      7      17.3556      0.00000
      8      17.4522      0.00000

 k-point     6 :       0.1875    0.1875    0.0625
  band No.  band energies     occupation 
      1      -1.1868      2.00000
      2       4.4831      2.00000
      3       6.4518      2.00000
      4       6.6448      2.00000
      5       9.5974      0.00000
      6      11.5967      0.00000
      7      12.8900      0.00000
      8      13.0821      0.00000

 k-point     7 :       0.3125    0.1875    0.0625
  band No.  band energies     occupation 
      1       1.2803      2.00000
      2       2.9784      2.00000
      3       4.3266      2.00000
      4       5.8021      2.00000
      5       9.8543      0.00000
      6      11.5899      0.00000
      7      12.6139      0.00000
      8      14.6551      0.00000

 k-point     8 :       0.4375    0.1875    0.0625
  band No.  band energies     occupation 
      1      -0.0883      2.00000
      2       2.7491      2.00000
      3       4.9268      2.00000
      4       7.2791      2.00000
      5       9.0985      0.00403
      6      11.7594      0.00000
      7      13.6796      0.00000
      8      14.5677      0.00000

 k-point     9 :      -0.4375    0.1875    0.0625
  band No.  band energies     occupation 
      1      -2.2543      2.00000
      2       2.1283      2.00000
      3       7.5508      2.00000
      4       8.8296      0.32991
      5      10.3598      0.00000
      6      11.4863      0.00000
      7      12.6951      0.00000
      8      15.0390      0.00000

 k-point    10 :      -0.3125    0.1875    0.0625
  band No.  band energies     occupation 
      1      -3.6543      2.00000
      2       2.2177      2.00000
      3       7.2134      2.00000
      4       9.1570      0.00100
      5      12.1501      0.00000
      6      13.6630      0.00000
      7      14.2119      0.00000
      8      14.8439      0.00000

 k-point    11 :      -0.1875    0.1875    0.0625
  band No.  band energies     occupation 
      1      -4.2505      2.00000
      2       3.0317      2.00000
      3       6.0164      2.00000
      4       9.1379      0.00161
      5      12.8046      0.00000
      6      12.9611      0.00000
      7      15.8897      0.00000
      8      17.2435      0.00000

 k-point    12 :      -0.0625    0.1875    0.0625
  band No.  band energies     occupation 
      1      -4.0321      2.00000
      2       4.1604      2.00000
      3       5.3814      2.00000
      4       9.7198      0.00000
      5      12.5866      0.00000
      6      12.7165      0.00000
      7      13.7568      0.00000
      8      15.7413      0.00000

 k-point    13 :       0.3125    0.3125    0.0625
  band No.  band energies     occupation 
      1       1.1416      2.00000
      2       1.2081      2.00000
      3       4.7346      2.00000
      4       7.2218      2.00000
      5       9.8382      0.00000
      6      10.6657      0.00000
      7      14.7098      0.00000
      8      15.5623      0.00000

 k-point    14 :       0.4375    0.3125    0.0625
  band No.  band energies     occupation 
      1      -1.1392      2.00000
      2       0.3297      2.00000
      3       8.0780      1.99999
      4       8.6870      1.02708
      5      10.0087      0.00000
      6      11.4030      0.00000
      7      12.5047      0.00000
      8      13.8973      0.00000

 k-point    15 :      -0.4375    0.3125    0.0625
  band No.  band energies     occupation 
      1      -2.7148      2.00000
      2       0.2430      2.00000
      3       8.0505      1.99999
      4      10.1215      0.00000
      5      10.6396      0.00000
      6      12.7255      0.00000
      7      13.7719      0.00000
      8      13.8581      0.00000

 k-point    16 :      -0.3125    0.3125    0.0625
  band No.  band energies     occupation 
      1      -3.4957      2.00000
      2       0.9303      2.00000
      3       6.7012      2.00000
      4      10.0764      0.00000
      5      10.8294      0.00000
      6      14.1677      0.00000
      7      15.8662      0.00000
      8      16.9379      0.00000

 k-point    17 :      -0.1875    0.3125    0.0625
  band No.  band energies     occupation 
      1      -3.4667      2.00000
      2       2.3425      2.00000
      3       5.5028      2.00000
      4      10.6721      0.00000
      5      11.0673      0.00000
      6      12.9754      0.00000
      7      14.7470      0.00000
      8      15.6565      0.00000

 k-point    18 :      -0.0625    0.3125    0.0625
  band No.  band energies     occupation 
      1      -2.6291      2.00000
      2       4.0225      2.00000
      3       5.3880      2.00000
      4       8.4723      1.87929
      5      11.1059      0.00000
      6      12.6554      0.00000
      7      13.3200      0.00000
      8      13.6779      0.00000

 k-point    19 :       0.4375    0.4375    0.0625
  band No.  band energies     occupation 
      1      -1.4108      2.00000
      2      -1.4108      2.00000
      3       9.1962      0.00036
      4       9.1962      0.00036
      5      11.3733      0.00000
      6      11.3733      0.00000
      7      13.5742      0.00000
      8      13.5742      0.00000

 k-point    20 :      -0.4375    0.4375    0.0625
  band No.  band energies     occupation 
      1      -2.3714      2.00000
      2      -0.8888      2.00000
      3       7.7455      2.00000
      4       9.1286      0.00201
      5      11.1887      0.00000
      6      12.5624      0.00000
      7      16.6389      0.00000
      8      16.7372      0.00000

 k-point    21 :      -0.3125    0.4375    0.0625
  band No.  band energies     occupation 
      1      -2.5299      2.00000
      2       0.4106      2.00000
      3       6.3373      2.00000
      4       9.0705      0.00740
      5      11.4216      0.00000
      6      12.9003      0.00000
      7      14.8425      0.00000
      8      15.3632      0.00000

 k-point    22 :      -0.1875    0.4375    0.0625
  band No.  band energies     occupation 
      1      -1.8844      2.00000
      2       2.4134      2.00000
      3       5.5957      2.00000
      4       7.8330      2.00000
      5       9.6933      0.00000
      6      12.5138      0.00000
      7      14.0098      0.00000
      8      15.3490      0.00000

 k-point    23 :      -0.0625    0.4375    0.0625
  band No.  band energies     occupation 
      1      -0.4572      2.00000
      2       4.0690      2.00000
      3       5.2166      2.00000
      4       6.0058      2.00000
      5       9.1607      0.00091
      6      11.5712      0.00000
      7      11.8916      0.00000
      8      15.1868      0.00000

 k-point    24 :      -0.4375   -0.4375    0.0625
  band No.  band energies     occupation 
      1      -1.2344      2.00000
      2      -1.2278      2.00000
      3       7.5373      2.00000
      4       7.5506      2.00000
      5      11.5124      0.00000
      6      13.4083      0.00000
      7      14.2494      0.00000
      8      14.8489      0.00000

 k-point    25 :      -0.3125   -0.4375    0.0625
  band No.  band energies     occupation 
      1      -0.7778      2.00000
      2       0.6731      2.00000
      3       6.4957      2.00000
      4       7.4122      2.00000
      5       8.2725      1.99697
      6      12.1655      0.00000
      7      15.1039      0.00000
      8      16.4112      0.00000

 k-point    26 :      -0.1875   -0.4375    0.0625
  band No.  band energies     occupation 
      1       0.4412      2.00000
      2       3.0638      2.00000
      3       4.2258      2.00000
      4       6.4399      2.00000
      5       8.6701      1.12160
      6      10.6081      0.00000
      7      13.1101      0.00000
      8      16.4972      0.00000

 k-point    27 :      -0.0625   -0.4375    0.0625
  band No.  band energies     occupation 
      1       0.9283      2.00000
      2       2.6548      2.00000
      3       6.2463      2.00000
      4       6.9762      2.00000
      5       7.5980      2.00000
      6      10.2032      0.00000
      7      11.6511      0.00000
      8      15.3990      0.00000

 k-point    28 :      -0.3125   -0.3125    0.0625
  band No.  band energies     occupation 
      1       1.5773      2.00000
      2       1.7517      2.00000
      3       3.9269      2.00000
      4       7.3124      2.00000
      5       7.7201      2.00000
      6      10.2307      0.00000
      7      14.9624      0.00000
      8      15.6327      0.00000

 k-point    29 :      -0.1875   -0.3125    0.0625
  band No.  band energies     occupation 
      1       0.6146      2.00000
      2       3.6544      2.00000
      3       4.9968      2.00000
      4       7.1723      2.00000
      5       8.2833      1.99613
      6      10.0939      0.00000
      7      11.6825      0.00000
      8      14.0894      0.00000

 k-point    30 :      -0.0625   -0.3125    0.0625
  band No.  band energies     occupation 
      1      -1.5573      2.00000
      2       5.8406      2.00000
      3       6.8466      2.00000
      4       7.2177      2.00000
      5       8.4591      1.90010
      6      10.9334      0.00000
      7      11.6720      0.00000
      8      13.3373      0.00000

 k-point    31 :      -0.1875   -0.1875    0.0625
  band No.  band energies     occupation 
      1      -1.7426      2.00000
      2       6.4709      2.00000
      3       7.1364      2.00000
      4       7.4316      2.00000
      5       8.7940      0.46996
      6      10.4582      0.00000
      7      11.6319      0.00000
      8      11.8559      0.00000

 k-point    32 :      -0.0625   -0.1875    0.0625
  band No.  band energies     occupation 
      1      -3.3791      2.00000
      2       6.1584      2.00000
      3       6.9009      2.00000
      4       8.7568      0.64550
      5      10.8881      0.00000
      6      11.3199      0.00000
      7      12.1037      0.00000
      8      13.8485      0.00000

 k-point    33 :      -0.0625   -0.0625    0.0625
  band No.  band energies     occupation 
      1      -4.4104      2.00000
      2       6.5362      2.00000
      3       6.5362      2.00000
      4       6.8168      2.00000
      5      10.7465      0.00000
      6      14.5260      0.00000
      7      14.6405      0.00000
      8      16.5205      0.00000

 k-point    34 :       0.1875    0.1875    0.1875
  band No.  band energies     occupation 
      1      -0.2670      2.00000
      2       2.6068      2.00000
      3       6.0202      2.00000
      4       6.1094      2.00000
      5      10.5903      0.00000
      6      12.4373      0.00000
      7      13.6619      0.00000
      8      14.1035      0.00000

 k-point    35 :       0.3125    0.1875    0.1875
  band No.  band energies     occupation 
      1       2.0419      2.00000
      2       2.7872      2.00000
      3       3.8162      2.00000
      4       4.4639      2.00000
      5      11.5170      0.00000
      6      13.4346      0.00000
      7      13.7443      0.00000
      8      13.9327      0.00000

 k-point    36 :      -0.1875    0.1875    0.1875
  band No.  band energies     occupation 
      1      -3.8734      2.00000
      2       2.8553      2.00000
      3       4.2749      2.00000
      4      10.6814      0.00000
      5      11.2630      0.00000
      6      14.0356      0.00000
      7      16.2840      0.00000
      8      16.8045      0.00000

 k-point    37 :       0.3125    0.3125    0.1875
  band No.  band energies     occupation 
      1       1.0054      2.00000
      2       1.0054      2.00000
      3       5.8996      2.00000
      4       5.8996      2.00000
      5      11.8414      0.00000
      6      11.8414      0.00000
      7      13.6508      0.00000
      8      13.6508      0.00000

 k-point    38 :      -0.3125    0.3125    0.1875
  band No.  band energies     occupation 
      1      -3.1228      2.00000
      2       1.2204      2.00000
      3       4.4962      2.00000
      4       8.6506      1.22903
      5      12.6015      0.00000
      6      15.5138      0.00000
      7      16.1134      0.00000
      8      16.8953      0.00000

 k-point    39 :      -0.1875    0.3125    0.1875
  band No.  band energies     occupation 
      1      -2.9059      2.00000
      2       2.3192      2.00000
      3       3.8289      2.00000
      4       8.8065      0.41727
      5      11.4059      0.00000
      6      14.0436      0.00000
      7      16.0545      0.00000
      8      16.3747      0.00000

 k-point    40 :      -0.4375    0.4375    0.1875
  band No.  band energies     occupation 
      1      -2.0064      2.00000
      2      -0.5414      2.00000
      3       5.5062      2.00000
      4       6.9086      2.00000
      5      13.6482      0.00000
      6      14.6493      0.00000
      7      16.2103      0.00000
      8      16.5941      0.00000

 k-point    41 :      -0.3125    0.4375    0.1875
  band No.  band energies     occupation 
      1      -1.9785      2.00000
      2       0.8768      2.00000
      3       4.1917      2.00000
      4       6.9328      2.00000
      5      11.0442      0.00000
      6      15.3587      0.00000
      7      16.4240      0.00000
      8      17.8740      0.00000

 k-point    42 :      -0.1875    0.4375    0.1875
  band No.  band energies     occupation 
      1      -1.1501      2.00000
      2       2.5524      2.00000
      3       4.1041      2.00000
      4       7.0270      2.00000
      5       7.9346      2.00000
      6      13.7590      0.00000
      7      15.1677      0.00000
      8      16.5101      0.00000

 k-point    43 :      -0.4375   -0.4375    0.1875
  band No.  band energies     occupation 
      1      -0.7072      2.00000
      2      -0.6933      2.00000
      3       5.3573      2.00000
      4       5.3794      2.00000
      5      10.8994      0.00000
      6      16.0289      0.00000
      7      16.6923      0.00000
      8      17.0090      0.00000

 k-point    44 :      -0.3125   -0.4375    0.1875
  band No.  band energies     occupation 
      1      -0.0667      2.00000
      2       1.3142      2.00000
      3       4.6050      2.00000
      4       5.8712      2.00000
      5       7.0596      2.00000
      6      13.9423      0.00000
      7      16.7011      0.00000
      8      17.7462      0.00000

 k-point    45 :      -0.1875   -0.4375    0.1875
  band No.  band energies     occupation 
      1       1.2882      2.00000
      2       3.0179      2.00000
      3       4.1798      2.00000
      4       5.0910      2.00000
      5       7.2834      2.00000
      6      11.7242      0.00000
      7      13.0481      0.00000
      8      16.6679      0.00000

 k-point    46 :      -0.3125   -0.3125    0.1875
  band No.  band energies     occupation 
      1       2.1284      2.00000
      2       2.5959      2.00000
      3       3.6599      2.00000
      4       5.7833      2.00000
      5       5.8992      2.00000
      6      11.9710      0.00000
      7      14.4273      0.00000
      8      15.2396      0.00000

 k-point    47 :      -0.1875   -0.3125    0.1875
  band No.  band energies     occupation 
      1       0.2670      2.00000
      2       4.6505      2.00000
      3       5.5804      2.00000
      4       6.6491      2.00000
      5       7.4498      2.00000
      6      10.4775      0.00000
      7      11.5339      0.00000
      8      13.0279      0.00000

 k-point    48 :      -0.1875   -0.1875    0.1875
  band No.  band energies     occupation 
      1      -1.9284      2.00000
      2       7.8203      2.00000
      3       7.8203      2.00000
      4       7.9162      2.00000
      5       8.1357      1.99992
      6       9.4338      0.00000
      7      11.3516      0.00000
      8      11.3517      0.00000

 k-point    49 :      -0.3125    0.3125    0.3125
  band No.  band energies     occupation 
      1      -2.3818      2.00000
      2       1.3634      2.00000
      3       2.9492      2.00000
      4       6.5847      2.00000
      5      14.2612      0.00000
      6      15.1433      0.00000
      7      16.7121      0.00000
      8      18.1286      0.00000

 k-point    50 :      -0.4375    0.4375    0.3125
  band No.  band energies     occupation 
      1      -1.2876      2.00000
      2       0.1079      2.00000
      3       3.4719      2.00000
      4       4.8313      2.00000
      5      14.5922      0.00000
      6      14.7801      0.00000
      7      17.6924      0.00000
      8      18.7626      0.00000

 k-point    51 :      -0.3125    0.4375    0.3125
  band No.  band energies     occupation 
      1      -1.0737      2.00000
      2       1.1967      2.00000
      3       2.8123      2.00000
      4       5.0292      2.00000
      5      10.5900      0.00000
      6      17.5239      0.00000
      7      17.8794      0.00000
      8      18.8936      0.00000

 k-point    52 :      -0.4375   -0.4375    0.3125
  band No.  band energies     occupation 
      1       0.1209      2.00000
      2       0.1450      2.00000
      3       3.4943      2.00000
      4       3.5090      2.00000
      5      10.4292      0.00000
      6      17.7652      0.00000
      7      19.0445      0.00000
      8      19.6198      0.00000

 k-point    53 :      -0.3125   -0.4375    0.3125
  band No.  band energies     occupation 
      1       0.9413      2.00000
      2       1.8097      2.00000
      3       3.4279      2.00000
      4       4.2664      2.00000
      5       6.6287      2.00000
      6      15.6145      0.00000
      7      16.8401      0.00000
      8      18.0215      0.00000

 k-point    54 :      -0.3125   -0.3125    0.3125
  band No.  band energies     occupation 
      1       2.3446      2.00000
      2       3.3119      2.00000
      3       4.0570      2.00000
      4       4.7685      2.00000
      5       4.7685      2.00000
      6      13.6979      0.00000
      7      14.2457      0.00000
      8      14.2457      0.00000

 k-point    55 :      -0.4375    0.4375    0.4375
  band No.  band energies     occupation 
      1      -0.2661      2.00000
      2       0.6093      2.00000
      3       2.2588      2.00000
      4       3.1224      2.00000
      5      14.4932      0.00000
      6      14.5311      0.00000
      7      19.9375      0.00000
      8      20.7061      0.00000

 k-point    56 :      -0.4375   -0.4375    0.4375
  band No.  band energies     occupation 
      1       0.8001      2.00000
      2       0.8392      2.00000
      3       2.4660      2.00000
      4       2.4660      2.00000
      5      10.2656      0.00000
      6      18.2790      0.00000
      7      20.2173      0.00000
      8      20.2519      0.00000


--------------------------------------------------------------------------------------------------------


 soft charge-density along one line, spin component           1
         0         1         2         3         4         5         6         7         8         9
 total charge-density along one line
 
 pseudopotential strength for first ion, spin component:           1
 18.108  -0.002   0.000   0.000  -0.000  -0.000  -0.000   0.000
 -0.002   0.005  -0.000  -0.000   0.000   0.000   0.000  -0.000
  0.000  -0.000   4.122   0.000   0.000  -0.006  -0.000  -0.000
  0.000  -0.000   0.000   4.122   0.000  -0.000  -0.006  -0.000
 -0.000   0.000   0.000   0.000   4.122  -0.000  -0.000  -0.006
 -0.000   0.000  -0.006  -0.000  -0.000   0.005   0.000   0.000
 -0.000   0.000  -0.000  -0.006  -0.000   0.000   0.005   0.000
  0.000  -0.000  -0.000  -0.000  -0.006   0.000   0.000   0.005
 total augmentation occupancy for first ion, spin component:           1
  1.625  -0.433   0.000   0.000  -0.000   0.000   0.000   0.000
 -0.433   0.837   0.000   0.000   0.000   0.000   0.000   0.000
  0.000   0.000   0.889  -0.000   0.000  -0.470  -0.000  -0.000
  0.000   0.000  -0.000   0.831   0.000   0.000  -0.429  -0.000
  0.000  -0.000   0.000   0.000   0.889  -0.000  -0.000  -0.470
  0.000   0.000  -0.470   0.000  -0.000   0.324   0.000   0.000
  0.000   0.000  -0.000  -0.429  -0.000   0.000   0.299   0.000
  0.000   0.000  -0.000  -0.000  -0.470   0.000   0.000   0.324


------------------------ aborting loop because EDIFF is reached ----------------------------------------


    CHARGE:  cpu time    0.0160: real time    0.0180
    FORLOC:  cpu time    0.0000: real time    0.0004
    FORNL :  cpu time    0.0040: real time    0.0074
    STRESS:  cpu time    0.0920: real time    0.0932
    FORCOR:  cpu time    0.0080: real time    0.0094
    FORHAR:  cpu time    0.0040: real time    0.0025
    MIXING:  cpu time    0.0000: real time    0.0007
    OFIELD:  cpu time    0.0000: real time    0.0003

  FORCE on cell =-STRESS in cart. coord.  units (eV):
  Direction    XX          YY          ZZ          XY          YZ          ZX
  --------------------------------------------------------------------------------------
  Alpha Z     4.26422     4.26422     4.26422
  Ewald     -86.90852   -86.90852   -88.67649    -0.00000     0.00000     0.00000
  Hartree     0.82010     0.82010     0.96217    -0.00000    -0.00000    -0.00000
  E(xc)     -25.24180   -25.24180   -25.10534    -0.00000     0.00000     0.00000
  Local     -14.88189   -14.88189   -11.30181    -0.00002    -0.00002    -0.00002
  n-local    77.21280    77.31038    74.91063     1.19523    -0.39031    -0.48898
  augment   -12.14558   -12.14558   -11.98464     0.00002     0.00002     0.00002
  Kinetic    54.50280    57.40873    56.98996     2.56670    -1.81196    -1.63607
  Fock        0.00000     0.00000     0.00000     0.00000     0.00000     0.00000
  -------------------------------------------------------------------------------------
  Total      -0.87612    -0.87612     0.05869     0.00000     0.00000     0.00000
  in kB     -44.45273   -44.45273     2.97794     0.00000     0.00000     0.00000
  external pressure =      -28.64 kB  Pullay stress =        0.00 kB


 VOLUME and BASIS-vectors are now :
 -----------------------------------------------------------------------------
  energy-cutoff  :      350.00
  volume of cell :       31.58
      direct lattice vectors                 reciprocal lattice vectors
    -2.429117000  2.429117000  1.337881000     0.000000000  0.205836112  0.373725316
     2.429117000 -2.429117000  1.337881000     0.205836112  0.000000000  0.373725316
     2.429117000  2.429117000 -1.337881000     0.205836112  0.205836112 -0.000000000

  length of vectors
     3.686616927  3.686616927  3.686616927     0.426660424  0.426660424  0.291096222


 FORCES acting on ions
    electron-ion (+dipol)            ewald-force                    non-local-force                 convergence-correction
 -----------------------------------------------------------------------------------------------
   -.170E-06 0.170E-06 0.979E-14   -.106E-13 0.390E-14 -.264E-14   -.644E-16 0.882E-16 0.375E-17   -.263E-08 0.263E-08 0.201E-16
   0.170E-06 -.170E-06 -.463E-13   0.106E-13 -.386E-14 0.252E-14   0.440E-16 -.601E-16 -.751E-17   0.263E-08 -.263E-08 -.839E-16
 -----------------------------------------------------------------------------------------------
   -.225E-13 0.194E-13 -.365E-13   -.674E-16 0.427E-16 -.118E-15   -.204E-16 0.282E-16 -.376E-17   -.638E-16 -.292E-15 -.638E-16
 
 
 POSITION                                       TOTAL-FORCE (eV/Angst)
 -----------------------------------------------------------------------------------
      0.00000      2.42912      0.66894        -0.000000      0.000000      0.000000
      0.00000      0.00000      1.33788         0.000000     -0.000000     -0.000000
 -----------------------------------------------------------------------------------
    total drift:                               -0.000000      0.000000     -0.000000


--------------------------------------------------------------------------------------------------------



  FREE ENERGIE OF THE ION-ELECTRON SYSTEM (eV)
  ---------------------------------------------------
  free  energy   TOTEN  =       -10.25789612 eV

  energy  without entropy=      -10.23751094  energy(sigma->0) =      -10.24770353
 


--------------------------------------------------------------------------------------------------------


    POTLOK:  cpu time    0.0200: real time    0.0262


--------------------------------------------------------------------------------------------------------




--------------------------------------------------------------------------------------------------------


  
 reached required accuracy - stopping structural energy minimisation
 writing wavefunctions
     LOOP+:  cpu time    5.0440: real time    5.6681
    4ORBIT:  cpu time    0.0000: real time    0.0000

 total amount of memory used by VASP MPI-rank0    33029. kBytes
=======================================================================

   base      :      30000. kBytes
   nonl-proj :       1764. kBytes
   fftplans  :        247. kBytes
   grid      :        561. kBytes
   one-center:          6. kBytes
   wavefun   :        451. kBytes
 
  
  
 General timing and accounting informations for this job:
 ========================================================
  
                  Total CPU time used (sec):       10.344
                            User time (sec):        8.388
                          System time (sec):        1.956
                         Elapsed time (sec):       11.563
  
                   Maximum memory used (kb):       10136.
                   Average memory used (kb):           0.
  
                          Minor page faults:        38283
                          Major page faults:           27
                 Voluntary context switches:        39740
