<?xml version="1.0" encoding="ISO-8859-1"?>
<modeling>
 <generator>
  <i name="program" type="string">vasp </i>
  <i name="version" type="string">5.4.4.18Apr17-6-g9f103f2a35  </i>
  <i name="subversion" type="string">(build Dec 09 2018 21:25:21) complex            parallel </i>
  <i name="platform" type="string">IFC18.0.1.163_CrayMPICH7.7.0_MKL18.0.1.163 </i>
  <i name="date" type="string">2019 03 23 </i>
  <i name="time" type="string">21:11:33 </i>
 </generator>
 <incar>
  <i type="string" name="PREC">normal</i>
  <i type="int" name="IBRION">     2</i>
  <i name="EDIFF">      0.00040000</i>
  <i name="EDIFFG">     -0.01000000</i>
  <i type="int" name="NSW">    15</i>
  <i type="int" name="ISIF">     2</i>
  <i name="ENCUT">    350.00000000</i>
  <i type="int" name="NBANDS">     8</i>
  <i type="logical" name="LREAL"> F  </i>
  <i type="int" name="ISMEAR">     0</i>
  <i name="SIGMA">      0.20000000</i>
  <v type="int" name="KPOINT_BSE">    -1     0     0     0</v>
 </incar>
 <structure name="primitive_cell" >
  <crystal>
   <varray name="basis" >
    <v>      -2.42911700       2.42911700       1.33788100 </v>
    <v>       2.42911700      -2.42911700       1.33788100 </v>
    <v>       2.42911700       2.42911700      -1.33788100 </v>
   </varray>
   <i name="volume">     31.57725282 </i>
   <varray name="rec_basis" >
    <v>       0.00000000       0.20583611       0.37372532 </v>
    <v>       0.20583611       0.00000000       0.37372532 </v>
    <v>       0.20583611       0.20583611      -0.00000000 </v>
   </varray>
  </crystal>
  <varray name="positions" >
   <v>      -0.25000000       0.25000000      -0.50000000 </v>
   <v>      -0.50000000      -0.50000000       0.00000000 </v>
  </varray>
 </structure>
 <varray name="primitive_index" >
  <v type="int" >        1 </v>
  <v type="int" >        2 </v>
 </varray>
 <kpoints>
  <generation param="Monkhorst-Pack">
   <v type="int" name="divisions">       8        8        8 </v>
   <v name="usershift">      0.00000000       0.00000000       0.00000000 </v>
   <v name="genvec1">      0.12500000       0.00000000      -0.00000000 </v>
   <v name="genvec2">      0.00000000       0.12500000      -0.00000000 </v>
   <v name="genvec3">     -0.00000000       0.00000000       0.12500000 </v>
   <v name="shift">      0.50000000       0.50000000       0.50000000 </v>
  </generation>
  <varray name="kpointlist" >
   <v>       0.06250000       0.06250000       0.06250000 </v>
   <v>       0.18750000       0.06250000       0.06250000 </v>
   <v>       0.31250000       0.06250000       0.06250000 </v>
   <v>       0.43750000       0.06250000       0.06250000 </v>
   <v>      -0.06250000       0.06250000       0.06250000 </v>
   <v>       0.18750000       0.18750000       0.06250000 </v>
   <v>       0.31250000       0.18750000       0.06250000 </v>
   <v>       0.43750000       0.18750000       0.06250000 </v>
   <v>      -0.43750000       0.18750000       0.06250000 </v>
   <v>      -0.31250000       0.18750000       0.06250000 </v>
   <v>      -0.18750000       0.18750000       0.06250000 </v>
   <v>      -0.06250000       0.18750000       0.06250000 </v>
   <v>       0.31250000       0.31250000       0.06250000 </v>
   <v>       0.43750000       0.31250000       0.06250000 </v>
   <v>      -0.43750000       0.31250000       0.06250000 </v>
   <v>      -0.31250000       0.31250000       0.06250000 </v>
   <v>      -0.18750000       0.31250000       0.06250000 </v>
   <v>      -0.06250000       0.31250000       0.06250000 </v>
   <v>       0.43750000       0.43750000       0.06250000 </v>
   <v>      -0.43750000       0.43750000       0.06250000 </v>
   <v>      -0.31250000       0.43750000       0.06250000 </v>
   <v>      -0.18750000       0.43750000       0.06250000 </v>
   <v>      -0.06250000       0.43750000       0.06250000 </v>
   <v>      -0.43750000      -0.43750000       0.06250000 </v>
   <v>      -0.31250000      -0.43750000       0.06250000 </v>
   <v>      -0.18750000      -0.43750000       0.06250000 </v>
   <v>      -0.06250000      -0.43750000       0.06250000 </v>
   <v>      -0.31250000      -0.31250000       0.06250000 </v>
   <v>      -0.18750000      -0.31250000       0.06250000 </v>
   <v>      -0.06250000      -0.31250000       0.06250000 </v>
   <v>      -0.18750000      -0.18750000       0.06250000 </v>
   <v>      -0.06250000      -0.18750000       0.06250000 </v>
   <v>      -0.06250000      -0.06250000       0.06250000 </v>
   <v>       0.18750000       0.18750000       0.18750000 </v>
   <v>       0.31250000       0.18750000       0.18750000 </v>
   <v>      -0.18750000       0.18750000       0.18750000 </v>
   <v>       0.31250000       0.31250000       0.18750000 </v>
   <v>      -0.31250000       0.31250000       0.18750000 </v>
   <v>      -0.18750000       0.31250000       0.18750000 </v>
   <v>      -0.43750000       0.43750000       0.18750000 </v>
   <v>      -0.31250000       0.43750000       0.18750000 </v>
   <v>      -0.18750000       0.43750000       0.18750000 </v>
   <v>      -0.43750000      -0.43750000       0.18750000 </v>
   <v>      -0.31250000      -0.43750000       0.18750000 </v>
   <v>      -0.18750000      -0.43750000       0.18750000 </v>
   <v>      -0.31250000      -0.31250000       0.18750000 </v>
   <v>      -0.18750000      -0.31250000       0.18750000 </v>
   <v>      -0.18750000      -0.18750000       0.18750000 </v>
   <v>      -0.31250000       0.31250000       0.31250000 </v>
   <v>      -0.43750000       0.43750000       0.31250000 </v>
   <v>      -0.31250000       0.43750000       0.31250000 </v>
   <v>      -0.43750000      -0.43750000       0.31250000 </v>
   <v>      -0.31250000      -0.43750000       0.31250000 </v>
   <v>      -0.31250000      -0.31250000       0.31250000 </v>
   <v>      -0.43750000       0.43750000       0.43750000 </v>
   <v>      -0.43750000      -0.43750000       0.43750000 </v>
  </varray>
  <varray name="weights" >
   <v>       0.01562500 </v>
   <v>       0.03125000 </v>
   <v>       0.03125000 </v>
   <v>       0.01562500 </v>
   <v>       0.00781250 </v>
   <v>       0.01562500 </v>
   <v>       0.03125000 </v>
   <v>       0.03125000 </v>
   <v>       0.03125000 </v>
   <v>       0.01562500 </v>
   <v>       0.01562500 </v>
   <v>       0.01562500 </v>
   <v>       0.01562500 </v>
   <v>       0.03125000 </v>
   <v>       0.01562500 </v>
   <v>       0.01562500 </v>
   <v>       0.03125000 </v>
   <v>       0.01562500 </v>
   <v>       0.00781250 </v>
   <v>       0.01562500 </v>
   <v>       0.03125000 </v>
   <v>       0.03125000 </v>
   <v>       0.01562500 </v>
   <v>       0.01562500 </v>
   <v>       0.03125000 </v>
   <v>       0.03125000 </v>
   <v>       0.01562500 </v>
   <v>       0.01562500 </v>
   <v>       0.03125000 </v>
   <v>       0.01562500 </v>
   <v>       0.01562500 </v>
   <v>       0.01562500 </v>
   <v>       0.00390625 </v>
   <v>       0.01562500 </v>
   <v>       0.01562500 </v>
   <v>       0.00781250 </v>
   <v>       0.00781250 </v>
   <v>       0.01562500 </v>
   <v>       0.01562500 </v>
   <v>       0.01562500 </v>
   <v>       0.03125000 </v>
   <v>       0.01562500 </v>
   <v>       0.01562500 </v>
   <v>       0.03125000 </v>
   <v>       0.01562500 </v>
   <v>       0.01562500 </v>
   <v>       0.01562500 </v>
   <v>       0.00390625 </v>
   <v>       0.00781250 </v>
   <v>       0.01562500 </v>
   <v>       0.01562500 </v>
   <v>       0.01562500 </v>
   <v>       0.01562500 </v>
   <v>       0.00390625 </v>
   <v>       0.00781250 </v>
   <v>       0.00390625 </v>
  </varray>
 </kpoints>
 <parameters>
  <separator name="general" >
   <i type="string" name="SYSTEM">unknown system</i>
   <i type="logical" name="LCOMPAT"> F  </i>
  </separator>
  <separator name="electronic" >
   <i type="string" name="PREC">normal</i>
   <i name="ENMAX">    350.00000000</i>
   <i name="ENAUG">    322.06900000</i>
   <i name="EDIFF">      0.00040000</i>
   <i type="int" name="IALGO">    38</i>
   <i type="int" name="IWAVPR">    11</i>
   <i type="int" name="NBANDS">     8</i>
   <i name="NELECT">      8.00000000</i>
   <i type="int" name="TURBO">     0</i>
   <i type="int" name="IRESTART">     0</i>
   <i type="int" name="NREBOOT">     0</i>
   <i type="int" name="NMIN">     0</i>
   <i name="EREF">      0.00000000</i>
   <separator name="electronic smearing" >
    <i type="int" name="ISMEAR">     0</i>
    <i name="SIGMA">      0.20000000</i>
    <i name="KSPACING">      0.50000000</i>
    <i type="logical" name="KGAMMA"> T  </i>
   </separator>
   <separator name="electronic projectors" >
    <i type="logical" name="LREAL"> F  </i>
    <v name="ROPT">      0.00000000</v>
    <i type="int" name="LMAXPAW">  -100</i>
    <i type="int" name="LMAXMIX">     2</i>
    <i type="logical" name="NLSPLINE"> F  </i>
   </separator>
   <separator name="electronic startup" >
    <i type="int" name="ISTART">     0</i>
    <i type="int" name="ICHARG">     2</i>
    <i type="int" name="INIWAV">     1</i>
   </separator>
   <separator name="electronic spin" >
    <i type="int" name="ISPIN">     1</i>
    <i type="logical" name="LNONCOLLINEAR"> F  </i>
    <v name="MAGMOM">      1.00000000      1.00000000</v>
    <i name="NUPDOWN">     -1.00000000</i>
    <i type="logical" name="LSORBIT"> F  </i>
    <v name="SAXIS">      0.00000000      0.00000000      1.00000000</v>
    <i type="logical" name="LSPIRAL"> F  </i>
    <v name="QSPIRAL">      0.00000000      0.00000000      0.00000000</v>
    <i type="logical" name="LZEROZ"> F  </i>
   </separator>
   <separator name="electronic exchange-correlation" >
    <i type="logical" name="LASPH"> F  </i>
    <i type="logical" name="LMETAGGA"> F  </i>
   </separator>
   <separator name="electronic convergence" >
    <i type="int" name="NELM">    60</i>
    <i type="int" name="NELMDL">    -5</i>
    <i type="int" name="NELMIN">     2</i>
    <i name="ENINI">    350.00000000</i>
    <separator name="electronic convergence detail" >
     <i type="logical" name="LDIAG"> T  </i>
     <i type="logical" name="LSUBROT"> F  </i>
     <i name="WEIMIN">      0.00100000</i>
     <i name="EBREAK">      0.00001250</i>
     <i name="DEPER">      0.30000000</i>
     <i type="int" name="NRMM">     4</i>
     <i name="TIME">      0.40000000</i>
    </separator>
   </separator>
   <separator name="electronic mixer" >
    <i name="AMIX">      0.40000000</i>
    <i name="BMIX">      1.00000000</i>
    <i name="AMIN">      0.10000000</i>
    <i name="AMIX_MAG">      1.60000000</i>
    <i name="BMIX_MAG">      1.00000000</i>
    <separator name="electronic mixer details" >
     <i type="int" name="IMIX">     4</i>
     <i type="logical" name="MIXFIRST"> F  </i>
     <i type="int" name="MAXMIX">   -45</i>
     <i name="WC">    100.00000000</i>
     <i type="int" name="INIMIX">     1</i>
     <i type="int" name="MIXPRE">     1</i>
     <i type="int" name="MREMOVE">     5</i>
    </separator>
   </separator>
   <separator name="electronic dipolcorrection" >
    <i type="logical" name="LDIPOL"> F  </i>
    <i type="logical" name="LMONO"> F  </i>
    <i type="int" name="IDIPOL">     0</i>
    <i name="EPSILON">      1.00000000</i>
    <v name="DIPOL">   -100.00000000   -100.00000000   -100.00000000</v>
    <i name="EFIELD">      0.00000000</i>
   </separator>
  </separator>
  <separator name="grids" >
   <i type="int" name="NGX">    18</i>
   <i type="int" name="NGY">    18</i>
   <i type="int" name="NGZ">    18</i>
   <i type="int" name="NGXF">    36</i>
   <i type="int" name="NGYF">    36</i>
   <i type="int" name="NGZF">    36</i>
   <i type="logical" name="ADDGRID"> F  </i>
  </separator>
  <separator name="ionic" >
   <i type="int" name="NSW">    15</i>
   <i type="int" name="IBRION">     2</i>
   <i type="int" name="MDALGO">     0</i>
   <i type="int" name="ISIF">     2</i>
   <i name="PSTRESS">      0.00000000</i>
   <i name="EDIFFG">     -0.01000000</i>
   <i type="int" name="NFREE">     1</i>
   <i name="POTIM">      0.50000000</i>
   <i name="SMASS">     -3.00000000</i>
   <i name="SCALEE">      1.00000000</i>
  </separator>
  <separator name="ionic md" >
   <i name="TEBEG">      0.00010000</i>
   <i name="TEEND">      0.00010000</i>
   <i type="int" name="NBLOCK">     1</i>
   <i type="int" name="KBLOCK">    15</i>
   <i type="int" name="NPACO">   256</i>
   <i name="APACO">     16.00000000</i>
  </separator>
  <separator name="symmetry" >
   <i type="int" name="ISYM">     2</i>
   <i name="SYMPREC">      0.00001000</i>
  </separator>
  <separator name="dos" >
   <i type="int" name="LORBIT">     0</i>
   <v name="RWIGS">     -1.00000000</v>
   <i type="int" name="NEDOS">   301</i>
   <i name="EMIN">     10.00000000</i>
   <i name="EMAX">    -10.00000000</i>
   <i name="EFERMI">      0.00000000</i>
  </separator>
  <separator name="writing" >
   <i type="int" name="NWRITE">     2</i>
   <i type="logical" name="LWAVE"> T  </i>
   <i type="logical" name="LDOWNSAMPLE"> F  </i>
   <i type="logical" name="LCHARG"> T  </i>
   <i type="logical" name="LPARD"> F  </i>
   <i type="logical" name="LVTOT"> F  </i>
   <i type="logical" name="LVHAR"> F  </i>
   <i type="logical" name="LELF"> F  </i>
   <i type="logical" name="LOPTICS"> F  </i>
   <v name="STM">      0.00000000      0.00000000      0.00000000      0.00000000      0.00000000      0.00000000      0.00000000</v>
  </separator>
  <separator name="performance" >
   <i type="int" name="NPAR">     8</i>
   <i type="int" name="NSIM">     4</i>
   <i type="int" name="NBLK">    -1</i>
   <i type="logical" name="LPLANE"> T  </i>
   <i type="logical" name="LSCALAPACK"> T  </i>
   <i type="logical" name="LSCAAWARE"> F  </i>
   <i type="logical" name="LSCALU"> F  </i>
   <i type="logical" name="LASYNC"> F  </i>
   <i type="logical" name="LORBITALREAL"> F  </i>
  </separator>
  <separator name="miscellaneous" >
   <i type="int" name="IDIOT">     3</i>
   <i type="int" name="ISPECIAL">     0</i>
   <i type="logical" name="LMUSIC"> F  </i>
   <v name="POMASS">     28.08500000</v>
   <v name="DARWINR">      0.00000000</v>
   <v name="DARWINV">      1.00000000</v>
   <i type="logical" name="LCORR"> T  </i>
  </separator>
  <i type="logical" name="GGA_COMPAT"> T  </i>
  <i type="logical" name="LBERRY"> F  </i>
  <i type="int" name="ICORELEVEL">     0</i>
  <i type="logical" name="LDAU"> F  </i>
  <i type="int" name="I_CONSTRAINED_M">     0</i>
  <separator name="electronic exchange-correlation" >
   <i type="string" name="GGA">--</i>
   <i type="int" name="VOSKOWN">     0</i>
   <i type="logical" name="LHFCALC"> F  </i>
   <i type="string" name="PRECFOCK"></i>
   <i type="logical" name="LSYMGRAD"> F  </i>
   <i type="logical" name="LHFONE"> F  </i>
   <i type="logical" name="LRHFCALC"> F  </i>
   <i type="logical" name="LTHOMAS"> F  </i>
   <i type="logical" name="LMODELHF"> F  </i>
   <i name="ENCUT4O">     -1.00000000</i>
   <i type="int" name="EXXOEP">     0</i>
   <i type="int" name="FOURORBIT">     0</i>
   <i name="AEXX">      0.00000000</i>
   <i name="HFALPHA">      0.00000000</i>
   <i name="MCALPHA">      0.00000000</i>
   <i name="ALDAX">      1.00000000</i>
   <i name="AGGAX">      1.00000000</i>
   <i name="ALDAC">      1.00000000</i>
   <i name="AGGAC">      1.00000000</i>
   <i type="int" name="NKREDX">     1</i>
   <i type="int" name="NKREDY">     1</i>
   <i type="int" name="NKREDZ">     1</i>
   <i type="logical" name="SHIFTRED"> F  </i>
   <i type="logical" name="ODDONLY"> F  </i>
   <i type="logical" name="EVENONLY"> F  </i>
   <i type="int" name="LMAXFOCK">     0</i>
   <i type="int" name="NMAXFOCKAE">     0</i>
   <i type="logical" name="LFOCKAEDFT"> F  </i>
   <i name="HFSCREEN">      0.00000000</i>
   <i name="HFSCREENC">      0.00000000</i>
   <i type="int" name="NBANDSGWLOW">     0</i>
  </separator>
  <separator name="vdW DFT" >
   <i type="logical" name="LUSE_VDW"> F  </i>
   <i name="Zab_VDW">     -0.84910000</i>
   <i name="PARAM1">      0.12340000</i>
   <i name="PARAM2">      1.00000000</i>
   <i name="PARAM3">      0.00000000</i>
  </separator>
  <separator name="model GW" >
   <i type="int" name="MODEL_GW">     0</i>
   <i name="MODEL_EPS0">      9.47317585</i>
   <i name="MODEL_ALPHA">      1.00000000</i>
  </separator>
  <separator name="linear response parameters" >
   <i type="logical" name="LEPSILON"> F  </i>
   <i type="logical" name="LRPA"> F  </i>
   <i type="logical" name="LNABLA"> F  </i>
   <i type="logical" name="LVEL"> F  </i>
   <i type="int" name="KINTER">     0</i>
   <i name="CSHIFT">      0.10000000</i>
   <i name="OMEGAMAX">     -1.00000000</i>
   <i name="DEG_THRESHOLD">      0.00200000</i>
   <i name="RTIME">     -0.10000000</i>
   <i name="WPLASMAI">      0.00000000</i>
   <v name="DFIELD">      0.00000000      0.00000000      0.00000000</v>
   <v name="WPLASMA">      0.00000000      0.00000000      0.00000000      0.00000000      0.00000000      0.00000000      0.00000000      0.00000000      0.00000000</v>
  </separator>
  <separator name="orbital magnetization" >
   <i type="logical" name="NUCIND"> F  </i>
   <v name="MAGPOS">      0.00000000      0.00000000      0.00000000</v>
   <i type="logical" name="LNICSALL"> T  </i>
   <i type="logical" name="ORBITALMAG"> F  </i>
   <i type="logical" name="LMAGBLOCH"> F  </i>
   <i type="logical" name="LCHIMAG"> F  </i>
   <i type="logical" name="LGAUGE"> T  </i>
   <i type="int" name="MAGATOM">     0</i>
   <v name="MAGDIPOL">      0.00000000      0.00000000      0.00000000</v>
   <v name="AVECCONST">      0.00000000      0.00000000      0.00000000</v>
  </separator>
  <separator name="response functions" >
   <i type="logical" name="LADDER"> F  </i>
   <i type="logical" name="LRPAFORCE"> F  </i>
   <i type="logical" name="LFXC"> F  </i>
   <i type="logical" name="LHARTREE"> T  </i>
   <i type="int" name="IBSE">     0</i>
   <v type="int" name="KPOINT">    -1     0     0     0</v>
   <i type="logical" name="LTCTE"> F  </i>
   <i type="logical" name="LTETE"> F  </i>
   <i type="logical" name="LTRIPLET"> F  </i>
   <i type="logical" name="LFXCEPS"> F  </i>
   <i type="logical" name="LFXHEG"> F  </i>
   <i type="int" name="NATURALO">     2</i>
   <i type="logical" name="L2ORDER"> F  </i>
   <i type="logical" name="LMP2LT"> F  </i>
   <i type="logical" name="LUSEW"> F  </i>
   <i name="ENCUTGW">     -2.00000000</i>
   <i name="ENCUTGWSOFT">     -2.00000000</i>
   <i name="ENCUTLF">     -1.00000000</i>
   <i type="int" name="LMAXMP2">    -1</i>
   <i name="SCISSOR">      0.00000000</i>
   <i type="int" name="NOMEGA">     0</i>
   <i type="int" name="NOMEGAR">     0</i>
   <i type="int" name="NBANDSGW">    -1</i>
   <i type="int" name="NBANDSO">    -1</i>
   <i type="int" name="NBANDSV">    -1</i>
   <i type="int" name="NELM">     1</i>
   <i type="int" name="NELMHF">     1</i>
   <i type="int" name="DIM">     3</i>
   <i type="int" name="ANTIRES">     0</i>
   <i name="OMEGAMAX">    -30.00000000</i>
   <i name="OMEGAMIN">    -30.00000000</i>
   <i name="OMEGATL">   -200.00000000</i>
   <i type="int" name="OMEGAGRID">   140</i>
   <i name="CSHIFT">     -0.10000000</i>
   <i type="logical" name="SELFENERGY"> F  </i>
   <i type="logical" name="LSPECTRAL"> F  </i>
   <i type="logical" name="LSPECTRALGW"> F  </i>
   <i type="logical" name="LSINGLES"> F  </i>
   <i type="logical" name="LFERMIGW"> F  </i>
   <i type="logical" name="ODDONLYGW"> F  </i>
   <i type="logical" name="EVENONLYGW"> F  </i>
   <i type="int" name="NKREDLFX">     1</i>
   <i type="int" name="NKREDLFY">     1</i>
   <i type="int" name="NKREDLFZ">     1</i>
   <i type="int" name="MAXMEM">  2800</i>
   <i type="int" name="TELESCOPE">     0</i>
   <i type="int" name="TAUPAR">     1</i>
   <i type="int" name="OMEGAPAR">    -1</i>
   <i name="LAMBDA">      1.00000000</i>
  </separator>
  <separator name="External order field" >
   <i name="OFIELD_KAPPA">      0.00000000</i>
   <v name="OFIELD_K">      0.00000000      0.00000000      0.00000000</v>
   <i name="OFIELD_Q6_NEAR">      0.00000000</i>
   <i name="OFIELD_Q6_FAR">      0.00000000</i>
   <i name="OFIELD_A">      0.00000000</i>
  </separator>
 </parameters>
 <atominfo>
  <atoms>       2 </atoms>
  <types>       1 </types>
  <array name="atoms" >
   <dimension dim="1">ion</dimension>
   <field type="string">element</field>
   <field type="int">atomtype</field>
   <set>
    <rc><c>Si</c><c>   1</c></rc>
    <rc><c>Si</c><c>   1</c></rc>
   </set>
  </array>
  <array name="atomtypes" >
   <dimension dim="1">type</dimension>
   <field type="int">atomspertype</field>
   <field type="string">element</field>
   <field>mass</field>
   <field>valence</field>
   <field type="string">pseudopotential</field>
   <set>
    <rc><c>   2</c><c>Si</c><c>     28.08500000</c><c>      4.00000000</c><c> PAW_PBE Si 05Jan2001                   </c></rc>
   </set>
  </array>
 </atominfo>
 <structure name="initialpos" >
  <crystal>
   <varray name="basis" >
    <v>      -2.42911700       2.42911700       1.33788100 </v>
    <v>       2.42911700      -2.42911700       1.33788100 </v>
    <v>       2.42911700       2.42911700      -1.33788100 </v>
   </varray>
   <i name="volume">     31.57725282 </i>
   <varray name="rec_basis" >
    <v>       0.00000000       0.20583611       0.37372532 </v>
    <v>       0.20583611       0.00000000       0.37372532 </v>
    <v>       0.20583611       0.20583611      -0.00000000 </v>
   </varray>
  </crystal>
  <varray name="positions" >
   <v>       0.75000000       0.25000000       0.50000000 </v>
   <v>       0.50000000       0.50000000       0.00000000 </v>
  </varray>
 </structure>
 <calculation>
  <scstep>
   <time name="dav">    0.72    0.73</time>
   <time name="total">    0.77    0.79</time>
   <energy>
    <i name="alphaZ">      4.26421875 </i>
    <i name="ewald">   -262.49331928 </i>
    <i name="hartreedc">     -2.43485351 </i>
    <i name="XCdc">    -17.97856137 </i>
    <i name="pawpsdc">     65.95520812 </i>
    <i name="pawaedc">    -30.76852678 </i>
    <i name="eentropy">     -0.00672545 </i>
    <i name="bandstr">     37.97181878 </i>
    <i name="atom">    206.13125414 </i>
    <i name="e_fr_energy">      0.64051340 </i>
    <i name="e_wo_entrp">      0.64723885 </i>
    <i name="e_0_energy">      0.64387613 </i>
   </energy>
  </scstep>
  <scstep>
   <time name="dav">    1.04    1.05</time>
   <time name="total">    1.04    1.05</time>
   <energy>
    <i name="e_fr_energy">    -10.11695371 </i>
    <i name="e_wo_entrp">    -10.09567696 </i>
    <i name="e_0_energy">    -10.10631534 </i>
   </energy>
  </scstep>
  <scstep>
   <time name="dav">    0.64    0.66</time>
   <time name="total">    0.65    0.66</time>
   <energy>
    <i name="e_fr_energy">    -10.26818346 </i>
    <i name="e_wo_entrp">    -10.24785002 </i>
    <i name="e_0_energy">    -10.25801674 </i>
   </energy>
  </scstep>
  <scstep>
   <time name="dav">    0.42    0.44</time>
   <time name="total">    0.42    0.44</time>
   <energy>
    <i name="e_fr_energy">    -10.26874962 </i>
    <i name="e_wo_entrp">    -10.24844826 </i>
    <i name="e_0_energy">    -10.25859894 </i>
   </energy>
  </scstep>
  <scstep>
   <time name="dav">    0.39    0.42</time>
   <time name="total">    0.41    0.44</time>
   <energy>
    <i name="e_fr_energy">    -10.26875001 </i>
    <i name="e_wo_entrp">    -10.24844866 </i>
    <i name="e_0_energy">    -10.25859934 </i>
   </energy>
  </scstep>
  <scstep>
   <time name="dav">    0.36    0.36</time>
   <time name="total">    0.40    0.40</time>
   <energy>
    <i name="e_fr_energy">    -10.26240992 </i>
    <i name="e_wo_entrp">    -10.24206034 </i>
    <i name="e_0_energy">    -10.25223513 </i>
   </energy>
  </scstep>
  <scstep>
   <time name="dav">    0.34    0.34</time>
   <time name="total">    0.38    0.38</time>
   <energy>
    <i name="e_fr_energy">    -10.25794715 </i>
    <i name="e_wo_entrp">    -10.23755215 </i>
    <i name="e_0_energy">    -10.24774965 </i>
   </energy>
  </scstep>
  <scstep>
   <time name="dav">    0.22    0.22</time>
   <time name="total">    0.24    0.24</time>
   <energy>
    <i name="alphaZ">      4.26421875 </i>
    <i name="ewald">   -262.49331928 </i>
    <i name="hartreedc">     -2.59814198 </i>
    <i name="XCdc">    -17.76144394 </i>
    <i name="pawpsdc">     69.54463755 </i>
    <i name="pawaedc">    -34.43915978 </i>
    <i name="eentropy">     -0.02038518 </i>
    <i name="bandstr">     27.11444361 </i>
    <i name="atom">    206.13125414 </i>
    <i name="e_fr_energy">    -10.25789612 </i>
    <i name="e_wo_entrp">    -10.23751094 </i>
    <i name="e_0_energy">    -10.24770353 </i>
   </energy>
  </scstep>
  <structure>
   <crystal>
    <varray name="basis" >
     <v>      -2.42911700       2.42911700       1.33788100 </v>
     <v>       2.42911700      -2.42911700       1.33788100 </v>
     <v>       2.42911700       2.42911700      -1.33788100 </v>
    </varray>
    <i name="volume">     31.57725282 </i>
    <varray name="rec_basis" >
     <v>       0.00000000       0.20583611       0.37372532 </v>
     <v>       0.20583611       0.00000000       0.37372532 </v>
     <v>       0.20583611       0.20583611      -0.00000000 </v>
    </varray>
   </crystal>
   <varray name="positions" >
    <v>       0.75000000       0.25000000       0.50000000 </v>
    <v>       0.50000000       0.50000000       0.00000000 </v>
   </varray>
  </structure>
  <varray name="forces" >
   <v>      -0.00000000       0.00000000       0.00000000 </v>
   <v>       0.00000000      -0.00000000      -0.00000000 </v>
  </varray>
  <varray name="stress" >
   <v>     -44.45273149       0.00000000       0.00000000 </v>
   <v>       0.00000000     -44.45273149       0.00000000 </v>
   <v>       0.00000000       0.00000000       2.97794202 </v>
  </varray>
  <energy>
   <i name="e_fr_energy">    -10.25789612 </i>
   <i name="e_wo_entrp">    -10.24770353 </i>
   <i name="e_0_energy">     -0.02038518 </i>
  </energy>
  <time name="totalsc">    5.04    5.67</time>
  <eigenvalues>
   <array>
    <dimension dim="1">band</dimension>
    <dimension dim="2">kpoint</dimension>
    <dimension dim="3">spin</dimension>
    <field>eigene</field>
    <field>occ</field>
    <set>
     <set comment="spin 1">
      <set comment="kpoint 1">
       <r>   -4.2210    1.0000 </r>
       <r>    4.4415    1.0000 </r>
       <r>    6.7061    1.0000 </r>
       <r>    8.2340    0.9994 </r>
       <r>   11.8615    0.0000 </r>
       <r>   13.7293    0.0000 </r>
       <r>   14.2955    0.0000 </r>
       <r>   16.1499    0.0000 </r>
      </set>
      <set comment="kpoint 2">
       <r>   -3.0032    1.0000 </r>
       <r>    4.1959    1.0000 </r>
       <r>    7.0056    1.0000 </r>
       <r>    9.1704    0.0004 </r>
       <r>   10.8302    0.0000 </r>
       <r>   10.9386    0.0000 </r>
       <r>   13.6952    0.0000 </r>
       <r>   14.4542    0.0000 </r>
      </set>
      <set comment="kpoint 3">
       <r>   -1.0037    1.0000 </r>
       <r>    4.4934    1.0000 </r>
       <r>    5.5669    1.0000 </r>
       <r>    7.2756    1.0000 </r>
       <r>    8.6286    0.6725 </r>
       <r>   11.7538    0.0000 </r>
       <r>   13.2133    0.0000 </r>
       <r>   13.6008    0.0000 </r>
      </set>
      <set comment="kpoint 4">
       <r>    1.3345    1.0000 </r>
       <r>    2.2477    1.0000 </r>
       <r>    5.7937    1.0000 </r>
       <r>    6.1828    1.0000 </r>
       <r>    8.5119    0.8983 </r>
       <r>   10.5878    0.0000 </r>
       <r>   13.1201    0.0000 </r>
       <r>   14.0616    0.0000 </r>
      </set>
      <set comment="kpoint 5">
       <r>   -4.6293    1.0000 </r>
       <r>    5.0488    1.0000 </r>
       <r>    5.8991    1.0000 </r>
       <r>    7.9025    1.0000 </r>
       <r>   10.9925    0.0000 </r>
       <r>   14.8791    0.0000 </r>
       <r>   17.3556    0.0000 </r>
       <r>   17.4522    0.0000 </r>
      </set>
      <set comment="kpoint 6">
       <r>   -1.1868    1.0000 </r>
       <r>    4.4831    1.0000 </r>
       <r>    6.4518    1.0000 </r>
       <r>    6.6448    1.0000 </r>
       <r>    9.5974    0.0000 </r>
       <r>   11.5967    0.0000 </r>
       <r>   12.8900    0.0000 </r>
       <r>   13.0821    0.0000 </r>
      </set>
      <set comment="kpoint 7">
       <r>    1.2803    1.0000 </r>
       <r>    2.9784    1.0000 </r>
       <r>    4.3266    1.0000 </r>
       <r>    5.8021    1.0000 </r>
       <r>    9.8543    0.0000 </r>
       <r>   11.5899    0.0000 </r>
       <r>   12.6139    0.0000 </r>
       <r>   14.6551    0.0000 </r>
      </set>
      <set comment="kpoint 8">
       <r>   -0.0883    1.0000 </r>
       <r>    2.7491    1.0000 </r>
       <r>    4.9268    1.0000 </r>
       <r>    7.2791    1.0000 </r>
       <r>    9.0985    0.0020 </r>
       <r>   11.7594    0.0000 </r>
       <r>   13.6796    0.0000 </r>
       <r>   14.5677    0.0000 </r>
      </set>
      <set comment="kpoint 9">
       <r>   -2.2543    1.0000 </r>
       <r>    2.1283    1.0000 </r>
       <r>    7.5508    1.0000 </r>
       <r>    8.8296    0.1650 </r>
       <r>   10.3598    0.0000 </r>
       <r>   11.4863    0.0000 </r>
       <r>   12.6951    0.0000 </r>
       <r>   15.0390    0.0000 </r>
      </set>
      <set comment="kpoint 10">
       <r>   -3.6543    1.0000 </r>
       <r>    2.2177    1.0000 </r>
       <r>    7.2134    1.0000 </r>
       <r>    9.1570    0.0005 </r>
       <r>   12.1501    0.0000 </r>
       <r>   13.6630    0.0000 </r>
       <r>   14.2119    0.0000 </r>
       <r>   14.8439    0.0000 </r>
      </set>
      <set comment="kpoint 11">
       <r>   -4.2505    1.0000 </r>
       <r>    3.0317    1.0000 </r>
       <r>    6.0164    1.0000 </r>
       <r>    9.1379    0.0008 </r>
       <r>   12.8046    0.0000 </r>
       <r>   12.9611    0.0000 </r>
       <r>   15.8897    0.0000 </r>
       <r>   17.2435    0.0000 </r>
      </set>
      <set comment="kpoint 12">
       <r>   -4.0321    1.0000 </r>
       <r>    4.1604    1.0000 </r>
       <r>    5.3814    1.0000 </r>
       <r>    9.7198    0.0000 </r>
       <r>   12.5866    0.0000 </r>
       <r>   12.7165    0.0000 </r>
       <r>   13.7568    0.0000 </r>
       <r>   15.7413    0.0000 </r>
      </set>
      <set comment="kpoint 13">
       <r>    1.1416    1.0000 </r>
       <r>    1.2081    1.0000 </r>
       <r>    4.7346    1.0000 </r>
       <r>    7.2218    1.0000 </r>
       <r>    9.8382    0.0000 </r>
       <r>   10.6657    0.0000 </r>
       <r>   14.7098    0.0000 </r>
       <r>   15.5623    0.0000 </r>
      </set>
      <set comment="kpoint 14">
       <r>   -1.1392    1.0000 </r>
       <r>    0.3297    1.0000 </r>
       <r>    8.0780    1.0000 </r>
       <r>    8.6870    0.5135 </r>
       <r>   10.0087    0.0000 </r>
       <r>   11.4030    0.0000 </r>
       <r>   12.5047    0.0000 </r>
       <r>   13.8973    0.0000 </r>
      </set>
      <set comment="kpoint 15">
       <r>   -2.7148    1.0000 </r>
       <r>    0.2430    1.0000 </r>
       <r>    8.0505    1.0000 </r>
       <r>   10.1215    0.0000 </r>
       <r>   10.6396    0.0000 </r>
       <r>   12.7255    0.0000 </r>
       <r>   13.7719    0.0000 </r>
       <r>   13.8581    0.0000 </r>
      </set>
      <set comment="kpoint 16">
       <r>   -3.4957    1.0000 </r>
       <r>    0.9303    1.0000 </r>
       <r>    6.7012    1.0000 </r>
       <r>   10.0764    0.0000 </r>
       <r>   10.8294    0.0000 </r>
       <r>   14.1677    0.0000 </r>
       <r>   15.8662    0.0000 </r>
       <r>   16.9379    0.0000 </r>
      </set>
      <set comment="kpoint 17">
       <r>   -3.4667    1.0000 </r>
       <r>    2.3425    1.0000 </r>
       <r>    5.5028    1.0000 </r>
       <r>   10.6721    0.0000 </r>
       <r>   11.0673    0.0000 </r>
       <r>   12.9754    0.0000 </r>
       <r>   14.7470    0.0000 </r>
       <r>   15.6565    0.0000 </r>
      </set>
      <set comment="kpoint 18">
       <r>   -2.6291    1.0000 </r>
       <r>    4.0225    1.0000 </r>
       <r>    5.3880    1.0000 </r>
       <r>    8.4723    0.9396 </r>
       <r>   11.1059    0.0000 </r>
       <r>   12.6554    0.0000 </r>
       <r>   13.3200    0.0000 </r>
       <r>   13.6779    0.0000 </r>
      </set>
      <set comment="kpoint 19">
       <r>   -1.4108    1.0000 </r>
       <r>   -1.4108    1.0000 </r>
       <r>    9.1962    0.0002 </r>
       <r>    9.1962    0.0002 </r>
       <r>   11.3733    0.0000 </r>
       <r>   11.3733    0.0000 </r>
       <r>   13.5742    0.0000 </r>
       <r>   13.5742    0.0000 </r>
      </set>
      <set comment="kpoint 20">
       <r>   -2.3714    1.0000 </r>
       <r>   -0.8888    1.0000 </r>
       <r>    7.7455    1.0000 </r>
       <r>    9.1286    0.0010 </r>
       <r>   11.1887    0.0000 </r>
       <r>   12.5624    0.0000 </r>
       <r>   16.6389    0.0000 </r>
       <r>   16.7372    0.0000 </r>
      </set>
      <set comment="kpoint 21">
       <r>   -2.5299    1.0000 </r>
       <r>    0.4106    1.0000 </r>
       <r>    6.3373    1.0000 </r>
       <r>    9.0705    0.0037 </r>
       <r>   11.4216    0.0000 </r>
       <r>   12.9003    0.0000 </r>
       <r>   14.8425    0.0000 </r>
       <r>   15.3632    0.0000 </r>
      </set>
      <set comment="kpoint 22">
       <r>   -1.8844    1.0000 </r>
       <r>    2.4134    1.0000 </r>
       <r>    5.5957    1.0000 </r>
       <r>    7.8330    1.0000 </r>
       <r>    9.6933    0.0000 </r>
       <r>   12.5138    0.0000 </r>
       <r>   14.0098    0.0000 </r>
       <r>   15.3490    0.0000 </r>
      </set>
      <set comment="kpoint 23">
       <r>   -0.4572    1.0000 </r>
       <r>    4.0690    1.0000 </r>
       <r>    5.2166    1.0000 </r>
       <r>    6.0058    1.0000 </r>
       <r>    9.1607    0.0005 </r>
       <r>   11.5712    0.0000 </r>
       <r>   11.8916    0.0000 </r>
       <r>   15.1868    0.0000 </r>
      </set>
      <set comment="kpoint 24">
       <r>   -1.2344    1.0000 </r>
       <r>   -1.2278    1.0000 </r>
       <r>    7.5373    1.0000 </r>
       <r>    7.5506    1.0000 </r>
       <r>   11.5124    0.0000 </r>
       <r>   13.4083    0.0000 </r>
       <r>   14.2494    0.0000 </r>
       <r>   14.8489    0.0000 </r>
      </set>
      <set comment="kpoint 25">
       <r>   -0.7778    1.0000 </r>
       <r>    0.6731    1.0000 </r>
       <r>    6.4957    1.0000 </r>
       <r>    7.4122    1.0000 </r>
       <r>    8.2725    0.9985 </r>
       <r>   12.1655    0.0000 </r>
       <r>   15.1039    0.0000 </r>
       <r>   16.4112    0.0000 </r>
      </set>
      <set comment="kpoint 26">
       <r>    0.4412    1.0000 </r>
       <r>    3.0638    1.0000 </r>
       <r>    4.2258    1.0000 </r>
       <r>    6.4399    1.0000 </r>
       <r>    8.6701    0.5608 </r>
       <r>   10.6081    0.0000 </r>
       <r>   13.1101    0.0000 </r>
       <r>   16.4972    0.0000 </r>
      </set>
      <set comment="kpoint 27">
       <r>    0.9283    1.0000 </r>
       <r>    2.6548    1.0000 </r>
       <r>    6.2463    1.0000 </r>
       <r>    6.9762    1.0000 </r>
       <r>    7.5980    1.0000 </r>
       <r>   10.2032    0.0000 </r>
       <r>   11.6511    0.0000 </r>
       <r>   15.3990    0.0000 </r>
      </set>
      <set comment="kpoint 28">
       <r>    1.5773    1.0000 </r>
       <r>    1.7517    1.0000 </r>
       <r>    3.9269    1.0000 </r>
       <r>    7.3124    1.0000 </r>
       <r>    7.7201    1.0000 </r>
       <r>   10.2307    0.0000 </r>
       <r>   14.9624    0.0000 </r>
       <r>   15.6327    0.0000 </r>
      </set>
      <set comment="kpoint 29">
       <r>    0.6146    1.0000 </r>
       <r>    3.6544    1.0000 </r>
       <r>    4.9968    1.0000 </r>
       <r>    7.1723    1.0000 </r>
       <r>    8.2833    0.9981 </r>
       <r>   10.0939    0.0000 </r>
       <r>   11.6825    0.0000 </r>
       <r>   14.0894    0.0000 </r>
      </set>
      <set comment="kpoint 30">
       <r>   -1.5573    1.0000 </r>
       <r>    5.8406    1.0000 </r>
       <r>    6.8466    1.0000 </r>
       <r>    7.2177    1.0000 </r>
       <r>    8.4591    0.9500 </r>
       <r>   10.9334    0.0000 </r>
       <r>   11.6720    0.0000 </r>
       <r>   13.3373    0.0000 </r>
      </set>
      <set comment="kpoint 31">
       <r>   -1.7426    1.0000 </r>
       <r>    6.4709    1.0000 </r>
       <r>    7.1364    1.0000 </r>
       <r>    7.4316    1.0000 </r>
       <r>    8.7940    0.2350 </r>
       <r>   10.4582    0.0000 </r>
       <r>   11.6319    0.0000 </r>
       <r>   11.8559    0.0000 </r>
      </set>
      <set comment="kpoint 32">
       <r>   -3.3791    1.0000 </r>
       <r>    6.1584    1.0000 </r>
       <r>    6.9009    1.0000 </r>
       <r>    8.7568    0.3227 </r>
       <r>   10.8881    0.0000 </r>
       <r>   11.3199    0.0000 </r>
       <r>   12.1037    0.0000 </r>
       <r>   13.8485    0.0000 </r>
      </set>
      <set comment="kpoint 33">
       <r>   -4.4104    1.0000 </r>
       <r>    6.5362    1.0000 </r>
       <r>    6.5362    1.0000 </r>
       <r>    6.8168    1.0000 </r>
       <r>   10.7465    0.0000 </r>
       <r>   14.5260    0.0000 </r>
       <r>   14.6405    0.0000 </r>
       <r>   16.5205    0.0000 </r>
      </set>
      <set comment="kpoint 34">
       <r>   -0.2670    1.0000 </r>
       <r>    2.6068    1.0000 </r>
       <r>    6.0202    1.0000 </r>
       <r>    6.1094    1.0000 </r>
       <r>   10.5903    0.0000 </r>
       <r>   12.4373    0.0000 </r>
       <r>   13.6619    0.0000 </r>
       <r>   14.1035    0.0000 </r>
      </set>
      <set comment="kpoint 35">
       <r>    2.0419    1.0000 </r>
       <r>    2.7872    1.0000 </r>
       <r>    3.8162    1.0000 </r>
       <r>    4.4639    1.0000 </r>
       <r>   11.5170    0.0000 </r>
       <r>   13.4346    0.0000 </r>
       <r>   13.7443    0.0000 </r>
       <r>   13.9327    0.0000 </r>
      </set>
      <set comment="kpoint 36">
       <r>   -3.8734    1.0000 </r>
       <r>    2.8553    1.0000 </r>
       <r>    4.2749    1.0000 </r>
       <r>   10.6814    0.0000 </r>
       <r>   11.2630    0.0000 </r>
       <r>   14.0356    0.0000 </r>
       <r>   16.2840    0.0000 </r>
       <r>   16.8045    0.0000 </r>
      </set>
      <set comment="kpoint 37">
       <r>    1.0054    1.0000 </r>
       <r>    1.0054    1.0000 </r>
       <r>    5.8996    1.0000 </r>
       <r>    5.8996    1.0000 </r>
       <r>   11.8414    0.0000 </r>
       <r>   11.8414    0.0000 </r>
       <r>   13.6508    0.0000 </r>
       <r>   13.6508    0.0000 </r>
      </set>
      <set comment="kpoint 38">
       <r>   -3.1228    1.0000 </r>
       <r>    1.2204    1.0000 </r>
       <r>    4.4962    1.0000 </r>
       <r>    8.6506    0.6145 </r>
       <r>   12.6015    0.0000 </r>
       <r>   15.5138    0.0000 </r>
       <r>   16.1134    0.0000 </r>
       <r>   16.8953    0.0000 </r>
      </set>
      <set comment="kpoint 39">
       <r>   -2.9059    1.0000 </r>
       <r>    2.3192    1.0000 </r>
       <r>    3.8289    1.0000 </r>
       <r>    8.8065    0.2086 </r>
       <r>   11.4059    0.0000 </r>
       <r>   14.0436    0.0000 </r>
       <r>   16.0545    0.0000 </r>
       <r>   16.3747    0.0000 </r>
      </set>
      <set comment="kpoint 40">
       <r>   -2.0064    1.0000 </r>
       <r>   -0.5414    1.0000 </r>
       <r>    5.5062    1.0000 </r>
       <r>    6.9086    1.0000 </r>
       <r>   13.6482    0.0000 </r>
       <r>   14.6493    0.0000 </r>
       <r>   16.2103    0.0000 </r>
       <r>   16.5941    0.0000 </r>
      </set>
      <set comment="kpoint 41">
       <r>   -1.9785    1.0000 </r>
       <r>    0.8768    1.0000 </r>
       <r>    4.1917    1.0000 </r>
       <r>    6.9328    1.0000 </r>
       <r>   11.0442    0.0000 </r>
       <r>   15.3587    0.0000 </r>
       <r>   16.4240    0.0000 </r>
       <r>   17.8740    0.0000 </r>
      </set>
      <set comment="kpoint 42">
       <r>   -1.1501    1.0000 </r>
       <r>    2.5524    1.0000 </r>
       <r>    4.1041    1.0000 </r>
       <r>    7.0270    1.0000 </r>
       <r>    7.9346    1.0000 </r>
       <r>   13.7590    0.0000 </r>
       <r>   15.1677    0.0000 </r>
       <r>   16.5101    0.0000 </r>
      </set>
      <set comment="kpoint 43">
       <r>   -0.7072    1.0000 </r>
       <r>   -0.6933    1.0000 </r>
       <r>    5.3573    1.0000 </r>
       <r>    5.3794    1.0000 </r>
       <r>   10.8994    0.0000 </r>
       <r>   16.0289    0.0000 </r>
       <r>   16.6923    0.0000 </r>
       <r>   17.0090    0.0000 </r>
      </set>
      <set comment="kpoint 44">
       <r>   -0.0667    1.0000 </r>
       <r>    1.3142    1.0000 </r>
       <r>    4.6050    1.0000 </r>
       <r>    5.8712    1.0000 </r>
       <r>    7.0596    1.0000 </r>
       <r>   13.9423    0.0000 </r>
       <r>   16.7011    0.0000 </r>
       <r>   17.7462    0.0000 </r>
      </set>
      <set comment="kpoint 45">
       <r>    1.2882    1.0000 </r>
       <r>    3.0179    1.0000 </r>
       <r>    4.1798    1.0000 </r>
       <r>    5.0910    1.0000 </r>
       <r>    7.2834    1.0000 </r>
       <r>   11.7242    0.0000 </r>
       <r>   13.0481    0.0000 </r>
       <r>   16.6679    0.0000 </r>
      </set>
      <set comment="kpoint 46">
       <r>    2.1284    1.0000 </r>
       <r>    2.5959    1.0000 </r>
       <r>    3.6599    1.0000 </r>
       <r>    5.7833    1.0000 </r>
       <r>    5.8992    1.0000 </r>
       <r>   11.9710    0.0000 </r>
       <r>   14.4273    0.0000 </r>
       <r>   15.2396    0.0000 </r>
      </set>
      <set comment="kpoint 47">
       <r>    0.2670    1.0000 </r>
       <r>    4.6505    1.0000 </r>
       <r>    5.5804    1.0000 </r>
       <r>    6.6491    1.0000 </r>
       <r>    7.4498    1.0000 </r>
       <r>   10.4775    0.0000 </r>
       <r>   11.5339    0.0000 </r>
       <r>   13.0279    0.0000 </r>
      </set>
      <set comment="kpoint 48">
       <r>   -1.9284    1.0000 </r>
       <r>    7.8203    1.0000 </r>
       <r>    7.8203    1.0000 </r>
       <r>    7.9162    1.0000 </r>
       <r>    8.1357    1.0000 </r>
       <r>    9.4338    0.0000 </r>
       <r>   11.3516    0.0000 </r>
       <r>   11.3517    0.0000 </r>
      </set>
      <set comment="kpoint 49">
       <r>   -2.3818    1.0000 </r>
       <r>    1.3634    1.0000 </r>
       <r>    2.9492    1.0000 </r>
       <r>    6.5847    1.0000 </r>
       <r>   14.2612    0.0000 </r>
       <r>   15.1433    0.0000 </r>
       <r>   16.7121    0.0000 </r>
       <r>   18.1286    0.0000 </r>
      </set>
      <set comment="kpoint 50">
       <r>   -1.2876    1.0000 </r>
       <r>    0.1079    1.0000 </r>
       <r>    3.4719    1.0000 </r>
       <r>    4.8313    1.0000 </r>
       <r>   14.5922    0.0000 </r>
       <r>   14.7801    0.0000 </r>
       <r>   17.6924    0.0000 </r>
       <r>   18.7626    0.0000 </r>
      </set>
      <set comment="kpoint 51">
       <r>   -1.0737    1.0000 </r>
       <r>    1.1967    1.0000 </r>
       <r>    2.8123    1.0000 </r>
       <r>    5.0292    1.0000 </r>
       <r>   10.5900    0.0000 </r>
       <r>   17.5239    0.0000 </r>
       <r>   17.8794    0.0000 </r>
       <r>   18.8936    0.0000 </r>
      </set>
      <set comment="kpoint 52">
       <r>    0.1209    1.0000 </r>
       <r>    0.1450    1.0000 </r>
       <r>    3.4943    1.0000 </r>
       <r>    3.5090    1.0000 </r>
       <r>   10.4292    0.0000 </r>
       <r>   17.7652    0.0000 </r>
       <r>   19.0445    0.0000 </r>
       <r>   19.6198    0.0000 </r>
      </set>
      <set comment="kpoint 53">
       <r>    0.9413    1.0000 </r>
       <r>    1.8097    1.0000 </r>
       <r>    3.4279    1.0000 </r>
       <r>    4.2664    1.0000 </r>
       <r>    6.6287    1.0000 </r>
       <r>   15.6145    0.0000 </r>
       <r>   16.8401    0.0000 </r>
       <r>   18.0215    0.0000 </r>
      </set>
      <set comment="kpoint 54">
       <r>    2.3446    1.0000 </r>
       <r>    3.3119    1.0000 </r>
       <r>    4.0570    1.0000 </r>
       <r>    4.7685    1.0000 </r>
       <r>    4.7685    1.0000 </r>
       <r>   13.6979    0.0000 </r>
       <r>   14.2457    0.0000 </r>
       <r>   14.2457    0.0000 </r>
      </set>
      <set comment="kpoint 55">
       <r>   -0.2661    1.0000 </r>
       <r>    0.6093    1.0000 </r>
       <r>    2.2588    1.0000 </r>
       <r>    3.1224    1.0000 </r>
       <r>   14.4932    0.0000 </r>
       <r>   14.5311    0.0000 </r>
       <r>   19.9375    0.0000 </r>
       <r>   20.7061    0.0000 </r>
      </set>
      <set comment="kpoint 56">
       <r>    0.8001    1.0000 </r>
       <r>    0.8392    1.0000 </r>
       <r>    2.4660    1.0000 </r>
       <r>    2.4660    1.0000 </r>
       <r>   10.2656    0.0000 </r>
       <r>   18.2790    0.0000 </r>
       <r>   20.2173    0.0000 </r>
       <r>   20.2519    0.0000 </r>
      </set>
     </set>
    </set>
   </array>
  </eigenvalues>
  <separator name="orbital magnetization" >
   <v name="MAGDIPOLOUT">      0.00000000      0.00000000      0.00000000</v>
  </separator>
  <dos>
   <i name="efermi">      8.69176825 </i>
   <total>
    <array>
     <dimension dim="1">gridpoints</dimension>
     <dimension dim="2">spin</dimension>
     <field>energy</field>
     <field>total</field>
     <field>integrated</field>
     <set>
      <set comment="spin 1">
       <r>    -6.6293     0.0000     0.0000 </r>
       <r>    -6.5315     0.0000     0.0000 </r>
       <r>    -6.4338     0.0000     0.0000 </r>
       <r>    -6.3360     0.0000     0.0000 </r>
       <r>    -6.2382     0.0000     0.0000 </r>
       <r>    -6.1404     0.0000     0.0000 </r>
       <r>    -6.0426     0.0000     0.0000 </r>
       <r>    -5.9448     0.0000     0.0000 </r>
       <r>    -5.8471     0.0000     0.0000 </r>
       <r>    -5.7493     0.0000     0.0000 </r>
       <r>    -5.6515     0.0000     0.0000 </r>
       <r>    -5.5537     0.0000     0.0000 </r>
       <r>    -5.4559     0.0000     0.0000 </r>
       <r>    -5.3581     0.0000     0.0000 </r>
       <r>    -5.2603     0.0000     0.0000 </r>
       <r>    -5.1626     0.0000     0.0000 </r>
       <r>    -5.0648     0.0002     0.0000 </r>
       <r>    -4.9670     0.0012     0.0001 </r>
       <r>    -4.8692     0.0059     0.0007 </r>
       <r>    -4.7714     0.0184     0.0025 </r>
       <r>    -4.6736     0.0378     0.0062 </r>
       <r>    -4.5759     0.0551     0.0116 </r>
       <r>    -4.4781     0.0723     0.0187 </r>
       <r>    -4.3803     0.1105     0.0295 </r>
       <r>    -4.2825     0.1724     0.0463 </r>
       <r>    -4.1847     0.2176     0.0676 </r>
       <r>    -4.0869     0.2146     0.0886 </r>
       <r>    -3.9891     0.1802     0.1062 </r>
       <r>    -3.8914     0.1448     0.1204 </r>
       <r>    -3.7936     0.1310     0.1332 </r>
       <r>    -3.6958     0.1625     0.1491 </r>
       <r>    -3.5980     0.2461     0.1731 </r>
       <r>    -3.5002     0.3420     0.2066 </r>
       <r>    -3.4024     0.3712     0.2429 </r>
       <r>    -3.3047     0.3090     0.2731 </r>
       <r>    -3.2069     0.2413     0.2967 </r>
       <r>    -3.1091     0.2507     0.3212 </r>
       <r>    -3.0113     0.3051     0.3510 </r>
       <r>    -2.9135     0.3223     0.3825 </r>
       <r>    -2.8157     0.2949     0.4114 </r>
       <r>    -2.7179     0.2878     0.4395 </r>
       <r>    -2.6202     0.3278     0.4716 </r>
       <r>    -2.5224     0.3731     0.5080 </r>
       <r>    -2.4246     0.3890     0.5461 </r>
       <r>    -2.3268     0.3804     0.5833 </r>
       <r>    -2.2290     0.3570     0.6182 </r>
       <r>    -2.1312     0.3471     0.6521 </r>
       <r>    -2.0334     0.3968     0.6909 </r>
       <r>    -1.9357     0.4699     0.7369 </r>
       <r>    -1.8379     0.4625     0.7821 </r>
       <r>    -1.7401     0.3631     0.8176 </r>
       <r>    -1.6423     0.2614     0.8432 </r>
       <r>    -1.5445     0.2238     0.8651 </r>
       <r>    -1.4467     0.2634     0.8908 </r>
       <r>    -1.3490     0.3871     0.9287 </r>
       <r>    -1.2512     0.5777     0.9852 </r>
       <r>    -1.1534     0.7365     1.0572 </r>
       <r>    -1.0556     0.7544     1.1310 </r>
       <r>    -0.9578     0.6521     1.1947 </r>
       <r>    -0.8600     0.5495     1.2485 </r>
       <r>    -0.7622     0.5027     1.2976 </r>
       <r>    -0.6645     0.4614     1.3427 </r>
       <r>    -0.5667     0.3875     1.3806 </r>
       <r>    -0.4689     0.3119     1.4111 </r>
       <r>    -0.3711     0.2738     1.4379 </r>
       <r>    -0.2733     0.2950     1.4667 </r>
       <r>    -0.1755     0.3772     1.5036 </r>
       <r>    -0.0778     0.4783     1.5504 </r>
       <r>     0.0200     0.5433     1.6035 </r>
       <r>     0.1178     0.5809     1.6603 </r>
       <r>     0.2156     0.6377     1.7227 </r>
       <r>     0.3134     0.7110     1.7922 </r>
       <r>     0.4112     0.7474     1.8653 </r>
       <r>     0.5090     0.7172     1.9354 </r>
       <r>     0.6067     0.6582     1.9998 </r>
       <r>     0.7045     0.6161     2.0600 </r>
       <r>     0.8023     0.6139     2.1201 </r>
       <r>     0.9001     0.6504     2.1837 </r>
       <r>     0.9979     0.6768     2.2498 </r>
       <r>     1.0957     0.7035     2.3186 </r>
       <r>     1.1934     0.8008     2.3969 </r>
       <r>     1.2912     0.8844     2.4834 </r>
       <r>     1.3890     0.7792     2.5596 </r>
       <r>     1.4868     0.5209     2.6105 </r>
       <r>     1.5846     0.3106     2.6409 </r>
       <r>     1.6824     0.2349     2.6639 </r>
       <r>     1.7802     0.2326     2.6866 </r>
       <r>     1.8779     0.2443     2.7105 </r>
       <r>     1.9757     0.2962     2.7395 </r>
       <r>     2.0735     0.4356     2.7821 </r>
       <r>     2.1713     0.6225     2.8430 </r>
       <r>     2.2691     0.7639     2.9177 </r>
       <r>     2.3669     0.8067     2.9966 </r>
       <r>     2.4647     0.7640     3.0713 </r>
       <r>     2.5624     0.7062     3.1403 </r>
       <r>     2.6602     0.6897     3.2078 </r>
       <r>     2.7580     0.7017     3.2764 </r>
       <r>     2.8558     0.7177     3.3466 </r>
       <r>     2.9536     0.7371     3.4186 </r>
       <r>     3.0514     0.7105     3.4881 </r>
       <r>     3.1491     0.5679     3.5436 </r>
       <r>     3.2469     0.3808     3.5809 </r>
       <r>     3.3447     0.3104     3.6112 </r>
       <r>     3.4425     0.3890     3.6493 </r>
       <r>     3.5403     0.4998     3.6981 </r>
       <r>     3.6381     0.5427     3.7512 </r>
       <r>     3.7359     0.5205     3.8021 </r>
       <r>     3.8336     0.4911     3.8501 </r>
       <r>     3.9314     0.5254     3.9015 </r>
       <r>     4.0292     0.6882     3.9688 </r>
       <r>     4.1270     0.9615     4.0628 </r>
       <r>     4.2248     1.1803     4.1782 </r>
       <r>     4.3226     1.1984     4.2954 </r>
       <r>     4.4203     1.0862     4.4016 </r>
       <r>     4.5181     0.9688     4.4964 </r>
       <r>     4.6159     0.8405     4.5785 </r>
       <r>     4.7137     0.6956     4.6466 </r>
       <r>     4.8115     0.6089     4.7061 </r>
       <r>     4.9093     0.6186     4.7666 </r>
       <r>     5.0071     0.6497     4.8301 </r>
       <r>     5.1048     0.6075     4.8895 </r>
       <r>     5.2026     0.5301     4.9414 </r>
       <r>     5.3004     0.5505     4.9952 </r>
       <r>     5.3982     0.7052     5.0642 </r>
       <r>     5.4960     0.8835     5.1506 </r>
       <r>     5.5938     0.9615     5.2446 </r>
       <r>     5.6915     0.9562     5.3381 </r>
       <r>     5.7893     0.9874     5.4346 </r>
       <r>     5.8871     1.0440     5.5367 </r>
       <r>     5.9849     0.9992     5.6344 </r>
       <r>     6.0827     0.8557     5.7181 </r>
       <r>     6.1805     0.7300     5.7895 </r>
       <r>     6.2783     0.7017     5.8581 </r>
       <r>     6.3760     0.7804     5.9344 </r>
       <r>     6.4738     0.8957     6.0220 </r>
       <r>     6.5716     0.9403     6.1140 </r>
       <r>     6.6694     0.8905     6.2010 </r>
       <r>     6.7672     0.8360     6.2828 </r>
       <r>     6.8650     0.8882     6.3696 </r>
       <r>     6.9628     1.0479     6.4721 </r>
       <r>     7.0605     1.2084     6.5903 </r>
       <r>     7.1583     1.3175     6.7191 </r>
       <r>     7.2561     1.3688     6.8529 </r>
       <r>     7.3539     1.3151     6.9815 </r>
       <r>     7.4517     1.1652     7.0955 </r>
       <r>     7.5495     0.9902     7.1923 </r>
       <r>     7.6472     0.8262     7.2731 </r>
       <r>     7.7450     0.7042     7.3419 </r>
       <r>     7.8428     0.6438     7.4049 </r>
       <r>     7.9406     0.6140     7.4649 </r>
       <r>     8.0384     0.5980     7.5234 </r>
       <r>     8.1362     0.6122     7.5833 </r>
       <r>     8.2340     0.6471     7.6466 </r>
       <r>     8.3317     0.6590     7.7110 </r>
       <r>     8.4295     0.6562     7.7752 </r>
       <r>     8.5273     0.7265     7.8462 </r>
       <r>     8.6251     0.8891     7.9331 </r>
       <r>     8.7229     1.0069     8.0316 </r>
       <r>     8.8207     0.9486     8.1244 </r>
       <r>     8.9184     0.8022     8.2028 </r>
       <r>     9.0162     0.7922     8.2803 </r>
       <r>     9.1140     0.9254     8.3708 </r>
       <r>     9.2118     0.9234     8.4610 </r>
       <r>     9.3096     0.6585     8.5254 </r>
       <r>     9.4074     0.3522     8.5599 </r>
       <r>     9.5052     0.2313     8.5825 </r>
       <r>     9.6029     0.3020     8.6120 </r>
       <r>     9.7007     0.4462     8.6557 </r>
       <r>     9.7985     0.5561     8.7100 </r>
       <r>     9.8963     0.6134     8.7700 </r>
       <r>     9.9941     0.6667     8.8352 </r>
       <r>    10.0919     0.7218     8.9058 </r>
       <r>    10.1896     0.7257     8.9768 </r>
       <r>    10.2874     0.6914     9.0444 </r>
       <r>    10.3852     0.7143     9.1142 </r>
       <r>    10.4830     0.8458     9.1969 </r>
       <r>    10.5808     1.0282     9.2975 </r>
       <r>    10.6786     1.1363     9.4086 </r>
       <r>    10.7764     1.1307     9.5191 </r>
       <r>    10.8741     1.1050     9.6272 </r>
       <r>    10.9719     1.0889     9.7337 </r>
       <r>    11.0697     1.0073     9.8322 </r>
       <r>    11.1675     0.8725     9.9175 </r>
       <r>    11.2653     0.8427     9.9999 </r>
       <r>    11.3631     1.0326    10.1009 </r>
       <r>    11.4609     1.3427    10.2322 </r>
       <r>    11.5586     1.5777    10.3864 </r>
       <r>    11.6564     1.6383    10.5466 </r>
       <r>    11.7542     1.5138    10.6947 </r>
       <r>    11.8520     1.2347    10.8154 </r>
       <r>    11.9498     0.9015    10.9036 </r>
       <r>    12.0476     0.6491    10.9670 </r>
       <r>    12.1453     0.5174    11.0176 </r>
       <r>    12.2431     0.4425    11.0609 </r>
       <r>    12.3409     0.4413    11.1040 </r>
       <r>    12.4387     0.6206    11.1647 </r>
       <r>    12.5365     0.9361    11.2563 </r>
       <r>    12.6343     1.1616    11.3699 </r>
       <r>    12.7321     1.1660    11.4839 </r>
       <r>    12.8298     1.0647    11.5880 </r>
       <r>    12.9276     1.0291    11.6886 </r>
       <r>    13.0254     1.0530    11.7916 </r>
       <r>    13.1232     1.0132    11.8907 </r>
       <r>    13.2210     0.8746    11.9762 </r>
       <r>    13.3188     0.7276    12.0473 </r>
       <r>    13.4165     0.6900    12.1148 </r>
       <r>    13.5143     0.8618    12.1991 </r>
       <r>    13.6121     1.2442    12.3207 </r>
       <r>    13.7099     1.6076    12.4779 </r>
       <r>    13.8077     1.6976    12.6439 </r>
       <r>    13.9055     1.5707    12.7975 </r>
       <r>    14.0033     1.4185    12.9362 </r>
       <r>    14.1010     1.2670    13.0601 </r>
       <r>    14.1988     1.0707    13.1648 </r>
       <r>    14.2966     0.8769    13.2506 </r>
       <r>    14.3944     0.7888    13.3277 </r>
       <r>    14.4922     0.8518    13.4110 </r>
       <r>    14.5900     0.9990    13.5087 </r>
       <r>    14.6877     1.1150    13.6177 </r>
       <r>    14.7855     1.1272    13.7280 </r>
       <r>    14.8833     1.0344    13.8291 </r>
       <r>    14.9811     0.9104    13.9181 </r>
       <r>    15.0789     0.8489    14.0011 </r>
       <r>    15.1767     0.8665    14.0859 </r>
       <r>    15.2745     0.9207    14.1759 </r>
       <r>    15.3722     0.9522    14.2690 </r>
       <r>    15.4700     0.9063    14.3576 </r>
       <r>    15.5678     0.8121    14.4370 </r>
       <r>    15.6656     0.7176    14.5072 </r>
       <r>    15.7634     0.6084    14.5667 </r>
       <r>    15.8612     0.5032    14.6159 </r>
       <r>    15.9590     0.4603    14.6609 </r>
       <r>    16.0567     0.4823    14.7081 </r>
       <r>    16.1545     0.5226    14.7592 </r>
       <r>    16.2523     0.5766    14.8156 </r>
       <r>    16.3501     0.6966    14.8837 </r>
       <r>    16.4479     0.8658    14.9683 </r>
       <r>    16.5457     0.9838    15.0645 </r>
       <r>    16.6434     1.0082    15.1631 </r>
       <r>    16.7412     0.9461    15.2556 </r>
       <r>    16.8390     0.7968    15.3335 </r>
       <r>    16.9368     0.5984    15.3921 </r>
       <r>    17.0346     0.4073    15.4319 </r>
       <r>    17.1324     0.2647    15.4578 </r>
       <r>    17.2302     0.1965    15.4770 </r>
       <r>    17.3279     0.1895    15.4955 </r>
       <r>    17.4257     0.2102    15.5161 </r>
       <r>    17.5235     0.2533    15.5409 </r>
       <r>    17.6213     0.3419    15.5743 </r>
       <r>    17.7191     0.4747    15.6207 </r>
       <r>    17.8169     0.5746    15.6769 </r>
       <r>    17.9146     0.5539    15.7310 </r>
       <r>    18.0124     0.4245    15.7726 </r>
       <r>    18.1102     0.2720    15.7992 </r>
       <r>    18.2080     0.1555    15.8144 </r>
       <r>    18.3058     0.0820    15.8224 </r>
       <r>    18.4036     0.0402    15.8263 </r>
       <r>    18.5014     0.0244    15.8287 </r>
       <r>    18.5991     0.0390    15.8325 </r>
       <r>    18.6969     0.0862    15.8409 </r>
       <r>    18.7947     0.1472    15.8553 </r>
       <r>    18.8925     0.1880    15.8737 </r>
       <r>    18.9903     0.1888    15.8922 </r>
       <r>    19.0881     0.1521    15.9071 </r>
       <r>    19.1858     0.0945    15.9163 </r>
       <r>    19.2836     0.0444    15.9206 </r>
       <r>    19.3814     0.0245    15.9230 </r>
       <r>    19.4792     0.0391    15.9269 </r>
       <r>    19.5770     0.0717    15.9339 </r>
       <r>    19.6748     0.0906    15.9427 </r>
       <r>    19.7726     0.0812    15.9507 </r>
       <r>    19.8703     0.0645    15.9570 </r>
       <r>    19.9681     0.0569    15.9625 </r>
       <r>    20.0659     0.0531    15.9677 </r>
       <r>    20.1637     0.0511    15.9727 </r>
       <r>    20.2615     0.0496    15.9776 </r>
       <r>    20.3593     0.0400    15.9815 </r>
       <r>    20.4570     0.0263    15.9841 </r>
       <r>    20.5548     0.0240    15.9864 </r>
       <r>    20.6526     0.0353    15.9899 </r>
       <r>    20.7504     0.0434    15.9941 </r>
       <r>    20.8482     0.0351    15.9975 </r>
       <r>    20.9460     0.0180    15.9993 </r>
       <r>    21.0438     0.0058    15.9999 </r>
       <r>    21.1415     0.0012    16.0000 </r>
       <r>    21.2393     0.0002    16.0000 </r>
       <r>    21.3371     0.0000    16.0000 </r>
       <r>    21.4349     0.0000    16.0000 </r>
       <r>    21.5327     0.0000    16.0000 </r>
       <r>    21.6305     0.0000    16.0000 </r>
       <r>    21.7283     0.0000    16.0000 </r>
       <r>    21.8260     0.0000    16.0000 </r>
       <r>    21.9238     0.0000    16.0000 </r>
       <r>    22.0216     0.0000    16.0000 </r>
       <r>    22.1194     0.0000    16.0000 </r>
       <r>    22.2172     0.0000    16.0000 </r>
       <r>    22.3150     0.0000    16.0000 </r>
       <r>    22.4127     0.0000    16.0000 </r>
       <r>    22.5105     0.0000    16.0000 </r>
       <r>    22.6083     0.0000    16.0000 </r>
       <r>    22.7061     0.0000    16.0000 </r>
      </set>
     </set>
    </array>
   </total>
  </dos>
 </calculation>
 <structure name="finalpos" >
  <crystal>
   <varray name="basis" >
    <v>      -2.42911700       2.42911700       1.33788100 </v>
    <v>       2.42911700      -2.42911700       1.33788100 </v>
    <v>       2.42911700       2.42911700      -1.33788100 </v>
   </varray>
   <i name="volume">     31.57725282 </i>
   <varray name="rec_basis" >
    <v>       0.00000000       0.20583611       0.37372532 </v>
    <v>       0.20583611       0.00000000       0.37372532 </v>
    <v>       0.20583611       0.20583611      -0.00000000 </v>
   </varray>
  </crystal>
  <varray name="positions" >
   <v>       0.75000000       0.25000000       0.50000000 </v>
   <v>       0.50000000       0.50000000       0.00000000 </v>
  </varray>
 </structure>
</modeling>
