unknown system                          
           1
    -2.429117    2.429117    1.337881
     2.429117   -2.429117    1.337881
     2.429117    2.429117   -1.337881
   Si
   2
Direct configuration=     1
   0.75000000  0.25000000  0.50000000
   0.50000000  0.50000000  0.00000000
