unknown system                          
   1.00000000000000     
    -2.415079    2.415079    1.315188
     2.415079   -2.415079    1.315188
     2.415079    2.415079   -1.315188
   Si
     2
Direct
  0.250000  0.750000  0.500000
  0.000000 -0.000000  0.000000
 
   24   24   24
 -.55724912309E+01 -.35749424676E+01 0.14202429391E+01 0.70353208703E+01 0.10923790205E+02
 0.12020723621E+02 0.10854710660E+02 0.88414623797E+01 0.69471121315E+01 0.54630543651E+01
 0.44598048968E+01 0.38981208107E+01 0.37192955697E+01 0.38981966397E+01 0.44598158370E+01
 0.54630084809E+01 0.69471333196E+01 0.88415020357E+01 0.10854633885E+02 0.12020627597E+02
 0.10923865891E+02 0.70354599432E+01 0.14201851167E+01 -.35751255795E+01 -.35751255795E+01
 -.45309279203E+01 -.17220354787E+01 0.34309399967E+01 0.84996642623E+01 0.11470110676E+02
 0.11754773730E+02 0.10203649402E+02 0.81977960197E+01 0.64251440399E+01 0.50938487330E+01
 0.42334588377E+01 0.37926950115E+01 0.37193177103E+01 0.40019376787E+01 0.46775178039E+01
 0.58065034410E+01 0.74105442541E+01 0.93776751034E+01 0.11326587693E+02 0.12110344071E+02
 0.10444215858E+02 0.61606223505E+01 0.67916504809E+00 0.14201851167E+01 -.17221921196E+01
 -.16817519801E+01 0.14897692307E+01 0.61500357288E+01 0.10090412117E+02 0.11816957599E+02
 0.11242436005E+02 0.94236577483E+01 0.74972012068E+01 0.58861211587E+01 0.47271276685E+01
 0.40148419005E+01 0.36928675221E+01 0.37192981502E+01 0.40964206282E+01 0.48696273079E+01
 0.60956938627E+01 0.77755924143E+01 0.97624269392E+01 0.11605766347E+02 0.12121353404E+02
 0.10255309825E+02 0.61606223505E+01 0.70354599432E+01 0.34309001326E+01 0.14896597197E+01
 0.22429597750E+01 0.52421974076E+01 0.88638038596E+01 0.11336892984E+02 0.11766796514E+02
 0.10488524571E+02 0.85834568568E+01 0.67918069540E+01 0.53690438828E+01 0.43879048874E+01
 0.38181372658E+01 0.36050882888E+01 0.37192558885E+01 0.41745562709E+01 0.50202100342E+01
 0.63048702370E+01 0.80092584094E+01 0.99634077680E+01 0.11697347437E+02 0.12121353404E+02
 0.10444215858E+02 0.10923865891E+02 0.84997698167E+01 0.61500201265E+01 0.52421458390E+01
 0.63003390103E+01 0.86642373939E+01 0.10943851561E+02 0.11923540947E+02 0.11269810293E+02
 0.95881031903E+01 0.77440789804E+01 0.61304105030E+01 0.49069556695E+01 0.40962771454E+01
 0.36546926168E+01 0.35346838972E+01 0.37191906350E+01 0.42302874895E+01 0.51162494294E+01
 0.64146812675E+01 0.80897089418E+01 0.99634077680E+01 0.11605766347E+02 0.12110344071E+02
 0.12020627597E+02 0.11470151424E+02 0.10090473545E+02 0.88638126134E+01 0.86642431910E+01
 0.96366447501E+01 0.11099826098E+02 0.12035348587E+02 0.11783700197E+02 0.10440860062E+02
 0.86701886464E+01 0.69655104151E+01 0.55547286135E+01 0.45253947160E+01 0.38669458250E+01
 0.35327197643E+01 0.34855761591E+01 0.37191212711E+01 0.42592989839E+01 0.51492608313E+01
 0.64146812675E+01 0.80092584094E+01 0.97624269392E+01 0.11326587693E+02 0.10854633885E+02
 0.11754711558E+02 0.11816958973E+02 0.11336906680E+02 0.10943879129E+02 0.11099878625E+02
 0.11729560711E+02 0.12276480266E+02 0.12132204390E+02 0.11095371980E+02 0.95050634303E+01
 0.78198040140E+01 0.63020104030E+01 0.50972966295E+01 0.42421663079E+01 0.37095140880E+01
 0.34575717642E+01 0.34603927845E+01 0.37191052307E+01 0.42592989839E+01 0.51162494294E+01
 0.63048702370E+01 0.77755924143E+01 0.93776751034E+01 0.88415020357E+01 0.10203632248E+02
 0.11242409466E+02 0.11766762228E+02 0.11923511113E+02 0.12035385947E+02 0.12276562379E+02
 0.12493552530E+02 0.12326716452E+02 0.11525835551E+02 0.10190220650E+02 0.86356530721E+01
 0.71108854910E+01 0.57973819418E+01 0.47808761797E+01 0.40683624474E+01 0.36295718297E+01
 0.34322236332E+01 0.34603927845E+01 0.37191212711E+01 0.42302874895E+01 0.50202100342E+01
 0.60956938627E+01 0.74105442541E+01 0.69471333196E+01 0.81978316487E+01 0.94236940539E+01
 0.10488531475E+02 0.11269751716E+02 0.11783637577E+02 0.12132241544E+02 0.12326809229E+02
 0.12229636085E+02 0.11676038358E+02 0.10662109102E+02 0.93500685615E+01 0.79346366116E+01
 0.66038366072E+01 0.54826252605E+01 0.46194400769E+01 0.40098435605E+01 0.36295718297E+01
 0.34575717642E+01 0.34855761591E+01 0.37191906350E+01 0.41745562709E+01 0.48696273079E+01
 0.58065034410E+01 0.54630084809E+01 0.64251182919E+01 0.74972290026E+01 0.85835317727E+01
 0.95881386899E+01 0.10440792912E+02 0.11095290634E+02 0.11525864191E+02 0.11676126023E+02
 0.11461476579E+02 0.10849089544E+02 0.98899709217E+01 0.87123618961E+01 0.74812187485E+01
 0.63400278348E+01 0.53757714126E+01 0.46194400769E+01 0.40683624474E+01 0.37095140880E+01
 0.35327197643E+01 0.35346838972E+01 0.37192558885E+01 0.40964206282E+01 0.46775178039E+01
 0.44598158370E+01 0.50937979125E+01 0.58860627781E+01 0.67918217800E+01 0.77441724580E+01
 0.86702462685E+01 0.95050035384E+01 0.10190134502E+02 0.10662124739E+02 0.10849162990E+02
 0.10691730258E+02 0.10177868524E+02 0.93653202583E+01 0.83697024686E+01 0.73245980504E+01
 0.63400278348E+01 0.54826252605E+01 0.47808761797E+01 0.42421663079E+01 0.38669458250E+01
 0.36546926168E+01 0.36050882888E+01 0.37192981502E+01 0.40019376787E+01 0.38981966397E+01
 0.42334963935E+01 0.47270864711E+01 0.53689685344E+01 0.61304061173E+01 0.69656025528E+01
 0.78198776205E+01 0.86356123831E+01 0.93499878109E+01 0.98899734256E+01 0.10177926591E+02
 0.10154229417E+02 0.98059166537E+01 0.91800451880E+01 0.83697024686E+01 0.74812187485E+01
 0.66038366072E+01 0.57973819418E+01 0.50972966295E+01 0.45253947160E+01 0.40962771454E+01
 0.38181372658E+01 0.36928675221E+01 0.37193177103E+01 0.37192955697E+01 0.37927540404E+01
 0.40148960214E+01 0.43878834405E+01 0.49068761601E+01 0.55547004505E+01 0.63020872458E+01
 0.71109701951E+01 0.79346195017E+01 0.87122904737E+01 0.93653133242E+01 0.98059650953E+01
 0.99622035829E+01 0.98059166537E+01 0.93653202583E+01 0.87123618961E+01 0.79346366116E+01
 0.71108854910E+01 0.63020104030E+01 0.55547286135E+01 0.49069556695E+01 0.43879048874E+01
 0.40148419005E+01 0.37926950115E+01 0.38981208107E+01 0.37192711962E+01 0.36928894139E+01
 0.38181936378E+01 0.40962798439E+01 0.45253196214E+01 0.50972442158E+01 0.57974383776E+01
 0.66039285130E+01 0.74812207902E+01 0.83696378888E+01 0.91800348831E+01 0.98059650953E+01
 0.10154229417E+02 0.10177868524E+02 0.98899709217E+01 0.93500685615E+01 0.86356530721E+01
 0.78198040140E+01 0.69655104151E+01 0.61304105030E+01 0.53690438828E+01 0.47271276685E+01
 0.42334588377E+01 0.44598048968E+01 0.40018608365E+01 0.37192029569E+01 0.36050556351E+01
 0.36547386742E+01 0.38669717394E+01 0.42420991798E+01 0.47808039973E+01 0.54826652954E+01
 0.63401235375E+01 0.73246074960E+01 0.83696378888E+01 0.93653133242E+01 0.10177926591E+02
 0.10691730258E+02 0.10849089544E+02 0.10662109102E+02 0.10190220650E+02 0.95050634303E+01
 0.86701886464E+01 0.77440789804E+01 0.67918069540E+01 0.58861211587E+01 0.50938487330E+01
 0.54630543651E+01 0.46775365859E+01 0.40963518199E+01 0.37191118713E+01 0.35345899020E+01
 0.35327492240E+01 0.37095580010E+01 0.40683024832E+01 0.46193570489E+01 0.53758053433E+01
 0.63401235375E+01 0.74812207902E+01 0.87122904737E+01 0.98899734256E+01 0.10849162990E+02
 0.11461476579E+02 0.11676038358E+02 0.11525835551E+02 0.11095371980E+02 0.10440860062E+02
 0.95881031903E+01 0.85834568568E+01 0.74972012068E+01 0.64251440399E+01 0.69471121315E+01
 0.58065307424E+01 0.48696733311E+01 0.41744983995E+01 0.37190033127E+01 0.34854289694E+01
 0.34575868838E+01 0.36296257807E+01 0.40097865434E+01 0.46193570489E+01 0.54826652954E+01
 0.66039285130E+01 0.79346195017E+01 0.93499878109E+01 0.10662124739E+02 0.11676126023E+02
 0.12229636085E+02 0.12326716452E+02 0.12132204390E+02 0.11783700197E+02 0.11269810293E+02
 0.10488524571E+02 0.94236577483E+01 0.81977960197E+01 0.88414623797E+01 0.74104691003E+01
 0.60956950903E+01 0.50202770497E+01 0.42302390338E+01 0.37189039475E+01 0.34602150028E+01
 0.34322332891E+01 0.36296257807E+01 0.40683024832E+01 0.47808039973E+01 0.57974383776E+01
 0.71109701951E+01 0.86356123831E+01 0.10190134502E+02 0.11525864191E+02 0.12326809229E+02
 0.12493552530E+02 0.12276480266E+02 0.12035348587E+02 0.11923540947E+02 0.11766796514E+02
 0.11242436005E+02 0.10203649402E+02 0.10854710660E+02 0.93776340682E+01 0.77754669056E+01
 0.63048468189E+01 0.51163296443E+01 0.42592560908E+01 0.37188772901E+01 0.34602150028E+01
 0.34575868838E+01 0.37095580010E+01 0.42420991798E+01 0.50972442158E+01 0.63020872458E+01
 0.78198776205E+01 0.95050035384E+01 0.11095290634E+02 0.12132241544E+02 0.12276562379E+02
 0.11729560711E+02 0.11099826098E+02 0.10943851561E+02 0.11336892984E+02 0.11816957599E+02
 0.11754773730E+02 0.12020723621E+02 0.11326719045E+02 0.97623860000E+01 0.80090974080E+01
 0.64146432844E+01 0.51493456673E+01 0.42592560908E+01 0.37189039475E+01 0.34854289694E+01
 0.35327492240E+01 0.38669717394E+01 0.45253196214E+01 0.55547004505E+01 0.69656025528E+01
 0.86702462685E+01 0.10440792912E+02 0.11783637577E+02 0.12035385947E+02 0.11099878625E+02
 0.96366447501E+01 0.86642373939E+01 0.88638038596E+01 0.10090412117E+02 0.11470110676E+02
 0.10923790205E+02 0.12110467060E+02 0.11605936234E+02 0.99633674763E+01 0.80895352822E+01
 0.64146432844E+01 0.51163296443E+01 0.42302390338E+01 0.37190033127E+01 0.35345899020E+01
 0.36547386742E+01 0.40962798439E+01 0.49068761601E+01 0.61304061173E+01 0.77441724580E+01
 0.95881386899E+01 0.11269751716E+02 0.11923511113E+02 0.10943879129E+02 0.86642431910E+01
 0.63003390103E+01 0.52421974076E+01 0.61500357288E+01 0.84996642623E+01 0.70353208703E+01
 0.10444116523E+02 0.12121491625E+02 0.11697531337E+02 0.99633674763E+01 0.80090974080E+01
 0.63048468189E+01 0.50202770497E+01 0.41744983995E+01 0.37191118713E+01 0.36050556351E+01
 0.38181936378E+01 0.43878834405E+01 0.53689685344E+01 0.67918217800E+01 0.85835317727E+01
 0.10488531475E+02 0.11766762228E+02 0.11336906680E+02 0.88638126134E+01 0.52421458390E+01
 0.22429597750E+01 0.14897692307E+01 0.34309399967E+01 0.14202429391E+01 0.61604654002E+01
 0.10255202237E+02 0.12121491625E+02 0.11605936234E+02 0.97623860000E+01 0.77754669056E+01
 0.60956950903E+01 0.48696733311E+01 0.40963518199E+01 0.37192029569E+01 0.36928894139E+01
 0.40148960214E+01 0.47270864711E+01 0.58860627781E+01 0.74972290026E+01 0.94236940539E+01
 0.11242409466E+02 0.11816958973E+02 0.10090473545E+02 0.61500201265E+01 0.14896597197E+01
 -.16817519801E+01 -.17220354787E+01 -.35749424676E+01 0.67922953190E+00 0.61604654002E+01
 0.10444116523E+02 0.12110467060E+02 0.11326719045E+02 0.93776340682E+01 0.74104691003E+01
 0.58065307424E+01 0.46775365859E+01 0.40018608365E+01 0.37192711962E+01 0.37927540404E+01
 0.42334963935E+01 0.50937979125E+01 0.64251182919E+01 0.81978316487E+01 0.10203632248E+02
 0.11754711558E+02 0.11470151424E+02 0.84997698167E+01 0.34309001326E+01 -.17221921196E+01
 -.45309279203E+01 -.35747769309E+01 -.21823571652E+01 0.20967319766E+01 0.71677330091E+01
 0.10801971590E+02 0.11870216913E+02 0.10752273818E+02 0.87564046792E+01 0.68510531981E+01
 0.53376485869E+01 0.42955936294E+01 0.36899990482E+01 0.34603588240E+01 0.35753660459E+01
 0.40525018880E+01 0.49468280086E+01 0.63058212162E+01 0.80883450425E+01 0.10070982456E+02
 0.11515875818E+02 0.11086109879E+02 0.80862832268E+01 0.32527030112E+01 -.13854658218E+01
 -.21825572900E+01 -.35748387658E+01 -.13853603870E+01 0.32527228580E+01 0.80861302740E+01
 0.11085981475E+02 0.11515902627E+02 0.10071064447E+02 0.80883797147E+01 0.63058335699E+01
 0.49468352886E+01 0.40524728148E+01 0.35753345117E+01 0.34603869686E+01 0.36900435158E+01
 0.42955838082E+01 0.53376341218E+01 0.68510881540E+01 0.87563918938E+01 0.10752145396E+02
 0.11870140181E+02 0.10802107504E+02 0.71679139269E+01 0.20966873140E+01 0.22529616275E+01
 -.12157145075E+01 -.17219909201E+01 0.94563607394E+00 0.53625446156E+01 0.93667097701E+01
 0.11338132894E+02 0.11000516990E+02 0.92886683025E+01 0.73827663543E+01 0.57601617386E+01
 0.45759588513E+01 0.38365915490E+01 0.34882643839E+01 0.34855623970E+01 0.38253813144E+01
 0.45501388891E+01 0.57209020908E+01 0.73552885286E+01 0.93371515941E+01 0.11290564223E+02
 0.12129325858E+02 0.10705018144E+02 0.69548874279E+01 0.75588676545E+01 0.36987135056E+01
 0.12603901840E+01 0.14897243227E+01 0.41778478391E+01 0.78175863607E+01 0.10568594601E+02
 0.11344338547E+02 0.10299708709E+02 0.84667625507E+01 0.66872957748E+01 0.52503455003E+01
 0.42482347253E+01 0.36606856812E+01 0.34339191299E+01 0.35346470605E+01 0.39729616396E+01
 0.47982512437E+01 0.60668451827E+01 0.77768806544E+01 0.97829335313E+01 0.11664544095E+02
 0.12350594429E+02 0.10919269351E+02 0.11415101363E+02 0.88128920719E+01 0.60353929494E+01
 0.45942798751E+01 0.52421046509E+01 0.74935674478E+01 0.99726777596E+01 0.11316905116E+02
 0.10989077987E+02 0.94629312538E+01 0.76578215436E+01 0.60448203538E+01 0.48061714281E+01
 0.39815898822E+01 0.35341474401E+01 0.34154769283E+01 0.36050340502E+01 0.41231486671E+01
 0.50211872243E+01 0.63463109362E+01 0.80779202406E+01 0.10053003440E+02 0.11855897839E+02
 0.12539331876E+02 0.12636257858E+02 0.12015490040E+02 0.10331692890E+02 0.86292618771E+01
 0.79595893220E+01 0.86641085346E+01 0.10157081189E+02 0.11357045928E+02 0.11430520871E+02
 0.10304399074E+02 0.85998289876E+01 0.69107022615E+01 0.54915702605E+01 0.44502433714E+01
 0.37885287426E+01 0.34628700822E+01 0.34339695860E+01 0.36927852868E+01 0.42656896162E+01
 0.52010255676E+01 0.65340062327E+01 0.82289837944E+01 0.10119193260E+02 0.11840597382E+02
 0.11593843037E+02 0.12542357242E+02 0.12467875611E+02 0.11654271590E+02 0.10829193026E+02
 0.10622638568E+02 0.11099692943E+02 0.11729961914E+02 0.11804604054E+02 0.10967192674E+02
 0.94558845351E+01 0.77918689937E+01 0.62713139571E+01 0.50562754465E+01 0.41981532569E+01
 0.36765750721E+01 0.34495735727E+01 0.34883637124E+01 0.37926306094E+01 0.43902289151E+01
 0.53224778210E+01 0.66119768145E+01 0.82137902630E+01 0.99707051529E+01 0.96169852361E+01
 0.11108356808E+02 0.12170075386E+02 0.12548628183E+02 0.12409153548E+02 0.12175897950E+02
 0.12155277713E+02 0.12276375994E+02 0.12162414964E+02 0.11464681589E+02 0.10177766858E+02
 0.86315698003E+01 0.71026953733E+01 0.57794454204E+01 0.47600146735E+01 0.40595640534E+01
 0.36492594027E+01 0.34941543876E+01 0.35754690007E+01 0.38980816758E+01 0.44872410306E+01
 0.53748367665E+01 0.65722906801E+01 0.80320773723E+01 0.77003392908E+01 0.90876751926E+01
 0.10414973026E+02 0.11495513058E+02 0.12155082356E+02 0.12437004682E+02 0.12525975270E+02
 0.12521998285E+02 0.12326627430E+02 0.11744721249E+02 0.10705341575E+02 0.93680403348E+01
 0.79348805580E+01 0.65906598441E+01 0.54663997766E+01 0.46169183436E+01 0.40394188420E+01
 0.37068370179E+01 0.35939727342E+01 0.36901626974E+01 0.40018922270E+01 0.45489248568E+01
 0.53533341928E+01 0.64184653207E+01 0.61652302061E+01 0.72496009671E+01 0.84290378798E+01
 0.95820778217E+01 0.10586371834E+02 0.11347033176E+02 0.11826654521E+02 0.12054722468E+02
 0.12027053271E+02 0.11675995128E+02 0.10956324900E+02 0.99257085051E+01 0.87039730383E+01
 0.74484037073E+01 0.63019238391E+01 0.53537393847E+01 0.46348576676E+01 0.41388328112E+01
 0.38468926600E+01 0.37441197044E+01 0.38255263998E+01 0.40964769913E+01 0.45701100679E+01
 0.52600377147E+01 0.51035637483E+01 0.58362731668E+01 0.67209085002E+01 0.76979264765E+01
 0.86812374555E+01 0.95803712068E+01 0.10322933495E+02 0.10859910350E+02 0.11152648829E+02
 0.11160445916E+02 0.10849066263E+02 0.10218976749E+02 0.93288532534E+01 0.82903121466E+01
 0.72334741712E+01 0.62663707894E+01 0.54528649003E+01 0.48159676599E+01 0.43554009784E+01
 0.40642133836E+01 0.39372192683E+01 0.39730961178E+01 0.41747113171E+01 0.45490204071E+01
 0.44874107640E+01 0.48978832721E+01 0.54608651370E+01 0.61595141243E+01 0.69541905278E+01
 0.77858289369E+01 0.85883286200E+01 0.93001886563E+01 0.98665234908E+01 0.10233782012E+02
 0.10349723473E+02 0.10177877608E+02 0.97200982300E+01 0.90288379303E+01 0.81960509261E+01
 0.73238881846E+01 0.64959164944E+01 0.57645648743E+01 0.51560243655E+01 0.46823219810E+01
 0.43501102249E+01 0.41633135373E+01 0.41232975027E+01 0.42305386395E+01 0.42595764924E+01
 0.43904467687E+01 0.46604057043E+01 0.50697196574E+01 0.56089836217E+01 0.62536219392E+01
 0.69652492746E+01 0.76979438916E+01 0.84027430259E+01 0.90262346122E+01 0.95075679956E+01
 0.97835391236E+01 0.98059459345E+01 0.95627049721E+01 0.90872172732E+01 0.84476744009E+01
 0.77232510546E+01 0.69828902872E+01 0.62773283585E+01 0.56427491642E+01 0.51069826058E+01
 0.46914790146E+01 0.44095602766E+01 0.42658077859E+01 0.43903309660E+01 0.42595666576E+01
 0.42659126467E+01 0.44096512649E+01 0.46914490239E+01 0.51068780271E+01 0.56427088488E+01
 0.62773974350E+01 0.69829620703E+01 0.77232291889E+01 0.84476144437E+01 0.90872248273E+01
 0.95627575842E+01 0.98059381779E+01 0.97834743855E+01 0.95075617249E+01 0.90263123251E+01
 0.84027780225E+01 0.76978553550E+01 0.69651434135E+01 0.62536435964E+01 0.56091046053E+01
 0.50697780613E+01 0.46603259620E+01 0.48978692411E+01 0.44873111283E+01 0.42304724224E+01
 0.41233441553E+01 0.41634183839E+01 0.43501398893E+01 0.46822351464E+01 0.51559393484E+01
 0.57645969329E+01 0.64960069250E+01 0.73238996930E+01 0.81959856400E+01 0.90288184437E+01
 0.97201485461E+01 0.10177887131E+02 0.10349654019E+02 0.10233745644E+02 0.98665868761E+01
 0.93002442429E+01 0.85882605640E+01 0.77857014455E+01 0.69541586645E+01 0.61596075305E+01
 0.54609605008E+01 0.58363853155E+01 0.51035876440E+01 0.45489354764E+01 0.41746126296E+01
 0.39730972291E+01 0.39373110607E+01 0.40642579217E+01 0.43553236115E+01 0.48158818393E+01
 0.54529012504E+01 0.62664635286E+01 0.72334713254E+01 0.82902337665E+01 0.93288474012E+01
 0.10219048105E+02 0.10849063500E+02 0.11160336403E+02 0.11152591715E+02 0.10859991236E+02
 0.10323014325E+02 0.95803041214E+01 0.86810857714E+01 0.76978630408E+01 0.67209855572E+01
 0.72496028153E+01 0.61653163836E+01 0.52601198455E+01 0.45700760895E+01 0.40963389174E+01
 0.38254437469E+01 0.37441803116E+01 0.38469684021E+01 0.41387835201E+01 0.46347646494E+01
 0.53537599903E+01 0.63020156498E+01 0.74484064165E+01 0.87038938547E+01 0.99256948253E+01
 0.10956387319E+02 0.11675991335E+02 0.12026951866E+02 0.12054664946E+02 0.11826717005E+02
 0.11347108952E+02 0.10586343483E+02 0.95819685785E+01 0.84289499064E+01 0.90875541922E+01
 0.77002787220E+01 0.64185382127E+01 0.53534508103E+01 0.45488995756E+01 0.40017129022E+01
 0.36900413144E+01 0.35940272658E+01 0.37069091023E+01 0.40393539850E+01 0.46168292475E+01
 0.54664496265E+01 0.65907609289E+01 0.79348515604E+01 0.93679293343E+01 0.10705333770E+02
 0.11744813054E+02 0.12326646542E+02 0.12521904721E+02 0.12525913122E+02 0.12437061551E+02
 0.12155179595E+02 0.11495539144E+02 0.10414898876E+02 0.11108360641E+02 0.96168767457E+01
 0.80319504765E+01 0.65723071110E+01 0.53749589681E+01 0.44872420483E+01 0.38978983872E+01
 0.35753152358E+01 0.34941748880E+01 0.36493165951E+01 0.40595149198E+01 0.47599566534E+01
 0.57795001588E+01 0.71027640508E+01 0.86315162661E+01 0.10177670483E+02 0.11464695810E+02
 0.12162510223E+02 0.12276417614E+02 0.12155250661E+02 0.12175887575E+02 0.12409193851E+02
 0.12548695976E+02 0.12170141888E+02 0.12542487532E+02 0.11593919331E+02 0.99705898744E+01
 0.82136099704E+01 0.66119726198E+01 0.53226106941E+01 0.43902225177E+01 0.37924246205E+01
 0.34882081716E+01 0.34496075954E+01 0.36766317458E+01 0.41980949836E+01 0.50562201714E+01
 0.62713750258E+01 0.77919337101E+01 0.94558272536E+01 0.10967100057E+02 0.11804622806E+02
 0.11730082345E+02 0.11099812969E+02 0.10622708023E+02 0.10829209531E+02 0.11654262330E+02
 0.12467920909E+02 0.12015489005E+02 0.12636398241E+02 0.11840726490E+02 0.10119117039E+02
 0.82288060273E+01 0.65339750204E+01 0.52011186895E+01 0.42656669116E+01 0.36926121147E+01
 0.34338587927E+01 0.34629024697E+01 0.37885529976E+01 0.44501870272E+01 0.54915498056E+01
 0.69107657346E+01 0.85998575648E+01 0.10304336105E+02 0.11430474650E+02 0.11357105999E+02
 0.10157217279E+02 0.86642720652E+01 0.79597428234E+01 0.86293277884E+01 0.10331654006E+02
 0.88127850379E+01 0.11415039563E+02 0.12539491142E+02 0.11856082227E+02 0.10052954638E+02
 0.80777395473E+01 0.63462691195E+01 0.50212701275E+01 0.41231278389E+01 0.36048861086E+01
 0.34153955377E+01 0.35341892834E+01 0.39816172188E+01 0.48061276996E+01 0.60447951187E+01
 0.76578486151E+01 0.94629471503E+01 0.10989069966E+02 0.11316921994E+02 0.99727333519E+01
 0.74936752524E+01 0.52423125782E+01 0.45945280137E+01 0.60354856229E+01 0.36988049079E+01
 0.75587317921E+01 0.10919177284E+02 0.12350731529E+02 0.11664719074E+02 0.97829113779E+01
 0.77767555324E+01 0.60668265832E+01 0.47982991915E+01 0.39729153080E+01 0.35345428958E+01
 0.34339032539E+01 0.36607388847E+01 0.42482335284E+01 0.52502921553E+01 0.66872764406E+01
 0.84667767584E+01 0.10299715812E+02 0.11344365894E+02 0.10568659596E+02 0.78176435821E+01
 0.41779240761E+01 0.14899244665E+01 0.12606558556E+01 -.12154493998E+01 0.22530564811E+01
 0.69547191354E+01 0.10704875048E+02 0.12129425628E+02 0.11290738329E+02 0.93371679369E+01
 0.73552047405E+01 0.57208830344E+01 0.45501629604E+01 0.38253496543E+01 0.34855111134E+01
 0.34882706260E+01 0.38366195628E+01 0.45759508346E+01 0.57601410567E+01 0.73827481808E+01
 0.92886244935E+01 0.11000495081E+02 0.11338222045E+02 0.93668453554E+01 0.53625740854E+01
 0.94561345418E+00 -.17218546071E+01 0.14207915876E+01 0.22534249072E+01 0.53523920776E+01
 0.91042603885E+01 0.11694154186E+02 0.12171741200E+02 0.10854575768E+02 0.88569822614E+01
 0.69676798611E+01 0.54531148189E+01 0.43892408364E+01 0.37440176749E+01 0.34575402199E+01
 0.34940528012E+01 0.38626196282E+01 0.46105660452E+01 0.57884207134E+01 0.73842843072E+01
 0.92448255127E+01 0.10937688324E+02 0.11419584431E+02 0.98983099997E+01 0.66882472947E+01
 0.32529835055E+01 0.20969376749E+01 0.67973944342E+00 0.20971149474E+01 0.55775061265E+01
 0.93022575061E+01 0.11536735156E+02 0.11605860831E+02 0.10085381222E+02 0.81305977887E+01
 0.63697865068E+01 0.50127041222E+01 0.41020815712E+01 0.35938540094E+01 0.34321956478E+01
 0.35938671286E+01 0.41020814941E+01 0.50127089972E+01 0.63698034964E+01 0.81305535342E+01
 0.10085264417E+02 0.11605837670E+02 0.11536913783E+02 0.93024438421E+01 0.55774562012E+01
 0.53523054208E+01 0.22531507261E+01 0.14206526014E+01 0.32530337372E+01 0.66882484823E+01
 0.98981595330E+01 0.11419446352E+02 0.10937689096E+02 0.92448935440E+01 0.73843256275E+01
 0.57884355659E+01 0.46105644793E+01 0.38625946540E+01 0.34940398922E+01 0.34575666352E+01
 0.37440329662E+01 0.43892174964E+01 0.54531235370E+01 0.69677337118E+01 0.88569507859E+01
 0.10854424510E+02 0.12171682492E+02 0.11694331557E+02 0.91044517770E+01 0.94686719098E+01
 0.61340478420E+01 0.36987846068E+01 0.34311506610E+01 0.53627404397E+01 0.82924409148E+01
 0.10586174548E+02 0.11189655493E+02 0.10157628508E+02 0.83920768653E+01 0.66663695743E+01
 0.52594334231E+01 0.42692939741E+01 0.36830393916E+01 0.34495292071E+01 0.35327498185E+01
 0.39371992823E+01 0.47078380102E+01 0.59035007682E+01 0.75396824733E+01 0.95090475801E+01
 0.11498870605E+02 0.12654833161E+02 0.12004344100E+02 0.12474821220E+02 0.10343559108E+02
 0.77220656636E+01 0.60353456085E+01 0.61500508169E+01 0.78176533295E+01 0.98762429608E+01
 0.11046517133E+02 0.10735852456E+02 0.92993770305E+01 0.75744106636E+01 0.60167871875E+01
 0.48107170349E+01 0.40056512053E+01 0.35720045852E+01 0.34629238512E+01 0.36547531945E+01
 0.41633387386E+01 0.50380535096E+01 0.63311030153E+01 0.80391779783E+01 0.10030275563E+02
 0.11971877975E+02 0.13048600852E+02 0.13301412711E+02 0.12992321699E+02 0.11474107157E+02
 0.96639371016E+01 0.86291250910E+01 0.88636466265E+01 0.99726068260E+01 0.10989616110E+02
 0.11071252959E+02 0.10047769884E+02 0.84438184778E+01 0.68331023279E+01 0.54674727168E+01
 0.44626716615E+01 0.38309179519E+01 0.35344858231E+01 0.35342926298E+01 0.38182203356E+01
 0.44096194848E+01 0.53568789837E+01 0.67010720858E+01 0.84205603483E+01 0.10368772475E+02
 0.12227050718E+02 0.12221847367E+02 0.13328417063E+02 0.13363100813E+02 0.12496703149E+02
 0.11417233383E+02 0.10828988603E+02 0.10943569645E+02 0.11356896275E+02 0.11393925967E+02
 0.10637266685E+02 0.92294001263E+01 0.76547591347E+01 0.62050994751E+01 0.50428538187E+01
 0.42289645822E+01 0.37515667270E+01 0.35721432716E+01 0.36609276020E+01 0.40149226018E+01
 0.46603703431E+01 0.56397075660E+01 0.69802169550E+01 0.86452120312E+01 0.10485509030E+02
 0.10362036704E+02 0.11932676076E+02 0.13049300558E+02 0.13393750169E+02 0.13076123241E+02
 0.12537212561E+02 0.12175696345E+02 0.12035038597E+02 0.11804392766E+02 0.11119184437E+02
 0.99021614075E+01 0.84329643912E+01 0.69807097833E+01 0.57227644623E+01 0.47608727515E+01
 0.41178941012E+01 0.37700721966E+01 0.36832890679E+01 0.38368626443E+01 0.42335256800E+01
 0.48978480859E+01 0.58626910409E+01 0.71413807641E+01 0.86878553184E+01 0.85416372051E+01
 0.10005358089E+02 0.11373956783E+02 0.12434090718E+02 0.12975822250E+02 0.13027944292E+02
 0.12816925859E+02 0.12525785419E+02 0.12131889954E+02 0.11464472799E+02 0.10419867515E+02
 0.91176038124E+01 0.77462466858E+01 0.64697188160E+01 0.54131347277E+01 0.46340603057E+01
 0.41334675311E+01 0.38853484424E+01 0.38628506601E+01 0.40527537905E+01 0.44598492262E+01
 0.51034957035E+01 0.60055696282E+01 0.71678238577E+01 0.70563262532E+01 0.82199801190E+01
 0.94480736286E+01 0.10600409222E+02 0.11534085446E+02 0.12137079309E+02 0.12378162797E+02
 0.12331288143E+02 0.12054587307E+02 0.11525593525E+02 0.10705167741E+02 0.96428816217E+01
 0.84436605146E+01 0.72411445502E+01 0.61640865790E+01 0.52969641809E+01 0.46701618553E+01
 0.42761122551E+01 0.40930591075E+01 0.41022875028E+01 0.42958194894E+01 0.46775635080E+01
 0.52599416752E+01 0.60547526782E+01 0.60054252633E+01 0.68179394221E+01 0.77548112254E+01
 0.87437342190E+01 0.96842983734E+01 0.10474085124E+02 0.11038248691E+02 0.11341867644E+02
 0.11379303042E+02 0.11152575451E+02 0.10661945639E+02 0.99255879695E+01 0.89989630512E+01
 0.79786014864E+01 0.69785956673E+01 0.60959432331E+01 0.53879750659E+01 0.48723750664E+01
 0.45426651410E+01 0.43852109410E+01 0.43892905533E+01 0.45502967984E+01 0.48696958986E+01
 0.53532410481E+01 0.53747505899E+01 0.58624357324E+01 0.64763233516E+01 0.71912837484E+01
 0.79581727686E+01 0.87090104813E+01 0.93724129118E+01 0.98897657532E+01 0.10221512010E+02
 0.10342128358E+02 0.10233767054E+02 0.98898985816E+01 0.93288085970E+01 0.86039527838E+01
 0.77980009804E+01 0.70007462042E+01 0.62845320201E+01 0.56917677303E+01 0.52382992409E+01
 0.49252403240E+01 0.47493824770E+01 0.47077614812E+01 0.47983246949E+01 0.50202955185E+01
 0.51163495675E+01 0.53224576463E+01 0.56394510940E+01 0.60636847891E+01 0.65804700305E+01
 0.71596023635E+01 0.77580693984E+01 0.83283572837E+01 0.88260956360E+01 0.92120397192E+01
 0.94499787217E+01 0.95076198752E+01 0.93653322664E+01 0.90288240127E+01 0.85352524876E+01
 0.79455657063E+01 0.73265177391E+01 0.67335222970E+01 0.62034485075E+01 0.57577537603E+01
 0.54094846972E+01 0.51676919492E+01 0.50378227095E+01 0.50211534531E+01 0.52009079366E+01
 0.51493572154E+01 0.52010623559E+01 0.53566751989E+01 0.56158886218E+01 0.59721980489E+01
 0.64096936205E+01 0.69043528369E+01 0.74276171229E+01 0.79478483849E+01 0.84280627001E+01
 0.88237863233E+01 0.90872922510E+01 0.91800703979E+01 0.90872266809E+01 0.88237737323E+01
 0.84281340135E+01 0.79478851523E+01 0.74275450513E+01 0.69042756795E+01 0.64097439476E+01
 0.59723294987E+01 0.56159242091E+01 0.53565460424E+01 0.56393919335E+01 0.53223232092E+01
 0.51163277835E+01 0.50213006186E+01 0.50379959208E+01 0.51677194567E+01 0.54093723614E+01
 0.57576686923E+01 0.62034913555E+01 0.67335993066E+01 0.73265005607E+01 0.79454933500E+01
 0.85352543327E+01 0.90288942639E+01 0.93653392803E+01 0.95075387089E+01 0.94499454616E+01
 0.92121217912E+01 0.88261628205E+01 0.83282819412E+01 0.77579387922E+01 0.71596010241E+01
 0.65806110565E+01 0.60637892967E+01 0.64764680103E+01 0.58624639839E+01 0.53746741708E+01
 0.50202543297E+01 0.47984232673E+01 0.47079372356E+01 0.47494643038E+01 0.49251634648E+01
 0.52381981004E+01 0.56917844958E+01 0.62846112871E+01 0.70007435638E+01 0.77979295700E+01
 0.86039492290E+01 0.93288801558E+01 0.98899028945E+01 0.10233669046E+02 0.10342079381E+02
 0.10221597451E+02 0.98898471333E+01 0.93723369007E+01 0.87088486484E+01 0.79581222917E+01
 0.71914001954E+01 0.77548703063E+01 0.68181028042E+01 0.60055428130E+01 0.53532249215E+01
 0.48696241946E+01 0.45503327320E+01 0.43894561656E+01 0.43853273633E+01 0.45426047832E+01
 0.48722613998E+01 0.53879884691E+01 0.60960357572E+01 0.69785939518E+01 0.79785145405E+01
 0.89989541693E+01 0.99256702397E+01 0.10661951999E+02 0.11152457605E+02 0.11379228625E+02
 0.11341945511E+02 0.11038349109E+02 0.10474037214E+02 0.96841327152E+01 0.87436280051E+01
 0.94479324047E+01 0.82199612959E+01 0.70564663846E+01 0.60549290307E+01 0.52599817470E+01
 0.46774743124E+01 0.42957969339E+01 0.41024191643E+01 0.40931742984E+01 0.42760577452E+01
 0.46700558585E+01 0.52969883210E+01 0.61641779147E+01 0.72411263073E+01 0.84435638389E+01
 0.96428797793E+01 0.10705256396E+02 0.11525596731E+02 0.12054467373E+02 0.12331212536E+02
 0.12378234388E+02 0.12137189427E+02 0.11534081467E+02 0.10600278575E+02 0.11373896224E+02
 0.10005190785E+02 0.85415254027E+01 0.71679209727E+01 0.60057850582E+01 0.51035737442E+01
 0.44597364056E+01 0.40526788455E+01 0.38629494989E+01 0.38854516792E+01 0.41334101246E+01
 0.46339629881E+01 0.54131711900E+01 0.64698072205E+01 0.77462130769E+01 0.91174974121E+01
 0.10419864145E+02 0.11464568202E+02 0.12131924216E+02 0.12525714443E+02 0.12816869547E+02
 0.13027991557E+02 0.12975930977E+02 0.12434156036E+02 0.13049422354E+02 0.11932690048E+02
 0.10361870455E+02 0.86876813684E+01 0.71414317323E+01 0.58629020397E+01 0.48979273669E+01
 0.42333999157E+01 0.38367690049E+01 0.36833628472E+01 0.37701466506E+01 0.41178308127E+01
 0.47608005648E+01 0.57228181501E+01 0.69807797957E+01 0.84329051924E+01 0.99020541862E+01
 0.11119195425E+02 0.11804512972E+02 0.12035134362E+02 0.12175712584E+02 0.12537198431E+02