       N       E                     dE             d eps       ncg     rms          rms(c)
DAV:   1    -0.119864073681E+02   -0.11986E+02   -0.25071E-05    24   0.387E-02    0.262E-03
DAV:   2    -0.119864071237E+02    0.24436E-06   -0.92313E-07    24   0.798E-03
   1 F= -.11986407E+02 E0= -.11958198E+02  d E =-.119864E+02
