 vasp.5.4.4.18Apr17-6-g9f103f2a35 (build Dec 09 2018 21:25:21) complex          
  
 executed on IFC18.0.1.163_CrayMP date 2019.03.19  13:43:14
 running on    8 total cores
 distrk:  each k-point on    8 cores,    1 groups
 distr:  one band on NCORES_PER_BAND=   1 cores,    8 groups


--------------------------------------------------------------------------------------------------------


 INCAR:
 POTCAR:   PAW_PBE Si 05Jan2001                   

 ----------------------------------------------------------------------------- 
|                                                                             |
|           W    W    AA    RRRRR   N    N  II  N    N   GGGG   !!!           |
|           W    W   A  A   R    R  NN   N  II  NN   N  G    G  !!!           |
|           W    W  A    A  R    R  N N  N  II  N N  N  G       !!!           |
|           W WW W  AAAAAA  RRRRR   N  N N  II  N  N N  G  GGG   !            |
|           WW  WW  A    A  R   R   N   NN  II  N   NN  G    G                |
|           W    W  A    A  R    R  N    N  II  N    N   GGGG   !!!           |
|                                                                             |
|      For optimal performance we recommend to set                            |
|        NCORE= 4 - approx SQRT( number of cores)                             |
|      NCORE specifies how many cores store one orbital (NPAR=cpu/NCORE).     |
|      This setting can  greatly improve the performance of VASP for DFT.     |
|      The default,   NCORE=1            might be grossly inefficient         |
|      on modern multi-core architectures or massively parallel machines.     |
|      Do your own testing !!!!                                               |
|      Unfortunately you need to use the default for GW and RPA calculations. |
|      (for HF NCORE is supported but not extensively tested yet)             |
|                                                                             |
 ----------------------------------------------------------------------------- 

 POTCAR:   PAW_PBE Si 05Jan2001                   
   VRHFIN =Si: s2p2                                                             
   LEXCH  = PE                                                                  
   EATOM  =   103.0669 eV,    7.5752 Ry                                         
                                                                                
   TITEL  = PAW_PBE Si 05Jan2001                                                
   LULTRA =        F    use ultrasoft PP ?                                      
   IUNSCR =        1    unscreen: 0-lin 1-nonlin 2-no                           
   RPACOR =    1.500    partial core radius                                     
   POMASS =   28.085; ZVAL   =    4.000    mass and valenz                      
   RCORE  =    1.900    outmost cutoff radius                                   
   RWIGS  =    2.480; RWIGS  =    1.312    wigner-seitz radius (au A)           
   ENMAX  =  245.345; ENMIN  =  184.009 eV                                      
   ICORE  =        2    local potential                                         
   LCOR   =        T    correct aug charges                                     
   LPAW   =        T    paw PP                                                  
   EAUG   =  322.069                                                            
   DEXC   =    -.007                                                            
   RMAX   =    2.944    core radius for proj-oper                               
   RAUG   =    1.300    factor for augmentation sphere                          
   RDEP   =    1.993    radius for radial grids                                 
   QCUT   =   -4.246; QGAM   =    8.493    optimization parameters              
                                                                                
   Description                                                                  
     l     E      TYP  RCUT    TYP  RCUT                                        
     0   .000     23  1.900                                                     
     0   .000     23  1.900                                                     
     1   .000     23  1.900                                                     
     1   .000     23  1.900                                                     
     2   .000      7  1.900                                                     
  local pseudopotential read in
  partial core-charges read in
  atomic valenz-charges read in
  non local Contribution for L=           0  read in
    real space projection operators read in
  non local Contribution for L=           0  read in
    real space projection operators read in
  non local Contribution for L=           1  read in
    real space projection operators read in
  non local Contribution for L=           1  read in
    real space projection operators read in
    PAW grid and wavefunctions read in
 
   number of l-projection  operators is LMAX  =           4
   number of lm-projection operators is LMMAX =           8
 
 PAW_PBE Si 05Jan2001                   :
 energy of atom  1       EATOM= -103.0669
 kinetic energy error for atom=    0.0013 (will be added to EATOM!!)
 
 
 POSCAR: Si2                                     
  positions in direct lattice
  No initial velocities read in
 exchange correlation table for  LEXCH =        8
   RHO(1)=    0.500       N(1)  =     2000
   RHO(2)=  100.500       N(2)  =     4000
 


--------------------------------------------------------------------------------------------------------


 ion  position               nearest neighbor table
   1  0.500  0.500  0.500-   2 2.35   2 2.35   2 2.35   2 2.35
   2  0.750  0.750  0.750-   1 2.35   1 2.35   1 2.35   1 2.35
 
  LATTYP: Found a face centered cubic cell.
 ALAT       =     5.4300000000
  
  Lattice vectors:
  
 A1 = (   0.0000000000,   2.7150000000,   2.7150000000)
 A2 = (   2.7150000000,   0.0000000000,   2.7150000000)
 A3 = (   2.7150000000,   2.7150000000,   0.0000000000)


Analysis of symmetry for initial positions (statically):
=====================================================================
 Subroutine PRICEL returns:
 Original cell was already a primitive cell.
 

 Routine SETGRP: Setting up the symmetry group for a 
 face centered cubic supercell.


 Subroutine GETGRP returns: Found 48 space group operations
 (whereof 24 operations were pure point group operations)
 out of a pool of 48 trial point group operations.


The static configuration has the point symmetry T_d .
 The point group associated with its full space group is O_h .


Analysis of symmetry for dynamics (positions and initial velocities):
=====================================================================
 Subroutine PRICEL returns:
 Original cell was already a primitive cell.
 

 Routine SETGRP: Setting up the symmetry group for a 
 face centered cubic supercell.


 Subroutine GETGRP returns: Found 48 space group operations
 (whereof 24 operations were pure point group operations)
 out of a pool of 48 trial point group operations.


The dynamic configuration has the point symmetry T_d .
 The point group associated with its full space group is O_h .


 Subroutine INISYM returns: Found 48 space group operations
 (whereof 24 operations are pure point group operations),
 and found     1 'primitive' translations

 
 
 KPOINTS: Automatic kpoint scheme                 

Automatic generation of k-mesh.
Space group operators:
 irot       det(A)        alpha          n_x          n_y          n_z        tau_x        tau_y        tau_z
    1     1.000000     0.000001     1.000000     0.000000     0.000000     0.000000     0.000000     0.000000
    2     1.000000   120.000000    -0.577350    -0.577350    -0.577350     0.000000     0.000000     0.000000
    3     1.000000   120.000000     0.577350     0.577350     0.577350     0.000000     0.000000     0.000000
    4    -1.000000    90.000000    -0.000000    -0.000000    -1.000000     0.000000     0.000000     0.000000
    5    -1.000000   180.000000    -0.000000     0.707107     0.707107     0.000000     0.000000     0.000000
    6    -1.000000    90.000000    -0.000000     1.000000    -0.000000     0.000000     0.000000     0.000000
    7     1.000000   180.000000     0.000000     0.000000    -1.000000     0.000000     0.000000     0.000000
    8     1.000000   120.000000    -0.577350     0.577350     0.577350     0.000000     0.000000     0.000000
    9     1.000000   120.000000    -0.577350     0.577350    -0.577350     0.000000     0.000000     0.000000
   10    -1.000000    90.000000     0.000000     0.000000     1.000000     0.000000     0.000000     0.000000
   11    -1.000000    90.000000    -1.000000     0.000000    -0.000000     0.000000     0.000000     0.000000
   12    -1.000000   180.000000     0.707107     0.000000     0.707107     0.000000     0.000000     0.000000
   13     1.000000   120.000000     0.577350    -0.577350     0.577350     0.000000     0.000000     0.000000
   14     1.000000   120.000000    -0.577350    -0.577350     0.577350     0.000000     0.000000     0.000000
   15     1.000000   180.000000     1.000000     0.000000     0.000000     0.000000     0.000000     0.000000
   16    -1.000000    90.000000     0.000000    -1.000000     0.000000     0.000000     0.000000     0.000000
   17    -1.000000   180.000000     0.707107     0.707107    -0.000000     0.000000     0.000000     0.000000
   18    -1.000000    90.000000     1.000000     0.000000     0.000000     0.000000     0.000000     0.000000
   19     1.000000   120.000000     0.577350    -0.577350    -0.577350     0.000000     0.000000     0.000000
   20     1.000000   180.000000     0.000000    -1.000000     0.000000     0.000000     0.000000     0.000000
   21     1.000000   120.000000     0.577350     0.577350    -0.577350     0.000000     0.000000     0.000000
   22    -1.000000   180.000000    -0.000000    -0.707107     0.707107     0.000000     0.000000     0.000000
   23    -1.000000   180.000000     0.707107    -0.707107    -0.000000     0.000000     0.000000     0.000000
   24    -1.000000   180.000000    -0.707107     0.000000     0.707107     0.000000     0.000000     0.000000
   25    -1.000000     0.000001     1.000000     0.000000     0.000000     0.250000     0.250000     0.250000
   26    -1.000000   120.000000    -0.577350    -0.577350    -0.577350     0.250000     0.250000     0.250000
   27    -1.000000   120.000000     0.577350     0.577350     0.577350     0.250000     0.250000     0.250000
   28     1.000000    90.000000    -0.000000    -0.000000    -1.000000     0.250000     0.250000     0.250000
   29     1.000000   180.000000    -0.000000     0.707107     0.707107     0.250000     0.250000     0.250000
   30     1.000000    90.000000    -0.000000     1.000000    -0.000000     0.250000     0.250000     0.250000
   31    -1.000000   180.000000     0.000000     0.000000    -1.000000     0.250000     0.250000     0.250000
   32    -1.000000   120.000000    -0.577350     0.577350     0.577350     0.250000     0.250000     0.250000
   33    -1.000000   120.000000    -0.577350     0.577350    -0.577350     0.250000     0.250000     0.250000
   34     1.000000    90.000000     0.000000     0.000000     1.000000     0.250000     0.250000     0.250000
   35     1.000000    90.000000    -1.000000     0.000000    -0.000000     0.250000     0.250000     0.250000
   36     1.000000   180.000000     0.707107     0.000000     0.707107     0.250000     0.250000     0.250000
   37    -1.000000   120.000000     0.577350    -0.577350     0.577350     0.250000     0.250000     0.250000
   38    -1.000000   120.000000    -0.577350    -0.577350     0.577350     0.250000     0.250000     0.250000
   39    -1.000000   180.000000     1.000000     0.000000     0.000000     0.250000     0.250000     0.250000
   40     1.000000    90.000000     0.000000    -1.000000     0.000000     0.250000     0.250000     0.250000
   41     1.000000   180.000000     0.707107     0.707107    -0.000000     0.250000     0.250000     0.250000
   42     1.000000    90.000000     1.000000     0.000000     0.000000     0.250000     0.250000     0.250000
   43    -1.000000   120.000000     0.577350    -0.577350    -0.577350     0.250000     0.250000     0.250000
   44    -1.000000   180.000000     0.000000    -1.000000     0.000000     0.250000     0.250000     0.250000
   45    -1.000000   120.000000     0.577350     0.577350    -0.577350     0.250000     0.250000     0.250000
   46     1.000000   180.000000    -0.000000    -0.707107     0.707107     0.250000     0.250000     0.250000
   47     1.000000   180.000000     0.707107    -0.707107    -0.000000     0.250000     0.250000     0.250000
   48     1.000000   180.000000    -0.707107     0.000000     0.707107     0.250000     0.250000     0.250000
 
 Subroutine IBZKPT returns following result:
 ===========================================
 
 Found     10 irreducible k-points:
 
 Following reciprocal coordinates:
            Coordinates               Weight
  0.125000  0.125000  0.125000     96.000000
  0.375000  0.125000  0.125000    288.000000
 -0.375000  0.125000  0.125000    288.000000
 -0.125000  0.125000  0.125000    288.000000
  0.375000  0.375000  0.125000    288.000000
 -0.375000  0.375000  0.125000    576.000000
 -0.125000  0.375000  0.125000    576.000000
 -0.375000 -0.375000  0.125000    288.000000
  0.375000  0.375000  0.375000     96.000000
 -0.375000  0.375000  0.375000    288.000000
 
 Following cartesian coordinates:
            Coordinates               Weight
  0.023020  0.023020  0.023020     96.000000
 -0.023020  0.069061  0.069061    288.000000
  0.115101 -0.069061 -0.069061    288.000000
  0.069061 -0.023020 -0.023020    288.000000
  0.023020  0.023020  0.115101    288.000000
  0.161142 -0.115101 -0.023020    576.000000
  0.115101 -0.069061  0.023020    576.000000
  0.023020  0.023020 -0.161142    288.000000
  0.069061  0.069061  0.069061     96.000000
  0.207182 -0.069061 -0.069061    288.000000
 


--------------------------------------------------------------------------------------------------------




 Dimension of arrays:
   k-points           NKPTS =     10   k-points in BZ     NKDIM =     10   number of bands    NBANDS=      8
   number of dos      NEDOS =    301   number of ions     NIONS =      2
   non local maximal  LDIM  =      4   non local SUM 2l+1 LMDIM =      8
   total plane-waves  NPLWV =   5832
   max r-space proj   IRMAX =      1   max aug-charges    IRDMAX=   5071
   dimension x,y,z NGX =    18 NGY =   18 NGZ =   18
   dimension x,y,z NGXF=    36 NGYF=   36 NGZF=   36
   support grid    NGXF=    36 NGYF=   36 NGZF=   36
   ions per type =               2
   NGX,Y,Z   is equivalent  to a cutoff of   7.79,  7.79,  7.79 a.u.
   NGXF,Y,Z  is equivalent  to a cutoff of  15.59, 15.59, 15.59 a.u.

 SYSTEM =  unknown system                          
 POSCAR =  Si2                                     

 Startparameter for this run:
   NWRITE =      2    write-flag & timer
   PREC   = normal    normal or accurate (medium, high low for compatibility)
   ISTART =      0    job   : 0-new  1-cont  2-samecut
   ICHARG =      2    charge: 1-file 2-atom 10-const
   ISPIN  =      1    spin polarized calculation?
   LNONCOLLINEAR =      F non collinear calculations
   LSORBIT =      F    spin-orbit coupling
   INIWAV =      1    electr: 0-lowe 1-rand  2-diag
   LASPH  =      F    aspherical Exc in radial PAW
   METAGGA=      F    non-selfconsistent MetaGGA calc.

 Electronic Relaxation 1
   ENCUT  =  350.0 eV  25.72 Ry    5.07 a.u.   5.86  5.86  5.86*2*pi/ulx,y,z
   ENINI  =  350.0     initial cutoff
   ENAUG  =  322.1 eV  augmentation charge cutoff
   NELM   =     60;   NELMIN=  2; NELMDL= -5     # of ELM steps 
   EDIFF  = 0.4E-03   stopping-criterion for ELM
   LREAL  =      F    real-space projection
   NLSPLINE    = F    spline interpolate recip. space projectors
   LCOMPAT=      F    compatible to vasp.4.4
   GGA_COMPAT  = T    GGA compatible to vasp.4.4-vasp.4.6
   LMAXPAW     = -100 max onsite density
   LMAXMIX     =    2 max onsite mixed and CHGCAR
   VOSKOWN=      0    Vosko Wilk Nusair interpolation
   ROPT   =    0.00000
 Ionic relaxation
   EDIFFG = -.1E-01   stopping-criterion for IOM
   NSW    =     15    number of steps for IOM
   NBLOCK =      1;   KBLOCK =     15    inner block; outer block 
   IBRION =      2    ionic relax: 0-MD 1-quasi-New 2-CG
   NFREE  =      1    steps in history (QN), initial steepest desc. (CG)
   ISIF   =      2    stress and relaxation
   IWAVPR =     11    prediction:  0-non 1-charg 2-wave 3-comb
   ISYM   =      2    0-nonsym 1-usesym 2-fastsym
   LCORR  =      T    Harris-Foulkes like correction to forces

   POTIM  = 0.5000    time-step for ionic-motion
   TEIN   =    0.0    initial temperature
   TEBEG  =    0.0;   TEEND  =   0.0 temperature during run
   SMASS  =  -3.00    Nose mass-parameter (am)
   estimated Nose-frequenzy (Omega)   =  0.10E-29 period in steps =****** mass=  -0.337E-27a.u.
   SCALEE = 1.0000    scale energy and forces
   NPACO  =    256;   APACO  = 16.0  distance and # of slots for P.C.
   PSTRESS=    0.0 pullay stress

  Mass of Ions in am
   POMASS =  28.09
  Ionic Valenz
   ZVAL   =   4.00
  Atomic Wigner-Seitz radii
   RWIGS  =  -1.00
  virtual crystal weights 
   VCA    =   1.00
   NELECT =       8.0000    total number of electrons
   NUPDOWN=      -1.0000    fix difference up-down

 DOS related values:
   EMIN   =  10.00;   EMAX   =-10.00  energy-range for DOS
   EFERMI =   0.00
   ISMEAR =     0;   SIGMA  =   0.20  broadening in eV -4-tet -1-fermi 0-gaus

 Electronic relaxation 2 (details)
   IALGO  =     38    algorithm
   LDIAG  =      T    sub-space diagonalisation (order eigenvalues)
   LSUBROT=      F    optimize rotation matrix (better conditioning)
   TURBO    =      0    0=normal 1=particle mesh
   IRESTART =      0    0=no restart 2=restart with 2 vectors
   NREBOOT  =      0    no. of reboots
   NMIN     =      0    reboot dimension
   EREF     =   0.00    reference energy to select bands
   IMIX   =      4    mixing-type and parameters
     AMIX     =   0.40;   BMIX     =  1.00
     AMIX_MAG =   1.60;   BMIX_MAG =  1.00
     AMIN     =   0.10
     WC   =   100.;   INIMIX=   1;  MIXPRE=   1;  MAXMIX= -45

 Intra band minimization:
   WEIMIN = 0.0010     energy-eigenvalue tresh-hold
   EBREAK =  0.13E-04  absolut break condition
   DEPER  =   0.30     relativ break condition  

   TIME   =   0.40     timestep for ELM

  volume/ion in A,a.u.               =      20.01       135.05
  Fermi-wavevector in a.u.,A,eV,Ry     =   0.957176  1.808800 12.465458  0.916185
  Thomas-Fermi vector in A             =   2.086170
 
 Write flags
   LWAVE        =      T    write WAVECAR
   LDOWNSAMPLE  =      F    k-point downsampling of WAVECAR
   LCHARG       =      T    write CHGCAR
   LVTOT        =      F    write LOCPOT, total local potential
   LVHAR        =      F    write LOCPOT, Hartree potential only
   LELF         =      F    write electronic localiz. function (ELF)
   LORBIT       =      0    0 simple, 1 ext, 2 COOP (PROOUT), +10 PAW based schemes


 Dipole corrections
   LMONO  =      F    monopole corrections only (constant potential shift)
   LDIPOL =      F    correct potential (dipole corrections)
   IDIPOL =      0    1-x, 2-y, 3-z, 4-all directions 
   EPSILON=  1.0000000 bulk dielectric constant

 Exchange correlation treatment:
   GGA     =    --    GGA type
   LEXCH   =     8    internal setting for exchange type
   VOSKOWN=      0    Vosko Wilk Nusair interpolation
   LHFCALC =     F    Hartree Fock is set to
   LHFONE  =     F    Hartree Fock one center treatment
   AEXX    =    0.0000 exact exchange contribution

 Linear response parameters
   LEPSILON=     F    determine dielectric tensor
   LRPA    =     F    only Hartree local field effects (RPA)
   LNABLA  =     F    use nabla operator in PAW spheres
   LVEL    =     F    velocity operator in full k-point grid
   LINTERFAST=   F  fast interpolation
   KINTER  =     0    interpolate to denser k-point grid
   CSHIFT  =0.1000    complex shift for real part using Kramers Kronig
   OMEGAMAX=  -1.0    maximum frequency
   DEG_THRESHOLD= 0.2000000E-02 threshold for treating states as degnerate
   RTIME   =   -0.100 relaxation time in fs
  (WPLASMAI=    0.000 imaginary part of plasma frequency in eV, 0.658/RTIME)
   DFIELD  = 0.0000000 0.0000000 0.0000000 field for delta impulse in time
 
 Orbital magnetization related:
   ORBITALMAG=     F  switch on orbital magnetization
   LCHIMAG   =     F  perturbation theory with respect to B field
   DQ        =  0.001000  dq finite difference perturbation B field
   LLRAUG    =     F  two centre corrections for induced B field



--------------------------------------------------------------------------------------------------------


 conjugate gradient relaxation of ions
 charge density and potential will be updated during run
 non-spin polarized calculation
 Variant of blocked Davidson
 Davidson routine will perform the subspace rotation
 perform sub-space diagonalisation
    after iterative eigenvector-optimisation
 modified Broyden-mixing scheme, WC =      100.0
 initial mixing is a Kerker type mixing with AMIX =  0.4000 and BMIX =      1.0000
 Hartree-type preconditioning will be used
 using additional bands            4
 reciprocal scheme for non local part
 use partial core corrections
 calculate Harris-corrections to forces 
   (improved forces if not selfconsistent)
 use gradient corrections 
 use of overlap-Matrix (Vanderbilt PP)
 Gauss-broadening in eV      SIGMA  =   0.20


--------------------------------------------------------------------------------------------------------


  energy-cutoff  :      350.00
  volume of cell :       40.03
      direct lattice vectors                 reciprocal lattice vectors
     0.000000000  2.715000000  2.715000000    -0.184162063  0.184162063  0.184162063
     2.715000000  0.000000000  2.715000000     0.184162063 -0.184162063  0.184162063
     2.715000000  2.715000000  0.000000000     0.184162063  0.184162063 -0.184162063

  length of vectors
     3.839589822  3.839589822  3.839589822     0.318978049  0.318978049  0.318978049


 
 k-points in units of 2pi/SCALE and weight: Automatic kpoint scheme                 
   0.02302026  0.02302026  0.02302026       0.031
  -0.02302026  0.06906077  0.06906077       0.094
   0.11510129 -0.06906077 -0.06906077       0.094
   0.06906077 -0.02302026 -0.02302026       0.094
   0.02302026  0.02302026  0.11510129       0.094
   0.16114180 -0.11510129 -0.02302026       0.188
   0.11510129 -0.06906077  0.02302026       0.188
   0.02302026  0.02302026 -0.16114180       0.094
   0.06906077  0.06906077  0.06906077       0.031
   0.20718232 -0.06906077 -0.06906077       0.094
 
 k-points in reciprocal lattice and weights: Automatic kpoint scheme                 
   0.12500000  0.12500000  0.12500000       0.031
   0.37500000  0.12500000  0.12500000       0.094
  -0.37500000  0.12500000  0.12500000       0.094
  -0.12500000  0.12500000  0.12500000       0.094
   0.37500000  0.37500000  0.12500000       0.094
  -0.37500000  0.37500000  0.12500000       0.188
  -0.12500000  0.37500000  0.12500000       0.188
  -0.37500000 -0.37500000  0.12500000       0.094
   0.37500000  0.37500000  0.37500000       0.031
  -0.37500000  0.37500000  0.37500000       0.094
 
 position of ions in fractional coordinates (direct lattice) 
   0.50000000  0.50000000  0.50000000
   0.75000000  0.75000000  0.75000000
 
 position of ions in cartesian coordinates  (Angst):
   2.71500000  2.71500000  2.71500000
   4.07250000  4.07250000  4.07250000
 


--------------------------------------------------------------------------------------------------------


 k-point  1 :   0.1250 0.1250 0.1250  plane waves:     579
 k-point  2 :   0.3750 0.1250 0.1250  plane waves:     592
 k-point  3 :  -0.3750 0.1250 0.1250  plane waves:     594
 k-point  4 :  -0.1250 0.1250 0.1250  plane waves:     586
 k-point  5 :   0.3750 0.3750 0.1250  plane waves:     597
 k-point  6 :  -0.3750 0.3750 0.1250  plane waves:     597
 k-point  7 :  -0.1250 0.3750 0.1250  plane waves:     595
 k-point  8 :  -0.3750-0.3750 0.1250  plane waves:     603
 k-point  9 :   0.3750 0.3750 0.3750  plane waves:     598
 k-point 10 :  -0.3750 0.3750 0.3750  plane waves:     593

 maximum and minimum number of plane-waves per node :       603      579

 maximum number of plane-waves:       603
 maximum index in each direction: 
   IXMAX=    6   IYMAX=    6   IZMAX=    5
   IXMIN=   -6   IYMIN=   -6   IZMIN=   -6


 serial   3D FFT for wavefunctions
 parallel 3D FFT for charge:
    minimum data exchange during FFTs selected (reduces bandwidth)


 total amount of memory used by VASP MPI-rank0    31321. kBytes
=======================================================================

   base      :      30000. kBytes
   nonl-proj :        408. kBytes
   fftplans  :        247. kBytes
   grid      :        561. kBytes
   one-center:          6. kBytes
   wavefun   :         99. kBytes
 
     INWAV:  cpu time    0.0000: real time    0.0020
 Broyden mixing: mesh for mixing (old mesh)
   NGX = 11   NGY = 11   NGZ = 11
  (NGX  = 36   NGY  = 36   NGZ  = 36)
  gives a total of   1331 points

 initial charge density was supplied:
 charge density of overlapping atoms calculated
 number of electron       8.0000000 magnetization 
 keeping initial charge density in first step


--------------------------------------------------------------------------------------------------------


 Maximum index for augmentation-charges          689 (set IRDMAX)


--------------------------------------------------------------------------------------------------------


 First call to EWALD:  gamma=   0.518
 Maximum number of real-space cells 3x 3x 3
 Maximum number of reciprocal cells 3x 3x 3

    FEWALD:  cpu time    0.0040: real time    0.0073


--------------------------------------- Iteration      1(   1)  ---------------------------------------


    POTLOK:  cpu time    0.0360: real time    0.0479
    SETDIJ:  cpu time    0.0080: real time    0.0089
     EDDAV:  cpu time    0.1400: real time    0.1429
       DOS:  cpu time    0.0000: real time    0.0019
    --------------------------------------------
      LOOP:  cpu time    0.1840: real time    0.2024

 eigenvalue-minimisations  :   160
 total energy-change (2. order) : 0.4216153E+01  (-0.2878218E+03)
 number of electron       8.0000000 magnetization 
 augmentation part        8.0000000 magnetization 

 Free energy of the ion-electron system (eV)
  ---------------------------------------------------
  alpha Z        PSCENC =         3.36414203
  Ewald energy   TEWEN  =      -228.56352493
  -Hartree energ DENC   =       -11.00108243
  -exchange      EXHF   =         0.00000000
  -V(xc)+E(xc)   XCENC  =       -18.60185131
  PAW double counting   =        65.95520812      -30.76852678
  entropy T*S    EENTRO =        -0.01761380
  eigenvalues    EBANDS =        17.71814759
  atomic energy  EATOM  =       206.13125414
  Solvation  Ediel_sol  =         0.00000000
  ---------------------------------------------------
  free energy    TOTEN  =         4.21615263 eV

  energy without entropy =        4.23376643  energy(sigma->0) =        4.22495953


--------------------------------------------------------------------------------------------------------




--------------------------------------- Iteration      1(   2)  ---------------------------------------


     EDDAV:  cpu time    0.2120: real time    0.2219
       DOS:  cpu time    0.0000: real time    0.0016
    --------------------------------------------
      LOOP:  cpu time    0.2120: real time    0.2234

 eigenvalue-minimisations  :   256
 total energy-change (2. order) :-0.1506322E+02  (-0.1463933E+02)
 number of electron       8.0000000 magnetization 
 augmentation part        8.0000000 magnetization 

 Free energy of the ion-electron system (eV)
  ---------------------------------------------------
  alpha Z        PSCENC =         3.36414203
  Ewald energy   TEWEN  =      -228.56352493
  -Hartree energ DENC   =       -11.00108243
  -exchange      EXHF   =         0.00000000
  -V(xc)+E(xc)   XCENC  =       -18.60185131
  PAW double counting   =        65.95520812      -30.76852678
  entropy T*S    EENTRO =        -0.00000003
  eigenvalues    EBANDS =         2.63731261
  atomic energy  EATOM  =       206.13125414
  Solvation  Ediel_sol  =         0.00000000
  ---------------------------------------------------
  free energy    TOTEN  =       -10.84706859 eV

  energy without entropy =      -10.84706856  energy(sigma->0) =      -10.84706857


--------------------------------------------------------------------------------------------------------




--------------------------------------- Iteration      1(   3)  ---------------------------------------


     EDDAV:  cpu time    0.1560: real time    0.1608
       DOS:  cpu time    0.0000: real time    0.0016
    --------------------------------------------
      LOOP:  cpu time    0.1560: real time    0.1625

 eigenvalue-minimisations  :   184
 total energy-change (2. order) :-0.1729156E+00  (-0.1729156E+00)
 number of electron       8.0000000 magnetization 
 augmentation part        8.0000000 magnetization 

 Free energy of the ion-electron system (eV)
  ---------------------------------------------------
  alpha Z        PSCENC =         3.36414203
  Ewald energy   TEWEN  =      -228.56352493
  -Hartree energ DENC   =       -11.00108243
  -exchange      EXHF   =         0.00000000
  -V(xc)+E(xc)   XCENC  =       -18.60185131
  PAW double counting   =        65.95520812      -30.76852678
  entropy T*S    EENTRO =        -0.00000002
  eigenvalues    EBANDS =         2.46439703
  atomic energy  EATOM  =       206.13125414
  Solvation  Ediel_sol  =         0.00000000
  ---------------------------------------------------
  free energy    TOTEN  =       -11.01998416 eV

  energy without entropy =      -11.01998414  energy(sigma->0) =      -11.01998415


--------------------------------------------------------------------------------------------------------




--------------------------------------- Iteration      1(   4)  ---------------------------------------


     EDDAV:  cpu time    0.2320: real time    0.2397
       DOS:  cpu time    0.0040: real time    0.0016
    --------------------------------------------
      LOOP:  cpu time    0.2360: real time    0.2411

 eigenvalue-minimisations  :   280
 total energy-change (2. order) :-0.5609814E-03  (-0.5609811E-03)
 number of electron       8.0000000 magnetization 
 augmentation part        8.0000000 magnetization 

 Free energy of the ion-electron system (eV)
  ---------------------------------------------------
  alpha Z        PSCENC =         3.36414203
  Ewald energy   TEWEN  =      -228.56352493
  -Hartree energ DENC   =       -11.00108243
  -exchange      EXHF   =         0.00000000
  -V(xc)+E(xc)   XCENC  =       -18.60185131
  PAW double counting   =        65.95520812      -30.76852678
  entropy T*S    EENTRO =        -0.00000002
  eigenvalues    EBANDS =         2.46383605
  atomic energy  EATOM  =       206.13125414
  Solvation  Ediel_sol  =         0.00000000
  ---------------------------------------------------
  free energy    TOTEN  =       -11.02054514 eV

  energy without entropy =      -11.02054512  energy(sigma->0) =      -11.02054513


--------------------------------------------------------------------------------------------------------




--------------------------------------- Iteration      1(   5)  ---------------------------------------


     EDDAV:  cpu time    0.1480: real time    0.1590
       DOS:  cpu time    0.0040: real time    0.0016
    CHARGE:  cpu time    0.0200: real time    0.0224
    MIXING:  cpu time    0.0040: real time    0.0025
    --------------------------------------------
      LOOP:  cpu time    0.1760: real time    0.1856

 eigenvalue-minimisations  :   176
 total energy-change (2. order) :-0.1868553E-06  (-0.1869720E-06)
 number of electron       7.9999993 magnetization 
 augmentation part       -0.4706269 magnetization 

 Broyden mixing:
  rms(total) = 0.30128E+00    rms(broyden)= 0.30126E+00
  rms(prec ) = 0.87405E+00
  weight for this iteration     100.00

 Free energy of the ion-electron system (eV)
  ---------------------------------------------------
  alpha Z        PSCENC =         3.36414203
  Ewald energy   TEWEN  =      -228.56352493
  -Hartree energ DENC   =       -11.00108243
  -exchange      EXHF   =         0.00000000
  -V(xc)+E(xc)   XCENC  =       -18.60185131
  PAW double counting   =        65.95520812      -30.76852678
  entropy T*S    EENTRO =        -0.00000002
  eigenvalues    EBANDS =         2.46383586
  atomic energy  EATOM  =       206.13125414
  Solvation  Ediel_sol  =         0.00000000
  ---------------------------------------------------
  free energy    TOTEN  =       -11.02054533 eV

  energy without entropy =      -11.02054531  energy(sigma->0) =      -11.02054532


--------------------------------------------------------------------------------------------------------




--------------------------------------- Iteration      1(   6)  ---------------------------------------


    POTLOK:  cpu time    0.0240: real time    0.0360
    SETDIJ:  cpu time    0.0120: real time    0.0086
     EDDAV:  cpu time    0.1600: real time    0.1626
       DOS:  cpu time    0.0040: real time    0.0018
    CHARGE:  cpu time    0.0200: real time    0.0213
    MIXING:  cpu time    0.0000: real time    0.0020
    --------------------------------------------
      LOOP:  cpu time    0.2200: real time    0.2408

 eigenvalue-minimisations  :   200
 total energy-change (2. order) : 0.1250861E+00  (-0.8273999E-02)
 number of electron       7.9999993 magnetization 
 augmentation part       -0.4647377 magnetization 

 Broyden mixing:
  rms(total) = 0.17842E+00    rms(broyden)= 0.17842E+00
  rms(prec ) = 0.51420E+00
  weight for this iteration     100.00

 eigenvalues of (default mixing * dielectric matrix)
  average eigenvalue GAMMA=   2.4316
  2.4316

 Free energy of the ion-electron system (eV)
  ---------------------------------------------------
  alpha Z        PSCENC =         3.36414203
  Ewald energy   TEWEN  =      -228.56352493
  -Hartree energ DENC   =       -12.50068201
  -exchange      EXHF   =         0.00000000
  -V(xc)+E(xc)   XCENC  =       -18.36410080
  PAW double counting   =        69.96635821      -34.89082357
  entropy T*S    EENTRO =        -0.00000025
  eigenvalues    EBANDS =         3.96191796
  atomic energy  EATOM  =       206.13125414
  Solvation  Ediel_sol  =         0.00000000
  ---------------------------------------------------
  free energy    TOTEN  =       -10.89545922 eV

  energy without entropy =      -10.89545897  energy(sigma->0) =      -10.89545909


--------------------------------------------------------------------------------------------------------




--------------------------------------- Iteration      1(   7)  ---------------------------------------


    POTLOK:  cpu time    0.0280: real time    0.0690
    SETDIJ:  cpu time    0.0080: real time    0.0085
     EDDAV:  cpu time    0.1600: real time    0.1608
       DOS:  cpu time    0.0040: real time    0.0016
    CHARGE:  cpu time    0.0200: real time    0.0205
    MIXING:  cpu time    0.0000: real time    0.0018
    --------------------------------------------
      LOOP:  cpu time    0.2200: real time    0.2536

 eigenvalue-minimisations  :   200
 total energy-change (2. order) : 0.5704680E-01  (-0.1518453E-01)
 number of electron       7.9999993 magnetization 
 augmentation part       -0.4576469 magnetization 

 Broyden mixing:
  rms(total) = 0.15417E-01    rms(broyden)= 0.15417E-01
  rms(prec ) = 0.40134E-01
  weight for this iteration     100.00

 eigenvalues of (default mixing * dielectric matrix)
  average eigenvalue GAMMA=   2.4613
  2.4613  2.4613

 Free energy of the ion-electron system (eV)
  ---------------------------------------------------
  alpha Z        PSCENC =         3.36414203
  Ewald energy   TEWEN  =      -228.56352493
  -Hartree energ DENC   =       -14.90894398
  -exchange      EXHF   =         0.00000000
  -V(xc)+E(xc)   XCENC  =       -17.97480282
  PAW double counting   =        75.26957253      -40.33593722
  entropy T*S    EENTRO =        -0.00000394
  eigenvalues    EBANDS =         6.17983177
  atomic energy  EATOM  =       206.13125414
  Solvation  Ediel_sol  =         0.00000000
  ---------------------------------------------------
  free energy    TOTEN  =       -10.83841241 eV

  energy without entropy =      -10.83840848  energy(sigma->0) =      -10.83841044


--------------------------------------------------------------------------------------------------------




--------------------------------------- Iteration      1(   8)  ---------------------------------------


    POTLOK:  cpu time    0.0280: real time    0.0362
    SETDIJ:  cpu time    0.0080: real time    0.0086
     EDDAV:  cpu time    0.1320: real time    0.1318
       DOS:  cpu time    0.0040: real time    0.0017
    CHARGE:  cpu time    0.0200: real time    0.0206
    MIXING:  cpu time    0.0000: real time    0.0020
    --------------------------------------------
      LOOP:  cpu time    0.1920: real time    0.2012

 eigenvalue-minimisations  :   160
 total energy-change (2. order) :-0.1337916E-02  (-0.4233701E-03)
 number of electron       7.9999993 magnetization 
 augmentation part       -0.4586446 magnetization 

 Broyden mixing:
  rms(total) = 0.24820E-02    rms(broyden)= 0.24811E-02
  rms(prec ) = 0.81928E-02
  weight for this iteration     100.00

 eigenvalues of (default mixing * dielectric matrix)
  average eigenvalue GAMMA=   2.1179
  1.3536  2.7902  2.2100

 Free energy of the ion-electron system (eV)
  ---------------------------------------------------
  alpha Z        PSCENC =         3.36414203
  Ewald energy   TEWEN  =      -228.56352493
  -Hartree energ DENC   =       -14.87725331
  -exchange      EXHF   =         0.00000000
  -V(xc)+E(xc)   XCENC  =       -17.96607645
  PAW double counting   =        74.38269080      -39.42064724
  entropy T*S    EENTRO =        -0.00000278
  eigenvalues    EBANDS =         6.10966742
  atomic energy  EATOM  =       206.13125414
  Solvation  Ediel_sol  =         0.00000000
  ---------------------------------------------------
  free energy    TOTEN  =       -10.83975033 eV

  energy without entropy =      -10.83974755  energy(sigma->0) =      -10.83974894


--------------------------------------------------------------------------------------------------------




--------------------------------------- Iteration      1(   9)  ---------------------------------------


    POTLOK:  cpu time    0.0280: real time    0.0388
    SETDIJ:  cpu time    0.0080: real time    0.0086
     EDDAV:  cpu time    0.1040: real time    0.1037
       DOS:  cpu time    0.0000: real time    0.0017
    --------------------------------------------
      LOOP:  cpu time    0.1400: real time    0.1525

 eigenvalue-minimisations  :   112
 total energy-change (2. order) :-0.9380578E-04  (-0.1010114E-04)
 number of electron       7.9999993 magnetization 
 augmentation part       -0.4586446 magnetization 

 Free energy of the ion-electron system (eV)
  ---------------------------------------------------
  alpha Z        PSCENC =         3.36414203
  Ewald energy   TEWEN  =      -228.56352493
  -Hartree energ DENC   =       -14.91472086
  -exchange      EXHF   =         0.00000000
  -V(xc)+E(xc)   XCENC  =       -17.95982439
  PAW double counting   =        74.37305814      -39.41104933
  entropy T*S    EENTRO =        -0.00000275
  eigenvalues    EBANDS =         6.14082381
  atomic energy  EATOM  =       206.13125414
  Solvation  Ediel_sol  =         0.00000000
  ---------------------------------------------------
  free energy    TOTEN  =       -10.83984414 eV

  energy without entropy =      -10.83984139  energy(sigma->0) =      -10.83984276


--------------------------------------------------------------------------------------------------------




 average (electrostatic) potential at core
  the test charge radii are     0.9892
  (the norm of the test charge is              1.0000)
       1 -83.2473       2 -83.2473
 
 
 
 E-fermi :   6.1266     XC(G=0):  -9.4129     alpha+bet :-11.9845


 k-point     1 :       0.1250    0.1250    0.1250
  band No.  band energies     occupation 
      1      -5.9267      2.00000
      2       4.2331      2.00000
      3       5.5416      1.99996
      4       5.5416      1.99996
      5       8.3368      0.00000
      6       8.8218      0.00000
      7       8.8218      0.00000
      8      10.5497      0.00000

 k-point     2 :       0.3750    0.1250    0.1250
  band No.  band energies     occupation 
      1      -4.8802      2.00000
      2       1.2065      2.00000
      3       3.5208      2.00000
      4       5.0571      2.00000
      5       8.5538      0.00000
      6       9.5116      0.00000
      7       9.6882      0.00000
      8      12.1331      0.00000

 k-point     3 :      -0.3750    0.1250    0.1250
  band No.  band energies     occupation 
      1      -3.7117      2.00000
      2      -0.9169      2.00000
      3       3.5519      2.00000
      4       4.2694      2.00000
      5       8.0269      0.00000
      6       9.3477      0.00000
      7       9.9337      0.00000
      8      13.2036      0.00000

 k-point     4 :      -0.1250    0.1250    0.1250
  band No.  band energies     occupation 
      1      -5.3890      2.00000
      2       2.6081      2.00000
      3       4.5127      2.00000
      4       4.5890      2.00000
      5       7.9802      0.00000
      6       9.5444      0.00000
      7      10.3020      0.00000
      8      10.5830      0.00000

 k-point     5 :       0.3750    0.3750    0.1250
  band No.  band energies     occupation 
      1      -4.3382      2.00000
      2       0.8919      2.00000
      3       3.1608      2.00000
      4       3.6236      2.00000
      5       7.1818      0.00000
      6       8.7258      0.00000
      7      11.8326      0.00000
      8      12.1038      0.00000

 k-point     6 :      -0.3750    0.3750    0.1250
  band No.  band energies     occupation 
      1      -2.6615      2.00000
      2      -1.0999      2.00000
      3       1.7707      2.00000
      4       2.8715      2.00000
      5       8.2195      0.00000
      6      10.1118      0.00000
      7      11.1117      0.00000
      8      13.2747      0.00000

 k-point     7 :      -0.1250    0.3750    0.1250
  band No.  band energies     occupation 
      1      -3.9122      2.00000
      2      -0.0093      2.00000
      3       2.5104      2.00000
      4       3.9022      2.00000
      5       8.7095      0.00000
      6       9.3868      0.00000
      7      10.8523      0.00000
      8      11.7703      0.00000

 k-point     8 :      -0.3750   -0.3750    0.1250
  band No.  band energies     occupation 
      1      -2.8378      2.00000
      2      -0.9979      2.00000
      3       2.3956      2.00000
      4       3.1491      2.00000
      5       6.7245      0.00002
      6       7.7979      0.00000
      7      14.1021      0.00000
      8      14.1910      0.00000

 k-point     9 :       0.3750    0.3750    0.3750
  band No.  band energies     occupation 
      1      -4.4367      2.00000
      2      -0.1156      2.00000
      3       4.7444      2.00000
      4       4.7444      2.00000
      5       7.4992      0.00000
      6       9.2843      0.00000
      7       9.2843      0.00000
      8      13.7119      0.00000

 k-point    10 :      -0.3750    0.3750    0.3750
  band No.  band energies     occupation 
      1      -3.2072      2.00000
      2      -0.8092      2.00000
      3       1.8384      2.00000
      4       3.9452      2.00000
      5       7.6757      0.00000
      6      11.2969      0.00000
      7      11.3147      0.00000
      8      12.7948      0.00000


--------------------------------------------------------------------------------------------------------


 soft charge-density along one line, spin component           1
         0         1         2         3         4         5         6         7         8         9
 total charge-density along one line
 
 pseudopotential strength for first ion, spin component:           1
 18.414  -0.001  -0.000  -0.000  -0.000   0.000   0.000   0.000
 -0.001   0.006   0.000   0.000   0.000  -0.000  -0.000  -0.000
 -0.000   0.000   4.178  -0.000  -0.000  -0.005   0.000   0.000
 -0.000   0.000  -0.000   4.178  -0.000   0.000  -0.005   0.000
 -0.000   0.000  -0.000  -0.000   4.178   0.000   0.000  -0.005
  0.000  -0.000  -0.005   0.000   0.000   0.005  -0.000  -0.000
  0.000  -0.000   0.000  -0.005   0.000  -0.000   0.005  -0.000
  0.000  -0.000   0.000   0.000  -0.005  -0.000  -0.000   0.005
 total augmentation occupancy for first ion, spin component:           1
  1.491  -0.794  -0.000  -0.000  -0.000   0.000   0.000   0.000
 -0.794   0.790  -0.000   0.000   0.000   0.000   0.000  -0.000
 -0.000  -0.000   1.031  -0.000   0.000  -0.572   0.000  -0.000
 -0.000  -0.000  -0.000   1.031   0.000   0.000  -0.572  -0.000
 -0.000  -0.000   0.000   0.000   1.031  -0.000  -0.000  -0.572
  0.000   0.000  -0.572   0.000  -0.000   0.374  -0.000   0.000
  0.000   0.000   0.000  -0.572  -0.000  -0.000   0.374   0.000
  0.000  -0.000  -0.000  -0.000  -0.572   0.000   0.000   0.374


------------------------ aborting loop because EDIFF is reached ----------------------------------------


    CHARGE:  cpu time    0.0200: real time    0.0202
    FORLOC:  cpu time    0.0040: real time    0.0009
    FORNL :  cpu time    0.0080: real time    0.0096
    STRESS:  cpu time    0.0640: real time    0.0624
    FORCOR:  cpu time    0.0200: real time    0.0217
    FORHAR:  cpu time    0.0040: real time    0.0054
    MIXING:  cpu time    0.0040: real time    0.0015
    OFIELD:  cpu time    0.0000: real time    0.0004

  FORCE on cell =-STRESS in cart. coord.  units (eV):
  Direction    XX          YY          ZZ          XY          YZ          ZX
  --------------------------------------------------------------------------------------
  Alpha Z     3.36414     3.36414     3.36414
  Ewald     -76.18788   -76.18788   -76.18788    -0.00000    -0.00000     0.00000
  Hartree     4.97493     4.97493     4.97493     0.00000     0.00000     0.00000
  E(xc)     -25.37065   -25.37065   -25.37065    -0.00000    -0.00000    -0.00000
  Local     -29.24215   -29.24215   -29.24215     0.00004     0.00004     0.00004
  n-local    76.88798    80.11278    76.57311     0.57320    -1.51506     0.08630
  augment   -11.64956   -11.64956   -11.64956    -0.00003    -0.00003    -0.00003
  Kinetic    57.56202    56.34011    56.31946     0.04137    -1.38847     0.05663
  Fock        0.00000     0.00000     0.00000     0.00000     0.00000     0.00000
  -------------------------------------------------------------------------------------
  Total       0.48733     0.48733     0.48733     0.00000    -0.00000    -0.00000
  in kB      19.50704    19.50704    19.50704     0.00000    -0.00000    -0.00000
  external pressure =       19.51 kB  Pullay stress =        0.00 kB


 VOLUME and BASIS-vectors are now :
 -----------------------------------------------------------------------------
  energy-cutoff  :      350.00
  volume of cell :       40.03
      direct lattice vectors                 reciprocal lattice vectors
     0.000000000  2.715000000  2.715000000    -0.184162063  0.184162063  0.184162063
     2.715000000  0.000000000  2.715000000     0.184162063 -0.184162063  0.184162063
     2.715000000  2.715000000  0.000000000     0.184162063  0.184162063 -0.184162063

  length of vectors
     3.839589822  3.839589822  3.839589822     0.318978049  0.318978049  0.318978049


 FORCES acting on ions
    electron-ion (+dipol)            ewald-force                    non-local-force                 convergence-correction
 -----------------------------------------------------------------------------------------------
   0.132E-05 0.132E-05 0.136E-05   -.476E-15 -.149E-14 0.391E-14   -.264E-16 -.489E-16 -.885E-17   -.422E-06 -.422E-06 -.422E-06
   -.132E-05 -.132E-05 -.136E-05   0.623E-15 0.106E-14 -.375E-14   0.300E-16 0.369E-16 0.114E-16   0.422E-06 0.422E-06 0.422E-06
 -----------------------------------------------------------------------------------------------
   -.783E-13 -.783E-13 -.643E-13   0.147E-15 -.426E-15 0.164E-15   0.360E-17 -.120E-16 0.254E-17   -.352E-14 0.105E-14 0.299E-14
 
 
 POSITION                                       TOTAL-FORCE (eV/Angst)
 -----------------------------------------------------------------------------------
      2.71500      2.71500      2.71500         0.000000      0.000000      0.000000
      4.07250      4.07250      4.07250        -0.000000     -0.000000     -0.000000
 -----------------------------------------------------------------------------------
    total drift:                               -0.000000     -0.000000     -0.000000


--------------------------------------------------------------------------------------------------------



  FREE ENERGIE OF THE ION-ELECTRON SYSTEM (eV)
  ---------------------------------------------------
  free  energy   TOTEN  =       -10.83984414 eV

  energy  without entropy=      -10.83984139  energy(sigma->0) =      -10.83984276
 


--------------------------------------------------------------------------------------------------------


    POTLOK:  cpu time    0.0400: real time    0.0544


--------------------------------------------------------------------------------------------------------




--------------------------------------------------------------------------------------------------------


  
 reached required accuracy - stopping structural energy minimisation
 writing wavefunctions
     LOOP+:  cpu time    2.9160: real time    4.4141
    4ORBIT:  cpu time    0.0000: real time    0.0000

 total amount of memory used by VASP MPI-rank0    31321. kBytes
=======================================================================

   base      :      30000. kBytes
   nonl-proj :        408. kBytes
   fftplans  :        247. kBytes
   grid      :        561. kBytes
   one-center:          6. kBytes
   wavefun   :         99. kBytes
 
  
  
 General timing and accounting informations for this job:
 ========================================================
  
                  Total CPU time used (sec):        7.512
                            User time (sec):        5.372
                          System time (sec):        2.140
                         Elapsed time (sec):       11.357
  
                   Maximum memory used (kb):        9608.
                   Average memory used (kb):           0.
  
                          Minor page faults:        38133
                          Major page faults:           22
                 Voluntary context switches:        36535
