unknown system                          
   1.00000000000000     
     0.000000    2.715000    2.715000
     2.715000    0.000000    2.715000
     2.715000    2.715000    0.000000
   Si
     2
Direct
  0.500000  0.500000  0.500000
  0.750000  0.750000  0.750000
 
   32   32   32
 0.88302890728E+00 0.90346119573E+00 0.96660515896E+00 0.10776043685E+01 0.12439784099E+01
 0.14745814236E+01 0.17786459525E+01 0.21645505079E+01 0.26375474338E+01 0.31960059946E+01
 0.38268082632E+01 0.45016654186E+01 0.51763965702E+01 0.57944152994E+01 0.62943604959E+01
 0.66205587118E+01 0.67339574347E+01 0.66205103386E+01 0.62943140901E+01 0.57944191311E+01
 0.51764526927E+01 0.45017372605E+01 0.38268588353E+01 0.31960220416E+01 0.26375362833E+01
 0.21645265048E+01 0.17786214801E+01 0.14745638939E+01 0.12439703436E+01 0.10776046649E+01
 0.96661022042E+00 0.90346581642E+00 0.90346119573E+00 0.93844252758E+00 0.10115074298E+01
 0.11281643284E+01 0.12952609071E+01 0.15199097379E+01 0.18084972581E+01 0.21654462290E+01
 0.25912113224E+01 0.30793372651E+01 0.36132329394E+01 0.41640957588E+01 0.46915507655E+01
 0.51478493932E+01 0.54852341906E+01 0.56648560552E+01 0.56648613094E+01 0.54852340806E+01
 0.51478239296E+01 0.46915150861E+01 0.41640875556E+01 0.36132619714E+01 0.30793689415E+01
 0.25912080403E+01 0.21654105739E+01 0.18084635542E+01 0.15199026095E+01 0.12952752501E+01
 0.11281817937E+01 0.10115181936E+01 0.93844731612E+00 0.90346256636E+00 0.96660515896E+00
 0.10115074298E+01 0.10905408443E+01 0.12089729856E+01 0.13725091189E+01 0.15863009652E+01
 0.18540429743E+01 0.21768493278E+01 0.25515818737E+01 0.29686561246E+01 0.34099555744E+01
 0.38479995079E+01 0.42475262396E+01 0.45699618013E+01 0.47800780368E+01 0.48530938816E+01
 0.47800813737E+01 0.45699754991E+01 0.42475516695E+01 0.38480229048E+01 0.34099574970E+01
 0.29686324090E+01 0.25515482166E+01 0.21768219059E+01 0.18540237994E+01 0.15862880954E+01
 0.13725087267E+01 0.12089883635E+01 0.10905588146E+01 0.10115120444E+01 0.96659995871E+00
 0.95208663125E+00 0.10776043685E+01 0.11281643284E+01 0.12089729856E+01 0.13246354365E+01
 0.14795414737E+01 0.16770395445E+01 0.19186552280E+01 0.22030995341E+01 0.25248927619E+01
 0.28727724353E+01 0.32285150979E+01 0.35670965560E+01 0.38589411238E+01 0.40742980169E+01
 0.41888323622E+01 0.41888222962E+01 0.40742815566E+01 0.38589452780E+01 0.35671295291E+01
 0.32285481131E+01 0.28727643649E+01 0.25248368568E+01 0.22030343464E+01 0.19186230832E+01
 0.16770460618E+01 0.14795630645E+01 0.13246520136E+01 0.12089800984E+01 0.11281638954E+01
 0.10775998114E+01 0.10534260006E+01 0.10534287166E+01 0.12439784099E+01 0.12952609071E+01
 0.13725091189E+01 0.14795414737E+01 0.16195992675E+01 0.17946997352E+01 0.20049190567E+01
 0.22474531731E+01 0.25154764301E+01 0.27970975153E+01 0.30749873477E+01 0.33273242851E+01
 0.35303917851E+01 0.36625231118E+01 0.37084212348E+01 0.36625412898E+01 0.35303950522E+01
 0.33272921079E+01 0.30749372892E+01 0.27970587078E+01 0.25154549756E+01 0.22474368205E+01
 0.20049046525E+01 0.17946993987E+01 0.16196207583E+01 0.14795743140E+01 0.13725336244E+01
 0.12952659396E+01 0.12439686849E+01 0.12149931964E+01 0.12056679777E+01 0.12150036894E+01
 0.14745814236E+01 0.15199097379E+01 0.15863009652E+01 0.16770395445E+01 0.17946997352E+01
 0.19405882365E+01 0.21139955049E+01 0.23112592071E+01 0.25248916677E+01 0.27431505006E+01
 0.29504191526E+01 0.31286587009E+01 0.32599488609E+01 0.33297061061E+01 0.33297151901E+01
 0.32599701735E+01 0.31286716422E+01 0.29503974009E+01 0.27430928815E+01 0.25248368983E+01
 0.23112514187E+01 0.21140363236E+01 0.19406381410E+01 0.17947255892E+01 0.16770441987E+01
 0.15863033873E+01 0.15199140024E+01 0.14745779743E+01 0.14468600698E+01 0.14338514080E+01
 0.14338582854E+01 0.14468719511E+01 0.17786459525E+01 0.18084972581E+01 0.18540429743E+01
 0.19186552280E+01 0.20049190567E+01 0.21139955049E+01 0.22448018019E+01 0.23932022249E+01
 0.25515810844E+01 0.27090754868E+01 0.28525223428E+01 0.29680557268E+01 0.30432302037E+01
 0.30693313870E+01 0.30432260295E+01 0.29680624841E+01 0.28525454129E+01 0.27091022823E+01
 0.25515997623E+01 0.23932142692E+01 0.22448135260E+01 0.21140091830E+01 0.20049328621E+01
 0.19186614609E+01 0.18540298939E+01 0.18084652690E+01 0.17786166656E+01 0.17608474063E+01
 0.17517982055E+01 0.17490669579E+01 0.17517903419E+01 0.17608539867E+01 0.21645505079E+01
 0.21654462290E+01 0.21768493278E+01 0.22030995341E+01 0.22474531731E+01 0.23112592071E+01
 0.23932022249E+01 0.24889187529E+01 0.25912107028E+01 0.26908311094E+01 0.27776495248E+01
 0.28420363530E+01 0.28763590202E+01 0.28763643372E+01 0.28420468675E+01 0.27776576643E+01
 0.26908420483E+01 0.25912392591E+01 0.24889633212E+01 0.23932308730E+01 0.23112397737E+01
 0.22473942883E+01 0.22030417012E+01 0.21768155281E+01 0.21654248603E+01 0.21645297665E+01
 0.21694491079E+01 0.21757494725E+01 0.21798877314E+01 0.21798814524E+01 0.21757435291E+01
 0.21694595952E+01 0.26375474338E+01 0.25912113224E+01 0.25515818737E+01 0.25248927619E+01
 0.25154764301E+01 0.25248916677E+01 0.25515810844E+01 0.25912107028E+01 0.26375453682E+01
 0.26835306002E+01 0.27223183203E+01 0.27481689637E+01 0.27572414730E+01 0.27481829157E+01
 0.27223452924E+01 0.26835559992E+01 0.26375454836E+01 0.25911776981E+01 0.25515326654E+01
 0.25248479519E+01 0.25154362345E+01 0.25248432696E+01 0.25515256454E+01 0.25911698784E+01
 0.26375372025E+01 0.26835488523E+01 0.27223417107E+01 0.27481830213E+01 0.27572431692E+01
 0.27481712118E+01 0.27223215618E+01 0.26835341321E+01 0.31960059946E+01 0.30793372651E+01
 0.29686561246E+01 0.28727724353E+01 0.27970975153E+01 0.27431505006E+01 0.27090754868E+01
 0.26908311094E+01 0.26835306002E+01 0.26825212463E+01 0.26840327604E+01 0.26854607103E+01
 0.26854715841E+01 0.26840576541E+01 0.26825463855E+01 0.26835427617E+01 0.26908089617E+01
 0.27090002219E+01 0.27430422348E+01 0.27970158297E+01 0.28727567017E+01 0.29686820530E+01
 0.30793545377E+01 0.31960017469E+01 0.33078306033E+01 0.34037135514E+01 0.34737964631E+01
 0.35107717234E+01 0.35107583036E+01 0.34737668529E+01 0.34036919537E+01 0.33078305491E+01
 0.38268082632E+01 0.36132329394E+01 0.34099555744E+01 0.32285150979E+01 0.30749873477E+01
 0.29504191526E+01 0.28525223428E+01 0.27776495248E+01 0.27223183203E+01 0.26840327604E+01
 0.26614300524E+01 0.26539574501E+01 0.26614613741E+01 0.26840492169E+01 0.27222976387E+01
 0.27776121262E+01 0.28524811110E+01 0.29503652903E+01 0.30749315078E+01 0.32284909873E+01
 0.34099730919E+01 0.36132701817E+01 0.38268517095E+01 0.40350099617E+01 0.42202990421E+01
 0.43662458270E+01 0.44595687424E+01 0.44916800676E+01 0.44595875770E+01 0.43662443276E+01
 0.42202615157E+01 0.40349602992E+01 0.45016654186E+01 0.41640957588E+01 0.38479995079E+01
 0.35670965560E+01 0.33273242851E+01 0.31286587009E+01 0.29680557268E+01 0.28420363530E+01
 0.27481689637E+01 0.26854607103E+01 0.26539574501E+01 0.26539688485E+01 0.26854763325E+01
 0.27481571075E+01 0.28419871083E+01 0.29679842969E+01 0.31285944322E+01 0.33273006738E+01
 0.35671234475E+01 0.38480402097E+01 0.41641072734E+01 0.45016619751E+01 0.48397548569E+01
 0.51529026284E+01 0.54151172854E+01 0.56037814689E+01 0.57024495627E+01 0.57024820978E+01
 0.56038278046E+01 0.54151054774E+01 0.51528490050E+01 0.48397255976E+01 0.51763965702E+01
 0.46915507655E+01 0.42475262396E+01 0.38589411238E+01 0.35303917851E+01 0.32599488609E+01
 0.30432302037E+01 0.28763590202E+01 0.27572414730E+01 0.26854715841E+01 0.26614613741E+01
 0.26854763325E+01 0.27572306869E+01 0.28763183311E+01 0.30431679082E+01 0.32598847931E+01
 0.35303417704E+01 0.38589182439E+01 0.42475431531E+01 0.46916038013E+01 0.51764512639E+01
 0.56764821274E+01 0.61575946235E+01 0.65821323686E+01 0.69145444231E+01 0.71262385653E+01
 0.71988999226E+01 0.71262564144E+01 0.69145911334E+01 0.65821977097E+01 0.61576380775E+01
 0.56764705667E+01 0.57944152994E+01 0.51478493932E+01 0.45699618013E+01 0.40742980169E+01
 0.36625231118E+01 0.33297061061E+01 0.30693313870E+01 0.28763643372E+01 0.27481829157E+01
 0.26840576541E+01 0.26840492169E+01 0.27481571075E+01 0.28763183311E+01 0.30692676263E+01
 0.33296440303E+01 0.36624847296E+01 0.40742810977E+01 0.45699531432E+01 0.51478615462E+01
 0.57944674488E+01 0.64813387125E+01 0.71664572069E+01 0.77995458391E+01 0.83293428558E+01
 0.87106772247E+01 0.89101753211E+01 0.89101823301E+01 0.87107196570E+01 0.83294311766E+01
 0.77996231419E+01 0.71664584103E+01 0.64812786853E+01 0.62943604959E+01 0.54852341906E+01
 0.47800780368E+01 0.41888323622E+01 0.37084212348E+01 0.33297151901E+01 0.30432260295E+01
 0.28420468675E+01 0.27223452924E+01 0.26825463855E+01 0.27222976387E+01 0.28419871083E+01
 0.30431679082E+01 0.33296440303E+01 0.37083499290E+01 0.41888104489E+01 0.47801234433E+01
 0.54852983470E+01 0.62943854965E+01 0.71792827665E+01 0.80929741051E+01 0.89739270083E+01
 0.97540234546E+01 0.10367608720E+02 0.10760062373E+02 0.10895116521E+02 0.10760046439E+02
 0.10367586355E+02 0.97540078636E+01 0.89739306869E+01 0.80929977553E+01 0.71793005077E+01
 0.66205587118E+01 0.56648560552E+01 0.48530938816E+01 0.41888222962E+01 0.36625412898E+01
 0.32599701735E+01 0.29680624841E+01 0.27776576643E+01 0.26835559992E+01 0.26835427617E+01
 0.27776121262E+01 0.29679842969E+01 0.32598847931E+01 0.36624847296E+01 0.41888104489E+01
 0.48531189515E+01 0.56649040773E+01 0.66206093834E+01 0.76962058705E+01 0.88441106506E+01
 0.99958142776E+01 0.11068858700E+02 0.11975986793E+02 0.12635564588E+02 0.12983214395E+02
 0.12983133743E+02 0.12635393629E+02 0.11975863292E+02 0.11068850270E+02 0.99958726961E+01
 0.88441486883E+01 0.76961877528E+01 0.67339574347E+01 0.56648613094E+01 0.47800813737E+01
 0.40742815566E+01 0.35303950522E+01 0.31286716422E+01 0.28525454129E+01 0.26908420483E+01
 0.26375454836E+01 0.26908089617E+01 0.28524811110E+01 0.31285944322E+01 0.35303417704E+01
 0.40742810977E+01 0.47801234433E+01 0.56649040773E+01 0.67339704296E+01 0.79715815909E+01
 0.93351403656E+01 0.10755423924E+02 0.12141684918E+02 0.13388945471E+02 0.14387236754E+02
 0.15034918839E+02 0.15259155317E+02 0.15034811036E+02 0.14387090922E+02 0.13388831702E+02
 0.12141624766E+02 0.10755405202E+02 0.93351465405E+01 0.79715915365E+01 0.66205103386E+01
 0.54852340806E+01 0.45699754991E+01 0.38589452780E+01 0.33272921079E+01 0.29503974009E+01
 0.27091022823E+01 0.25912392591E+01 0.25911776981E+01 0.27090002219E+01 0.29503652903E+01
 0.33273006738E+01 0.38589182439E+01 0.45699531432E+01 0.54852983470E+01 0.66206093834E+01
 0.79715815909E+01 0.95059725945E+01 0.11161272351E+02 0.12847257071E+02 0.14450052918E+02
 0.15834454680E+02 0.16851867123E+02 0.17389596039E+02 0.17389612127E+02 0.16851853897E+02
 0.15834317111E+02 0.14449819198E+02 0.12847087287E+02 0.11161271760E+02 0.95060506720E+01
 0.79715763055E+01 0.62943140901E+01 0.51478239296E+01 0.42475516695E+01 0.35671295291E+01
 0.30749372892E+01 0.27430928815E+01 0.25515997623E+01 0.24889633212E+01 0.25515326654E+01
 0.27430422348E+01 0.30749315078E+01 0.35671234475E+01 0.42475431531E+01 0.51478615462E+01
 0.62943854965E+01 0.76962058705E+01 0.93351403656E+01 0.11161272351E+02 0.13093651485E+02
 0.15021414420E+02 0.16791248710E+02 0.18213751431E+02 0.19134141911E+02 0.19452524225E+02
 0.19134059958E+02 0.18213652492E+02 0.16791153043E+02 0.15021295194E+02 0.13093534577E+02
 0.11161219515E+02 0.93351336213E+01 0.76961685333E+01 0.57944191311E+01 0.46915150861E+01
 0.38480229048E+01 0.32285481131E+01 0.27970587078E+01 0.25248368983E+01 0.23932142692E+01
 0.23932308730E+01 0.25248479519E+01 0.27970158297E+01 0.32284909873E+01 0.38480402097E+01
 0.46916038013E+01 0.57944674488E+01 0.71792827665E+01 0.88441106506E+01 0.10755423924E+02
 0.12847257071E+02 0.15021414420E+02 0.17125780114E+02 0.18944129406E+02 0.20281648941E+02
 0.20991133503E+02 0.20991043581E+02 0.20281515109E+02 0.18944136931E+02 0.17125865417E+02
 0.15021374407E+02 0.12847075899E+02 0.10755288608E+02 0.88441185500E+01 0.71793219856E+01
 0.51764526927E+01 0.41640875556E+01 0.34099574970E+01 0.28727643649E+01 0.25154549756E+01
 0.23112514187E+01 0.22448135260E+01 0.23112397737E+01 0.25154362345E+01 0.28727567017E+01
 0.34099730919E+01 0.41641072734E+01 0.51764512639E+01 0.64813387125E+01 0.80929741051E+01
 0.99958142776E+01 0.12141684918E+02 0.14450052918E+02 0.16791248710E+02 0.18944129406E+02
 0.20682333243E+02 0.21815486790E+02 0.22209666681E+02 0.21815534004E+02 0.20682369125E+02
 0.18944114546E+02 0.16791197505E+02 0.14449989558E+02 0.12141618785E+02 0.99957620109E+01
 0.80929571344E+01 0.64813489919E+01 0.45017372605E+01 0.36132619714E+01 0.29686324090E+01
 0.25248368568E+01 0.22474368205E+01 0.21140363236E+01 0.21140091830E+01 0.22473942883E+01
 0.25248432696E+01 0.29686820530E+01 0.36132701817E+01 0.45016619751E+01 0.56764821274E+01
 0.71664572069E+01 0.89739270083E+01 0.11068858700E+02 0.13388945471E+02 0.15834454680E+02
 0.18213751431E+02 0.20281648941E+02 0.21815486790E+02 0.22635031453E+02 0.22635101718E+02
 0.21815575994E+02 0.20281592811E+02 0.18213605235E+02 0.15834386950E+02 0.13388967271E+02
 0.11068847339E+02 0.89738585009E+01 0.71664392918E+01 0.56765586099E+01 0.38268588353E+01
 0.30793689415E+01 0.25515482166E+01 0.22030343464E+01 0.20049046525E+01 0.19406381410E+01
 0.20049328621E+01 0.22030417012E+01 0.25515256454E+01 0.30793545377E+01 0.38268517095E+01
 0.48397548569E+01 0.61575946235E+01 0.77995458391E+01 0.97540234546E+01 0.11975986793E+02
 0.14387236754E+02 0.16851867123E+02 0.19134141911E+02 0.20991133503E+02 0.22209666681E+02
 0.22635101718E+02 0.22209685505E+02 0.20991146021E+02 0.19134132448E+02 0.16851833456E+02
 0.14387172806E+02 0.11975908906E+02 0.97539908666E+01 0.77995952096E+01 0.61576795359E+01
 0.48398016389E+01 0.31960220416E+01 0.25912080403E+01 0.21768219059E+01 0.19186230832E+01
 0.17946993987E+01 0.17947255892E+01 0.19186614609E+01 0.21768155281E+01 0.25911698784E+01
 0.31960017469E+01 0.40350099617E+01 0.51529026284E+01 0.65821323686E+01 0.83293428558E+01
 0.10367608720E+02 0.12635564588E+02 0.15034918839E+02 0.17389596039E+02 0.19452524225E+02
 0.20991043581E+02 0.21815534004E+02 0.21815575994E+02 0.20991146021E+02 0.19452624047E+02
 0.17389624814E+02 0.15034857968E+02 0.12635474891E+02 0.10367584214E+02 0.83294112585E+01
 0.65822275914E+01 0.51529508283E+01 0.40350171234E+01 0.26375362833E+01 0.21654105739E+01
 0.18540237994E+01 0.16770460618E+01 0.16196207583E+01 0.16770441987E+01 0.18540298939E+01
 0.21654248603E+01 0.26375372025E+01 0.33078306033E+01 0.42202990421E+01 0.54151172854E+01
 0.69145444231E+01 0.87106772247E+01 0.10760062373E+02 0.12983214395E+02 0.15259155317E+02
 0.17389612127E+02 0.19134059958E+02 0.20281515109E+02 0.20682369125E+02 0.20281592811E+02
 0.19134132448E+02 0.17389624814E+02 0.15259139579E+02 0.12983222806E+02 0.10760102639E+02
 0.87107286835E+01 0.69146039138E+01 0.54151912329E+01 0.42203693494E+01 0.33078675135E+01
 0.21645265048E+01 0.18084635542E+01 0.15862880954E+01 0.14795630645E+01 0.14795743140E+01
 0.15863033873E+01 0.18084652690E+01 0.21645297665E+01 0.26835488523E+01 0.34037135514E+01
 0.43662458270E+01 0.56037814689E+01 0.71262385653E+01 0.89101753211E+01 0.10895116521E+02
 0.12983133743E+02 0.15034811036E+02 0.16851853897E+02 0.18213652492E+02 0.18944136931E+02
 0.18944114546E+02 0.18213605235E+02 0.16851833456E+02 0.15034857968E+02 0.12983222806E+02
 0.10895183534E+02 0.89102070872E+01 0.71262898158E+01 0.56038803712E+01 0.43663395941E+01
 0.34037484202E+01 0.26835433312E+01 0.17786214801E+01 0.15199026095E+01 0.13725087267E+01
 0.13246520136E+01 0.13725336244E+01 0.15199140024E+01 0.17786166656E+01 0.21694491079E+01
 0.27223417107E+01 0.34737964631E+01 0.44595687424E+01 0.57024495627E+01 0.71988999226E+01
 0.89101823301E+01 0.10760046439E+02 0.12635393629E+02 0.14387090922E+02 0.15834317111E+02
 0.16791153043E+02 0.17125865417E+02 0.16791197505E+02 0.15834386950E+02 0.14387172806E+02
 0.12635474891E+02 0.10760102639E+02 0.89102070872E+01 0.71989324175E+01 0.57025226855E+01
 0.44596464449E+01 0.34738211011E+01 0.27223214230E+01 0.21694369324E+01 0.14745638939E+01
 0.12952752501E+01 0.12089883635E+01 0.12089800984E+01 0.12952659396E+01 0.14745779743E+01
 0.17608474063E+01 0.21757494725E+01 0.27481830213E+01 0.35107717234E+01 0.44916800676E+01
 0.57024820978E+01 0.71262564144E+01 0.87107196570E+01 0.10367586355E+02 0.11975863292E+02
 0.13388831702E+02 0.14449819198E+02 0.15021295194E+02 0.15021374407E+02 0.14449989558E+02
 0.13388967271E+02 0.11975908906E+02 0.10367584214E+02 0.87107286835E+01 0.71262898158E+01
 0.57025226855E+01 0.44917150785E+01 0.35107942583E+01 0.27481813190E+01 0.21757202462E+01
 0.17608118261E+01 0.12439703436E+01 0.11281817937E+01 0.10905588146E+01 0.11281638954E+01
 0.12439686849E+01 0.14468600698E+01 0.17517982055E+01 0.21798877314E+01 0.27572431692E+01
 0.35107583036E+01 0.44595875770E+01 0.56038278046E+01 0.69145911334E+01 0.83294311766E+01
 0.97540078636E+01 0.11068850270E+02 0.12141624766E+02 0.12847087287E+02 0.13093534577E+02
 0.12847075899E+02 0.12141618785E+02 0.11068847339E+02 0.97539908666E+01 0.83294112585E+01
 0.69146039138E+01 0.56038803712E+01 0.44596464449E+01 0.35107942583E+01 0.27572529719E+01
 0.21798736697E+01 0.17517651039E+01 0.14468320929E+01 0.10776046649E+01 0.10115181936E+01
 0.10115120444E+01 0.10775998114E+01 0.12149931964E+01 0.14338514080E+01 0.17490669579E+01
 0.21798814524E+01 0.27481712118E+01 0.34737668529E+01 0.43662443276E+01 0.54151054774E+01
 0.65821977097E+01 0.77996231419E+01 0.89739306869E+01 0.99958726961E+01 0.10755405202E+02
 0.11161271760E+02 0.11161219515E+02 0.10755288608E+02 0.99957620109E+01 0.89738585009E+01
 0.77995952096E+01 0.65822275914E+01 0.54151912329E+01 0.43663395941E+01 0.34738211011E+01
 0.27481813190E+01 0.21798736697E+01 0.17490525235E+01 0.14338313791E+01 0.12149811896E+01
 0.96661022042E+00 0.93844731612E+00 0.96659995871E+00 0.10534260006E+01 0.12056679777E+01
 0.14338582854E+01 0.17517903419E+01 0.21757435291E+01 0.27223215618E+01 0.34036919537E+01
 0.42202615157E+01 0.51528490050E+01 0.61576380775E+01 0.71664584103E+01 0.80929977553E+01
 0.88441486883E+01 0.93351465405E+01 0.95060506720E+01 0.93351336213E+01 0.88441185500E+01
 0.80929571344E+01 0.71664392918E+01 0.61576795359E+01 0.51529508283E+01 0.42203693494E+01
 0.34037484202E+01 0.27223214230E+01 0.21757202462E+01 0.17517651039E+01 0.14338313791E+01
 0.12056470013E+01 0.10534245423E+01 0.90346581642E+00 0.90346256636E+00 0.95208663125E+00
 0.10534287166E+01 0.12150036894E+01 0.14468719511E+01 0.17608539867E+01 0.21694595952E+01
 0.26835341321E+01 0.33078305491E+01 0.40349602992E+01 0.48397255976E+01 0.56764705667E+01
 0.64812786853E+01 0.71793005077E+01 0.76961877528E+01 0.79715915365E+01 0.79715763055E+01
 0.76961685333E+01 0.71793219856E+01 0.64813489919E+01 0.56765586099E+01 0.48398016389E+01
 0.40350171234E+01 0.33078675135E+01 0.26835433312E+01 0.21694369324E+01 0.17608118261E+01
 0.14468320929E+01 0.12149811896E+01 0.10534245423E+01 0.95209162580E+00 0.90346377770E+00
 0.93844520721E+00 0.10115090091E+01 0.11281653882E+01 0.12952626717E+01 0.15199117081E+01
 0.18084982709E+01 0.21654467791E+01 0.25912124958E+01 0.30793384893E+01 0.36132331710E+01
 0.41640957942E+01 0.46915519624E+01 0.51478511787E+01 0.54852352441E+01 0.56648569210E+01
 0.56648634645E+01 0.54852374424E+01 0.51478275553E+01 0.46915191202E+01 0.41640919975E+01
 0.36132646178E+01 0.30793671552E+01 0.25912018529E+01 0.21654019970E+01 0.18084540156E+01
 0.15198932764E+01 0.12952684372E+01 0.11281792537E+01 0.10115187995E+01 0.93844873531E+00
 0.90346428666E+00 0.93844520721E+00 0.98185475269E+00 0.10584855337E+01 0.11736847593E+01
 0.13332450671E+01 0.15423725941E+01 0.18047328226E+01 0.21213323604E+01 0.24889188582E+01
 0.28978804815E+01 0.33302501584E+01 0.37589699211E+01 0.41495428404E+01 0.44644400184E+01
 0.46695122945E+01 0.47407618732E+01 0.46695204124E+01 0.44644248696E+01 0.41495039881E+01
 0.37589514496E+01 0.33302733084E+01 0.28979016865E+01 0.24888858049E+01 0.21212583261E+01
 0.18046807091E+01 0.15423755920E+01 0.13332760853E+01 0.11737043946E+01 0.10584888964E+01
 0.98185850280E+00 0.93845238547E+00 0.92444279035E+00 0.10115090091E+01 0.10584855337E+01
 0.11341673073E+01 0.12433852653E+01 0.13906998727E+01 0.15794931422E+01 0.18111721140E+01
 0.20842645824E+01 0.23932025588E+01 0.27268951541E+01 0.30676727220E+01 0.33915035250E+01
 0.36701965038E+01 0.38755757553E+01 0.39847119864E+01 0.39847126855E+01 0.38755787171E+01
 0.36702051045E+01 0.33915195973E+01 0.30676870924E+01 0.27268901510E+01 0.23931716571E+01
 0.20842240926E+01 0.18111459454E+01 0.15794904064E+01 0.13907125289E+01 0.12434010997E+01
 0.11341777639E+01 0.10584865908E+01 0.10115034705E+01 0.98917521105E+00 0.98917873404E+00
 0.11281653882E+01 0.11736847593E+01 0.12433852653E+01 0.13414379778E+01 0.14712619428E+01
 0.16348035701E+01 0.18319168288E+01 0.20596378036E+01 0.23112604410E+01 0.25754361838E+01
 0.28358433978E+01 0.30720579376E+01 0.32619608475E+01 0.33854087959E+01 0.34282429724E+01
 0.33853808270E+01 0.32619474558E+01 0.30720838894E+01 0.28358782142E+01 0.25754315291E+01
 0.23112123734E+01 0.20595916520E+01 0.18319114312E+01 0.16348300717E+01 0.14712844562E+01
 0.13414388339E+01 0.12433758800E+01 0.11736810616E+01 0.11281692901E+01 0.11028150010E+01
 0.10947142205E+01 0.11028105113E+01 0.12952626717E+01 0.13332450671E+01 0.13906998727E+01
 0.14712619428E+01 0.15775709633E+01 0.17107266313E+01 0.18697615469E+01 0.20510129885E+01
 0.22474536799E+01 0.24482683694E+01 0.26390964140E+01 0.28032973921E+01 0.29242962915E+01
 0.29885920839E+01 0.29885861988E+01 0.29242873673E+01 0.28032958697E+01 0.26390943591E+01
 0.24482501211E+01 0.22474214404E+01 0.20509875840E+01 0.18697580484E+01 0.17107400187E+01
 0.15775863299E+01 0.14712698880E+01 0.13906998904E+01 0.13332410576E+01 0.12952588606E+01
 0.12728238454E+01 0.12625780218E+01 0.12625782755E+01 0.12728255057E+01 0.15199117081E+01
 0.15423725941E+01 0.15794931422E+01 0.16348035701E+01 0.17107266313E+01 0.18081066550E+01
 0.19256968863E+01 0.20596370962E+01 0.22030988116E+01 0.23463289719E+01 0.24773081180E+01
 0.25831562102E+01 0.26521922517E+01 0.26762022370E+01 0.26522179090E+01 0.25831881559E+01
 0.24773154497E+01 0.23462985656E+01 0.22030592868E+01 0.20596326059E+01 0.19257327234E+01
 0.18081420141E+01 0.17107281534E+01 0.16347844619E+01 0.15794860393E+01 0.15423820521E+01
 0.15199137168E+01 0.15080012319E+01 0.15027690540E+01 0.15013844704E+01 0.15027909880E+01
 0.15080199773E+01 0.18084982709E+01 0.18047328226E+01 0.18111721140E+01 0.18319168288E+01
 0.18697615469E+01 0.19256968863E+01 0.19984603707E+01 0.20842646485E+01 0.21768490951E+01
 0.22679264742E+01 0.23480525478E+01 0.24079262560E+01 0.24399969183E+01 0.24400068489E+01
 0.24079498227E+01 0.23480734314E+01 0.22679306193E+01 0.21768420828E+01 0.20842682356E+01
 0.19984845850E+01 0.19257254555E+01 0.18697734002E+01 0.18319116993E+01 0.18111638890E+01
 0.18047270520E+01 0.18084895099E+01 0.18175986484E+01 0.18271576843E+01 0.18331033295E+01
 0.18331083698E+01 0.18271704928E+01 0.18176125009E+01 0.21654467791E+01 0.21213323604E+01
 0.20842645824E+01 0.20596378036E+01 0.20510129885E+01 0.20596370962E+01 0.20842646485E+01
 0.21213332338E+01 0.21654470715E+01 0.22100706165E+01 0.22483781015E+01 0.22742593147E+01
 0.22834126822E+01 0.22742688508E+01 0.22483788183E+01 0.22100590587E+01 0.21654441646E+01
 0.21213498200E+01 0.20842772845E+01 0.20596182371E+01 0.20509742934E+01 0.20596186724E+01
 0.20842785126E+01 0.21213502950E+01 0.21654413463E+01 0.22100529658E+01 0.22483720466E+01
 0.22742630483E+01 0.22834076875E+01 0.22742555275E+01 0.22483765794E+01 0.22100706860E+01
 0.25912124958E+01 0.24889188582E+01 0.23932025588E+01 0.23112604410E+01 0.22474536799E+01
 0.22030988116E+01 0.21768490951E+01 0.21654470715E+01 0.21645508925E+01 0.21694593940E+01
 0.21757451219E+01 0.21798860654E+01 0.21798938546E+01 0.21757558907E+01 0.21694561173E+01
 0.21645363658E+01 0.21654282965E+01 0.21768149866E+01 0.22030392571E+01 0.22473911074E+01
 0.23112346329E+01 0.23932234376E+01 0.24889554651E+01 0.25912320351E+01 0.26908347525E+01
 0.27776509924E+01 0.28420434904E+01 0.28763650238E+01 0.28763614066E+01 0.28420386698E+01
 0.27776523051E+01 0.26908342710E+01 0.30793384893E+01 0.28978804815E+01 0.27268951541E+01
 0.25754361838E+01 0.24482683694E+01 0.23463289719E+01 0.22679264742E+01 0.22100706165E+01
 0.21694593940E+01 0.21430344163E+01 0.21282956720E+01 0.21235747326E+01 0.21282870560E+01
 0.21430336221E+01 0.21694718746E+01 0.22100637101E+01 0.22678527786E+01 0.23461971925E+01
 0.24481666041E+01 0.25754472057E+01 0.27270000500E+01 0.28979840814E+01 0.30793810150E+01
 0.32585113043E+01 0.34204035245E+01 0.35498049558E+01 0.36334905709E+01 0.36624471746E+01
 0.36334748785E+01 0.35497855135E+01 0.34203967946E+01 0.32585085373E+01 0.36132331710E+01
 0.33302501584E+01 0.30676727220E+01 0.28358433978E+01 0.26390964140E+01 0.24773081180E+01
 0.23480525478E+01 0.22483781015E+01 0.21757451219E+01 0.21282956720E+01 0.21048445560E+01
 0.21048299967E+01 0.21282725986E+01 0.21757410433E+01 0.22483697692E+01 0.23479751643E+01
 0.24771484186E+01 0.26389540917E+01 0.28358481167E+01 0.30678360914E+01 0.33304480127E+01
 0.36133469112E+01 0.39001878965E+01 0.41699359411E+01 0.43994649922E+01 0.45669479588E+01
 0.46553554540E+01 0.46553461107E+01 0.45669234952E+01 0.43994420703E+01 0.41699279819E+01
 0.39001604409E+01 0.41640957942E+01 0.37589699211E+01 0.33915035250E+01 0.30720579376E+01
 0.28032973921E+01 0.25831562102E+01 0.24079262560E+01 0.22742593147E+01 0.21798860654E+01
 0.21235747326E+01 0.21048299967E+01 0.21235599411E+01 0.21798812156E+01 0.22742367716E+01
 0.24078094174E+01 0.25829421088E+01 0.28031222131E+01 0.30720743402E+01 0.33917072747E+01
 0.37592046015E+01 0.41642274057E+01 0.45874685384E+01 0.50013768340E+01 0.53730899757E+01
 0.56689752103E+01 0.58598477040E+01 0.59258321019E+01 0.58598585842E+01 0.56689732397E+01
 0.53730759027E+01 0.50013689007E+01 0.45874362580E+01 0.46915519624E+01 0.41495428404E+01
 0.36701965038E+01 0.32619608475E+01 0.29242962915E+01 0.26521922517E+01 0.24399969183E+01
 0.22834126822E+01 0.21798938546E+01 0.21282870560E+01 0.21282725986E+01 0.21798812156E+01
 0.22834043157E+01 0.24398913094E+01 0.26519324339E+01 0.29240374604E+01 0.32619441238E+01
 0.36704571825E+01 0.41498605124E+01 0.46917082116E+01 0.52755709857E+01 0.58683382449E+01
 0.64267660145E+01 0.69028336061E+01 0.72508176541E+01 0.74347501304E+01 0.74347694975E+01
 0.72508509574E+01 0.69028518343E+01 0.64267909961E+01 0.58683931417E+01 0.52755836505E+01
 0.51478511787E+01 0.44644400184E+01 0.38755757553E+01 0.33854087959E+01 0.29885920839E+01
 0.26762022370E+01 0.24400068489E+01 0.22742688508E+01 0.21757558907E+01 0.21430336221E+01
 0.21757410433E+01 0.22742367716E+01 0.24398913094E+01 0.26759487664E+01 0.29883200498E+01
 0.33853608996E+01 0.38758387986E+01 0.44648141446E+01 0.51480670266E+01 0.59068031561E+01
 0.67048653475E+01 0.74899450083E+01 0.81988530668E+01 0.87659021310E+01 0.91330809992E+01
 0.92602739971E+01 0.91331010669E+01 0.87659181813E+01 0.81988694174E+01 0.74900041472E+01
 0.67049607777E+01 0.59068099334E+01 0.54852352441E+01 0.46695122945E+01 0.39847119864E+01
 0.34282429724E+01 0.29885861988E+01 0.26522179090E+01 0.24079498227E+01 0.22483788183E+01
 0.21694561173E+01 0.21694718746E+01 0.22483697692E+01 0.24078094174E+01 0.26519324339E+01
 0.29883200498E+01 0.34282267198E+01 0.39850036093E+01 0.46699068758E+01 0.54854597520E+01
 0.64180534396E+01 0.74325391402E+01 0.84711499900E+01 0.94574711274E+01 0.10304867514E+02
 0.10928502497E+02 0.11259686137E+02 0.11259683140E+02 0.10928478037E+02 0.10304813596E+02
 0.94574397776E+01 0.84712129768E+01 0.74326662726E+01 0.64180771600E+01 0.56648569210E+01
 0.47407618732E+01 0.39847126855E+01 0.33853808270E+01 0.29242873673E+01 0.25831881559E+01
 0.23480734314E+01 0.22100590587E+01 0.21645363658E+01 0.22100637101E+01 0.23479751643E+01
 0.25829421088E+01 0.29240374604E+01 0.33853608996E+01 0.39850036093E+01 0.47411781937E+01
 0.56651090702E+01 0.67519465360E+01 0.79726325051E+01 0.92697935460E+01 0.10559097870E+02
 0.11735903547E+02 0.12687075755E+02 0.13308214611E+02 0.13524390386E+02 0.13308182185E+02
 0.12686990376E+02 0.11735796363E+02 0.10559072634E+02 0.92699207873E+01 0.79728219061E+01
 0.67519811045E+01 0.56648634645E+01 0.46695204124E+01 0.38755787171E+01 0.32619474558E+01
 0.28032958697E+01 0.24773154497E+01 0.22679306193E+01 0.21654441646E+01 0.21654282965E+01
 0.22678527786E+01 0.24771484186E+01 0.28031222131E+01 0.32619441238E+01 0.38758387986E+01
 0.46699068758E+01 0.56651090702E+01 0.68681297754E+01 0.82609034786E+01 0.97933517329E+01
 0.11381356044E+02 0.12909935221E+02 0.14241962036E+02 0.15234905762E+02 0.15766971718E+02
 0.15766957436E+02 0.15234863355E+02 0.14241894196E+02 0.12909869386E+02 0.11381365109E+02
 0.97934898147E+01 0.82610880588E+01 0.68681575012E+01 0.54852374424E+01 0.44644248696E+01
 0.36702051045E+01 0.30720838894E+01 0.26390943591E+01 0.23462985656E+01 0.21768420828E+01
 0.21213498200E+01 0.21768149866E+01 0.23461971925E+01 0.26389540917E+01 0.30720743402E+01
 0.36704571825E+01 0.44648141446E+01 0.54854597520E+01 0.67519465360E+01 0.82609034786E+01
 0.99758958586E+01 0.11821963133E+02 0.13684745847E+02 0.15413944134E+02 0.16835010411E+02
 0.17775474104E+02 0.18105088066E+02 0.17775441889E+02 0.16835016388E+02 0.15413970405E+02
 0.13684707018E+02 0.11821902248E+02 0.99759689861E+01 0.82611058842E+01 0.67520299590E+01
 0.51478275553E+01 0.41495039881E+01 0.33915195973E+01 0.28358782142E+01 0.24482501211E+01
 0.22030592868E+01 0.20842682356E+01 0.20842772845E+01 0.22030392571E+01 0.24481666041E+01
 0.28358481167E+01 0.33917072747E+01 0.41498605124E+01 0.51480670266E+01 0.64180534396E+01
 0.79726325051E+01 0.97933517329E+01 0.11821963133E+02 0.13955905050E+02 0.16046338704E+02
 0.17901786558E+02 0.19305120350E+02 0.20062127674E+02 0.20062105512E+02 0.19305132410E+02
 0.17901901069E+02 0.16046433208E+02 0.13955848339E+02 0.11821869561E+02 0.97934373880E+01