   2   2   0   0
  0.2001288E+02  0.3839590E-09  0.3839590E-09  0.3839590E-09  0.5000000E-15
  1.000000000000000E-004
  CAR 
 unknown system                          
     17.68169917     -8.10920946  301      6.12190331      1.00000000
     -8.109  0.0000E+00  0.0000E+00
     -8.023  0.0000E+00  0.0000E+00
     -7.937  0.0000E+00  0.0000E+00
     -7.851  0.0000E+00  0.0000E+00
     -7.765  0.0000E+00  0.0000E+00
     -7.679  0.0000E+00  0.0000E+00
     -7.593  0.0000E+00  0.0000E+00
     -7.507  0.0000E+00  0.0000E+00
     -7.421  0.0000E+00  0.0000E+00
     -7.335  0.0000E+00  0.0000E+00
     -7.250  0.6975E-18  0.5997E-19
     -7.164  0.8849E-16  0.7667E-17
     -7.078  0.7618E-14  0.6626E-15
     -6.992  0.4593E-12  0.4015E-13
     -6.906  0.1945E-10  0.1712E-11
     -6.820  0.5803E-09  0.5160E-10
     -6.734  0.1224E-07  0.1104E-08
     -6.648  0.1836E-06  0.1689E-07
     -6.562  0.1966E-05  0.1859E-06
     -6.476  0.1516E-04  0.1489E-05
     -6.390  0.8485E-04  0.8784E-05
     -6.304  0.3494E-03  0.3883E-04
     -6.218  0.1078E-02  0.1315E-03
     -6.132  0.2550E-02  0.3507E-03
     -6.046  0.4786E-02  0.7621E-03
     -5.960  0.7431E-02  0.1401E-02
     -5.874  0.1002E-01  0.2262E-02
     -5.788  0.1229E-01  0.3319E-02
     -5.702  0.1423E-01  0.4543E-02
     -5.616  0.1593E-01  0.5912E-02
     -5.530  0.1750E-01  0.7417E-02
     -5.444  0.1899E-01  0.9049E-02
     -5.358  0.2031E-01  0.1079E-01
     -5.272  0.2159E-01  0.1265E-01
     -5.186  0.2300E-01  0.1463E-01
     -5.100  0.2435E-01  0.1672E-01
     -5.014  0.2540E-01  0.1891E-01
     -4.928  0.2648E-01  0.2118E-01
     -4.842  0.2796E-01  0.2359E-01
     -4.756  0.2950E-01  0.2612E-01
     -4.670  0.3066E-01  0.2876E-01
     -4.584  0.3153E-01  0.3147E-01
     -4.498  0.3271E-01  0.3428E-01
     -4.413  0.3463E-01  0.3726E-01
     -4.327  0.3678E-01  0.4042E-01
     -4.241  0.3826E-01  0.4371E-01
     -4.155  0.3929E-01  0.4709E-01
     -4.069  0.4118E-01  0.5063E-01
     -3.983  0.4457E-01  0.5446E-01
     -3.897  0.4871E-01  0.5865E-01
     -3.811  0.5242E-01  0.6315E-01
     -3.725  0.5456E-01  0.6784E-01
     -3.639  0.5463E-01  0.7254E-01
     -3.553  0.5368E-01  0.7715E-01
     -3.467  0.5307E-01  0.8172E-01
     -3.381  0.5256E-01  0.8623E-01
     -3.295  0.5130E-01  0.9064E-01
     -3.209  0.4911E-01  0.9487E-01
     -3.123  0.4579E-01  0.9880E-01
     -3.037  0.4185E-01  0.1024E+00
     -2.951  0.3949E-01  0.1058E+00
     -2.865  0.4004E-01  0.1092E+00
     -2.779  0.4113E-01  0.1128E+00
     -2.693  0.3918E-01  0.1161E+00
     -2.607  0.3372E-01  0.1190E+00
     -2.521  0.2779E-01  0.1214E+00
     -2.435  0.2476E-01  0.1236E+00
     -2.349  0.2520E-01  0.1257E+00
     -2.263  0.2625E-01  0.1280E+00
     -2.177  0.2431E-01  0.1301E+00
     -2.091  0.1857E-01  0.1317E+00
     -2.005  0.1148E-01  0.1327E+00
     -1.919  0.6267E-02  0.1332E+00
     -1.833  0.5085E-02  0.1336E+00
     -1.747  0.8642E-02  0.1344E+00
     -1.661  0.1551E-01  0.1357E+00
     -1.576  0.2177E-01  0.1376E+00
     -1.490  0.2388E-01  0.1396E+00
     -1.404  0.2267E-01  0.1416E+00
     -1.318  0.2301E-01  0.1436E+00
     -1.232  0.3011E-01  0.1461E+00
     -1.146  0.4578E-01  0.1501E+00
     -1.060  0.6555E-01  0.1557E+00
     -0.974  0.7996E-01  0.1626E+00
     -0.888  0.8225E-01  0.1697E+00
     -0.802  0.7463E-01  0.1761E+00
     -0.716  0.6444E-01  0.1816E+00
     -0.630  0.5643E-01  0.1865E+00
     -0.544  0.5145E-01  0.1909E+00
     -0.458  0.4903E-01  0.1951E+00
     -0.372  0.4712E-01  0.1992E+00
     -0.286  0.4300E-01  0.2029E+00
     -0.200  0.3751E-01  0.2061E+00
     -0.114  0.3408E-01  0.2090E+00
     -0.028  0.3273E-01  0.2118E+00
      0.058  0.3071E-01  0.2145E+00
      0.144  0.2832E-01  0.2169E+00
      0.230  0.2833E-01  0.2193E+00
      0.316  0.2994E-01  0.2219E+00
      0.402  0.2899E-01  0.2244E+00
      0.488  0.2465E-01  0.2265E+00
      0.574  0.2097E-01  0.2283E+00
      0.660  0.2082E-01  0.2301E+00
      0.746  0.2214E-01  0.2320E+00
      0.832  0.2139E-01  0.2339E+00
      0.918  0.1874E-01  0.2355E+00
      1.004  0.1737E-01  0.2370E+00
      1.090  0.1859E-01  0.2386E+00
      1.176  0.2002E-01  0.2403E+00
      1.261  0.1972E-01  0.2420E+00
      1.347  0.1993E-01  0.2437E+00
      1.433  0.2499E-01  0.2458E+00
      1.519  0.3640E-01  0.2490E+00
      1.605  0.5122E-01  0.2534E+00
      1.691  0.6415E-01  0.2589E+00
      1.777  0.7093E-01  0.2650E+00
      1.863  0.7185E-01  0.2712E+00
      1.949  0.7114E-01  0.2773E+00
      2.035  0.7153E-01  0.2834E+00
      2.121  0.7174E-01  0.2896E+00
      2.207  0.6990E-01  0.2956E+00
      2.293  0.6727E-01  0.3014E+00
      2.379  0.6701E-01  0.3071E+00
      2.465  0.7017E-01  0.3132E+00
      2.551  0.7435E-01  0.3196E+00
      2.637  0.7684E-01  0.3262E+00
      2.723  0.7799E-01  0.3329E+00
      2.809  0.8003E-01  0.3398E+00
      2.895  0.8425E-01  0.3470E+00
      2.981  0.9037E-01  0.3548E+00
      3.067  0.9648E-01  0.3631E+00
      3.153  0.9978E-01  0.3716E+00
      3.239  0.9899E-01  0.3802E+00
      3.325  0.9581E-01  0.3884E+00
      3.411  0.9338E-01  0.3964E+00
      3.497  0.9325E-01  0.4044E+00
      3.583  0.9378E-01  0.4125E+00
      3.669  0.9232E-01  0.4204E+00
      3.755  0.8893E-01  0.4281E+00
      3.841  0.8628E-01  0.4355E+00
      3.927  0.8554E-01  0.4429E+00
      4.013  0.8508E-01  0.4502E+00
      4.098  0.8363E-01  0.4574E+00
      4.184  0.8189E-01  0.4644E+00
      4.270  0.8053E-01  0.4713E+00
      4.356  0.7904E-01  0.4781E+00
      4.442  0.7657E-01  0.4847E+00
      4.528  0.7297E-01  0.4910E+00
      4.614  0.6891E-01  0.4969E+00
      4.700  0.6411E-01  0.5024E+00
      4.786  0.5717E-01  0.5073E+00
      4.872  0.4858E-01  0.5115E+00
      4.958  0.4110E-01  0.5150E+00
      5.044  0.3631E-01  0.5182E+00
      5.130  0.3304E-01  0.5210E+00
      5.216  0.2953E-01  0.5235E+00
      5.302  0.2546E-01  0.5257E+00
      5.388  0.2162E-01  0.5276E+00
      5.474  0.1847E-01  0.5292E+00
      5.560  0.1566E-01  0.5305E+00
      5.646  0.1261E-01  0.5316E+00
      5.732  0.9197E-02  0.5324E+00
      5.818  0.5856E-02  0.5329E+00
      5.904  0.3146E-02  0.5332E+00
      5.990  0.1372E-02  0.5333E+00
      6.076  0.4831E-03  0.5333E+00
      6.162  0.2307E-03  0.5333E+00
      6.248  0.5065E-03  0.5334E+00
      6.334  0.1519E-02  0.5335E+00
      6.420  0.3561E-02  0.5338E+00
      6.506  0.6652E-02  0.5344E+00
      6.592  0.1066E-01  0.5353E+00
      6.678  0.1547E-01  0.5366E+00
      6.764  0.2041E-01  0.5384E+00
      6.850  0.2433E-01  0.5405E+00
      6.935  0.2680E-01  0.5428E+00
      7.021  0.2886E-01  0.5453E+00
      7.107  0.3220E-01  0.5480E+00
      7.193  0.3720E-01  0.5512E+00
      7.279  0.4196E-01  0.5548E+00
      7.365  0.4497E-01  0.5587E+00
      7.451  0.4763E-01  0.5628E+00
      7.537  0.5178E-01  0.5673E+00
      7.623  0.5726E-01  0.5722E+00
      7.709  0.6354E-01  0.5776E+00
      7.795  0.7089E-01  0.5837E+00
      7.881  0.7915E-01  0.5905E+00
      7.967  0.8784E-01  0.5981E+00
      8.053  0.9580E-01  0.6063E+00
      8.139  0.1002E+00  0.6149E+00
      8.225  0.9973E-01  0.6235E+00
      8.311  0.9718E-01  0.6319E+00
      8.397  0.9510E-01  0.6400E+00
      8.483  0.9222E-01  0.6480E+00
      8.569  0.8705E-01  0.6555E+00
      8.655  0.8119E-01  0.6624E+00
      8.741  0.7726E-01  0.6691E+00
      8.827  0.7667E-01  0.6757E+00
      8.913  0.8065E-01  0.6826E+00
      8.999  0.9074E-01  0.6904E+00
      9.085  0.1057E+00  0.6995E+00
      9.171  0.1199E+00  0.7098E+00
      9.257  0.1276E+00  0.7208E+00
      9.343  0.1272E+00  0.7317E+00
      9.429  0.1211E+00  0.7421E+00
      9.515  0.1127E+00  0.7518E+00
      9.601  0.1053E+00  0.7609E+00
      9.687  0.1006E+00  0.7695E+00
      9.772  0.9718E-01  0.7779E+00
      9.858  0.9323E-01  0.7859E+00
      9.944  0.8905E-01  0.7935E+00
     10.030  0.8602E-01  0.8009E+00
     10.116  0.8445E-01  0.8082E+00
     10.202  0.8354E-01  0.8154E+00
     10.288  0.8281E-01  0.8225E+00
     10.374  0.8281E-01  0.8296E+00
     10.460  0.8358E-01  0.8368E+00
     10.546  0.8381E-01  0.8440E+00
     10.632  0.8297E-01  0.8511E+00
     10.718  0.8240E-01  0.8582E+00
     10.804  0.8283E-01  0.8653E+00
     10.890  0.8296E-01  0.8725E+00
     10.976  0.8214E-01  0.8795E+00
     11.062  0.8171E-01  0.8866E+00
     11.148  0.8148E-01  0.8936E+00
     11.234  0.7871E-01  0.9003E+00
     11.320  0.7337E-01  0.9066E+00
     11.406  0.6985E-01  0.9126E+00
     11.492  0.7070E-01  0.9187E+00
     11.578  0.7316E-01  0.9250E+00
     11.664  0.7417E-01  0.9314E+00
     11.750  0.7425E-01  0.9378E+00
     11.836  0.7398E-01  0.9441E+00
     11.922  0.7191E-01  0.9503E+00
     12.008  0.6772E-01  0.9561E+00
     12.094  0.6292E-01  0.9615E+00
     12.180  0.5868E-01  0.9666E+00
     12.266  0.5627E-01  0.9714E+00
     12.352  0.5759E-01  0.9764E+00
     12.438  0.6222E-01  0.9817E+00
     12.524  0.6632E-01  0.9874E+00
     12.609  0.6634E-01  0.9931E+00
     12.695  0.6203E-01  0.9985E+00
     12.781  0.5487E-01  0.1003E+01
     12.867  0.4647E-01  0.1007E+01
     12.953  0.3979E-01  0.1011E+01
     13.039  0.3820E-01  0.1014E+01
     13.125  0.4166E-01  0.1017E+01
     13.211  0.4650E-01  0.1021E+01
     13.297  0.4921E-01  0.1026E+01
     13.383  0.4843E-01  0.1030E+01
     13.469  0.4428E-01  0.1034E+01
     13.555  0.3820E-01  0.1037E+01
     13.641  0.3253E-01  0.1040E+01
     13.727  0.2875E-01  0.1042E+01
     13.813  0.2652E-01  0.1044E+01
     13.899  0.2509E-01  0.1047E+01
     13.985  0.2514E-01  0.1049E+01
     14.071  0.2715E-01  0.1051E+01
     14.157  0.2834E-01  0.1054E+01
     14.243  0.2484E-01  0.1056E+01
     14.329  0.1725E-01  0.1057E+01
     14.415  0.1014E-01  0.1058E+01
     14.501  0.6717E-02  0.1059E+01
     14.587  0.6596E-02  0.1059E+01
     14.673  0.7807E-02  0.1060E+01
     14.759  0.9423E-02  0.1061E+01
     14.845  0.1141E-01  0.1062E+01
     14.931  0.1260E-01  0.1063E+01
     15.017  0.1120E-01  0.1064E+01
     15.103  0.7496E-02  0.1064E+01
     15.189  0.3837E-02  0.1065E+01
     15.275  0.2008E-02  0.1065E+01
     15.361  0.2047E-02  0.1065E+01
     15.446  0.3008E-02  0.1065E+01
     15.532  0.3874E-02  0.1066E+01
     15.618  0.4068E-02  0.1066E+01
     15.704  0.3501E-02  0.1066E+01
     15.790  0.2416E-02  0.1066E+01
     15.876  0.1282E-02  0.1067E+01
     15.962  0.5036E-03  0.1067E+01
     16.048  0.1430E-03  0.1067E+01
     16.134  0.2894E-04  0.1067E+01
     16.220  0.4147E-05  0.1067E+01
     16.306  0.4187E-06  0.1067E+01
     16.392  0.2970E-07  0.1067E+01
     16.478  0.1477E-08  0.1067E+01
     16.564  0.5142E-10  0.1067E+01
     16.650  0.1251E-11  0.1067E+01
     16.736  0.2122E-13  0.1067E+01
     16.822  0.2505E-15  0.1067E+01
     16.908  0.2392E-17  0.1067E+01
     16.994  0.0000E+00  0.1067E+01
     17.080  0.0000E+00  0.1067E+01
     17.166  0.0000E+00  0.1067E+01
     17.252  0.0000E+00  0.1067E+01
     17.338  0.0000E+00  0.1067E+01
     17.424  0.0000E+00  0.1067E+01
     17.510  0.0000E+00  0.1067E+01
     17.596  0.0000E+00  0.1067E+01
     17.682  0.0000E+00  0.1067E+01
