       N       E                     dE             d eps       ncg     rms          rms(c)
DAV:   1    -0.382354495331E+00   -0.38235E+00   -0.23689E+03   608   0.451E+02
DAV:   2    -0.109048726501E+02   -0.10523E+02   -0.10174E+02   920   0.606E+01
DAV:   3    -0.110013170989E+02   -0.96444E-01   -0.96444E-01   672   0.732E+00
DAV:   4    -0.110016503617E+02   -0.33326E-03   -0.33326E-03   944   0.434E-01
DAV:   5    -0.110016504579E+02   -0.96174E-07   -0.95736E-07   664   0.705E-03    0.300E+00
DAV:   6    -0.108772539310E+02    0.12440E+00   -0.81735E-02   672   0.149E+00    0.178E+00
DAV:   7    -0.108207332342E+02    0.56521E-01   -0.15000E-01   704   0.214E+00    0.153E-01
DAV:   8    -0.108220331171E+02   -0.12999E-02   -0.39238E-03   600   0.463E-01    0.247E-02
DAV:   9    -0.108221246014E+02   -0.91484E-04   -0.92730E-05   472   0.764E-02
   1 F= -.10822125E+02 E0= -.10822043E+02  d E =-.108221E+02
