unknown system                          
   1.00000000000000     
     0.000000    2.715000    2.715000
     2.715000    0.000000    2.715000
     2.715000    2.715000    0.000000
   Si
     2
Direct
  0.500000  0.500000  0.500000
  0.750000  0.750000  0.750000
 
   32   32   32
 0.87668049906E+00 0.89831889915E+00 0.96440662103E+00 0.10786069815E+01 0.12469671354E+01
 0.14776697503E+01 0.17802868173E+01 0.21641035118E+01 0.26351930108E+01 0.31923429109E+01
 0.38225936112E+01 0.44977984363E+01 0.51738824655E+01 0.57940915570E+01 0.62964992807E+01
 0.66246404180E+01 0.67387815827E+01 0.66245924819E+01 0.62964094834E+01 0.57939728274E+01
 0.51737570657E+01 0.44976982099E+01 0.38225512649E+01 0.31923770026E+01 0.26352975880E+01
 0.21642485550E+01 0.17804278723E+01 0.14777640252E+01 0.12469921852E+01 0.10785720156E+01
 0.96434694211E+00 0.89827584280E+00 0.89831889915E+00 0.93568147363E+00 0.10123810053E+01
 0.11322721958E+01 0.13008002539E+01 0.15245562058E+01 0.18104266485E+01 0.21639913816E+01
 0.25869375224E+01 0.30736729522E+01 0.36079451211E+01 0.41608124888E+01 0.46913857958E+01
 0.51511405127E+01 0.54914490232E+01 0.56727232870E+01 0.56727041911E+01 0.54913962655E+01
 0.51510677675E+01 0.46913166301E+01 0.41607789944E+01 0.36079765065E+01 0.30737756529E+01
 0.25870843901E+01 0.21641355533E+01 0.18105302449E+01 0.15246069612E+01 0.13008047227E+01
 0.11322419650E+01 0.10123307179E+01 0.93563373709E+00 0.89829911699E+00 0.96440662103E+00
 0.10123810053E+01 0.10949555712E+01 0.12157913403E+01 0.13795020778E+01 0.15911111701E+01
 0.18551324810E+01 0.21740341896E+01 0.25459853927E+01 0.29621780173E+01 0.34045479657E+01
 0.38450735311E+01 0.42476698503E+01 0.45729471352E+01 0.47850329083E+01 0.48587401353E+01
 0.47850047730E+01 0.45729099526E+01 0.42476523460E+01 0.38450997839E+01 0.34046252991E+01
 0.29622932553E+01 0.25461106928E+01 0.21741389290E+01 0.18551952785E+01 0.15911266451E+01
 0.13794798965E+01 0.12157492865E+01 0.10949112789E+01 0.10123466804E+01 0.96438840330E+00
 0.94867977926E+00 0.10786069815E+01 0.11322721958E+01 0.12157913403E+01 0.13324673836E+01
 0.14861235048E+01 0.16804678191E+01 0.19180898014E+01 0.21989817572E+01 0.25186398861E+01
 0.28661357973E+01 0.32229220942E+01 0.35632663727E+01 0.38568772438E+01 0.40735394890E+01
 0.41887380183E+01 0.41887240638E+01 0.40735095236E+01 0.38568614994E+01 0.35632961037E+01
 0.32230058201E+01 0.28662478181E+01 0.25187352393E+01 0.21990268028E+01 0.19180805326E+01
 0.16804228348E+01 0.14860658876E+01 0.13324147166E+01 0.12157550604E+01 0.11322563608E+01
 0.10786056966E+01 0.10524042381E+01 0.10524026540E+01 0.12469671354E+01 0.13008002539E+01
 0.13795020778E+01 0.14861235048E+01 0.16239389962E+01 0.17956811634E+01 0.20024561329E+01
 0.22423691091E+01 0.25090461784E+01 0.27904831026E+01 0.30688363666E+01 0.33217033446E+01
 0.35250289924E+01 0.36571543731E+01 0.37029897878E+01 0.36571299161E+01 0.35249996254E+01
 0.33216955848E+01 0.30688659691E+01 0.27905430404E+01 0.25091079568E+01 0.22423974391E+01
 0.20024285328E+01 0.17956010968E+01 0.16238349598E+01 0.14860342840E+01 0.13794563653E+01
 0.13008022950E+01 0.12469966379E+01 0.12156690383E+01 0.12053749490E+01 0.12156431176E+01
 0.14776697503E+01 0.15245562058E+01 0.15911111701E+01 0.16804678191E+01 0.17956811634E+01
 0.19388256274E+01 0.21098978407E+01 0.23056551771E+01 0.25186404423E+01 0.27367810974E+01
 0.29439715498E+01 0.31218436720E+01 0.32525299151E+01 0.33218058547E+01 0.33217924019E+01
 0.32524994132E+01 0.31218169597E+01 0.29439633715E+01 0.27367908136E+01 0.25186551917E+01
 0.23056578446E+01 0.21098728918E+01 0.19387649143E+01 0.17955919922E+01 0.16803768600E+01
 0.15910547945E+01 0.15245581777E+01 0.14777217025E+01 0.14479274156E+01 0.14334302829E+01
 0.14334027945E+01 0.14478649196E+01 0.17802868173E+01 0.18104266485E+01 0.18551324810E+01
 0.19180898014E+01 0.20024561329E+01 0.21098978407E+01 0.22396235578E+01 0.23875717610E+01
 0.25459853830E+01 0.27036573309E+01 0.28470367055E+01 0.29621169194E+01 0.30367095619E+01
 0.30625421805E+01 0.30366938376E+01 0.29620962539E+01 0.28470248447E+01 0.27036607977E+01
 0.25459977820E+01 0.23875765286E+01 0.22396039627E+01 0.21098489504E+01 0.20023910931E+01
 0.19180354570E+01 0.18551159960E+01 0.18104603707E+01 0.17803598614E+01 0.17614015270E+01
 0.17510186677E+01 0.17476998374E+01 0.17509655585E+01 0.17613200379E+01 0.21641035118E+01
 0.21639913816E+01 0.21740341896E+01 0.21989817572E+01 0.22423691091E+01 0.23056551771E+01
 0.23875717610E+01 0.24837725809E+01 0.25869369477E+01 0.26874888507E+01 0.27749288647E+01
 0.28395057153E+01 0.28737890702E+01 0.28737899916E+01 0.28395092527E+01 0.27749375746E+01
 0.26875065037E+01 0.25869651533E+01 0.24838056114E+01 0.23875952407E+01 0.23056548384E+01
 0.22423461719E+01 0.21989601664E+01 0.21740469869E+01 0.21640539189E+01 0.21641990635E+01
 0.21694701981E+01 0.21755329785E+01 0.21793275902E+01 0.21793065888E+01 0.21754708296E+01
 0.21693771511E+01 0.26351930108E+01 0.25869375224E+01 0.25459853927E+01 0.25186398861E+01
 0.25090461784E+01 0.25186404423E+01 0.25459853830E+01 0.25869369477E+01 0.26351929948E+01
 0.26832758998E+01 0.27238085391E+01 0.27507350091E+01 0.27601622701E+01 0.27507573888E+01
 0.27238486626E+01 0.26833276259E+01 0.26352504695E+01 0.25869944253E+01 0.25460386923E+01
 0.25186895813E+01 0.25090944408E+01 0.25186901429E+01 0.25460386931E+01 0.25869938659E+01
 0.26352504730E+01 0.26833281929E+01 0.27238486709E+01 0.27507568387E+01 0.27601622839E+01
 0.27507355863E+01 0.27238085562E+01 0.26832753558E+01 0.31923429109E+01 0.30736729522E+01
 0.29621780173E+01 0.28661357973E+01 0.27904831026E+01 0.27367810974E+01 0.27036573309E+01
 0.26874888507E+01 0.26832758998E+01 0.26856816487E+01 0.26900437793E+01 0.26930674464E+01
 0.26930915550E+01 0.26901088640E+01 0.26857723975E+01 0.26833778198E+01 0.26875886851E+01
 0.27037434550E+01 0.27368525929E+01 0.27905534006E+01 0.28662170677E+01 0.29622610746E+01
 0.30737307573E+01 0.31923566280E+01 0.33073395426E+01 0.34068899962E+01 0.34801560281E+01
 0.35189652519E+01 0.35189752006E+01 0.34801840719E+01 0.34069265442E+01 0.33073630569E+01
 0.38225936112E+01 0.36079451211E+01 0.34045479657E+01 0.32229220942E+01 0.30688363666E+01
 0.29439715498E+01 0.28470367055E+01 0.27749288647E+01 0.27238085391E+01 0.26900437793E+01
 0.26708775735E+01 0.26646886302E+01 0.26709494656E+01 0.26901671249E+01 0.27239552249E+01
 0.27750741731E+01 0.28471631561E+01 0.29440713073E+01 0.30689118117E+01 0.32229782439E+01
 0.34045818776E+01 0.36079462937E+01 0.38225551372E+01 0.40335068402E+01 0.42231812975E+01
 0.43739197093E+01 0.44708971633E+01 0.45043696933E+01 0.44709507536E+01 0.43740065395E+01
 0.42232733904E+01 0.40335800752E+01 0.44977984363E+01 0.41608124888E+01 0.38450735311E+01
 0.35632663727E+01 0.33217033446E+01 0.31218436720E+01 0.29621169194E+01 0.28395057153E+01
 0.27507350091E+01 0.26930674464E+01 0.26646886302E+01 0.26647361372E+01 0.26931973329E+01
 0.27509142023E+01 0.28396928752E+01 0.29622770367E+01 0.31219590406E+01 0.33217730890E+01
 0.35632937876E+01 0.38450547471E+01 0.41607425533E+01 0.44976858689E+01 0.48364873880E+01
 0.51525128654E+01 0.54192145483E+01 0.56123481121E+01 0.57137459149E+01 0.57137752711E+01
 0.56124274317E+01 0.54193263771E+01 0.51526426005E+01 0.48366199415E+01 0.51738824655E+01
 0.46913857958E+01 0.42476698503E+01 0.38568772438E+01 0.35250289924E+01 0.32525299151E+01
 0.30367095619E+01 0.28737890702E+01 0.27601622701E+01 0.26930915550E+01 0.26709494656E+01
 0.26931973329E+01 0.27603438234E+01 0.28739990655E+01 0.30368996596E+01 0.32526631138E+01
 0.35250874542E+01 0.38568638820E+01 0.42476010004E+01 0.46912801023E+01 0.51737549439E+01
 0.56713981835E+01 0.61520196246E+01 0.65784724398E+01 0.69141671416E+01 0.71287896383E+01
 0.72026157394E+01 0.71288409020E+01 0.69142599999E+01 0.65785931093E+01 0.61521547503E+01
 0.56715353940E+01 0.57940915570E+01 0.51511405127E+01 0.45729471352E+01 0.40735394890E+01
 0.36571543731E+01 0.33218058547E+01 0.30625421805E+01 0.28737899916E+01 0.27507573888E+01
 0.26901088640E+01 0.26901671249E+01 0.27509142023E+01 0.28739990655E+01 0.30627472471E+01
 0.33219580325E+01 0.36572219637E+01 0.40735129494E+01 0.45728425452E+01 0.51509973556E+01
 0.57939560573E+01 0.64752570720E+01 0.71558232516E+01 0.77872016696E+01 0.83179116832E+01
 0.87012288516E+01 0.89021742417E+01 0.89021866900E+01 0.87012603781E+01 0.83179510141E+01
 0.77872461876E+01 0.71558859748E+01 0.64753559647E+01 0.62964992807E+01 0.54914490232E+01
 0.47850329083E+01 0.41887380183E+01 0.37029897878E+01 0.33217924019E+01 0.30366938376E+01
 0.28395092527E+01 0.27238486626E+01 0.26857723975E+01 0.27239552249E+01 0.28396928752E+01
 0.30368996596E+01 0.33219580325E+01 0.37030705444E+01 0.41887204621E+01 0.47849316881E+01
 0.54913006391E+01 0.62963541447E+01 0.71735142848E+01 0.80793448180E+01 0.89554748163E+01
 0.97346164105E+01 0.10349706271E+02 0.10744021395E+02 0.10879835156E+02 0.10743961220E+02
 0.10349612020E+02 0.97345263519E+01 0.89554259447E+01 0.80793642441E+01 0.71736085822E+01
 0.66246404180E+01 0.56727232870E+01 0.48587401353E+01 0.41887240638E+01 0.36571299161E+01
 0.32524994132E+01 0.29620962539E+01 0.27749375746E+01 0.26833276259E+01 0.26833778198E+01
 0.27750741731E+01 0.29622770367E+01 0.32526631138E+01 0.36572219637E+01 0.41887204621E+01
 0.48586511532E+01 0.56725852260E+01 0.66245043638E+01 0.76913932904E+01 0.88297358468E+01
 0.99753703704E+01 0.11047601054E+02 0.11957731765E+02 0.12621219511E+02 0.12971357563E+02
 0.12971292464E+02 0.12621059024E+02 0.11957549728E+02 0.11047458104E+02 0.99752965870E+01
 0.88297431140E+01 0.76914786884E+01 0.67387815827E+01 0.56727041911E+01 0.47850047730E+01
 0.40735095236E+01 0.35249996254E+01 0.31218169597E+01 0.28470248447E+01 0.26875065037E+01
 0.26352504695E+01 0.26875886851E+01 0.28471631561E+01 0.31219590406E+01 0.35250874542E+01
 0.40735129494E+01 0.47849316881E+01 0.56725852260E+01 0.67386572482E+01 0.79676306750E+01
 0.93211693289E+01 0.10735697673E+02 0.12123428329E+02 0.13377762082E+02 0.14384398692E+02
 0.15038039934E+02 0.15264354395E+02 0.15037964654E+02 0.14384273791E+02 0.13377620760E+02
 0.12123303620E+02 0.10735625331E+02 0.93211768189E+01 0.79677144862E+01 0.66245924819E+01
 0.54913962655E+01 0.45729099526E+01 0.38568614994E+01 0.33216955848E+01 0.29439633715E+01
 0.27036607977E+01 0.25869651533E+01 0.25869944253E+01 0.27037434550E+01 0.29440713073E+01
 0.33217730890E+01 0.38568638820E+01 0.45728425452E+01 0.54913006391E+01 0.66245043638E+01
 0.79676306750E+01 0.94923907437E+01 0.11142823844E+02 0.12833147983E+02 0.14448221599E+02
 0.15846997407E+02 0.16875253550E+02 0.17418206283E+02 0.17418215205E+02 0.16875265114E+02
 0.15846982424E+02 0.14448170880E+02 0.12833088742E+02 0.11142796439E+02 0.94924129917E+01
 0.79676935094E+01 0.62964094834E+01 0.51510677675E+01 0.42476523460E+01 0.35632961037E+01
 0.30688659691E+01 0.27367908136E+01 0.25459977820E+01 0.24838056114E+01 0.25460386923E+01
 0.27368525929E+01 0.30689118117E+01 0.35632937876E+01 0.42476010004E+01 0.51509973556E+01
 0.62963541447E+01 0.76913932904E+01 0.93211693289E+01 0.11142823844E+02 0.13081472105E+02
 0.15025993372E+02 0.16816085432E+02 0.18254286738E+02 0.19182691814E+02 0.19503254774E+02
 0.19182761470E+02 0.18254400553E+02 0.16816197693E+02 0.15026061517E+02 0.13081486677E+02
 0.11142811176E+02 0.93211640023E+01 0.76914167933E+01 0.57939728274E+01 0.46913166301E+01
 0.38450997839E+01 0.32230058201E+01 0.27905430404E+01 0.25186551917E+01 0.23875765286E+01
 0.23875952407E+01 0.25186895813E+01 0.27905534006E+01 0.32229782439E+01 0.38450547471E+01
 0.46912801023E+01 0.57939560573E+01 0.71735142848E+01 0.88297358468E+01 0.10735697673E+02
 0.12833147983E+02 0.15025993372E+02 0.17155319108E+02 0.18994058040E+02 0.20341551823E+02
 0.21053400375E+02 0.21053456069E+02 0.20341710374E+02 0.18994277284E+02 0.17155516436E+02
 0.15026092495E+02 0.12833141404E+02 0.10735643811E+02 0.88296942829E+01 0.71735048409E+01
 0.51737570657E+01 0.41607789944E+01 0.34046252991E+01 0.28662478181E+01 0.25091079568E+01
 0.23056578446E+01 0.22396039627E+01 0.23056548384E+01 0.25090944408E+01 0.28662170677E+01
 0.34045818776E+01 0.41607425533E+01 0.51737549439E+01 0.64752570720E+01 0.80793448180E+01
 0.99753703704E+01 0.12123428329E+02 0.14448221599E+02 0.16816085432E+02 0.18994058040E+02
 0.20745712198E+02 0.21881015492E+02 0.22274302154E+02 0.21881139278E+02 0.20745910922E+02
 0.18994256279E+02 0.16816215454E+02 0.14448249673E+02 0.12123366273E+02 0.99752643631E+01
 0.80792481062E+01 0.64752065613E+01 0.44976982099E+01 0.36079765065E+01 0.29622932553E+01
 0.25187352393E+01 0.22423974391E+01 0.21098728918E+01 0.21098489504E+01 0.22423461719E+01
 0.25186901429E+01 0.29622610746E+01 0.36079462937E+01 0.44976858689E+01 0.56713981835E+01
 0.71558232516E+01 0.89554748163E+01 0.11047601054E+02 0.13377762082E+02 0.15846997407E+02
 0.18254286738E+02 0.20341551823E+02 0.21881015492E+02 0.22698854577E+02 0.22698893282E+02
 0.21881101699E+02 0.20341630444E+02 0.18254328682E+02 0.15846996276E+02 0.13377701193E+02
 0.11047469235E+02 0.89553063942E+01 0.71556907802E+01 0.56713477861E+01 0.38225512649E+01
 0.30737756529E+01 0.25461106928E+01 0.21990268028E+01 0.20024285328E+01 0.19387649143E+01
 0.20023910931E+01 0.21989601664E+01 0.25460386931E+01 0.30737307573E+01 0.38225551372E+01
 0.48364873880E+01 0.61520196246E+01 0.77872016696E+01 0.97346164105E+01 0.11957731765E+02
 0.14384398692E+02 0.16875253550E+02 0.19182691814E+02 0.21053400375E+02 0.22274302154E+02
 0.22698893282E+02 0.22274284248E+02 0.21053354610E+02 0.19182612024E+02 0.16875142215E+02
 0.14384257250E+02 0.11957563977E+02 0.97344415949E+01 0.77870482646E+01 0.61519098698E+01
 0.48364294083E+01 0.31923770026E+01 0.25870843901E+01 0.21741389290E+01 0.19180805326E+01
 0.17956010968E+01 0.17955919922E+01 0.19180354570E+01 0.21740469869E+01 0.25869938659E+01
 0.31923566280E+01 0.40335068402E+01 0.51525128654E+01 0.65784724398E+01 0.83179116832E+01
 0.10349706271E+02 0.12621219511E+02 0.15038039934E+02 0.17418206283E+02 0.19503254774E+02
 0.21053456069E+02 0.21881139278E+02 0.21881101699E+02 0.21053354610E+02 0.19503108807E+02
 0.17418024214E+02 0.15037825296E+02 0.12620995314E+02 0.10349515225E+02 0.83177726072E+01
 0.65783627796E+01 0.51524128934E+01 0.40334447791E+01 0.26352975880E+01 0.21641355533E+01
 0.18551952785E+01 0.16804228348E+01 0.16238349598E+01 0.16803768600E+01 0.18551159960E+01
 0.21640539189E+01 0.26352504730E+01 0.33073395426E+01 0.42231812975E+01 0.54192145483E+01
 0.69141671416E+01 0.87012288516E+01 0.10744021395E+02 0.12971357563E+02 0.15264354395E+02
 0.17418215205E+02 0.19182761470E+02 0.20341710374E+02 0.20745910922E+02 0.20341630444E+02
 0.19182612024E+02 0.17418024214E+02 0.15264156769E+02 0.12971171662E+02 0.10743850031E+02
 0.87010746750E+01 0.69140393667E+01 0.54191214362E+01 0.42231274675E+01 0.33073340347E+01
 0.21642485550E+01 0.18105302449E+01 0.15911266451E+01 0.14860658876E+01 0.14860342840E+01
 0.15910547945E+01 0.18104603707E+01 0.21641990635E+01 0.26833281929E+01 0.34068899962E+01
 0.43739197093E+01 0.56123481121E+01 0.71287896383E+01 0.89021742417E+01 0.10879835156E+02
 0.12971292464E+02 0.15037964654E+02 0.16875265114E+02 0.18254400553E+02 0.18994277284E+02
 0.18994256279E+02 0.18254328682E+02 0.16875142215E+02 0.15037825296E+02 0.12971171662E+02
 0.10879725515E+02 0.89020446804E+01 0.71286453729E+01 0.56122384866E+01 0.43738789055E+01
 0.34069030764E+01 0.26833631821E+01 0.17804278723E+01 0.15246069612E+01 0.13794798965E+01
 0.13324147166E+01 0.13794563653E+01 0.15245581777E+01 0.17803598614E+01 0.21694701981E+01
 0.27238486709E+01 0.34801560281E+01 0.44708971633E+01 0.57137459149E+01 0.72026157394E+01
 0.89021866900E+01 0.10743961220E+02 0.12621059024E+02 0.14384273791E+02 0.15846982424E+02
 0.16816197693E+02 0.17155516436E+02 0.16816215454E+02 0.15846996276E+02 0.14384257250E+02
 0.12620995314E+02 0.10743850031E+02 0.89020446804E+01 0.72024755017E+01 0.57136438346E+01
 0.44708529048E+01 0.34801671417E+01 0.27238994109E+01 0.21695403191E+01 0.14777640252E+01
 0.13008047227E+01 0.12157492865E+01 0.12157550604E+01 0.13008022950E+01 0.14777217025E+01
 0.17614015270E+01 0.21755329785E+01 0.27507568387E+01 0.35189652519E+01 0.45043696933E+01
 0.57137752711E+01 0.71288409020E+01 0.87012603781E+01 0.10349612020E+02 0.11957549728E+02
 0.13377620760E+02 0.14448170880E+02 0.15026061517E+02 0.15026092495E+02 0.14448249673E+02
 0.13377701193E+02 0.11957563977E+02 0.10349515225E+02 0.87010746750E+01 0.71286453729E+01
 0.57136438346E+01 0.45043239562E+01 0.35189874261E+01 0.27508244319E+01 0.21756245522E+01
 0.17614843556E+01 0.12469921852E+01 0.11322419650E+01 0.10949112789E+01 0.11322563608E+01
 0.12469966379E+01 0.14479274156E+01 0.17510186677E+01 0.21793275902E+01 0.27601622839E+01
 0.35189752006E+01 0.44709507536E+01 0.56124274317E+01 0.69142599999E+01 0.83179510141E+01
 0.97345263519E+01 0.11047458104E+02 0.12123303620E+02 0.12833088742E+02 0.13081486677E+02
 0.12833141404E+02 0.12123366273E+02 0.11047469235E+02 0.97344415949E+01 0.83177726072E+01
 0.69140393667E+01 0.56122384866E+01 0.44708529048E+01 0.35189874261E+01 0.27602572250E+01
 0.21794480395E+01 0.17511096218E+01 0.14479644208E+01 0.10785720156E+01 0.10123307179E+01
 0.10123466804E+01 0.10786056966E+01 0.12156690383E+01 0.14334302829E+01 0.17476998374E+01
 0.21793065888E+01 0.27507355863E+01 0.34801840719E+01 0.43740065395E+01 0.54193263771E+01
 0.65785931093E+01 0.77872461876E+01 0.89554259447E+01 0.99752965870E+01 0.10735625331E+02
 0.11142796439E+02 0.11142811176E+02 0.10735643811E+02 0.99752643631E+01 0.89553063942E+01
 0.77870482646E+01 0.65783627796E+01 0.54191214362E+01 0.43738789055E+01 0.34801671417E+01
 0.27508244319E+01 0.21794480395E+01 0.17478188054E+01 0.14334796840E+01 0.12156561114E+01
 0.96434694211E+00 0.93563373709E+00 0.96438840330E+00 0.10524042381E+01 0.12053749490E+01
 0.14334027945E+01 0.17509655585E+01 0.21754708296E+01 0.27238085562E+01 0.34069265442E+01
 0.42232733904E+01 0.51526426005E+01 0.61521547503E+01 0.71558859748E+01 0.80793642441E+01
 0.88297431140E+01 0.93211768189E+01 0.94924129917E+01 0.93211640023E+01 0.88296942829E+01
 0.80792481062E+01 0.71556907802E+01 0.61519098698E+01 0.51524128934E+01 0.42231274675E+01
 0.34069030764E+01 0.27238994109E+01 0.21756245522E+01 0.17511096218E+01 0.14334796840E+01
 0.12053725582E+01 0.10523565560E+01 0.89827584280E+00 0.89829911699E+00 0.94867977926E+00
 0.10524026540E+01 0.12156431176E+01 0.14478649196E+01 0.17613200379E+01 0.21693771511E+01
 0.26832753558E+01 0.33073630569E+01 0.40335800752E+01 0.48366199415E+01 0.56715353940E+01
 0.64753559647E+01 0.71736085822E+01 0.76914786884E+01 0.79677144862E+01 0.79676935094E+01
 0.76914167933E+01 0.71735048409E+01 0.64752065613E+01 0.56713477861E+01 0.48364294083E+01
 0.40334447791E+01 0.33073340347E+01 0.26833631821E+01 0.21695403191E+01 0.17614843556E+01
 0.14479644208E+01 0.12156561114E+01 0.10523565560E+01 0.94862470662E+00 0.89831955469E+00
 0.93568174830E+00 0.10123810599E+01 0.11322723401E+01 0.13008003995E+01 0.15245561016E+01
 0.18104264207E+01 0.21639913237E+01 0.25869375930E+01 0.30736730057E+01 0.36079453979E+01
 0.41608133421E+01 0.46913871472E+01 0.51511420713E+01 0.54914507827E+01 0.56727252689E+01
 0.56727059379E+01 0.54913971410E+01 0.51510675836E+01 0.46913155233E+01 0.41607769775E+01
 0.36079736888E+01 0.30737726497E+01 0.25870819316E+01 0.21641338420E+01 0.18105291441E+01
 0.15246065378E+01 0.13008050723E+01 0.11322427608E+01 0.10123314973E+01 0.93563444710E+00
 0.89829989187E+00 0.93568174830E+00 0.98248872968E+00 0.10631607157E+01 0.11813771303E+01
 0.13417024120E+01 0.15490255976E+01 0.18076629750E+01 0.21198860351E+01 0.24837733940E+01
 0.28906544464E+01 0.33229136505E+01 0.37532793616E+01 0.41466051373E+01 0.44644527896E+01
 0.46717415651E+01 0.47437936082E+01 0.46717133132E+01 0.44644039176E+01 0.41465581688E+01
 0.37532703199E+01 0.33229724679E+01 0.28907801068E+01 0.24839277769E+01 0.21200162847E+01
 0.18077349128E+01 0.15490398936E+01 0.13416821497E+01 0.11813437325E+01 0.10631235098E+01
 0.98245316807E+00 0.93565851715E+00 0.92034729271E+00 0.10123810599E+01 0.10631607157E+01
 0.11425034508E+01 0.12537592826E+01 0.14006541635E+01 0.15866431596E+01 0.18139884782E+01
 0.20824464033E+01 0.23875717990E+01 0.27189539137E+01 0.30590636832E+01 0.33835631283E+01
 0.36636744554E+01 0.38705283784E+01 0.39805771863E+01 0.39805644824E+01 0.38704989498E+01
 0.36636516931E+01 0.33835754245E+01 0.30591283019E+01 0.27190634200E+01 0.23876944500E+01
 0.20825424599E+01 0.18140315139E+01 0.15866323752E+01 0.14006105886E+01 0.12537102191E+01
 0.11424670293E+01 0.10631407935E+01 0.10123728274E+01 0.98765706514E+00 0.98765911524E+00
 0.11322723401E+01 0.11813771303E+01 0.12537592826E+01 0.13525210859E+01 0.14807908228E+01
 0.16409827117E+01 0.18338641605E+01 0.20574278321E+01 0.23056547498E+01 0.25674813078E+01
 0.28265169468E+01 0.30620748545E+01 0.32517459345E+01 0.33751600828E+01 0.34180094680E+01
 0.33751421907E+01 0.32517250363E+01 0.30620773976E+01 0.28265644196E+01 0.25675675361E+01
 0.23057429482E+01 0.20574770298E+01 0.18338590156E+01 0.16409370514E+01 0.14807286703E+01
 0.13524621663E+01 0.12537188831E+01 0.11813655097E+01 0.11322855444E+01 0.11039258866E+01
 0.10946503099E+01 0.11039087595E+01 0.13008003995E+01 0.13417024120E+01 0.14006541635E+01
 0.14807908228E+01 0.15849766633E+01 0.17149821274E+01 0.18705809793E+01 0.20486451602E+01
 0.22423692342E+01 0.24408967739E+01 0.26297234970E+01 0.27921528741E+01 0.29117409183E+01
 0.29752361648E+01 0.29752289696E+01 0.29117231984E+01 0.27921380010E+01 0.26297312186E+01
 0.24409367420E+01 0.22424250152E+01 0.20486808685E+01 0.18705683947E+01 0.17149212971E+01
 0.15848916922E+01 0.14807118937E+01 0.14006050677E+01 0.13416954581E+01 0.13008303312E+01
 0.12752337268E+01 0.12629257778E+01 0.12629069400E+01 0.12751927208E+01 0.15245561016E+01
 0.15490255976E+01 0.15866431596E+01 0.16409827117E+01 0.17149821274E+01 0.18100915117E+01
 0.19254830900E+01 0.20574281342E+01 0.21989821860E+01 0.23401794059E+01 0.24689162958E+01
 0.25725368660E+01 0.26398657986E+01 0.26632168669E+01 0.26398547169E+01 0.25725246575E+01
 0.24689147206E+01 0.23401928662E+01 0.21990042384E+01 0.20574443105E+01 0.19254771631E+01
 0.18100534371E+01 0.17149157162E+01 0.16409084912E+01 0.15865909523E+01 0.15490180696E+01
 0.15245934124E+01 0.15098677212E+01 0.15021317866E+01 0.14997207220E+01 0.15020902306E+01
 0.15098103268E+01 0.18104264207E+01 0.18076629750E+01 0.18139884782E+01 0.18338641605E+01
 0.18705809793E+01 0.19254830900E+01 0.19974121664E+01 0.20824461320E+01 0.21740339451E+01
 0.22636283034E+01 0.23418125161E+01 0.23997387319E+01 0.24305627610E+01 0.24305635079E+01
 0.23997435614E+01 0.23418268193E+01 0.22636539523E+01 0.21740634171E+01 0.20824637496E+01
 0.19974040897E+01 0.19254481461E+01 0.18705324150E+01 0.18338219541E+01 0.18139697955E+01
 0.18076765478E+01 0.18104699058E+01 0.18175996910E+01 0.18248775429E+01 0.18292817846E+01
 0.18292617163E+01 0.18248267594E+01 0.18175408108E+01 0.21639913237E+01 0.21198860351E+01
 0.20824464033E+01 0.20574278321E+01 0.20486451602E+01 0.20574281342E+01 0.20824461320E+01
 0.21198851732E+01 0.21639907575E+01 0.22079661165E+01 0.22450901848E+01 0.22697940889E+01
 0.22784535119E+01 0.22698171818E+01 0.22451332304E+01 0.22080221628E+01 0.21640470459E+01
 0.21199238373E+01 0.20824527352E+01 0.20574033595E+01 0.20486073582E+01 0.20574021924E+01
 0.20824499133E+01 0.21199199538E+01 0.21640435810E+01 0.22080196155E+01 0.22451310352E+01
 0.22698154125E+01 0.22784529382E+01 0.22697945399E+01 0.22450905971E+01 0.22079662724E+01
 0.25869375930E+01 0.24837733940E+01 0.23875717990E+01 0.23056547498E+01 0.22423692342E+01
 0.21989821860E+01 0.21740339451E+01 0.21639907575E+01 0.21641035722E+01 0.21693777517E+01
 0.21754711060E+01 0.21793068929E+01 0.21793289474E+01 0.21755350979E+01 0.21694719677E+01
 0.21642005032E+01 0.21640556750E+01 0.21740484239E+01 0.21989599913E+01 0.22423445204E+01
 0.23056528285E+01 0.23875929831E+01 0.24838026170E+01 0.25869621515E+01 0.26875048016E+01
 0.27749370362E+01 0.28395088394E+01 0.28737897974E+01 0.28737898718E+01 0.28395070501E+01
 0.27749295744E+01 0.26874890680E+01 0.30736730057E+01 0.28906544464E+01 0.27189539137E+01
 0.25674813078E+01 0.24408967739E+01 0.23401794059E+01 0.22636283034E+01 0.22079661165E+01
 0.21693777517E+01 0.21443796999E+01 0.21303879763E+01 0.21259070175E+01 0.21304573869E+01
 0.21445021736E+01 0.21695165702E+01 0.22080710198E+01 0.22636624297E+01 0.23401486829E+01
 0.24408484711E+01 0.25674639620E+01 0.27189753938E+01 0.28906817247E+01 0.30736702191E+01
 0.32550866516E+01 0.34194599075E+01 0.35509499421E+01 0.36359545196E+01 0.36653622492E+01
 0.36359787130E+01 0.35509957284E+01 0.34195146633E+01 0.32551258706E+01 0.36079453979E+01
 0.33229136505E+01 0.30590636832E+01 0.28265169468E+01 0.26297234970E+01 0.24689162958E+01
 0.23418125161E+01 0.22450901848E+01 0.21754711060E+01 0.21303879763E+01 0.21082346205E+01
 0.21082843998E+01 0.21305220731E+01 0.21756436580E+01 0.22452347662E+01 0.23418742576E+01
 0.24688879920E+01 0.26296490750E+01 0.28264520174E+01 0.30590302667E+01 0.33228928829E+01
 0.36079074112E+01 0.38977953685E+01 0.41711543923E+01 0.44041415982E+01 0.45742350008E+01
 0.46640191200E+01 0.46640446404E+01 0.45743026635E+01 0.44042306752E+01 0.41712421454E+01
 0.38978626169E+01 0.41608133421E+01 0.37532793616E+01 0.33835631283E+01 0.30620748545E+01
 0.27921528741E+01 0.25725368660E+01 0.23997387319E+01 0.22697940889E+01 0.21793068929E+01
 0.21259070175E+01 0.21082843998E+01 0.21260210304E+01 0.21794903454E+01 0.22699681498E+01
 0.23998270419E+01 0.25725142567E+01 0.27920584452E+01 0.30619692039E+01 0.33834745313E+01
 0.37531960805E+01 0.41607179684E+01 0.45869456060E+01 0.50043121706E+01 0.53794634427E+01
 0.56780889992E+01 0.58706063464E+01 0.59371275932E+01 0.58706557943E+01 0.56781695394E+01
 0.53795583180E+01 0.50044154786E+01 0.45870510652E+01 0.46913871472E+01 0.41466051373E+01
 0.36636744554E+01 0.32517459345E+01 0.29117409183E+01 0.26398657986E+01 0.24305627610E+01
 0.22784535119E+01 0.21793289474E+01 0.21304573869E+01 0.21305220731E+01 0.21794903454E+01
 0.22786295172E+01 0.24306663239E+01 0.26398556401E+01 0.29116397131E+01 0.32516085006E+01
 0.36635397783E+01 0.41464798112E+01 0.46912646854E+01 0.52774932013E+01 0.58723755364E+01
 0.64326820611E+01 0.69100540132E+01 0.72585764866E+01 0.74425616429E+01 0.74425773927E+01
 0.72586208373E+01 0.69101215771E+01 0.64327698557E+01 0.58724817744E+01 0.52776117639E+01
 0.51511420713E+01 0.44644527896E+01 0.38705283784E+01 0.33751600828E+01 0.29752361648E+01
 0.26632168669E+01 0.24305635079E+01 0.22698171818E+01 0.21755350979E+01 0.21445021736E+01
 0.21756436580E+01 0.22699681498E+01 0.24306663239E+01 0.26632153167E+01 0.29751386822E+01
 0.33750144415E+01 0.38703723876E+01 0.44642977734E+01 0.51509950704E+01 0.59112704725E+01
 0.67095470379E+01 0.74941785470E+01 0.82021399847E+01 0.87677409999E+01 0.91334364169E+01
 0.92599751701E+01 0.91334412838E+01 0.87677480439E+01 0.82021524371E+01 0.74942123433E+01
 0.67096218376E+01 0.59113899877E+01 0.54914507827E+01 0.46717415651E+01 0.39805771863E+01
 0.34180094680E+01 0.29752289696E+01 0.26398547169E+01 0.23997435614E+01 0.22451332304E+01
 0.21694719677E+01 0.21695165702E+01 0.22452347662E+01 0.23998270419E+01 0.26398556401E+01
 0.29751386822E+01 0.34178683314E+01 0.39804242365E+01 0.46715846910E+01 0.54912902901E+01
 0.64247781228E+01 0.74376050588E+01 0.84735299000E+01 0.94570828648E+01 0.10301703971E+02
 0.10922654663E+02 0.11252030558E+02 0.11252007932E+02 0.10922592991E+02 0.10301623090E+02
 0.94570177419E+01 0.84735224615E+01 0.74376785126E+01 0.64249158215E+01 0.56727252689E+01
 0.47437936082E+01 0.39805644824E+01 0.33751421907E+01 0.29117231984E+01 0.25725246575E+01
 0.23418268193E+01 0.22080221628E+01 0.21642005032E+01 0.22080710198E+01 0.23418742576E+01
 0.25725142567E+01 0.29116397131E+01 0.33750144415E+01 0.39804242365E+01 0.47436463433E+01
 0.56725690696E+01 0.67602110352E+01 0.79779654578E+01 0.92708195908E+01 0.10556563681E+02
 0.11730981382E+02 0.12680256879E+02 0.13299759002E+02 0.13515209419E+02 0.13299684470E+02
 0.12680142093E+02 0.11730870493E+02 0.10556494708E+02 0.92708221783E+01 0.79780494638E+01
 0.67603524178E+01 0.56727059379E+01 0.46717133132E+01 0.38704989498E+01 0.32517250363E+01
 0.27921380010E+01 0.24689147206E+01 0.22636539523E+01 0.21640470459E+01 0.21640556750E+01
 0.22636624297E+01 0.24688879920E+01 0.27920584452E+01 0.32516085006E+01 0.38703723876E+01
 0.46715846910E+01 0.56725690696E+01 0.68769051176E+01 0.82663116893E+01 0.97935833533E+01
 0.11378102639E+02 0.12906174308E+02 0.14239341630E+02 0.15233232119E+02 0.15765548835E+02
 0.15765537164E+02 0.15233198807E+02 0.14239290421E+02 0.12906115948E+02 0.11378065309E+02
 0.97936037350E+01 0.82664020079E+01 0.68770377679E+01 0.54913971410E+01 0.44644039176E+01
 0.36636516931E+01 0.30620773976E+01 0.26297312186E+01 0.23401928662E+01 0.21740634171E+01
 0.21199238373E+01 0.21740484239E+01 0.23401486829E+01 0.26296490750E+01 0.30619692039E+01
 0.36635397783E+01 0.44642977734E+01 0.54912902901E+01 0.67602110352E+01 0.82663116893E+01
 0.99758294851E+01 0.11818573747E+02 0.13682984119E+02 0.15417436959E+02 0.16843855694E+02
 0.17787500304E+02 0.18118085337E+02 0.17787554601E+02 0.16843928531E+02 0.15417484467E+02
 0.13682992788E+02 0.11818573430E+02 0.99758631011E+01 0.82663927164E+01 0.67603170378E+01
 0.51510675836E+01 0.41465581688E+01 0.33835754245E+01 0.28265644196E+01 0.24409367420E+01
 0.21990042384E+01 0.20824637496E+01 0.20824527352E+01 0.21989599913E+01 0.24408484711E+01
 0.28264520174E+01 0.33834745313E+01 0.41464798112E+01 0.51509950704E+01 0.64247781228E+01
 0.79779654578E+01 0.97935833533E+01 0.11818573747E+02 0.13955028755E+02 0.16054008221E+02
 0.17919521374E+02 0.19330002802E+02 0.20090158439E+02 0.20090203490E+02 0.19330124675E+02
 0.17919676965E+02 0.16054134796E+02 0.13955087332E+02 0.11818583061E+02 0.97935975005E+01