    2    2   15    1
  0.2001288E+02  0.3839590E-09  0.3839590E-09  0.3839590E-09  0.5000000E-15
  1.000000000000000E-004
  CAR 
 unknown system                          
      8    182      8
 
  0.4166667E-01  0.4166667E-01  0.4166667E-01  0.1157407E-02
    1       -6.109171   1.000000
    2        5.583018   0.999949
    3        5.800777   0.990551
    4        5.800777   0.990551
    5        8.459961   0.000000
    6        8.465957   0.000000
    7        8.465957   0.000000
    8        9.371594   0.000000
 
  0.1250000E+00  0.4166667E-01  0.4166667E-01  0.3472222E-02
    1       -5.987915   1.000000
    2        4.695042   1.000000
    3        5.376589   1.000000
    4        5.748180   0.996730
    5        8.543861   0.000000
    6        8.583891   0.000000
    7        8.786766   0.000000
    8       10.186656   0.000000
 
  0.2083333E+00  0.4166667E-01  0.4166667E-01  0.3472222E-02
    1       -5.688676   1.000000
    2        3.183752   1.000000
    3        5.006005   1.000000
    4        5.477040   0.999998
    5        8.284688   0.000000
    6        8.973779   0.000000
    7        9.278551   0.000000
    8       11.507378   0.000000
 
  0.2916667E+00  0.4166667E-01  0.4166667E-01  0.3472222E-02
    1       -5.224106   1.000000
    2        1.663499   1.000000
    3        4.709440   1.000000
    4        5.159313   1.000000
    5        7.979244   0.000000
    6        9.260056   0.000000
    7        9.517001   0.000000
    8       12.618100   0.000000
 
  0.3750000E+00  0.4166667E-01  0.4166667E-01  0.3472222E-02
    1       -4.629903   1.000000
    2        0.293541   1.000000
    3        4.516340   1.000000
    4        4.885211   1.000000
    5        7.734582   0.000000
    6        9.294003   0.000000
    7        9.429778   0.000000
    8       13.495937   0.000000
 
  0.4583333E+00  0.4166667E-01  0.4166667E-01  0.3472222E-02
    1       -4.023491   1.000000
    2       -0.765043   1.000000
    3        4.435106   1.000000
    4        4.690090   1.000000
    5        7.586993   0.000000
    6        9.253128   0.000000
    7        9.255904   0.000000
    8       13.686494   0.000000
 
 -0.4583333E+00  0.4166667E-01  0.4166667E-01  0.3472222E-02
    1       -3.790220   1.000000
    2       -1.112328   1.000000
    3        4.464514   1.000000
    4        4.589107   1.000000
    5        7.551021   0.000000
    6        9.153212   0.000000
    7        9.285529   0.000000
    8       13.651604   0.000000
 
 -0.3750000E+00  0.4166667E-01  0.4166667E-01  0.3472222E-02
    1       -4.211215   1.000000
    2       -0.463832   1.000000
    3        4.592310   1.000000
    4        4.597255   1.000000
    5        7.627648   0.000000
    6        9.160518   0.000000
    7        9.419400   0.000000
    8       13.594580   0.000000
 
 -0.2916667E+00  0.4166667E-01  0.4166667E-01  0.3472222E-02
    1       -4.838036   1.000000
    2        0.725015   1.000000
    3        4.704417   1.000000
    4        4.822949   1.000000
    5        7.811238   0.000000
    6        9.210196   0.000000
    7        9.583414   0.000000
    8       12.819601   0.000000
 
 -0.2083333E+00  0.4166667E-01  0.4166667E-01  0.3472222E-02
    1       -5.395836   1.000000
    2        2.159372   1.000000
    3        4.924382   1.000000
    4        5.123335   1.000000
    5        8.077942   0.000000
    6        9.112671   0.000000
    7        9.584725   0.000000
    8       12.038513   0.000000
 
 -0.1250000E+00  0.4166667E-01  0.4166667E-01  0.3472222E-02
    1       -5.807626   1.000000
    2        3.705316   1.000000
    3        5.233784   1.000000
    4        5.450240   0.999999
    5        8.355484   0.000000
    6        8.779001   0.000000
    7        9.252759   0.000000
    8       11.030898   0.000000
 
 -0.4166667E-01  0.4166667E-01  0.4166667E-01  0.3472222E-02
    1       -6.048357   1.000000
    2        5.163642   1.000000
    3        5.574764   0.999960
    4        5.679017   0.999333
    5        8.327011   0.000000
    6        8.672363   0.000000
    7        8.765930   0.000000
    8        9.756346   0.000000
 
  0.1250000E+00  0.1250000E+00  0.4166667E-01  0.3472222E-02
    1       -5.927144   1.000000
    2        4.613954   1.000000
    3        5.225476   1.000000
    4        5.332185   1.000000
    5        8.085378   0.000000
    6        9.107528   0.000000
    7        9.257798   0.000000
    8       10.246305   0.000000
 
  0.2083333E+00  0.1250000E+00  0.4166667E-01  0.6944444E-02
    1       -5.686800   1.000000
    2        3.571555   1.000000
    3        4.632200   1.000000
    4        5.186741   1.000000
    5        8.098924   0.000000
    6        9.298030   0.000000
    7        9.763132   0.000000
    8       10.800318   0.000000
 
  0.2916667E+00  0.1250000E+00  0.4166667E-01  0.6944444E-02
    1       -5.275822   1.000000
    2        2.144082   1.000000
    3        4.250129   1.000000
    4        4.893370   1.000000
    5        8.303084   0.000000
    6        9.246803   0.000000
    7       10.143522   0.000000
    8       10.980418   0.000000
 
  0.3750000E+00  0.1250000E+00  0.4166667E-01  0.6944444E-02
    1       -4.718747   1.000000
    2        0.757240   1.000000
    3        3.990392   1.000000
    4        4.587438   1.000000
    5        8.259047   0.000000
    6        9.233515   0.000000
    7       10.138773   0.000000
    8       11.584075   0.000000
 
  0.4583333E+00  0.1250000E+00  0.4166667E-01  0.6944444E-02
    1       -4.091642   1.000000
    2       -0.411373   1.000000
    3        3.810846   1.000000
    4        4.392775   1.000000
    5        8.151061   0.000000
    6        9.136585   0.000000
    7        9.962130   0.000000
    8       12.721960   0.000000
 
 -0.4583333E+00  0.1250000E+00  0.4166667E-01  0.6944444E-02
    1       -3.668970   1.000000
    2       -1.053858   1.000000
    3        3.686649   1.000000
    4        4.367785   1.000000
    5        8.117352   0.000000
    6        9.081956   0.000000
    7        9.821189   0.000000
    8       13.858338   0.000000
 
 -0.3750000E+00  0.1250000E+00  0.4166667E-01  0.6944444E-02
    1       -3.904699   1.000000
    2       -0.706706   1.000000
    3        3.636808   1.000000
    4        4.504053   1.000000
    5        8.182535   0.000000
    6        9.123619   0.000000
    7        9.801141   0.000000
    8       13.557304   0.000000
 
 -0.2916667E+00  0.1250000E+00  0.4166667E-01  0.6944444E-02
    1       -4.512276   1.000000
    2        0.338182   1.000000
    3        3.696417   1.000000
    4        4.761506   1.000000
    5        8.338531   0.000000
    6        9.211558   0.000000
    7        9.882771   0.000000
    8       12.385126   0.000000
 
 -0.2083333E+00  0.1250000E+00  0.4166667E-01  0.6944444E-02
    1       -5.105625   1.000000
    2        1.667176   1.000000
    3        3.893779   1.000000
    4        5.090713   1.000000
    5        8.546891   0.000000
    6        9.168658   0.000000
    7        9.910787   0.000000
    8       11.535348   0.000000
 
 -0.1250000E+00  0.1250000E+00  0.4166667E-01  0.6944444E-02
    1       -5.568954   1.000000
    2        3.067813   1.000000
    3        4.276695   1.000000
    4        5.410159   1.000000
    5        8.594851   0.000000
    6        9.000218   0.000000
    7        9.585174   0.000000
    8       11.213239   0.000000
 
 -0.4166667E-01  0.1250000E+00  0.4166667E-01  0.6944444E-02
    1       -5.867241   1.000000
    2        4.148005   1.000000
    3        5.025431   1.000000
    4        5.565680   0.999970
    5        8.374036   0.000000
    6        8.850195   0.000000
    7        9.178539   0.000000
    8       10.686521   0.000000
 
  0.2083333E+00  0.2083333E+00  0.4166667E-01  0.3472222E-02
    1       -5.505352   1.000000
    2        3.319275   1.000000
    3        4.463223   1.000000
    4        4.478887   1.000000
    5        7.483958   0.000000
    6        9.905231   0.000000
    7       10.476608   0.000000
    8       10.510486   0.000000
 
  0.2916667E+00  0.2083333E+00  0.4166667E-01  0.6944444E-02
    1       -5.150299   1.000000
    2        2.354082   1.000000
    3        3.875488   1.000000
    4        4.297323   1.000000
    5        7.518712   0.000000
    6        9.531123   0.000000
    7       10.687361   0.000000
    8       11.122063   0.000000
 
  0.3750000E+00  0.2083333E+00  0.4166667E-01  0.6944444E-02
    1       -4.638507   1.000000
    2        1.141397   1.000000
    3        3.420919   1.000000
    4        4.030542   1.000000
    5        7.781200   0.000000
    6        9.750625   0.000000
    7       10.489205   0.000000
    8       11.324149   0.000000
 
  0.4583333E+00  0.2083333E+00  0.4166667E-01  0.6944444E-02
    1       -4.019357   1.000000
    2       -0.019219   1.000000
    3        3.027121   1.000000
    4        3.891002   1.000000
    5        7.853222   0.000000
    6       10.219682   0.000000
    7       10.750270   0.000000
    8       11.190508   0.000000
 
 -0.4583333E+00  0.2083333E+00  0.4166667E-01  0.6944444E-02
    1       -3.472061   1.000000
    2       -0.849260   1.000000
    3        2.715833   1.000000
    4        3.927635   1.000000
    5        7.929847   0.000000
    6        9.990558   0.000000
    7       10.996595   0.000000
    8       12.184623   0.000000
 
 -0.3750000E+00  0.2083333E+00  0.4166667E-01  0.6944444E-02
    1       -3.482659   1.000000
    2       -0.830677   1.000000
    3        2.532613   1.000000
    4        4.118816   1.000000
    5        8.128995   0.000000
    6        9.842799   0.000000
    7       10.864980   0.000000
    8       13.529680   0.000000
 
 -0.2916667E+00  0.2083333E+00  0.4166667E-01  0.6944444E-02
    1       -4.036191   1.000000
    2        0.012402   1.000000
    3        2.521506   1.000000
    4        4.431868   1.000000
    5        8.446779   0.000000
    6        9.756039   0.000000
    7       10.785393   0.000000
    8       12.162213   0.000000
 
 -0.2083333E+00  0.2083333E+00  0.4166667E-01  0.6944444E-02
    1       -4.652467   1.000000
    2        1.116069   1.000000
    3        2.767879   1.000000
    4        4.812901   1.000000
    5        8.810151   0.000000
    6        9.531079   0.000000
    7       10.606485   0.000000
    8       11.234282   0.000000
 
 -0.1250000E+00  0.2083333E+00  0.4166667E-01  0.6944444E-02
    1       -5.160092   1.000000
    2        2.044425   1.000000
    3        3.496583   1.000000
    4        5.157233   1.000000
    5        8.901326   0.000000
    6        9.108256   0.000000
    7       10.049716   0.000000
    8       11.160216   0.000000
 
 -0.4166667E-01  0.2083333E+00  0.4166667E-01  0.6944444E-02
    1       -5.511084   1.000000
    2        2.658357   1.000000
    3        4.642255   1.000000
    4        5.283748   1.000000
    5        8.376653   0.000000
    6        8.974670   0.000000
    7        9.641951   0.000000
    8       11.520531   0.000000
 
  0.2916667E+00  0.2916667E+00  0.4166667E-01  0.3472222E-02
    1       -4.850805   1.000000
    2        1.894325   1.000000
    3        3.751769   1.000000
    4        3.805136   1.000000
    5        6.943080   0.000000
    6        8.730967   0.000000
    7       11.852633   0.000000
    8       11.921716   0.000000
 
  0.3750000E+00  0.2916667E+00  0.4166667E-01  0.6944444E-02
    1       -4.388838   1.000000
    2        1.045454   1.000000
    3        3.255392   1.000000
    4        3.574976   1.000000
    5        7.059043   0.000000
    6        8.413030   0.000000
    7       12.000171   0.000000
    8       12.608365   0.000000
 
  0.4583333E+00  0.2916667E+00  0.4166667E-01  0.6944444E-02
    1       -3.795968   1.000000
    2        0.102827   1.000000
    3        2.619198   1.000000
    4        3.444965   1.000000
    5        7.298866   0.000000
    6        8.951013   0.000000
    7       11.780630   0.000000
    8       12.693240   0.000000
 
 -0.4583333E+00  0.2916667E+00  0.4166667E-01  0.6944444E-02
    1       -3.184188   1.000000
    2       -0.724647   1.000000
    3        2.068863   1.000000
    4        3.485128   1.000000
    5        7.413641   0.000000
    6       10.209113   0.000000
    7       11.513274   0.000000
    8       12.524560   0.000000
 
 -0.3750000E+00  0.2916667E+00  0.4166667E-01  0.6944444E-02
    1       -2.978019   1.000000
    2       -0.968170   1.000000
    3        1.727975   1.000000
    4        3.680673   1.000000
    5        7.632774   0.000000
    6       11.152161   0.000000
    7       11.882473   0.000000
    8       12.373086   0.000000
 
 -0.2916667E+00  0.2916667E+00  0.4166667E-01  0.6944444E-02
    1       -3.446655   1.000000
    2       -0.392253   1.000000
    3        1.690658   1.000000
    4        4.006348   1.000000
    5        7.994965   0.000000
    6       10.916541   0.000000
    7       11.994812   0.000000
    8       12.203750   0.000000
 
 -0.2083333E+00  0.2916667E+00  0.4166667E-01  0.6944444E-02
    1       -4.067827   1.000000
    2        0.300021   1.000000
    3        2.148176   1.000000
    4        4.413652   1.000000
    5        8.441131   0.000000
    6       10.163916   0.000000
    7       11.261131   0.000000
    8       11.600757   0.000000
 
 -0.1250000E+00  0.2916667E+00  0.4166667E-01  0.6944444E-02
    1       -4.605044   1.000000
    2        0.775882   1.000000
    3        3.163499   1.000000
    4        4.797322   1.000000
    5        8.669243   0.000000
    6        9.339205   0.000000
    7       10.250380   0.000000
    8       11.721320   0.000000
 
 -0.4166667E-01  0.2916667E+00  0.4166667E-01  0.6944444E-02
    1       -4.997619   1.000000
    2        1.193435   1.000000
    3        4.374325   1.000000
    4        4.962049   1.000000
    5        8.137073   0.000000
    6        9.172525   0.000000
    7        9.753408   0.000000
    8       12.122281   0.000000
 
  0.3750000E+00  0.3750000E+00  0.4166667E-01  0.3472222E-02
    1       -3.975855   1.000000
    2        0.437083   1.000000
    3        3.235005   1.000000
    4        3.326249   1.000000
    5        6.594658   0.000545
    6        7.673713   0.000000
    7       13.383274   0.000000
    8       13.409754   0.000000
 
  0.4583333E+00  0.3750000E+00  0.4166667E-01  0.6944444E-02
    1       -3.419796   1.000000
    2       -0.314080   1.000000
    3        2.831957   1.000000
    4        3.124613   1.000000
    5        6.806756   0.000001
    6        7.577827   0.000000
    7       13.425121   0.000000
    8       14.167707   0.000000
 
 -0.4583333E+00  0.3750000E+00  0.4166667E-01  0.6944444E-02
    1       -2.787216   1.000000
    2       -1.021571   1.000000
    3        2.114354   1.000000
    4        3.141200   1.000000
    5        6.998757   0.000000
    6        8.503132   0.000000
    7       13.163024   0.000000
    8       14.185390   0.000000
 
 -0.3750000E+00  0.3750000E+00  0.4166667E-01  0.6944444E-02
    1       -2.438551   1.000000
    2       -1.352206   1.000000
    3        1.564830   1.000000
    4        3.316871   1.000000
    5        7.206656   0.000000
    6        9.998177   0.000000
    7       12.825935   0.000000
    8       13.682968   0.000000
 
 -0.2916667E+00  0.3750000E+00  0.4166667E-01  0.6944444E-02
    1       -2.864620   1.000000
    2       -0.949608   1.000000
    3        1.467045   1.000000
    4        3.631274   1.000000
    5        7.567805   0.000000
    6       11.538732   0.000000
    7       12.042239   0.000000
    8       12.808696   0.000000
 
 -0.2083333E+00  0.3750000E+00  0.4166667E-01  0.6944444E-02
    1       -3.454689   1.000000
    2       -0.589067   1.000000
    3        2.020426   1.000000
    4        4.044350   1.000000
    5        8.044594   0.000000
    6       10.403648   0.000000
    7       11.481436   0.000000
    8       12.790331   0.000000
 
 -0.1250000E+00  0.3750000E+00  0.4166667E-01  0.6944444E-02
    1       -3.978065   1.000000
    2       -0.361285   1.000000
    3        3.060824   1.000000
    4        4.464454   1.000000
    5        8.401993   0.000000
    6        9.338465   0.000000
    7       10.256174   0.000000
    8       12.875263   0.000000
 
 -0.4166667E-01  0.3750000E+00  0.4166667E-01  0.6944444E-02
    1       -4.378382   1.000000
    2       -0.088157   1.000000
    3        4.217513   1.000000
    4        4.697065   1.000000
    5        7.934214   0.000000
    6        9.159671   0.000000
    7        9.611260   0.000000
    8       13.096947   0.000000
 
  0.4583333E+00  0.4583333E+00  0.4166667E-01  0.3472222E-02
    1       -2.900572   1.000000
    2       -0.980809   1.000000
    3        2.945363   1.000000
    4        3.054575   1.000000
    5        6.499865   0.004719
    6        6.959819   0.000000
    7       14.938339   0.000000
    8       14.960130   0.000000
 
 -0.4583333E+00  0.4583333E+00  0.4166667E-01  0.6944444E-02
    1       -2.273404   1.000000
    2       -1.641164   1.000000
    3        2.644563   1.000000
    4        2.936688   1.000000
    5        6.761092   0.000004
    6        7.149649   0.000000
    7       14.902555   0.000000
    8       15.468588   0.000000
 
 -0.3750000E+00  0.4583333E+00  0.4166667E-01  0.6944444E-02
    1       -2.264300   1.000000
    2       -1.571184   1.000000
    3        2.012094   1.000000
    4        3.081697   1.000000
    5        6.936069   0.000000
    6        8.415022   0.000000
    7       13.864597   0.000000
    8       14.614026   0.000000
 
 -0.2916667E+00  0.4583333E+00  0.4166667E-01  0.6944444E-02
    1       -2.764162   1.000000
    2       -1.070386   1.000000
    3        1.739281   1.000000
    4        3.372804   1.000000
    5        7.276573   0.000000
    6       10.068979   0.000000
    7       12.177202   0.000000
    8       13.245666   0.000000
 
 -0.2083333E+00  0.4583333E+00  0.4166667E-01  0.6944444E-02
    1       -3.191078   1.000000
    2       -0.947596   1.000000
    3        2.172488   1.000000
    4        3.779331   1.000000
    5        7.758101   0.000000
    6       10.570830   0.000000
    7       11.615228   0.000000
    8       12.042938   0.000000
 
 -0.1250000E+00  0.4583333E+00  0.4166667E-01  0.6944444E-02
    1       -3.549684   1.000000
    2       -1.003624   1.000000
    3        3.114514   1.000000
    4        4.227189   1.000000
    5        8.200081   0.000000
    6        9.353790   0.000000
    7       10.295181   0.000000
    8       13.879543   0.000000
 
 -0.4166667E-01  0.4583333E+00  0.4166667E-01  0.6944444E-02
    1       -3.834485   1.000000
    2       -0.969422   1.000000
    3        4.154244   1.000000
    4        4.542972   1.000000
    5        7.824648   0.000000
    6        9.108674   0.000000
    7        9.472172   0.000000
    8       13.763377   0.000000
 
 -0.4583333E+00 -0.4583333E+00  0.4166667E-01  0.3472222E-02
    1       -2.296867   1.000000
    2       -1.654669   1.000000
    3        2.887039   1.000000
    4        2.999848   1.000000
    5        6.548831   0.001630
    6        6.748515   0.000007
    7       15.638948   0.000000
    8       15.693551   0.000000
 
 -0.3750000E+00 -0.4583333E+00  0.4166667E-01  0.6944444E-02
    1       -2.866166   1.000000
    2       -0.987354   1.000000
    3        2.707284   1.000000
    4        2.998956   1.000000
    5        6.764011   0.000004
    6        7.304965   0.000000
    7       14.163289   0.000000
    8       14.948019   0.000000
 
 -0.2916667E+00 -0.4583333E+00  0.4166667E-01  0.6944444E-02
    1       -3.308231   1.000000
    2       -0.451417   1.000000
    3        2.318554   1.000000
    4        3.261372   1.000000
    5        7.121574   0.000000
    6        8.681053   0.000000
    7       12.461614   0.000000
    8       13.434664   0.000000
 
 -0.2083333E+00 -0.4583333E+00  0.4166667E-01  0.6944444E-02
    1       -3.612424   1.000000
    2       -0.374925   1.000000
    3        2.515756   1.000000
    4        3.655931   1.000000
    5        7.610432   0.000000
    6       10.410922   0.000000
    7       10.885413   0.000000
    8       11.828201   0.000000
 
 -0.1250000E+00 -0.4583333E+00  0.4166667E-01  0.6944444E-02
    1       -3.782519   1.000000
    2       -0.668037   1.000000
    3        3.287342   1.000000
    4        4.128882   1.000000
    5        8.106470   0.000000
    6        9.467451   0.000000
    7       10.430377   0.000000
    8       12.417934   0.000000
 
 -0.3750000E+00 -0.3750000E+00  0.4166667E-01  0.3472222E-02
    1       -3.461577   1.000000
    2       -0.281309   1.000000
    3        3.061393   1.000000
    4        3.163588   1.000000
    5        6.513509   0.003549
    6        7.270666   0.000000
    7       14.170681   0.000000
    8       14.171082   0.000000
 
 -0.2916667E+00 -0.3750000E+00  0.4166667E-01  0.6944444E-02
    1       -3.928720   1.000000
    2        0.367231   1.000000
    3        3.016129   1.000000
    4        3.315636   1.000000
    5        6.904529   0.000000
    6        7.950116   0.000000
    7       12.703641   0.000000
    8       13.382338   0.000000
 
 -0.2083333E+00 -0.3750000E+00  0.4166667E-01  0.6944444E-02
    1       -4.241234   1.000000
    2        0.632581   1.000000
    3        2.998845   1.000000
    4        3.698018   1.000000
    5        7.522266   0.000000
    6        9.313680   0.000000
    7       11.118603   0.000000
    8       11.985274   0.000000
 
 -0.1250000E+00 -0.3750000E+00  0.4166667E-01  0.6944444E-02
    1       -4.390897   1.000000
    2        0.354888   1.000000
    3        3.538649   1.000000
    4        4.202120   1.000000
    5        8.104788   0.000000
    6        9.655290   0.000000
    7       10.612891   0.000000
    8       11.126732   0.000000
 
 -0.2916667E+00 -0.2916667E+00  0.4166667E-01  0.3472222E-02
    1       -4.439888   1.000000
    2        1.164915   1.000000
    3        3.465599   1.000000
    4        3.540998   1.000000
    5        6.739926   0.000009
    6        8.163357   0.000000
    7       12.610364   0.000000
    8       12.660207   0.000000
 
 -0.2083333E+00 -0.2916667E+00  0.4166667E-01  0.6944444E-02
    1       -4.796766   1.000000
    2        1.710220   1.000000
    3        3.543859   1.000000
    4        3.903767   1.000000
    5        7.266855   0.000000
    6        8.954325   0.000000
    7       11.319691   0.000000
    8       11.853468   0.000000
 
 -0.1250000E+00 -0.2916667E+00  0.4166667E-01  0.6944444E-02
    1       -4.984291   1.000000
    2        1.640814   1.000000
    3        3.843845   1.000000
    4        4.442984   1.000000
    5        8.055736   0.000000
    6        9.760762   0.000000
    7       10.391217   0.000000
    8       10.719469   0.000000
 
 -0.2083333E+00 -0.2083333E+00  0.4166667E-01  0.3472222E-02
    1       -5.206546   1.000000
    2        2.616033   1.000000
    3        4.090995   1.000000
    4        4.114587   1.000000
    5        7.195302   0.000000
    6        9.350060   0.000000
    7       11.123075   0.000000
    8       11.205287   0.000000
 
 -0.1250000E+00 -0.2083333E+00  0.4166667E-01  0.6944444E-02
    1       -5.447468   1.000000
    2        2.973950   1.000000
    3        4.241672   1.000000
    4        4.737876   1.000000
    5        7.802594   0.000000
    6        9.763641   0.000000
    7       10.418002   0.000000
    8       10.446149   0.000000
 
 -0.1250000E+00 -0.1250000E+00  0.4166667E-01  0.3472222E-02
    1       -5.745908   1.000000
    2        3.990864   1.000000
    3        4.840245   1.000000
    4        4.903470   1.000000
    5        7.790082   0.000000
    6        9.665309   0.000000
    7        9.853723   0.000000
    8       10.447344   0.000000
 
  0.1250000E+00  0.1250000E+00  0.1250000E+00  0.1157407E-02
    1       -5.927723   1.000000
    2        4.238298   1.000000
    3        5.549733   0.999981
    4        5.549733   0.999981
    5        8.346215   0.000000
    6        8.834600   0.000000
    7        8.834600   0.000000
    8       10.553888   0.000000
 
  0.2083333E+00  0.1250000E+00  0.1250000E+00  0.3472222E-02
    1       -5.747680   1.000000
    2        3.613911   1.000000
    3        4.671001   1.000000
    4        5.624094   0.999839
    5        8.695664   0.000000
    6        8.819158   0.000000
    7        9.108162   0.000000
    8       11.169553   0.000000
 
  0.2916667E+00  0.1250000E+00  0.1250000E+00  0.3472222E-02
    1       -5.393034   1.000000
    2        2.553174   1.000000
    3        3.882534   1.000000
    4        5.408408   1.000000
    5        8.828753   0.000000
    6        9.173230   0.000000
    7        9.468964   0.000000
    8       11.550735   0.000000
 
  0.3750000E+00  0.1250000E+00  0.1250000E+00  0.3472222E-02
    1       -4.881214   1.000000
    2        1.208081   1.000000
    3        3.523836   1.000000
    4        5.062124   1.000000
    5        8.565875   0.000000
    6        9.524379   0.000000
    7        9.707182   0.000000
    8       12.148345   0.000000
 
  0.4583333E+00  0.1250000E+00  0.1250000E+00  0.3472222E-02
    1       -4.262704   1.000000
    2       -0.037862   1.000000
    3        3.381960   1.000000
    4        4.717878   1.000000
    5        8.311224   0.000000
    6        9.562431   0.000000
    7        9.672575   0.000000
    8       13.227327   0.000000
 
 -0.4583333E+00  0.1250000E+00  0.1250000E+00  0.3472222E-02
    1       -3.715735   1.000000
    2       -0.911630   1.000000
    3        3.399421   1.000000
    4        4.443304   1.000000
    5        8.125008   0.000000
    6        9.406966   0.000000
    7        9.776700   0.000000
    8       14.094254   0.000000
 
 -0.3750000E+00  0.1250000E+00  0.1250000E+00  0.3472222E-02
    1       -3.712757   1.000000
    2       -0.917213   1.000000
    3        3.554423   1.000000
    4        4.272201   1.000000
    5        8.040292   0.000000
    6        9.364605   0.000000
    7        9.952859   0.000000
    8       13.225499   0.000000
 
 -0.2916667E+00  0.1250000E+00  0.1250000E+00  0.3472222E-02
    1       -4.257905   1.000000
    2       -0.048932   1.000000
    3        3.827683   1.000000
    4        4.223351   1.000000
    5        8.061603   0.000000
    6        9.433743   0.000000
    7       10.199635   0.000000
    8       11.888266   0.000000
 
 -0.2083333E+00  0.1250000E+00  0.1250000E+00  0.3472222E-02
    1       -4.877125   1.000000
    2        1.203363   1.000000
    3        4.192236   1.000000
    4        4.305847   1.000000
    5        8.114555   0.000000
    6        9.531797   0.000000
    7       10.399467   0.000000
    8       10.898608   0.000000
 
 -0.1250000E+00  0.1250000E+00  0.1250000E+00  0.3472222E-02
    1       -5.390092   1.000000
    2        2.610965   1.000000
    3        4.517100   1.000000
    4        4.593644   1.000000
    5        7.991581   0.000000
    6        9.553538   0.000000
    7       10.318152   0.000000
    8       10.605297   0.000000
 
  0.2083333E+00  0.2083333E+00  0.1250000E+00  0.3472222E-02
    1       -5.628092   1.000000
    2        3.159454   1.000000
    3        4.875673   1.000000
    4        5.085672   1.000000
    5        8.254127   0.000000
    6        9.033877   0.000000
    7        9.762843   0.000000
    8       11.079127   0.000000
 
  0.2916667E+00  0.2083333E+00  0.1250000E+00  0.6944444E-02
    1       -5.332081   1.000000
    2        2.519910   1.000000
    3        3.887839   1.000000
    4        5.011567   1.000000
    5        8.334672   0.000000
    6        9.388386   0.000000
    7       10.256497   0.000000
    8       10.700838   0.000000
 
  0.3750000E+00  0.2083333E+00  0.1250000E+00  0.6944444E-02
    1       -4.871721   1.000000
    2        1.544159   1.000000
    3        3.141326   1.000000
    4        4.734575   1.000000
    5        8.742016   0.000000
    6        9.335551   0.000000
    7       10.543631   0.000000
    8       10.829111   0.000000
 
  0.4583333E+00  0.2083333E+00  0.1250000E+00  0.6944444E-02
    1       -4.280678   1.000000
    2        0.371664   1.000000
    3        2.825115   1.000000
    4        4.377567   1.000000
    5        8.846845   0.000000
    6        9.152723   0.000000
    7       10.939181   0.000000
    8       11.308967   0.000000
 
 -0.4583333E+00  0.2083333E+00  0.1250000E+00  0.6944444E-02
    1       -3.670658   1.000000
    2       -0.624797   1.000000
    3        2.733872   1.000000
    4        4.088616   1.000000
    5        8.653909   0.000000
    6        9.095247   0.000000
    7       10.985865   0.000000
    8       12.554781   0.000000
 
 -0.3750000E+00  0.2083333E+00  0.1250000E+00  0.6944444E-02
    1       -3.428948   1.000000
    2       -0.969151   1.000000
    3        2.777494   1.000000
    4        3.947384   1.000000
    5        8.452255   0.000000
    6        9.207020   0.000000
    7       11.011237   0.000000
    8       13.114634   0.000000
 
 -0.2916667E+00  0.2083333E+00  0.1250000E+00  0.6944444E-02
    1       -3.855519   1.000000
    2       -0.346045   1.000000
    3        2.911694   1.000000
    4        3.996714   1.000000
    5        8.348690   0.000000
    6        9.442777   0.000000
    7       11.088864   0.000000
    8       11.622869   0.000000
 
 -0.2083333E+00  0.2083333E+00  0.1250000E+00  0.6944444E-02
    1       -4.483128   1.000000
    2        0.755281   1.000000
    3        3.137396   1.000000
    4        4.225627   1.000000
    5        8.293338   0.000000
    6        9.740359   0.000000
    7       10.436606   0.000000
    8       11.186691   0.000000
 
 -0.1250000E+00  0.2083333E+00  0.1250000E+00  0.6944444E-02
    1       -5.038301   1.000000
    2        1.968625   1.000000
    3        3.526484   1.000000
    4        4.539633   1.000000
    5        8.065194   0.000000
    6        9.755769   0.000000
    7       10.211024   0.000000
    8       10.990801   0.000000
 