    2    2   15    1
  0.1529437E+02  0.3691622E-09  0.3691622E-09  0.3691622E-09  0.5000000E-15
  1.000000000000000E-004
  CAR 
 unknown system                          
      8    159      8
 
  0.4166667E-01  0.4166667E-01  0.4166667E-01  0.4629630E-02
    1       -4.381204   1.000000
    2        5.311123   1.000000
    3        6.730961   1.000000
    4        7.997289   1.000000
    5       11.471488   0.000000
    6       15.442450   0.000000
    7       16.386436   0.000000
    8       17.270994   0.000000
 
  0.1250000E+00  0.4166667E-01  0.4166667E-01  0.9259259E-02
    1       -3.820085   1.000000
    2        4.925010   1.000000
    3        6.860455   1.000000
    4        9.081623   0.630154
    5       12.504293   0.000000
    6       13.444513   0.000000
    7       13.863948   0.000000
    8       16.071826   0.000000
 
  0.2083333E+00  0.4166667E-01  0.4166667E-01  0.9259259E-02
    1       -2.889218   1.000000
    2        4.844731   1.000000
    3        6.949112   1.000000
    4        9.599776   0.000432
    5       11.459406   0.000000
    6       11.788254   0.000000
    7       13.878127   0.000000
    8       14.936247   0.000000
 
  0.2916667E+00  0.4166667E-01  0.4166667E-01  0.9259259E-02
    1       -1.596839   1.000000
    2        5.063850   1.000000
    3        6.950293   1.000000
    4        7.420602   1.000000
    5        9.879283   0.000000
    6       12.581797   0.000000
    7       13.212007   0.000000
    8       14.243019   0.000000
 
  0.3750000E+00  0.4166667E-01  0.4166667E-01  0.9259259E-02
    1        0.040032   1.000000
    2        4.346811   1.000000
    3        5.858125   1.000000
    4        7.416456   1.000000
    5        8.611283   0.999873
    6       11.311205   0.000000
    7       13.726306   0.000000
    8       14.523995   0.000000
 
  0.4583333E+00  0.4166667E-01  0.4166667E-01  0.4629630E-02
    1        1.673037   1.000000
    2        2.460195   1.000000
    3        6.624495   1.000000
    4        6.704700   1.000000
    5        8.472241   0.999998
    6       10.682337   0.000000
    7       13.576789   0.000000
    8       14.654942   0.000000
 
 -0.4166667E-01  0.4166667E-01  0.4166667E-01  0.2314815E-02
    1       -4.568585   1.000000
    2        5.745531   1.000000
    3        6.344743   1.000000
    4        7.695681   1.000000
    5       11.042083   0.000000
    6       16.110154   0.000000
    7       17.841020   0.000000
    8       18.150277   0.000000
 
  0.1250000E+00  0.1250000E+00  0.4166667E-01  0.4629630E-02
    1       -2.973755   1.000000
    2        4.826514   1.000000
    3        7.809347   1.000000
    4        9.470427   0.007825
    5       11.213761   0.000000
    6       11.268985   0.000000
    7       13.998750   0.000000
    8       15.081311   0.000000
 
  0.2083333E+00  0.1250000E+00  0.4166667E-01  0.9259259E-02
    1       -1.764195   1.000000
    2        5.008401   1.000000
    3        7.626249   1.000000
    4        8.196053   1.000000
    5        9.598673   0.000444
    6       11.646802   0.000000
    7       13.388051   0.000000
    8       14.193268   0.000000
 
  0.2916667E+00  0.1250000E+00  0.4166667E-01  0.9259259E-02
    1       -0.204795   1.000000
    2        4.960117   1.000000
    3        5.752881   1.000000
    4        6.918333   1.000000
    5        9.476947   0.006887
    6       11.933969   0.000000
    7       13.001985   0.000000
    8       14.270267   0.000000
 
  0.3750000E+00  0.1250000E+00  0.4166667E-01  0.9259259E-02
    1        1.596869   1.000000
    2        2.851560   1.000000
    3        5.549935   1.000000
    4        6.493355   1.000000
    5        9.409016   0.023697
    6       11.493178   0.000000
    7       12.922119   0.000000
    8       15.416548   0.000000
 
  0.4583333E+00  0.1250000E+00  0.4166667E-01  0.9259259E-02
    1        0.610928   1.000000
    2        3.843841   1.000000
    3        4.730668   1.000000
    4        7.390563   1.000000
    5        9.004511   0.809900
    6       12.119224   0.000000
    7       13.113584   0.000000
    8       15.355404   0.000000
 
 -0.4583333E+00  0.1250000E+00  0.4166667E-01  0.9259259E-02
    1       -1.095332   1.000000
    2        3.751900   1.000000
    3        6.583630   1.000000
    4        7.653035   1.000000
    5        9.672998   0.000059
    6       12.852939   0.000000
    7       13.538228   0.000000
    8       14.412147   0.000000
 
 -0.3750000E+00  0.1250000E+00  0.4166667E-01  0.9259259E-02
    1       -2.466940   1.000000
    2        3.422992   1.000000
    3        7.271904   1.000000
    4        9.348848   0.059700
    5       11.281963   0.000000
    6       11.917607   0.000000
    7       13.685977   0.000000
    8       15.474144   0.000000
 
 -0.2916667E+00  0.1250000E+00  0.4166667E-01  0.9259259E-02
    1       -3.479997   1.000000
    2        3.420947   1.000000
    3        7.157996   1.000000
    4        9.709124   0.000020
    5       12.528990   0.000000
    6       13.320582   0.000000
    7       14.280449   0.000000
    8       15.287523   0.000000
 
 -0.2083333E+00  0.1250000E+00  0.4166667E-01  0.4629630E-02
    1       -4.125304   1.000000
    2        3.756587   1.000000
    3        6.966385   1.000000
    4        8.744066   0.996727
    5       12.907578   0.000000
    6       14.173392   0.000000
    7       15.830732   0.000000
    8       16.558285   0.000000
 
 -0.1250000E+00  0.1250000E+00  0.4166667E-01  0.4629630E-02
    1       -4.397802   1.000000
    2        4.388600   1.000000
    3        6.373110   1.000000
    4        8.622554   0.999827
    5       12.046594   0.000000
    6       14.676176   0.000000
    7       17.016651   0.000000
    8       18.368385   0.000000
 
 -0.4166667E-01  0.1250000E+00  0.4166667E-01  0.4629630E-02
    1       -4.295858   1.000000
    2        5.032734   1.000000
    3        6.017923   1.000000
    4        8.867378   0.967641
    5       11.883011   0.000000
    6       14.652286   0.000000
    7       16.106679   0.000000
    8       17.472959   0.000000
 
  0.2083333E+00  0.2083333E+00  0.4166667E-01  0.4629630E-02
    1       -0.287478   1.000000
    2        5.284393   1.000000
    3        5.984766   1.000000
    4        6.233524   1.000000
    5       10.184101   0.000000
    6       12.341650   0.000000
    7       12.885631   0.000000
    8       13.090350   0.000000
 
  0.2916667E+00  0.2083333E+00  0.4166667E-01  0.9259259E-02
    1        1.483547   1.000000
    2        3.582955   1.000000
    3        4.516661   1.000000
    4        6.376323   1.000000
    5       10.181364   0.000000
    6       11.668882   0.000000
    7       13.170487   0.000000
    8       14.802753   0.000000
 
  0.3750000E+00  0.2083333E+00  0.4166667E-01  0.9259259E-02
    1        1.334087   1.000000
    2        3.130868   1.000000
    3        4.053360   1.000000
    4        7.323738   1.000000
    5        9.559188   0.001165
    6       11.545757   0.000000
    7       14.015339   0.000000
    8       15.997850   0.000000
 
  0.4583333E+00  0.2083333E+00  0.4166667E-01  0.9259259E-02
    1       -0.428979   1.000000
    2        2.502999   1.000000
    3        6.295111   1.000000
    4        8.015810   1.000000
    5        9.573267   0.000833
    6       11.862874   0.000000
    7       14.280058   0.000000
    8       15.508550   0.000000
 
 -0.4583333E+00  0.2083333E+00  0.4166667E-01  0.9259259E-02
    1       -1.877606   1.000000
    2        2.078774   1.000000
    3        7.739956   1.000000
    4        9.081185   0.631324
    5       10.803878   0.000000
    6       12.421514   0.000000
    7       12.735426   0.000000
    8       15.740510   0.000000
 
 -0.3750000E+00  0.2083333E+00  0.4166667E-01  0.9259259E-02
    1       -2.971444   1.000000
    2        1.995847   1.000000
    3        7.615620   1.000000
    4       10.259737   0.000000
    5       11.758232   0.000000
    6       12.837409   0.000000
    7       14.122564   0.000000
    8       15.275212   0.000000
 
 -0.2916667E+00  0.2083333E+00  0.4166667E-01  0.4629630E-02
    1       -3.699754   1.000000
    2        2.265199   1.000000
    3        7.358186   1.000000
    4        9.345431   0.062621
    5       12.817479   0.000000
    6       14.802308   0.000000
    7       14.845534   0.000000
    8       16.040255   0.000000
 
 -0.2083333E+00  0.2083333E+00  0.4166667E-01  0.4629630E-02
    1       -4.056965   1.000000
    2        2.872243   1.000000
    3        6.679070   1.000000
    4        9.285831   0.133133
    5       13.208119   0.000000
    6       13.784981   0.000000
    7       15.812802   0.000000
    8       18.094114   0.000000
 
 -0.1250000E+00  0.2083333E+00  0.4166667E-01  0.9259259E-02
    1       -4.040268   1.000000
    2        3.774053   1.000000
    3        5.979264   1.000000
    4        9.769129   0.000003
    5       13.108107   0.000000
    6       13.330728   0.000000
    7       15.575143   0.000000
    8       17.141701   0.000000
 
 -0.4166667E-01  0.2083333E+00  0.4166667E-01  0.4629630E-02
    1       -3.650024   1.000000
    2        4.660206   1.000000
    3        5.845427   1.000000
    4       10.173118   0.000000
    5       12.827227   0.000000
    6       13.205833   0.000000
    7       13.521317   0.000000
    8       15.576169   0.000000
 
  0.2916667E+00  0.2916667E+00  0.4166667E-01  0.4629630E-02
    1        2.120834   1.000000
    2        2.275711   1.000000
    3        3.895526   1.000000
    4        7.290954   1.000000
    5       10.009163   0.000000
    6       10.953354   0.000000
    7       15.245928   0.000000
    8       15.496956   0.000000
 
  0.3750000E+00  0.2916667E+00  0.4166667E-01  0.9259259E-02
    1        0.397323   1.000000
    2        1.378871   1.000000
    3        6.146895   1.000000
    4        8.259509   1.000000
    5        9.704759   0.000023
    6       11.068501   0.000000
    7       14.945731   0.000000
    8       16.086407   0.000000
 
  0.4583333E+00  0.2916667E+00  0.4166667E-01  0.9259259E-02
    1       -1.123646   1.000000
    2        0.861531   1.000000
    3        8.240752   1.000000
    4        8.938068   0.911066
    5       10.274858   0.000000
    6       11.995959   0.000000
    7       13.162737   0.000000
    8       14.995211   0.000000
 
 -0.4583333E+00  0.2916667E+00  0.4166667E-01  0.9259259E-02
    1       -2.295833   1.000000
    2        0.697514   1.000000
    3        8.222287   1.000000
    4       10.580599   0.000000
    5       11.097112   0.000000
    6       12.509924   0.000000
    7       13.676982   0.000000
    8       14.296003   0.000000
 
 -0.3750000E+00  0.2916667E+00  0.4166667E-01  0.4629630E-02
    1       -3.105988   1.000000
    2        0.891865   1.000000
    3        7.904393   1.000000
    4        9.990783   0.000000
    5       11.584040   0.000000
    6       13.714080   0.000000
    7       15.728915   0.000000
    8       15.731008   0.000000
 
 -0.2916667E+00  0.2916667E+00  0.4166667E-01  0.4629630E-02
    1       -3.546903   1.000000
    2        1.439603   1.000000
    3        7.153226   1.000000
    4        9.903345   0.000000
    5       11.849664   0.000000
    6       14.590193   0.000000
    7       15.852975   0.000000
    8       17.854868   0.000000
 
 -0.2083333E+00  0.2916667E+00  0.4166667E-01  0.9259259E-02
    1       -3.615158   1.000000
    2        2.326092   1.000000
    3        6.337265   1.000000
    4       10.429936   0.000000
    5       11.923258   0.000000
    6       14.668549   0.000000
    7       15.320247   0.000000
    8       16.417570   0.000000
 
 -0.1250000E+00  0.2916667E+00  0.4166667E-01  0.9259259E-02
    1       -3.310693   1.000000
    2        3.498203   1.000000
    3        5.803357   1.000000
    4       10.781567   0.000000
    5       12.062510   0.000000
    6       12.883119   0.000000
    7       14.486124   0.000000
    8       15.406562   0.000000
 
 -0.4166667E-01  0.2916667E+00  0.4166667E-01  0.4629630E-02
    1       -2.635966   1.000000
    2        4.632786   1.000000
    3        5.918992   1.000000
    4        9.220606   0.257686
    5       11.814215   0.000000
    6       12.654979   0.000000
    7       14.033067   0.000000
    8       14.108843   0.000000
 
  0.3750000E+00  0.3750000E+00  0.4166667E-01  0.4629630E-02
    1       -0.212898   1.000000
    2       -0.203849   1.000000
    3        8.472699   0.999998
    4        8.985688   0.843903
    5        9.929187   0.000000
    6       11.784123   0.000000
    7       13.709410   0.000000
    8       14.372494   0.000000
 
  0.4583333E+00  0.3750000E+00  0.4166667E-01  0.9259259E-02
    1       -1.456054   1.000000
    2       -0.456362   1.000000
    3        8.961859   0.880826
    4        9.809511   0.000001
    5       11.428139   0.000000
    6       12.386783   0.000000
    7       13.467816   0.000000
    8       13.545926   0.000000
 
 -0.4583333E+00  0.3750000E+00  0.4166667E-01  0.4629630E-02
    1       -2.346062   1.000000
    2       -0.341815   1.000000
    3        8.608862   0.999881
    4       10.446847   0.000000
    5       10.758802   0.000000
    6       12.623070   0.000000
    7       15.555436   0.000000
    8       15.609662   0.000000
 
 -0.3750000E+00  0.3750000E+00  0.4166667E-01  0.4629630E-02
    1       -2.869460   1.000000
    2        0.133932   1.000000
    3        7.785612   1.000000
    4       10.598250   0.000000
    5       10.615996   0.000000
    6       13.426957   0.000000
    7       17.547159   0.000000
    8       17.789991   0.000000
 
 -0.2916667E+00  0.3750000E+00  0.4166667E-01  0.9259259E-02
    1       -3.021901   1.000000
    2        0.965359   1.000000
    3        6.884457   1.000000
    4       10.632155   0.000000
    5       11.094071   0.000000
    6       14.266579   0.000000
    7       15.626179   0.000000
    8       16.446957   0.000000
 
 -0.2083333E+00  0.3750000E+00  0.4166667E-01  0.9259259E-02
    1       -2.803128   1.000000
    2        2.130237   1.000000
    3        6.215358   1.000000
    4       10.569482   0.000000
    5       11.306395   0.000000
    6       12.845639   0.000000
    7       14.653192   0.000000
    8       16.762440   0.000000
 
 -0.1250000E+00  0.3750000E+00  0.4166667E-01  0.9259259E-02
    1       -2.214865   1.000000
    2        3.567798   1.000000
    3        5.908873   1.000000
    4        8.769090   0.994492
    5       11.118385   0.000000
    6       13.209501   0.000000
    7       13.614664   0.000000
    8       15.134663   0.000000
 
 -0.4166667E-01  0.3750000E+00  0.4166667E-01  0.4629630E-02
    1       -1.263039   1.000000
    2        4.880118   1.000000
    3        6.267079   1.000000
    4        6.608738   1.000000
    5       10.256591   0.000000
    6       12.646055   0.000000
    7       13.140871   0.000000
    8       14.490606   0.000000
 
  0.4583333E+00  0.4583333E+00  0.4166667E-01  0.2314815E-02
    1       -1.423175   1.000000
    2       -1.423173   1.000000
    3        9.457212   0.010075
    4        9.457215   0.010074
    5       11.626834   0.000000
    6       11.626845   0.000000
    7       15.520753   0.000000
    8       15.520796   0.000000
 
 -0.4583333E+00  0.4583333E+00  0.4166667E-01  0.4629630E-02
    1       -2.027269   1.000000
    2       -1.024225   1.000000
    3        8.577087   0.999952
    4        9.525146   0.002524
    5       11.419658   0.000000
    6       12.363789   0.000000
    7       17.565668   0.000000
    8       17.620670   0.000000
 
 -0.3750000E+00  0.4583333E+00  0.4166667E-01  0.9259259E-02
    1       -2.262984   1.000000
    2       -0.262887   1.000000
    3        7.594148   1.000000
    4        9.479571   0.006539
    5       11.802596   0.000000
    6       13.500690   0.000000
    7       15.164130   0.000000
    8       16.412125   0.000000
 
 -0.2916667E+00  0.4583333E+00  0.4166667E-01  0.9259259E-02
    1       -2.129262   1.000000
    2        0.849652   1.000000
    3        6.827647   1.000000
    4        9.558318   0.001189
    5       11.099884   0.000000
    6       13.264719   0.000000
    7       14.431471   0.000000
    8       15.906190   0.000000
 
 -0.2083333E+00  0.4583333E+00  0.4166667E-01  0.9259259E-02
    1       -1.627805   1.000000
    2        2.287692   1.000000
    3        6.366321   1.000000
    4        8.403736   1.000000
    5       10.087764   0.000000
    6       12.829596   0.000000
    7       14.239243   0.000000
    8       16.337354   0.000000
 
 -0.1250000E+00  0.4583333E+00  0.4166667E-01  0.9259259E-02
    1       -0.764267   1.000000
    2        3.946021   1.000000
    3        5.959182   1.000000
    4        6.471901   1.000000
    5       10.009723   0.000000
    6       12.069338   0.000000
    7       13.498375   0.000000
    8       15.560131   0.000000
 
 -0.4166667E-01  0.4583333E+00  0.4166667E-01  0.4629630E-02
    1        0.445040   1.000000
    2        3.809902   1.000000
    3        5.831998   1.000000
    4        6.841059   1.000000
    5        8.871751   0.965336
    6       11.263882   0.000000
    7       12.743434   0.000000
    8       15.514324   0.000000
 
 -0.4583333E+00 -0.4583333E+00  0.4166667E-01  0.4629630E-02
    1       -1.343009   1.000000
    2       -1.340685   1.000000
    3        8.457072   0.999999
    4        8.470623   0.999998
    5       12.459636   0.000000
    6       12.799708   0.000000
    7       15.024795   0.000000
    8       16.360625   0.000000
 
 -0.3750000E+00 -0.4583333E+00  0.4166667E-01  0.9259259E-02
    1       -1.292439   1.000000
    2       -0.296277   1.000000
    3        7.606673   1.000000
    4        8.523998   0.999990
    5       11.004226   0.000000
    6       13.856662   0.000000
    7       14.339321   0.000000
    8       15.021246   0.000000
 
 -0.2916667E+00 -0.4583333E+00  0.4166667E-01  0.9259259E-02
    1       -0.877203   1.000000
    2        1.092911   1.000000
    3        7.004178   1.000000
    4        8.139512   1.000000
    5        9.116314   0.534648
    6       12.571554   0.000000
    7       14.960849   0.000000
    8       16.677425   0.000000
 
 -0.2083333E+00 -0.4583333E+00  0.4166667E-01  0.9259259E-02
    1       -0.102069   1.000000
    2        2.782202   1.000000
    3        5.678219   1.000000
    4        6.939557   1.000000
    5        9.337781   0.069564
    6       11.404583   0.000000
    7       14.741929   0.000000
    8       16.378502   0.000000
 
 -0.1250000E+00 -0.4583333E+00  0.4166667E-01  0.9259259E-02
    1        1.004023   1.000000
    2        3.400028   1.000000
    3        4.950916   1.000000
    4        6.987061   1.000000
    5        8.961881   0.880794
    6       11.424122   0.000000
    7       12.273807   0.000000
    8       16.606709   0.000000
 
 -0.4166667E-01 -0.4583333E+00  0.4166667E-01  0.4629630E-02
    1        1.434802   1.000000
    2        2.697522   1.000000
    3        6.734823   1.000000
    4        7.422418   1.000000
    5        7.811882   1.000000
    6       10.505548   0.000000
    7       12.712935   0.000000
    8       15.503634   0.000000
 
 -0.3750000E+00 -0.3750000E+00  0.4166667E-01  0.4629630E-02
    1        0.023371   1.000000
    2        0.042210   1.000000
    3        7.575904   1.000000
    4        7.857921   1.000000
    5        8.619791   0.999840
    6       12.489497   0.000000
    7       15.473659   0.000000
    8       16.280850   0.000000
 
 -0.2916667E+00 -0.3750000E+00  0.4166667E-01  0.9259259E-02
    1        0.716598   1.000000
    2        1.685905   1.000000
    3        5.526448   1.000000
    4        7.605304   1.000000
    5        8.528647   0.999989
    6       11.110307   0.000000
    7       16.012015   0.000000
    8       16.795072   0.000000
 
 -0.2083333E+00 -0.3750000E+00  0.4166667E-01  0.9259259E-02
    1        1.696704   1.000000
    2        3.077137   1.000000
    3        3.964659   1.000000
    4        7.467806   1.000000
    5        8.790008   0.991674
    6       10.646090   0.000000
    7       13.518713   0.000000
    8       16.565991   0.000000
 
 -0.1250000E+00 -0.3750000E+00  0.4166667E-01  0.9259259E-02
    1        1.164139   1.000000
    2        3.280941   1.000000
    3        5.966994   1.000000
    4        7.356057   1.000000
    5        8.469310   0.999998
    6       10.994836   0.000000
    7       11.789734   0.000000
    8       15.778102   0.000000
 
 -0.4166667E-01 -0.3750000E+00  0.4166667E-01  0.4629630E-02
    1       -0.370734   1.000000
    2        4.917981   1.000000
    3        6.849478   1.000000
    4        7.516094   1.000000
    5        8.269813   1.000000
    6       10.857542   0.000000
    7       12.918496   0.000000
    8       14.803952   0.000000
 
 -0.2916667E+00 -0.2916667E+00  0.4166667E-01  0.4629630E-02
    1        2.313140   1.000000
    2        2.681378   1.000000
    3        3.526277   1.000000
    4        7.778008   1.000000
    5        8.623507   0.999823
    6       10.307822   0.000000
    7       14.684524   0.000000
    8       15.544407   0.000000
 
 -0.2083333E+00 -0.2916667E+00  0.4166667E-01  0.9259259E-02
    1        1.016683   1.000000
    2        4.047708   1.000000
    3        4.969541   1.000000
    4        7.389545   1.000000
    5        9.036413   0.742781
    6       10.598493   0.000000
    7       12.578613   0.000000
    8       14.368684   0.000000
 
 -0.1250000E+00 -0.2916667E+00  0.4166667E-01  0.9259259E-02
    1       -0.618337   1.000000
    2        5.603929   1.000000
    3        6.947343   1.000000
    4        7.304667   1.000000
    5        8.792608   0.991247
    6       11.205369   0.000000
    7       11.914976   0.000000
    8       13.715202   0.000000
 
 -0.4166667E-01 -0.2916667E+00  0.4166667E-01  0.4629630E-02
    1       -1.932239   1.000000
    2        6.152095   1.000000
    3        7.235524   1.000000
    4        7.762618   1.000000
    5        9.901756   0.000000
    6       12.173114   0.000000
    7       12.174125   0.000000
    8       14.260104   0.000000
 
 -0.2083333E+00 -0.2083333E+00  0.4166667E-01  0.4629630E-02
    1       -0.701617   1.000000
    2        6.293848   1.000000
    3        6.481897   1.000000
    4        7.044207   1.000000
    5        9.421042   0.019330
    6       11.217708   0.000000
    7       12.303232   0.000000
    8       12.383488   0.000000
 
 -0.1250000E+00 -0.2083333E+00  0.4166667E-01  0.9259259E-02
    1       -2.100328   1.000000
    2        6.432643   1.000000
    3        7.876608   1.000000
    4        8.443093   0.999999
    5        9.604028   0.000387
    6       11.080833   0.000000
    7       12.471931   0.000000
    8       13.350156   0.000000
 
 -0.4166667E-01 -0.2083333E+00  0.4166667E-01  0.4629630E-02
    1       -3.143219   1.000000
    2        6.072050   1.000000
    3        6.981695   1.000000
    4        9.438411   0.014240
    5       11.358641   0.000000
    6       11.991786   0.000000
    7       12.832410   0.000000
    8       14.593173   0.000000
 
 -0.1250000E+00 -0.1250000E+00  0.4166667E-01  0.4629630E-02
    1       -3.227991   1.000000
    2        6.336088   1.000000
    3        7.616752   1.000000
    4        8.880428   0.960364
    5       11.586730   0.000000
    6       11.712319   0.000000
    7       12.612886   0.000000
    8       14.548280   0.000000
 
 -0.4166667E-01 -0.1250000E+00  0.4166667E-01  0.4629630E-02
    1       -3.990326   1.000000
    2        6.264774   1.000000
    3        6.829096   1.000000
    4        8.185562   1.000000
    5       11.620238   0.000000
    6       13.926772   0.000000
    7       14.152464   0.000000
    8       16.417897   0.000000
 
 -0.4166667E-01 -0.4166667E-01  0.4166667E-01  0.1157407E-02
    1       -4.466608   1.000000
    2        6.652228   1.000000
    3        6.652230   1.000000
    4        6.985899   1.000000
    5       10.929274   0.000000
    6       16.207998   0.000000
    7       16.566639   0.000000
    8       17.609938   0.000000
 
  0.1250000E+00  0.1250000E+00  0.1250000E+00  0.4629630E-02
    1       -2.551029   1.000000
    2        3.360766   1.000000
    3        8.111339   1.000000
    4        9.696463   0.000030
    5       10.896034   0.000000
    6       11.074986   0.000000
    7       14.747441   0.000000
    8       15.224321   0.000000
 
  0.2083333E+00  0.1250000E+00  0.1250000E+00  0.9259259E-02
    1       -1.261419   1.000000
    2        3.627325   1.000000
    3        7.289672   1.000000
    4        7.993482   1.000000
    5        9.846163   0.000000
    6       12.190234   0.000000
    7       14.095629   0.000000
    8       14.786409   0.000000
 
  0.2916667E+00  0.1250000E+00  0.1250000E+00  0.9259259E-02
    1        0.371217   1.000000
    2        4.088323   1.000000
    3        4.960304   1.000000
    4        6.596468   1.000000
    5       10.157399   0.000000
    6       12.966164   0.000000
    7       14.054745   0.000000
    8       14.135823   0.000000
 
  0.3750000E+00  0.1250000E+00  0.1250000E+00  0.4629630E-02
    1        1.998887   1.000000
    2        2.758445   1.000000
    3        5.054656   1.000000
    4        5.588281   1.000000
    5       10.494435   0.000000
    6       12.393402   0.000000
    7       13.932867   0.000000
    8       14.561918   0.000000
 
 -0.1250000E+00  0.1250000E+00  0.1250000E+00  0.2314815E-02
    1       -4.227427   1.000000
    2        4.118320   1.000000
    3        5.331172   1.000000
    4        9.871171   0.000000
    5       12.705237   0.000000
    6       13.287804   0.000000
    7       17.750075   0.000000
    8       18.126254   0.000000
 
  0.2083333E+00  0.2083333E+00  0.1250000E+00  0.4629630E-02
    1        0.290273   1.000000
    2        4.096229   1.000000
    3        5.629715   1.000000
    4        5.752301   1.000000
    5       10.970932   0.000000
    6       13.178941   0.000000
    7       13.968021   0.000000
    8       14.012390   0.000000
 
  0.2916667E+00  0.2083333E+00  0.1250000E+00  0.9259259E-02
    1        2.070980   1.000000
    2        3.279697   1.000000
    3        4.193321   1.000000
    4        5.282374   1.000000
    5       11.381731   0.000000
    6       13.036183   0.000000
    7       13.908946   0.000000
    8       14.893893   0.000000
 
  0.3750000E+00  0.2083333E+00  0.1250000E+00  0.9259259E-02
    1        1.105190   1.000000
    2        3.007249   1.000000
    3        4.637125   1.000000
    4        6.392033   1.000000
    5       10.894021   0.000000
    6       12.919037   0.000000
    7       14.281556   0.000000
    8       15.070337   0.000000
 
  0.4583333E+00  0.2083333E+00  0.1250000E+00  0.9259259E-02
    1       -0.594082   1.000000
    2        2.356558   1.000000
    3        7.029711   1.000000
    4        7.810301   1.000000
    5       10.356747   0.000000
    6       12.737767   0.000000
    7       13.248798   0.000000
    8       14.993215   0.000000
 
 -0.4583333E+00  0.2083333E+00  0.1250000E+00  0.4629630E-02
    1       -1.960889   1.000000
    2        2.005890   1.000000
    3        8.475093   0.999998
    4        9.584315   0.000636
    5       10.769793   0.000000
    6       11.338149   0.000000
    7       13.528329   0.000000
    8       14.651616   0.000000
 
 -0.2083333E+00  0.2083333E+00  0.1250000E+00  0.4629630E-02
    1       -3.887204   1.000000
    2        2.949982   1.000000
    3        5.286664   1.000000
    4       10.816108   0.000000
    5       11.814199   0.000000
    6       14.163637   0.000000
    7       16.922378   0.000000
    8       17.835136   0.000000
 
 -0.1250000E+00  0.2083333E+00  0.1250000E+00  0.4629630E-02
    1       -3.785295   1.000000
    2        3.555984   1.000000
    3        4.890907   1.000000
    4       11.089705   0.000000
    5       11.890814   0.000000
    6       13.974164   0.000000
    7       15.074542   0.000000
    8       17.661073   0.000000
 
  0.2916667E+00  0.2916667E+00  0.1250000E+00  0.4629630E-02
    1        1.959316   1.000000
    2        2.020994   1.000000
    3        4.542276   1.000000
    4        6.322645   1.000000
    5       11.457190   0.000000
    6       12.280133   0.000000
    7       14.749099   0.000000
    8       15.675166   0.000000
 
  0.3750000E+00  0.2916667E+00  0.1250000E+00  0.9259259E-02
    1        0.236714   1.000000
    2        1.222516   1.000000
    3        6.893676   1.000000
    4        7.705584   1.000000
    5       11.042209   0.000000
    6       12.115876   0.000000
    7       13.542600   0.000000
    8       14.510235   0.000000
 
  0.4583333E+00  0.2916667E+00  0.1250000E+00  0.4629630E-02
    1       -1.206205   1.000000
    2        0.783730   1.000000
    3        8.823383   0.984548
    4        9.349012   0.059561
    5       10.922463   0.000000
    6       11.738960   0.000000
    7       12.643076   0.000000
    8       13.778262   0.000000
 
 -0.2916667E+00  0.2916667E+00  0.1250000E+00  0.4629630E-02
    1       -3.378037   1.000000
    2        1.575593   1.000000
    3        5.705779   1.000000
    4       10.438036   0.000000
    5       11.530815   0.000000
    6       15.928813   0.000000
    7       16.099429   0.000000
    8       17.621188   0.000000
 
 -0.2083333E+00  0.2916667E+00  0.1250000E+00  0.9259259E-02
    1       -3.361588   1.000000
    2        2.474061   1.000000
    3        4.879853   1.000000
    4       10.453049   0.000000
    5       12.009198   0.000000
    6       14.595201   0.000000
    7       15.607064   0.000000
    8       17.587883   0.000000
 
 -0.1250000E+00  0.2916667E+00  0.1250000E+00  0.4629630E-02
    1       -2.972784   1.000000
    2        3.345311   1.000000
    3        4.749837   1.000000
    4       10.508195   0.000000
    5       11.318380   0.000000
    6       13.482029   0.000000
    7       15.395315   0.000000
    8       15.698592   0.000000
 