unknown system                          
   1.00000000000000     
    -2.410688    2.410688    1.320490
     2.410688   -2.410688    1.320490
     2.410688    2.410688   -1.320490
   Si
     2
Direct
  0.250000  0.750000  0.500000
 -0.000000 -0.000000 -0.000000
 
   32   32   32
 -.53699564949E+01 -.42074568726E+01 -.10778370267E+01 0.30927100325E+01 0.71721219565E+01
 0.10218905531E+02 0.11746948381E+02 0.11788175007E+02 0.10776431136E+02 0.93231472381E+01
 0.78681343702E+01 0.65669040205E+01 0.54987257406E+01 0.46909551345E+01 0.41370479493E+01
 0.38169176235E+01 0.37125379571E+01 0.38169219965E+01 0.41370291406E+01 0.46909170158E+01
 0.54987033629E+01 0.65669032324E+01 0.78681284245E+01 0.93231325111E+01 0.10776429403E+02
 0.11788183275E+02 0.11746944270E+02 0.10218897874E+02 0.71721365690E+01 0.30927315611E+01
 -.10778460488E+01 -.42074847765E+01 -.42074847765E+01 -.47654633190E+01 -.30793076898E+01
 0.32764243677E+00 0.44558090780E+01 0.82130862157E+01 0.10781768951E+02 0.11826813199E+02
 0.11504511251E+02 0.10312616278E+02 0.88455359870E+01 0.74355245865E+01 0.62055689984E+01
 0.52185871520E+01 0.44905417910E+01 0.40096951078E+01 0.37556245459E+01 0.37127793317E+01
 0.38778634908E+01 0.42614103611E+01 0.48833897050E+01 0.57623959140E+01 0.68985185841E+01
 0.82529446606E+01 0.97322280084E+01 0.11139939034E+02 0.11962880051E+02 0.11614519814E+02
 0.97478573882E+01 0.64563079489E+01 0.23473773820E+01 -.15731287498E+01 -.10778460488E+01
 -.30793299388E+01 -.30466062928E+01 -.10005017982E+01 0.24175183867E+01 0.62072735987E+01
 0.93855981220E+01 0.11301910334E+02 0.11783242796E+02 0.11094533715E+02 0.97660585708E+01
 0.83190840919E+01 0.69739564275E+01 0.58301933590E+01 0.49338939987E+01 0.42906539861E+01
 0.38847742320E+01 0.36964385237E+01 0.37132336847E+01 0.39357596129E+01 0.43776003226E+01
 0.50595487969E+01 0.59976282994E+01 0.71851547477E+01 0.85728407804E+01 0.10055889534E+02
 0.11397161548E+02 0.12056029463E+02 0.11500269413E+02 0.94807796008E+01 0.62015388254E+01
 0.23473773820E+01 0.30927315611E+01 0.32763795212E+00 -.10005142682E+01 -.47935657512E+00
 0.17089650720E+01 0.48668182710E+01 0.80640131268E+01 0.10479658226E+02 0.11652808801E+02
 0.11564941123E+02 0.10561373127E+02 0.91659466906E+01 0.77651189934E+01 0.65026324685E+01
 0.54564111661E+01 0.46563116774E+01 0.40991175610E+01 0.37668191765E+01 0.36413416473E+01
 0.37137349892E+01 0.39881021358E+01 0.44803280839E+01 0.52112032021E+01 0.61934415507E+01
 0.74134636055E+01 0.88130458615E+01 0.10279585395E+02 0.11549173600E+02 0.12094571163E+02
 0.11455981900E+02 0.94807796008E+01 0.64563079489E+01 0.71721365690E+01 0.44558231302E+01
 0.24175179844E+01 0.17089619721E+01 0.25526261784E+01 0.46512089399E+01 0.73162957617E+01
 0.97459020303E+01 0.11312880020E+02 0.11745742498E+02 0.11156004840E+02 0.99331793339E+01
 0.85385580323E+01 0.72062227586E+01 0.60408235256E+01 0.50989044087E+01 0.43960813890E+01
 0.39226938322E+01 0.36599817138E+01 0.35922072200E+01 0.37139216573E+01 0.40324014147E+01
 0.45650399875E+01 0.53315181266E+01 0.63405258803E+01 0.75722186249E+01 0.89619997461E+01
 0.10393712555E+02 0.11599391436E+02 0.12094571163E+02 0.11500269413E+02 0.97478573882E+01
 0.10218897874E+02 0.82130876463E+01 0.62072766690E+01 0.48668211749E+01 0.46512137825E+01
 0.56235219429E+01 0.74274381113E+01 0.94420139367E+01 0.11030931907E+02 0.11767338041E+02
 0.11549008940E+02 0.10582098874E+02 0.92601829889E+01 0.79097918676E+01 0.66651831479E+01
 0.56063262452E+01 0.47705876769E+01 0.41622064504E+01 0.37672866407E+01 0.35676145847E+01
 0.35504120168E+01 0.37136612145E+01 0.40669942480E+01 0.46281483510E+01 0.54148433943E+01
 0.64316853507E+01 0.76536665572E+01 0.90125424865E+01 0.10393712555E+02 0.11549173600E+02
 0.12056029463E+02 0.11614519814E+02 0.11746944270E+02 0.10781757262E+02 0.93855887000E+01
 0.80640099919E+01 0.73163006993E+01 0.74274460101E+01 0.83463678309E+01 0.97125188098E+01
 0.11013860707E+02 0.11793227970E+02 0.11808903770E+02 0.11093630919E+02 0.99072886829E+01
 0.85860758940E+01 0.73063202402E+01 0.61634305229E+01 0.52150335949E+01 0.44825228938E+01
 0.39619350470E+01 0.36374374675E+01 0.34925237734E+01 0.35174921676E+01 0.37131451121E+01
 0.40905699285E+01 0.46669779478E+01 0.54574808446E+01 0.64626175305E+01 0.76536665572E+01
 0.89619997461E+01 0.10279585395E+02 0.11397161548E+02 0.11962880051E+02 0.11788183275E+02
 0.11826813027E+02 0.11301901598E+02 0.10479645094E+02 0.97458931520E+01 0.94420164166E+01
 0.97125265781E+01 0.10441145492E+02 0.11306977108E+02 0.11927866272E+02 0.12017475786E+02
 0.11487737100E+02 0.10464244181E+02 0.92141845326E+01 0.79428352303E+01 0.67538915880E+01
 0.57200186523E+01 0.48799469155E+01 0.42431991716E+01 0.38008645338E+01 0.35369157693E+01
 0.34370961323E+01 0.34946452291E+01 0.37125889715E+01 0.41025134794E+01 0.46801231245E+01
 0.54574808446E+01 0.64316853507E+01 0.75722186249E+01 0.88130458615E+01 0.10055889534E+02
 0.11139939034E+02 0.10776429403E+02 0.11504519465E+02 0.11783247713E+02 0.11652801524E+02
 0.11312864405E+02 0.11030921116E+02 0.11013862577E+02 0.11306984040E+02 0.11772632563E+02
 0.12157379422E+02 0.12209581467E+02 0.11788574361E+02 0.10919538923E+02 0.97770919818E+01
 0.85554634703E+01 0.73611843561E+01 0.62749578659E+01 0.53500813465E+01 0.46108921372E+01
 0.40590165868E+01 0.36831527648E+01 0.34683669954E+01 0.34030353594E+01 0.34829419407E+01
 0.37123922303E+01 0.41025134794E+01 0.46669779478E+01 0.54148433943E+01 0.63405258803E+01
 0.74134636055E+01 0.85728407804E+01 0.97322280084E+01 0.93231325111E+01 0.10312610660E+02
 0.11094534929E+02 0.11564942648E+02 0.11745739225E+02 0.11767329184E+02 0.11793219790E+02
 0.11927866268E+02 0.12157384707E+02 0.12354728973E+02 0.12344300680E+02 0.11989791805E+02
 0.11261634091E+02 0.10255521304E+02 0.91242198583E+01 0.79675290161E+01 0.68674543807E+01
 0.58871606104E+01 0.50647942640E+01 0.44147215490E+01 0.39341452261E+01 0.36114610268E+01
 0.34336440233E+01 0.33915751976E+01 0.34829419407E+01 0.37125889715E+01 0.40905699285E+01
 0.46281483510E+01 0.53315181266E+01 0.61934415507E+01 0.71851547477E+01 0.82529446606E+01
 0.78681284245E+01 0.88455219441E+01 0.97660439080E+01 0.10561367247E+02 0.11156009396E+02
 0.11549013753E+02 0.11808899009E+02 0.12017466969E+02 0.12209581226E+02 0.12344307339E+02
 0.12323427647E+02 0.12045341936E+02 0.11463995723E+02 0.10622827918E+02 0.96242527701E+01
 0.85510622545E+01 0.74810790007E+01 0.64820153645E+01 0.56029317839E+01 0.48712973739E+01
 0.42955526818E+01 0.38711400604E+01 0.35874204073E+01 0.34336440233E+01 0.34030353594E+01
 0.34946452291E+01 0.37131451121E+01 0.40669942480E+01 0.45650399875E+01 0.52112032021E+01
 0.59976282994E+01 0.68985185841E+01 0.65669032324E+01 0.74355216568E+01 0.83190750506E+01
 0.91659348581E+01 0.99331730442E+01 0.10582102371E+02 0.11093636262E+02 0.11487734604E+02
 0.11788568809E+02 0.11989794645E+02 0.12045350156E+02 0.11891563631E+02 0.11486898986E+02
 0.10845613561E+02 0.10023954926E+02 0.90832520014E+01 0.80926165305E+01 0.71191132551E+01
 0.62185434174E+01 0.54298078047E+01 0.47736795214E+01 0.42556320691E+01 0.38711400604E+01
 0.36114610268E+01 0.34683669954E+01 0.34370961323E+01 0.35174921676E+01 0.37136612145E+01
 0.40324014147E+01 0.44803280839E+01 0.50595487969E+01 0.57623959140E+01 0.54987033629E+01
 0.62055678208E+01 0.69739671199E+01 0.77651224597E+01 0.85385467203E+01 0.92601717555E+01
 0.99072922271E+01 0.10464254131E+02 0.10919539449E+02 0.11261628953E+02 0.11463998986E+02
 0.11486907821E+02 0.11297451486E+02 0.10891167723E+02 0.10288006530E+02 0.95291863630E+01
 0.86707844641E+01 0.77740711294E+01 0.68965556980E+01 0.60850539342E+01 0.53717357439E+01
 0.47736795214E+01 0.42955526818E+01 0.39341452261E+01 0.36831527648E+01 0.35369157693E+01
 0.34925237734E+01 0.35504120168E+01 0.37139216573E+01 0.39881021358E+01 0.43776003226E+01
 0.48833897050E+01 0.46909170158E+01 0.52185693006E+01 0.58302005922E+01 0.65026498988E+01
 0.72062281842E+01 0.79097828049E+01 0.85860709863E+01 0.92141932712E+01 0.97771006169E+01
 0.10255517908E+02 0.10622822313E+02 0.10845618189E+02 0.10891175908E+02 0.10738153047E+02
 0.10384942702E+02 0.98519681800E+01 0.91780306417E+01 0.84132435603E+01 0.76111459827E+01
 0.68215571548E+01 0.60850539342E+01 0.54298078047E+01 0.48712973739E+01 0.44147215490E+01
 0.40590165868E+01 0.38008645338E+01 0.36374374675E+01 0.35676145847E+01 0.35922072200E+01
 0.37137349892E+01 0.39357596129E+01 0.42614103611E+01 0.41370291406E+01 0.44905235729E+01
 0.49338827620E+01 0.54564184732E+01 0.60408434131E+01 0.66651956600E+01 0.73063188958E+01
 0.79428332687E+01 0.85554694175E+01 0.91242252476E+01 0.96242503753E+01 0.10023951656E+02
 0.10288009375E+02 0.10384946821E+02 0.10295813309E+02 0.10019892944E+02 0.95754452989E+01
 0.89962292909E+01 0.83257994963E+01 0.76111459827E+01 0.68965556980E+01 0.62185434174E+01
 0.56029317839E+01 0.50647942640E+01 0.46108921372E+01 0.42431991716E+01 0.39619350470E+01
 0.37672866407E+01 0.36599817138E+01 0.36413416473E+01 0.37132336847E+01 0.38778634908E+01
 0.38169219965E+01 0.40097037800E+01 0.42906522980E+01 0.46563113302E+01 0.50989198483E+01
 0.56063484891E+01 0.61634403790E+01 0.67538885238E+01 0.73611838860E+01 0.79675367085E+01
 0.85510683377E+01 0.90832503743E+01 0.95291826155E+01 0.98519673446E+01 0.10019892998E+02
 0.10013400195E+02 0.98292116642E+01 0.94808503588E+01 0.89962292909E+01 0.84132435603E+01
 0.77740711294E+01 0.71191132551E+01 0.64820153645E+01 0.58871606104E+01 0.53500813465E+01
 0.48799469155E+01 0.44825228938E+01 0.41622064504E+01 0.39226938322E+01 0.37668191765E+01
 0.36964385237E+01 0.37127793317E+01 0.37125379571E+01 0.37556515132E+01 0.38848074336E+01
 0.40991407382E+01 0.43960962177E+01 0.47706010591E+01 0.52150446487E+01 0.57200238803E+01
 0.62749595854E+01 0.68674571013E+01 0.74810828658E+01 0.80926191104E+01 0.86707849401E+01
 0.91780291679E+01 0.95754420482E+01 0.98292085876E+01 0.99164812692E+01 0.98292116642E+01
 0.95754452989E+01 0.91780306417E+01 0.86707844641E+01 0.80926165305E+01 0.74810790007E+01
 0.68674543807E+01 0.62749578659E+01 0.57200186523E+01 0.52150335949E+01 0.47705876769E+01
 0.43960813890E+01 0.40991175610E+01 0.38847742320E+01 0.37556245459E+01 0.38169176235E+01
 0.37128024127E+01 0.36964882370E+01 0.37668707294E+01 0.39227267575E+01 0.41622210595E+01
 0.44825305151E+01 0.48799542882E+01 0.53500868717E+01 0.58871607414E+01 0.64820116276E+01
 0.71191120377E+01 0.77740755869E+01 0.84132484859E+01 0.89962282446E+01 0.94808451217E+01
 0.98292085876E+01 0.10013400195E+02 0.10019892944E+02 0.98519681800E+01 0.95291863630E+01
 0.90832520014E+01 0.85510622545E+01 0.79675290161E+01 0.73611843561E+01 0.67538915880E+01
 0.61634305229E+01 0.56063262452E+01 0.50989044087E+01 0.46563116774E+01 0.42906539861E+01
 0.40096951078E+01 0.41370479493E+01 0.38778907036E+01 0.37132755168E+01 0.36413913996E+01
 0.36600270769E+01 0.37673189241E+01 0.39619508995E+01 0.42432017883E+01 0.46108903633E+01
 0.50647938515E+01 0.56029301457E+01 0.62185383999E+01 0.68965529555E+01 0.76111498905E+01
 0.83258042214E+01 0.89962282446E+01 0.95754420482E+01 0.10019892998E+02 0.10295813309E+02
 0.10384942702E+02 0.10288006530E+02 0.10023954926E+02 0.96242527701E+01 0.91242198583E+01
 0.85554634703E+01 0.79428352303E+01 0.73063202402E+01 0.66651831479E+01 0.60408235256E+01
 0.54564111661E+01 0.49338939987E+01 0.44905417910E+01 0.46909551345E+01 0.42614549825E+01
 0.39358008198E+01 0.37137713338E+01 0.35922432602E+01 0.35676505709E+01 0.36374618605E+01
 0.38008662671E+01 0.40590039824E+01 0.44147147740E+01 0.48713010244E+01 0.54298078571E+01
 0.60850445226E+01 0.68215505695E+01 0.76111498905E+01 0.84132484859E+01 0.91780291679E+01
 0.98519673446E+01 0.10384946821E+02 0.10738153047E+02 0.10891167723E+02 0.10845613561E+02
 0.10622827918E+02 0.10255521304E+02 0.97770919818E+01 0.92141845326E+01 0.85860758940E+01
 0.79097918676E+01 0.72062227586E+01 0.65026324685E+01 0.58301933590E+01 0.52185871520E+01
 0.54987257406E+01 0.48834295443E+01 0.43776472710E+01 0.39881431968E+01 0.37139484836E+01
 0.35504274692E+01 0.34925334761E+01 0.35369162505E+01 0.36831398418E+01 0.39341288964E+01
 0.42955470668E+01 0.47736815818E+01 0.53717319088E+01 0.60850445226E+01 0.68965529555E+01
 0.77740755869E+01 0.86707849401E+01 0.95291826155E+01 0.10288009375E+02 0.10891175908E+02
 0.11297451486E+02 0.11486898986E+02 0.11463995723E+02 0.11261634091E+02 0.10919538923E+02
 0.10464244181E+02 0.99072886829E+01 0.92601829889E+01 0.85385580323E+01 0.77651189934E+01
 0.69739564275E+01 0.62055689984E+01 0.65669040205E+01 0.57624062732E+01 0.50595797022E+01
 0.44803716119E+01 0.40324306212E+01 0.37136599543E+01 0.35174743655E+01 0.34370822965E+01
 0.34683553045E+01 0.36114398333E+01 0.38711158124E+01 0.42556213812E+01 0.47736815818E+01
 0.54298078571E+01 0.62185383999E+01 0.71191120377E+01 0.80926191104E+01 0.90832503743E+01
 0.10023951656E+02 0.10845618189E+02 0.11486907821E+02 0.11891563631E+02 0.12045341936E+02
 0.11989791805E+02 0.11788574361E+02 0.11487737100E+02 0.11093630919E+02 0.10582098874E+02
 0.99331793339E+01 0.91659466906E+01 0.83190840919E+01 0.74355245865E+01 0.78681343702E+01
 0.68985179784E+01 0.59976323544E+01 0.52112200689E+01 0.45650587779E+01 0.40669927710E+01
 0.37131180490E+01 0.34946108379E+01 0.34030080925E+01 0.34336177950E+01 0.35873891547E+01
 0.38711158124E+01 0.42955470668E+01 0.48713010244E+01 0.56029301457E+01 0.64820116276E+01
 0.74810828658E+01 0.85510683377E+01 0.96242503753E+01 0.10622822313E+02 0.11463998986E+02
 0.12045350156E+02 0.12323427647E+02 0.12344300680E+02 0.12209581467E+02 0.12017475786E+02
 0.11808903770E+02 0.11549008940E+02 0.11156004840E+02 0.10561373127E+02 0.97660585708E+01
 0.88455359870E+01 0.93231472381E+01 0.82529595793E+01 0.71851566922E+01 0.61934308631E+01
 0.53315080136E+01 0.46281414467E+01 0.40905502581E+01 0.37125465193E+01 0.34828908536E+01
 0.33915354850E+01 0.34336177950E+01 0.36114398333E+01 0.39341288964E+01 0.44147147740E+01
 0.50647938515E+01 0.58871607414E+01 0.68674571013E+01 0.79675367085E+01 0.91242252476E+01
 0.10255517908E+02 0.11261628953E+02 0.11989794645E+02 0.12344307339E+02 0.12354728973E+02
 0.12157379422E+02 0.11927866272E+02 0.11793227970E+02 0.11767338041E+02 0.11745742498E+02
 0.11564941123E+02 0.11094533715E+02 0.10312616278E+02 0.10776431136E+02 0.97322428312E+01
 0.85728548040E+01 0.74134599209E+01 0.63405054082E+01 0.54148204421E+01 0.46669544007E+01
 0.41024749576E+01 0.37123363024E+01 0.34828908536E+01 0.34030080925E+01 0.34683553045E+01
 0.36831398418E+01 0.40590039824E+01 0.46108903633E+01 0.53500868717E+01 0.62749595854E+01
 0.73611838860E+01 0.85554694175E+01 0.97771006169E+01 0.10919539449E+02 0.11788568809E+02
 0.12209581226E+02 0.12157384707E+02 0.11772632563E+02 0.11306977108E+02 0.11013860707E+02
 0.11030931907E+02 0.11312880020E+02 0.11652808801E+02 0.11783242796E+02 0.11504511251E+02
 0.11788175007E+02 0.11139930521E+02 0.10055892734E+02 0.88130584007E+01 0.75722202313E+01
 0.64316626294E+01 0.54574436143E+01 0.46800856725E+01 0.41024749576E+01 0.37125465193E+01
 0.34946108379E+01 0.34370822965E+01 0.35369162505E+01 0.38008662671E+01 0.42432017883E+01
 0.48799542882E+01 0.57200238803E+01 0.67538885238E+01 0.79428332687E+01 0.92141932712E+01
 0.10464254131E+02 0.11487734604E+02 0.12017466969E+02 0.11927866268E+02 0.11306984040E+02
 0.10441145492E+02 0.97125188098E+01 0.94420139367E+01 0.97459020303E+01 0.10479658226E+02
 0.11301910334E+02 0.11826813199E+02 0.11746948381E+02 0.11962867821E+02 0.11397143903E+02
 0.10279584716E+02 0.89620140217E+01 0.76536657490E+01 0.64625873995E+01 0.54574436143E+01
 0.46669544007E+01 0.40905502581E+01 0.37131180490E+01 0.35174743655E+01 0.34925334761E+01
 0.36374618605E+01 0.39619508995E+01 0.44825305151E+01 0.52150446487E+01 0.61634403790E+01
 0.73063188958E+01 0.85860709863E+01 0.99072922271E+01 0.11093636262E+02 0.11808899009E+02
 0.11793219790E+02 0.11013862577E+02 0.97125265781E+01 0.83463678309E+01 0.74274381113E+01
 0.73162957617E+01 0.80640131268E+01 0.93855981220E+01 0.10781768951E+02 0.10218905531E+02
 0.11614528860E+02 0.12056021404E+02 0.11549152719E+02 0.10393704711E+02 0.90125515669E+01
 0.76536657490E+01 0.64316626294E+01 0.54148204421E+01 0.46281414467E+01 0.40669927710E+01
 0.37136599543E+01 0.35504274692E+01 0.35676505709E+01 0.37673189241E+01 0.41622210595E+01
 0.47706010591E+01 0.56063484891E+01 0.66651956600E+01 0.79097828049E+01 0.92601717555E+01
 0.10582102371E+02 0.11549013753E+02 0.11767329184E+02 0.11030921116E+02 0.94420164166E+01
 0.74274460101E+01 0.56235219429E+01 0.46512089399E+01 0.48668182710E+01 0.62072735987E+01
 0.82130862157E+01 0.71721219565E+01 0.97478648009E+01 0.11500285390E+02 0.12094562962E+02
 0.11599364950E+02 0.10393704711E+02 0.89620140217E+01 0.75722202313E+01 0.63405054082E+01
 0.53315080136E+01 0.45650587779E+01 0.40324306212E+01 0.37139484836E+01 0.35922432602E+01
 0.36600270769E+01 0.39227267575E+01 0.43960962177E+01 0.50989198483E+01 0.60408434131E+01
 0.72062281842E+01 0.85385467203E+01 0.99331730442E+01 0.11156009396E+02 0.11745739225E+02
 0.11312864405E+02 0.97458931520E+01 0.73163006993E+01 0.46512137825E+01 0.25526261784E+01
 0.17089650720E+01 0.24175183867E+01 0.44558090780E+01 0.30927100325E+01 0.64562847980E+01
 0.94807847121E+01 0.11455997350E+02 0.12094562962E+02 0.11549152719E+02 0.10279584716E+02
 0.88130584007E+01 0.74134599209E+01 0.61934308631E+01 0.52112200689E+01 0.44803716119E+01
 0.39881431968E+01 0.37137713338E+01 0.36413913996E+01 0.37668707294E+01 0.40991407382E+01
 0.46563113302E+01 0.54564184732E+01 0.65026498988E+01 0.77651224597E+01 0.91659348581E+01
 0.10561367247E+02 0.11564942648E+02 0.11652801524E+02 0.10479645094E+02 0.80640099919E+01
 0.48668211749E+01 0.17089619721E+01 -.47935657512E+00 -.10005017982E+01 0.32764243677E+00
 -.10778370267E+01 0.23473503982E+01 0.62015103954E+01 0.94807847121E+01 0.11500285390E+02
 0.12056021404E+02 0.11397143903E+02 0.10055892734E+02 0.85728548040E+01 0.71851566922E+01
 0.59976323544E+01 0.50595797022E+01 0.43776472710E+01 0.39358008198E+01 0.37132755168E+01
 0.36964882370E+01 0.38848074336E+01 0.42906522980E+01 0.49338827620E+01 0.58302005922E+01
 0.69739671199E+01 0.83190750506E+01 0.97660439080E+01 0.11094534929E+02 0.11783247713E+02
 0.11301901598E+02 0.93855887000E+01 0.62072766690E+01 0.24175179844E+01 -.10005142682E+01
 -.30466062928E+01 -.30793076898E+01 -.42074568726E+01 -.15731189319E+01 0.23473503982E+01
 0.64562847980E+01 0.97478648009E+01 0.11614528860E+02 0.11962867821E+02 0.11139930521E+02
 0.97322428312E+01 0.82529595793E+01 0.68985179784E+01 0.57624062732E+01 0.48834295443E+01
 0.42614549825E+01 0.38778907036E+01 0.37128024127E+01 0.37556515132E+01 0.40097037800E+01
 0.44905235729E+01 0.52185693006E+01 0.62055678208E+01 0.74355216568E+01 0.88455219441E+01
 0.10312610660E+02 0.11504519465E+02 0.11826813027E+02 0.10781757262E+02 0.82130876463E+01
 0.44558231302E+01 0.32763795212E+00 -.30793299388E+01 -.47654633190E+01 -.42073523672E+01
 -.33731658971E+01 -.63274414743E+00 0.31961304940E+01 0.70523704470E+01 0.10009007940E+02
 0.11546526116E+02 0.11641108237E+02 0.10675877475E+02 0.92356882368E+01 0.77747470198E+01
 0.64581831329E+01 0.53696774793E+01 0.45396482092E+01 0.39623695972E+01 0.36168011247E+01
 0.34830312000E+01 0.35518982023E+01 0.38284763140E+01 0.43300835085E+01 0.50783968715E+01
 0.60847871573E+01 0.73301377978E+01 0.87457773438E+01 0.10199438481E+02 0.11327715669E+02
 0.11542945447E+02 0.10390463137E+02 0.77770870138E+01 0.40966328796E+01 0.19069952185E+00
 -.28814808056E+01 -.33731901550E+01 -.42074504849E+01 -.28815394826E+01 0.19072099327E+00
 0.40966584521E+01 0.77770552354E+01 0.10390422105E+02 0.11542968767E+02 0.11327779619E+02
 0.10199455006E+02 0.87457292017E+01 0.73301032905E+01 0.60848171361E+01 0.50784384809E+01
 0.43300691672E+01 0.38284329271E+01 0.35519003812E+01 0.34830759195E+01 0.36168109639E+01
 0.39623218532E+01 0.45396170172E+01 0.53697155645E+01 0.64582356038E+01 0.77747401355E+01
 0.92356469718E+01 0.10675877060E+02 0.11641142342E+02 0.11546516249E+02 0.10008943091E+02
 0.70523419445E+01 0.31961918062E+01 -.63267302360E+00 -.52922037612E+00 -.27696553601E+01
 -.30792315504E+01 -.13749590824E+01 0.18019746331E+01 0.55064524746E+01 0.87482993656E+01
 0.10821024900E+02 0.11477695341E+02 0.10922041545E+02 0.96547277896E+01 0.82174411870E+01
 0.68652009118E+01 0.57057236268E+01 0.47912117465E+01 0.41300016335E+01 0.37064173735E+01
 0.34993379647E+01 0.34947092742E+01 0.36916820109E+01 0.41031314002E+01 0.47506702231E+01
 0.56534759048E+01 0.68107101364E+01 0.81810692561E+01 0.96684614419E+01 0.11070490974E+02
 0.11881031473E+02 0.11552932174E+02 0.97901037090E+01 0.67254260339E+01 0.29680236184E+01
 0.34590382337E+01 0.48821819287E+00 -.11653583476E+01 -.10005435821E+01 0.90696268229E+00
 0.39378466834E+01 0.71805744553E+01 0.97722147202E+01 0.11174589192E+02 0.11291458998E+02
 0.10417213088E+02 0.90653106684E+01 0.76699198471E+01 0.63977134148E+01 0.53354798785E+01
 0.45188113073E+01 0.39465445633E+01 0.36003140758E+01 0.34607484413E+01 0.35175177877E+01
 0.37737541880E+01 0.42453173513E+01 0.49545356201E+01 0.59177314409E+01 0.71270793044E+01
 0.85315159362E+01 0.10025921900E+02 0.11376321677E+02 0.12067698292E+02 0.11613051312E+02
 0.98071479214E+01 0.68713612452E+01 0.74733240077E+01 0.45906998303E+01 0.22572696610E+01
 0.11892391456E+01 0.17089642356E+01 0.36139587338E+01 0.62644506775E+01 0.88428402482E+01
 0.10654957536E+02 0.11343529385E+02 0.10949198013E+02 0.98266794908E+01 0.84557413955E+01
 0.71228316973E+01 0.59449878123E+01 0.49873873154E+01 0.42704050184E+01 0.37855999960E+01
 0.35135403270E+01 0.34372975697E+01 0.35504021672E+01 0.38597076303E+01 0.43832329824E+01
 0.51427429726E+01 0.61507033378E+01 0.73925509870E+01 0.88095636712E+01 0.10291226888E+02
 0.11588652213E+02 0.12212548398E+02 0.11748634371E+02 0.10075600986E+02 0.10549258407E+02
 0.84256007011E+01 0.61753632608E+01 0.44998909542E+01 0.39385597559E+01 0.46511731227E+01
 0.63542844671E+01 0.84445039734E+01 0.10243395228E+02 0.11244819161E+02 0.11264378369E+02
 0.10452097864E+02 0.91870075281E+01 0.78473707840E+01 0.65959800788E+01 0.55229339475E+01
 0.46730340698E+01 0.40539031080E+01 0.36520634842E+01 0.34484726265E+01 0.34293681581E+01
 0.35921071159E+01 0.39464462130E+01 0.45113263549E+01 0.53068991223E+01 0.63413802877E+01
 0.75941469415E+01 0.90011048740E+01 0.10450570070E+02 0.11700946420E+02 0.12312391013E+02
 0.11946278162E+02 0.12159347359E+02 0.11130299526E+02 0.95569720456E+01 0.79556225544E+01
 0.68778968926E+01 0.66914505137E+01 0.74273674578E+01 0.87714500970E+01 0.10202709825E+02
 0.11206481580E+02 0.11461926881E+02 0.10932517464E+02 0.98410432750E+01 0.85423595265E+01
 0.72627978999E+01 0.61084782230E+01 0.51459830993E+01 0.44023126311E+01 0.38754718882E+01
 0.35494379109E+01 0.34068453937E+01 0.34372573905E+01 0.36412796531E+01 0.40306578034E+01
 0.46242378021E+01 0.54396323070E+01 0.64804793903E+01 0.77211770767E+01 0.90951762436E+01
 0.10494269152E+02 0.11704245646E+02 0.12348579945E+02 0.12291470621E+02 0.12319996745E+02
 0.11691964254E+02 0.10666684781E+02 0.96557724182E+01 0.90593442328E+01 0.90966043252E+01
 0.97124875210E+01 0.10607367845E+02 0.11372119927E+02 0.11658930530E+02 0.11310540745E+02
 0.10401697666E+02 0.91875780317E+01 0.79220854073E+01 0.67252115262E+01 0.56780058487E+01
 0.48261676779E+01 0.41828192611E+01 0.37397979744E+01 0.34804917993E+01 0.33898623482E+01
 0.34607126565E+01 0.36963021678E+01 0.41093079298E+01 0.47172877824E+01 0.55345969404E+01
 0.65606102845E+01 0.77663636278E+01 0.90856649236E+01 0.10417355325E+02 0.11587982828E+02
 0.11344381676E+02 0.12109846816E+02 0.12356076298E+02 0.12106517554E+02 0.11566338720E+02
 0.11036687843E+02 0.10780654279E+02 0.10903497411E+02 0.11306904479E+02 0.11739309579E+02
 0.11913689244E+02 0.11633337448E+02 0.10870289381E+02 0.97693375592E+01 0.85543669517E+01
 0.73545024187E+01 0.62561361757E+01 0.53192702805E+01 0.45728777701E+01 0.40203551698E+01
 0.36502647992E+01 0.34469071972E+01 0.33980230565E+01 0.34992614960E+01 0.37555346834E+01
 0.41793412496E+01 0.47861936436E+01 0.55869746444E+01 0.65773227512E+01 0.77265420192E+01
 0.89715233823E+01 0.10220804527E+02 0.99127376329E+01 0.10973188376E+02 0.11781083291E+02
 0.12210178585E+02 0.12274708386E+02 0.12118185697E+02 0.11938916338E+02 0.11888859152E+02
 0.11997104013E+02 0.12157364036E+02 0.12184063897E+02 0.11905596538E+02 0.11248001607E+02
 0.10272375671E+02 0.91413331754E+01 0.79777873376E+01 0.68659002563E+01 0.58736533763E+01
 0.50437125839E+01 0.43928694209E+01 0.39186936467E+01 0.36089025854E+01 0.34496581209E+01
 0.34313685059E+01 0.35518511104E+01 0.38168196891E+01 0.42377971703E+01 0.48276745402E+01
 0.55938285670E+01 0.65290791878E+01 0.76029001218E+01 0.87575116808E+01 0.84535929046E+01
 0.95065261670E+01 0.10486493169E+02 0.11301682840E+02 0.11856098306E+02 0.12147317688E+02
 0.12259819988E+02 0.12306294489E+02 0.12357670596E+02 0.12400497010E+02 0.12344276562E+02
 0.12072848564E+02 0.11510989027E+02 0.10672394700E+02 0.96602903263E+01 0.85737909489E+01
 0.74898053921E+01 0.64782228081E+01 0.55913706415E+01 0.48590457679E+01 0.42903423309E+01
 0.38801346191E+01 0.36168104864E+01 0.34888101549E+01 0.34890134591E+01 0.36167887826E+01
 0.38778136548E+01 0.42819567391E+01 0.48393251519E+01 0.55542803457E+01 0.64179123952E+01
 0.74013484226E+01 0.71316812220E+01 0.80743131195E+01 0.90206717363E+01 0.99112371327E+01
 0.10692903067E+02 0.11307466818E+02 0.11735501840E+02 0.12012056901E+02 0.12185645835E+02
 0.12274788784E+02 0.12249076815E+02 0.12045355150E+02 0.11608599407E+02 0.10933908182E+02
 0.10080117402E+02 0.91148780385E+01 0.81045986029E+01 0.71163240277E+01 0.62073773539E+01
 0.54181637885E+01 0.47699581967E+01 0.42676640518E+01 0.39056189082E+01 0.36739195828E+01
 0.35635104086E+01 0.35693659337E+01 0.36917524024E+01 0.39357835237E+01 0.43094684184E+01
 0.48202499000E+01 0.54699989883E+01 0.62491175226E+01 0.60310803820E+01 0.68073695210E+01
 0.76379037207E+01 0.84772895686E+01 0.92783627690E+01 0.10001230932E+02 0.10617949336E+02
 0.11107010785E+02 0.11467453489E+02 0.11705064959E+02 0.11809083097E+02 0.11747915148E+02
 0.11486907994E+02 0.11016688538E+02 0.10363000406E+02 0.95659175678E+01 0.86792375258E+01
 0.77632598635E+01 0.68756145334E+01 0.60635270390E+01 0.53591201305E+01 0.47786825954E+01
 0.43255319026E+01 0.39949363187E+01 0.37792552294E+01 0.36719441024E+01 0.36698436869E+01
 0.37738217268E+01 0.39881462604E+01 0.43188539697E+01 0.47710277585E+01 0.53448610588E+01
 0.51851831801E+01 0.57746944537E+01 0.64440681175E+01 0.71647340543E+01 0.79011937436E+01
 0.86169211894E+01 0.92806757793E+01 0.98700020101E+01 0.10369654932E+02 0.10765521821E+02
 0.11039345546E+02 0.11167046580E+02 0.11122958924E+02 0.10891187464E+02 0.10472611252E+02
 0.98880576536E+01 0.91758192181E+01 0.83854157202E+01 0.75699629589E+01 0.67788547884E+01
 0.60519526740E+01 0.54162542204E+01 0.48856313249E+01 0.44634209219E+01 0.41466977500E+01
 0.39305706445E+01 0.38112060327E+01 0.37872218335E+01 0.38598688063E+01 0.40325075803E+01
 0.43094613380E+01 0.46939740072E+01 0.45929709997E+01 0.49987443696E+01 0.54922441568E+01
 0.60588537019E+01 0.66765098579E+01 0.73183778407E+01 0.79571569538E+01 0.85689126399E+01
 0.91342171263E+01 0.96357470613E+01 0.10053899961E+02 0.10363903383E+02 0.10537490155E+02
 0.10549304836E+02 0.10384954425E+02 0.10046663002E+02 0.95543162092E+01 0.89423325101E+01
 0.82541703001E+01 0.75360841373E+01 0.68311231134E+01 0.61742196794E+01 0.55893569266E+01
 0.50895166911E+01 0.46791665953E+01 0.43580102494E+01 0.41244001973E+01 0.39774108921E+01
 0.39175325029E+01 0.39465439838E+01 0.40670806398E+01 0.42819651433E+01 0.42378082757E+01
 0.44729182141E+01 0.47945204272E+01 0.51969093431E+01 0.56689357587E+01 0.61944133408E+01
 0.67541949643E+01 0.73288668939E+01 0.79004628227E+01 0.84519428807E+01 0.89644997588E+01
 0.94145324688E+01 0.97730438070E+01 0.10009104414E+02 0.10096403657E+02 0.10019896963E+02
 0.97797647690E+01 0.93917508014E+01 0.88845869663E+01 0.82956235450E+01 0.76654990543E+01
 0.70326273224E+01 0.64285893688E+01 0.58756243956E+01 0.53868425661E+01 0.49686835231E+01
 0.46242004895E+01 0.43556273407E+01 0.41654628083E+01 0.40563716954E+01 0.40307691924E+01
 0.40906915443E+01 0.41025883256E+01 0.41793713185E+01 0.43396304227E+01 0.45817522521E+01
 0.49013539907E+01 0.52905187765E+01 0.57382526563E+01 0.62319646708E+01 0.67588354572E+01
 0.73058040580E+01 0.78577272853E+01 0.83946087203E+01 0.88898375321E+01 0.93112729828E+01
 0.96255631561E+01 0.98042323051E+01 0.98292199570E+01 0.96961985989E+01 0.94152594289E+01
 0.90092970857E+01 0.85104728493E+01 0.79551806261E+01 0.73784559688E+01 0.68093868402E+01
 0.62690167760E+01 0.57711598316E+01 0.53250795566E+01 0.49382010237E+01 0.46174882300E+01
 0.43693433343E+01 0.41988548514E+01 0.41093440194E+01 0.41793403727E+01 0.41026191456E+01
 0.41093865071E+01 0.41988456493E+01 0.43693038189E+01 0.46174864013E+01 0.49382423573E+01
 0.53251057335E+01 0.57711469993E+01 0.62690046861E+01 0.68094025329E+01 0.73784722643E+01
 0.79551714922E+01 0.85104580188E+01 0.90093030639E+01 0.94152743196E+01 0.96961958679E+01
 0.98292018819E+01 0.98042223416E+01 0.96255693860E+01 0.93112811782E+01 0.88898353287E+01
 0.83946020078E+01 0.78577297418E+01 0.73058143667E+01 0.67588332097E+01 0.62319394215E+01
 0.57382290965E+01 0.52905271248E+01 0.49013763534E+01 0.45817377278E+01 0.43395759638E+01
 0.44729393842E+01 0.42377859979E+01 0.40906429682E+01 0.40307394423E+01 0.40563755448E+01
 0.41654778956E+01 0.43556304128E+01 0.46241934934E+01 0.49686845688E+01 0.53868575574E+01
 0.58756359511E+01 0.64285822503E+01 0.70326156724E+01 0.76655068194E+01 0.82956427238E+01
 0.88845865580E+01 0.93917287652E+01 0.97797527161E+01 0.10019904051E+02 0.10096399740E+02
 0.10009078017E+02 0.97730304828E+01 0.94145549144E+01 0.89645237654E+01 0.84519333109E+01
 0.79004441781E+01 0.73288785164E+01 0.67542173680E+01 0.61943974023E+01 0.56688877509E+01