    2    2   15    1
  0.2001288E+02  0.3839590E-09  0.3839590E-09  0.3839590E-09  0.5000000E-15
  1.000000000000000E-004
  CAR 
 unknown system                          
      8     10      8
 
  0.1250000E+00  0.1250000E+00  0.1250000E+00  0.3125000E-01
    1       -5.926735   1.000000
    2        4.233987   1.000000
    3        5.542759   0.999983
    4        5.542759   0.999983
    5        8.339428   0.000000
    6        8.824641   0.000000
    7        8.824641   0.000000
    8       10.551508   0.000000
 
  0.3750000E+00  0.1250000E+00  0.1250000E+00  0.9375000E-01
    1       -4.880068   1.000000
    2        1.207111   1.000000
    3        3.521467   1.000000
    4        5.058790   1.000000
    5        8.557225   0.000000
    6        9.515898   0.000000
    7        9.693777   0.000000
    8       12.137967   0.000000
 
 -0.3750000E+00  0.1250000E+00  0.1250000E+00  0.9375000E-01
    1       -3.711521   1.000000
    2       -0.916515   1.000000
    3        3.553009   1.000000
    4        4.270396   1.000000
    5        8.030480   0.000000
    6        9.352697   0.000000
    7        9.940443   0.000000
    8       13.212326   0.000000
 
 -0.1250000E+00  0.1250000E+00  0.1250000E+00  0.9375000E-01
    1       -5.388960   1.000000
    2        2.608855   1.000000
    3        4.513761   1.000000
    4        4.590356   1.000000
    5        7.983609   0.000000
    6        9.547612   0.000000
    7       10.307716   0.000000
    8       10.589408   0.000000
 
  0.3750000E+00  0.3750000E+00  0.1250000E+00  0.9375000E-01
    1       -4.338023   1.000000
    2        0.892485   1.000000
    3        3.161670   1.000000
    4        3.624264   1.000000
    5        7.185235   0.000000
    6        8.730446   0.000000
    7       11.840612   0.000000
    8       12.111646   0.000000
 
 -0.3750000E+00  0.3750000E+00  0.1250000E+00  0.1875000E+00
    1       -2.661291   1.000000
    2       -1.099691   1.000000
    3        1.771133   1.000000
    4        2.872013   1.000000
    5        8.222837   0.000000
    6       10.117054   0.000000
    7       11.117735   0.000000
    8       13.282744   0.000000
 
 -0.1250000E+00  0.3750000E+00  0.1250000E+00  0.1875000E+00
    1       -3.912084   1.000000
    2       -0.008957   1.000000
    3        2.511124   1.000000
    4        3.903153   1.000000
    5        8.713362   0.000000
    6        9.391237   0.000000
    7       10.857742   0.000000
    8       11.778349   0.000000
 
 -0.3750000E+00 -0.3750000E+00  0.1250000E+00  0.9375000E-01
    1       -2.837552   1.000000
    2       -0.997662   1.000000
    3        2.396161   1.000000
    4        3.149677   1.000000
    5        6.728079   0.000011
    6        7.801439   0.000000
    7       14.113051   0.000000
    8       14.201011   0.000000
 
  0.3750000E+00  0.3750000E+00  0.3750000E+00  0.3125000E-01
    1       -4.436622   1.000000
    2       -0.115259   1.000000
    3        4.745604   1.000000
    4        4.745604   1.000000
    5        7.502165   0.000000
    6        9.289364   0.000000
    7        9.289364   0.000000
    8       13.713717   0.000000
 
 -0.3750000E+00  0.3750000E+00  0.3750000E+00  0.9375000E-01
    1       -3.207051   1.000000
    2       -0.808926   1.000000
    3        1.838964   1.000000
    4        3.946089   1.000000
    5        7.679706   0.000000
    6       11.303563   0.000000
    7       11.322115   0.000000
    8       12.802537   0.000000
