       N       E                     dE             d eps       ncg     rms          rms(c)
DAV:   1    -0.101761092996E+02   -0.10176E+02   -0.49708E-05    32   0.544E-02    0.170E-03
DAV:   2    -0.101761098013E+02   -0.50166E-06   -0.20389E-06    32   0.121E-02
   1 F= -.10176110E+02 E0= -.10175263E+02  d E =-.101761E+02
