unknown system                          
   1.00000000000000     
     0.000000    2.715000    2.715000
     2.715000    0.000000    2.715000
     2.715000    2.715000    0.000000
   Si
     2
Direct
  0.500000  0.500000  0.500000
  0.750000  0.750000  0.750000
 
   24   24   24
 0.86459     0.90218      1.0199      1.2320      1.5594      2.0250      2.6443      3.4128      4.2908      5.1934    
  5.9939      6.5509      6.7510      6.5509      5.9939      5.1934      4.2909      3.4128      2.6443      2.0250    
  1.5594      1.2320      1.0199     0.90218     0.90218     0.96339      1.0934      1.3061      1.6180      2.0428    
  2.5834      3.2212      3.9078      4.5622      5.0826      5.3725      5.3725      5.0826      4.5622      3.9079    
  3.2213      2.5834      2.0428      1.6179      1.3060      1.0934     0.96341     0.90220      1.0199      1.0934    
  1.2257      1.4286      1.7136      2.0861      2.5389      3.0460      3.5582      4.0063      4.3153      4.4259    
  4.3153      4.0064      3.5582      3.0460      2.5389      2.0860      1.7136      1.4286      1.2257      1.0934    
  1.0199     0.99647      1.2320      1.3061      1.4286      1.6092      1.8542      2.1629      2.5227      2.9052    
  3.2661      3.5513      3.7095      3.7095      3.5513      3.2661      2.9051      2.5226      2.1629      1.8542    
  1.6092      1.4287      1.3061      1.2320      1.1975      1.1975      1.5594      1.6180      1.7136      1.8542    
  2.0431      2.2762      2.5389      2.8049      3.0379      3.1986      3.2560      3.1985      3.0378      2.8049    
  2.5389      2.2762      2.0431      1.8542      1.7136      1.6180      1.5594      1.5290      1.5197      1.5290    
  2.0250      2.0428      2.0861      2.1629      2.2762      2.4210      2.5834      2.7414      2.8683      2.9393    
  2.9393      2.8683      2.7414      2.5834      2.4210      2.2763      2.1629      2.0860      2.0428      2.0250    
  2.0218      2.0232      2.0231      2.0218      2.6443      2.5834      2.5389      2.5227      2.5389      2.5834    
  2.6443      2.7053      2.7502      2.7666      2.7502      2.7054      2.6443      2.5834      2.5389      2.5227    
  2.5389      2.5834      2.6443      2.7053      2.7501      2.7666      2.7502      2.7054      3.4128      3.2212    
  3.0460      2.9052      2.8049      2.7414      2.7053      2.6869      2.6793      2.6793      2.6869      2.7054    
  2.7414      2.8049      2.9051      3.0460      3.2213      3.4128      3.5939      3.7354      3.8131      3.8131    
  3.7355      3.5939      4.2908      3.9078      3.5582      3.2661      3.0379      2.8683      2.7502      2.6793    
  2.6555      2.6793      2.7501      2.8683      3.0378      3.2661      3.5582      3.9078      4.2909      4.6662    
  4.9835      5.1958      5.2704      5.1958      4.9834      4.6661      5.1934      4.5622      4.0063      3.5513    
  3.1986      2.9393      2.7666      2.6793      2.6793      2.7665      2.9393      3.1986      3.5513      4.0063    
  4.5622      5.1934      5.8449      6.4391      6.8932      7.1392      7.1392      6.8932      6.4392      5.8449    
  5.9939      5.0826      4.3153      3.7095      3.2560      2.9393      2.7502      2.6869      2.7501      2.9393    
  3.2561      3.7095      4.3153      5.0826      5.9939      6.9889      7.9641      8.7913      9.3469      9.5428    
  9.3469      8.7913      7.9642      6.9889      6.5509      5.3725      4.4259      3.7095      3.1985      2.8683    
  2.7054      2.7054      2.8683      3.1986      3.7095      4.4258      5.3725      6.5509      7.9112      9.3384    
  10.662      11.689      12.251      12.251      11.689      10.662      9.3384      7.9112      6.7510      5.3725    
  4.3153      3.5513      3.0378      2.7414      2.6443      2.7414      3.0378      3.5513      4.3153      5.3725    
  6.7510      8.4293      10.305      12.189      13.823      14.941      15.338      14.941      13.823      12.189    
  10.305      8.4293      6.5509      5.0826      4.0064      3.2661      2.8049      2.5834      2.5834      2.8049    
  3.2661      4.0063      5.0826      6.5509      8.4293      10.655      13.053      15.337      17.132      18.109    
  18.109      17.133      15.337      13.053      10.655      8.4293      5.9939      4.5622      3.5582      2.9051    
  2.5389      2.4210      2.5389      2.9051      3.5582      4.5622      5.9939      7.9112      10.305      13.053    
  15.886      18.357      20.007      20.582      20.007      18.357      15.886      13.053      10.305      7.9111    
  5.1934      3.9079      3.0460      2.5226      2.2762      2.2763      2.5227      3.0460      3.9078      5.1934    
  6.9889      9.3384      12.189      15.337      18.357      20.678      21.920      21.920      20.678      18.357    
  15.337      12.189      9.3384      6.9888      4.2909      3.2213      2.5389      2.1629      2.0431      2.1629    
  2.5389      3.2213      4.2909      5.8449      7.9641      10.662      13.823      17.132      20.007      21.920    
  22.586      21.920      20.007      17.132      13.823      10.662      7.9641      5.8449      3.4128      2.5834    
  2.0860      1.8542      1.8542      2.0860      2.5834      3.4128      4.6662      6.4391      8.7913      11.689    
  14.941      18.109      20.582      21.920      21.920      20.582      18.109      14.940      11.689      8.7913    
  6.4391      4.6661      2.6443      2.0428      1.7136      1.6092      1.7136      2.0428      2.6443      3.5939    
  4.9835      6.8932      9.3469      12.251      15.338      18.109      20.007      20.678      20.007      18.109    
  15.338      12.251      9.3470      6.8932      4.9834      3.5939      2.0250      1.6179      1.4286      1.4287    
  1.6180      2.0250      2.7053      3.7354      5.1958      7.1392      9.5428      12.251      14.941      17.133    
  18.357      18.357      17.132      14.940      12.251      9.5429      7.1393      5.1958      3.7354      2.7054    
  1.5594      1.3060      1.2257      1.3061      1.5594      2.0218      2.7501      3.8131      5.2704      7.1392    
  9.3469      11.689      13.823      15.337      15.886      15.337      13.823      11.689      9.3470      7.1393    
  5.2704      3.8130      2.7501      2.0218      1.2320      1.0934      1.0934      1.2320      1.5290      2.0232    
  2.7666      3.8131      5.1958      6.8932      8.7913      10.662      12.189      13.053      13.053      12.189    
  10.662      8.7913      6.8932      5.1958      3.8130      2.7665      2.0231      1.5290      1.0199     0.96341    
  1.0199      1.1975      1.5197      2.0231      2.7502      3.7355      4.9834      6.4392      7.9642      9.3384    
  10.305      10.655      10.305      9.3384      7.9641      6.4391      4.9834      3.7354      2.7501      2.0231    
  1.5198      1.1975     0.90218     0.90220     0.99647      1.1975      1.5290      2.0218      2.7054      3.5939    
  4.6661      5.8449      6.9889      7.9112      8.4293      8.4293      7.9111      6.9888      5.8449      4.6661    
  3.5939      2.7054      2.0218      1.5290      1.1975     0.99644     0.90218     0.96338      1.0934      1.3061    
  1.6180      2.0428      2.5834      3.2212      3.9078      4.5622      5.0826      5.3725      5.3725      5.0826    
  4.5622      3.9078      3.2213      2.5834      2.0428      1.6179      1.3061      1.0934     0.96341     0.90220    
 0.96338      1.0321      1.1567      1.3498      1.6233      1.9826      2.4210      2.9122      3.4081      3.8413    
  4.1396      4.2462      4.1396      3.8414      3.4082      2.9123      2.4210      1.9826      1.6232      1.3498    
  1.1567      1.0321     0.96340     0.94160      1.0934      1.1567      1.2644      1.4272      1.6524      1.9395    
  2.2762      2.6348      2.9730      3.2397      3.3875      3.3875      3.2398      2.9731      2.6349      2.2762    
  1.9395      1.6523      1.4272      1.2644      1.1567      1.0934      1.0647      1.0647      1.3061      1.3498    
  1.4272      1.5472      1.7141      1.9239      2.1629      2.4060      2.6191      2.7662      2.8188      2.7662    
  2.6191      2.4059      2.1629      1.9239      1.7140      1.5472      1.4272      1.3498      1.3061      1.2854    
  1.2796      1.2854      1.6180      1.6233      1.6524      1.7141      1.8113      1.9395      2.0861      2.2303    
  2.3471      2.4128      2.4128      2.3471      2.2303      2.0860      1.9395      1.8112      1.7141      1.6524    
  1.6233      1.6180      1.6245      1.6313      1.6313      1.6245      2.0428      1.9826      1.9395      1.9239    
  1.9395      1.9826      2.0428      2.1046      2.1508      2.1679      2.1508      2.1046      2.0428      1.9826    
  1.9395      1.9240      1.9395      1.9826      2.0428      2.1046      2.1508      2.1679      2.1507      2.1046    
  2.5834      2.4210      2.2762      2.1629      2.0861      2.0428      2.0250      2.0218      2.0231      2.0232    
  2.0218      2.0250      2.0428      2.0860      2.1629      2.2762      2.4210      2.5834      2.7414      2.8683    
  2.9393      2.9393      2.8684      2.7414      3.2212      2.9122      2.6348      2.4060      2.2303      2.1046    
  2.0218      1.9751      1.9601      1.9752      2.0218      2.1045      2.2303      2.4059      2.6349      2.9123    
  3.2213      3.5310      3.8000      3.9844      4.0501      3.9844      3.8001      3.5310      3.9078      3.4081    
  2.9730      2.6191      2.3471      2.1508      2.0231      1.9601      1.9601      2.0231      2.1507      2.3470    
  2.6191      2.9731      3.4082      3.9078      4.4339      4.9264      5.3130      5.5266      5.5266      5.3130    
  4.9265      4.4339      4.5622      3.8413      3.2397      2.7662      2.4128      2.1679      2.0232      1.9752    
  2.0231      2.1678      2.4127      2.7661      3.2398      3.8415      4.5622      5.3636      6.1697      6.8733    
  7.3576      7.5307      7.3576      6.8733      6.1697      5.3636      5.0826      4.1396      3.3875      2.8188    
  2.4128      2.1508      2.0218      2.0218      2.1507      2.4127      2.8187      3.3876      4.1398      5.0827    
  6.1899      7.3819      8.5209      9.4296      9.9370      9.9370      9.4296      8.5210      7.3820      6.1900    
  5.3725      4.2462      3.3875      2.7662      2.3471      2.1046      2.0250      2.1045      2.3470      2.7661    
  3.3876      4.2464      5.3726      6.7658      8.3635      10.017      11.495      12.530      12.904      12.530    
  11.495      10.017      8.3636      6.7659      5.3725      4.1396      3.2398      2.6191      2.2303      2.0428    
  2.0428      2.2303      2.6191      3.2398      4.1398      5.3726      6.9730      8.9165      11.076      13.196    
  14.925      15.903      15.903      14.925      13.196      11.076      8.9166      6.9731      5.0826      3.8414    
  2.9731      2.4059      2.0860      1.9826      2.0860      2.4059      2.9731      3.8415      5.0827      6.7658    
  8.9165      11.460      14.165      16.640      18.401      19.042      18.401      16.640      14.165      11.460    
  8.9166      6.7658      4.5622      3.4082      2.6349      2.1629      1.9395      1.9395      2.1629      2.6349    
  3.4082      4.5622      6.1899      8.3635      11.076      14.165      17.266      19.834      21.298      21.298    
  19.834      17.266      14.165      11.076      8.3635      6.1899      3.9078      2.9123      2.2762      1.9239    
  1.8112      1.9240      2.2762      2.9123      3.9078      5.3636      7.3819      10.017      13.196      16.640    
  19.834      22.120      22.950      22.120      19.834      16.640      13.196      10.017      7.3820      5.3636    
  3.2213      2.4210      1.9395      1.7140      1.7141      1.9395      2.4210      3.2213      4.4339      6.1697    
  8.5209      11.495      14.925      18.401      21.298      22.950      22.950      21.298      18.401      14.925    
  11.495      8.5210      6.1698      4.4339      2.5834      1.9826      1.6523      1.5472      1.6524      1.9826    
  2.5834      3.5310      4.9264      6.8733      9.4296      12.530      15.903      19.042      21.298      22.120    
  21.298      19.042      15.903      12.530      9.4295      6.8734      4.9266      3.5311      2.0428      1.6232    
  1.4272      1.4272      1.6233      2.0428      2.7414      3.8000      5.3130      7.3576      9.9370      12.904    
  15.903      18.401      19.834      19.834      18.401      15.903      12.904      9.9369      7.3577      5.3131    
  3.8001      2.7415      1.6179      1.3498      1.2644      1.3498      1.6180      2.1046      2.8683      3.9844    
  5.5266      7.5307      9.9370      12.530      14.925      16.640      17.266      16.640      14.925      12.530    
  9.9369      7.5308      5.5268      3.9845      2.8683      2.1045      1.3061      1.1567      1.1567      1.3061    
  1.6245      2.1508      2.9393      4.0501      5.5266      7.3576      9.4296      11.495      13.196      14.165    
  14.165      13.196      11.495      9.4295      7.3577      5.5268      4.0502      2.9393      2.1507      1.6244    
  1.0934      1.0321      1.0934      1.2854      1.6313      2.1679      2.9393      3.9844      5.3130      6.8733    
  8.5210      10.017      11.076      11.460      11.076      10.017      8.5210      6.8734      5.3131      3.9845    
  2.9393      2.1678      1.6313      1.2854     0.96341     0.96340      1.0647      1.2796      1.6313      2.1507    
  2.8684      3.8001      4.9265      6.1697      7.3820      8.3636      8.9166      8.9166      8.3635      7.3820    
  6.1698      4.9266      3.8001      2.8683      2.1507      1.6313      1.2796      1.0647     0.90220     0.94160    
  1.0647      1.2854      1.6245      2.1046      2.7414      3.5310      4.4339      5.3636      6.1900      6.7659    
  6.9731      6.7658      6.1899      5.3636      4.4339      3.5311      2.7415      2.1045      1.6244      1.2854    
  1.0647     0.94164      1.0199      1.0934      1.2257      1.4286      1.7136      2.0861      2.5389      3.0460    
  3.5582      4.0063      4.3153      4.4258      4.3153      4.0063      3.5582      3.0460      2.5389      2.0861    
  1.7136      1.4286      1.2257      1.0934      1.0199     0.99646      1.0934      1.1567      1.2644      1.4272    
  1.6524      1.9395      2.2762      2.6348      2.9730      3.2397      3.3874      3.3875      3.2397      2.9731    
  2.6349      2.2762      1.9395      1.6524      1.4272      1.2644      1.1567      1.0934      1.0647      1.0647    
  1.2257      1.2644      1.3356      1.4488      1.6085      1.8113      2.0431      2.2793      2.4863      2.6291    
  2.6802      2.6291      2.4864      2.2793      2.0431      1.8113      1.6085      1.4487      1.3356      1.2644    
  1.2257      1.2083      1.2036      1.2083      1.4286      1.4272      1.4488      1.5028      1.5927      1.7141    
  1.8542      1.9928      2.1051      2.1682      2.1682      2.1051      1.9927      1.8542      1.7140      1.5926    
  1.5028      1.4488      1.4272      1.4286      1.4402      1.4498      1.4498      1.4402      1.7136      1.6524    
  1.6085      1.5927      1.6085      1.6524      1.7136      1.7764      1.8234      1.8408      1.8234      1.7764    
  1.7136      1.6524      1.6085      1.5927      1.6085      1.6524      1.7136      1.7764      1.8234      1.8408    
  1.8234      1.7764      2.0861      1.9395      1.8113      1.7141      1.6524      1.6233      1.6180      1.6245    
  1.6313      1.6313      1.6245      1.6180      1.6233      1.6524      1.7141      1.8113      1.9395      2.0861    
  2.2303      2.3471      2.4128      2.4128      2.3471      2.2303      2.5389      2.2762      2.0431      1.8542    
  1.7136      1.6180      1.5594      1.5290      1.5197      1.5290      1.5594      1.6180      1.7136      1.8542    
  2.0431      2.2762      2.5389      2.8049      3.0378      3.1985      3.2560      3.1986      3.0379      2.8049    
  3.0460      2.6348      2.2793      1.9928      1.7764      1.6245      1.5290      1.4832      1.4832      1.5290    
  1.6245      1.7764      1.9928      2.2792      2.6348      3.0460      3.4820      3.8932      4.2183      4.3989    
  4.3989      4.2184      3.8933      3.4820      3.5582      2.9730      2.4863      2.1051      1.8234      1.6313    
  1.5197      1.4832      1.5198      1.6313      1.8234      2.1051      2.4863      2.9730      3.5582      4.2119    
  4.8740      5.4564      5.8599      6.0046      5.8599      5.4564      4.8740      4.2119      4.0063      3.2397    
  2.6291      2.1682      1.8408      1.6313      1.5290      1.5290      1.6313      1.8408      2.1682      2.6291    
  3.2397      4.0063      4.9098      5.8891      6.8325      7.5909      8.0167      8.0166      7.5909      6.8324    
  5.8890      4.9098      4.3153      3.3874      2.6802      2.1682      1.8234      1.6245      1.5594      1.6245    
  1.8234      2.1682      2.6802      3.3875      4.3153      5.4668      6.7964      8.1850      9.4373      10.321    
  10.640      10.321      9.4373      8.1849      6.7964      5.4669      4.4258      3.3875      2.6291      2.1051    
  1.7764      1.6180      1.6180      1.7764      2.1051      2.6291      3.3875      4.4259      5.7779      7.4318    
  9.2878      11.129      12.643      13.504      13.504      12.643      11.129      9.2877      7.4319      5.7780    
  4.3153      3.2397      2.4864      1.9927      1.7136      1.6233      1.7136      1.9928      2.4863      3.2397    
  4.3153      5.7779      7.6610      9.9120      12.335      14.572      16.175      16.760      16.175      14.572    
  12.335      9.9120      7.6611      5.7779      4.0063      2.9731      2.2793      1.8542      1.6524      1.6524    
  1.8542      2.2792      2.9730      4.0063      5.4668      7.4318      9.9120      12.773      15.677      18.101    
  19.495      19.495      18.101      15.676      12.773      9.9120      7.4319      5.4668      3.5582      2.6349    
  2.0431      1.7140      1.6085      1.7141      2.0431      2.6348      3.5582      4.9098      6.7964      9.2878    
  12.335      15.677      18.807      21.071      21.902      21.071      18.807      15.676      12.335      9.2878    
  6.7964      4.9098      3.0460      2.2762      1.8113      1.5926      1.5927      1.8113      2.2762      3.0460    
  4.2119      5.8891      8.1850      11.129      14.572      18.101      21.071      22.785      22.785      21.071    
  18.101      14.572      11.129      8.1850      5.8891      4.2119      2.5389      1.9395      1.6085      1.5028    
  1.6085      1.9395      2.5389      3.4820      4.8740      6.8325      9.4373      12.643      16.175      19.495    
  21.902      22.785      21.902      19.495      16.175      12.643      9.4374      6.8325      4.8740      3.4820    
  2.0861      1.6524      1.4487      1.4488      1.6524      2.0861      2.8049      3.8932      5.4564      7.5909    
  10.321      13.504      16.760      19.495      21.071      21.071      19.495      16.760      13.504      10.321    
  7.5909      5.4564      3.8932      2.8049      1.7136      1.4272      1.3356      1.4272      1.7136      2.2303    
  3.0378      4.2183      5.8599      8.0167      10.640      13.504      16.175      18.101      18.807      18.101    
  16.175      13.504      10.640      8.0166      5.8599      4.2183      3.0378      2.2304      1.4286      1.2644    
  1.2644      1.4286      1.7764      2.3471      3.1985      4.3989      6.0046      8.0166      10.321      12.643    
  14.572      15.676      15.676      14.572      12.643      10.321      8.0166      6.0047      4.3989      3.1985    
  2.3471      1.7764      1.2257      1.1567      1.2257      1.4402      1.8234      2.4128      3.2560      4.3989    
  5.8599      7.5909      9.4373      11.129      12.335      12.773      12.335      11.129      9.4374      7.5909    
  5.8599      4.3989      3.2561      2.4128      1.8234      1.4402      1.0934      1.0934      1.2083      1.4498    
  1.8408      2.4128      3.1986      4.2184      5.4564      6.8324      8.1849      9.2877      9.9120      9.9120    
  9.2878      8.1850      6.8325      5.4564      4.2183      3.1985      2.4128      1.8408      1.4498      1.2083    
  1.0199      1.0647      1.2036      1.4498      1.8234      2.3471      3.0379      3.8933      4.8740      5.8890    
  6.7964      7.4319      7.6611      7.4319      6.7964      5.8891      4.8740      3.8932      3.0378      2.3471    
  1.8234      1.4498      1.2036      1.0647     0.99646      1.0647      1.2083      1.4402      1.7764      2.2303    
  2.8049      3.4820      4.2119      4.9098      5.4669      5.7780      5.7779      5.4668      4.9098      4.2119    
  3.4820      2.8049      2.2304      1.7764      1.4402      1.2083      1.0647     0.99647      1.2320      1.3061    
  1.4286      1.6092      1.8542      2.1629      2.5227      2.9052      3.2661      3.5513      3.7095      3.7095    
  3.5513      3.2661      2.9051      2.5226      2.1629      1.8543      1.6092      1.4287      1.3061      1.2319    
  1.1975      1.1975      1.3061      1.3498      1.4272      1.5472      1.7141      1.9240      2.1629      2.4060    
  2.6191      2.7661      2.8187      2.7661      2.6191      2.4060      2.1629      1.9239      1.7141      1.5473    
  1.4272      1.3498      1.3060      1.2854      1.2795      1.2854      1.4286      1.4272      1.4488      1.5028    
  1.5927      1.7141      1.8542      1.9928      2.1050      2.1682      2.1682      2.1051      1.9928      1.8542    
  1.7141      1.5927      1.5028      1.4487      1.4272      1.4286      1.4402      1.4498      1.4498      1.4402    
  1.6092      1.5472      1.5028      1.4867      1.5028      1.5472      1.6092      1.6726      1.7199      1.7374    
  1.7199      1.6725      1.6091      1.5472      1.5028      1.4867      1.5028      1.5472      1.6091      1.6725    
  1.7199      1.7374      1.7199      1.6726      1.8542      1.7141      1.5927      1.5028      1.4488      1.4272    
  1.4286      1.4402      1.4498      1.4498      1.4402      1.4286      1.4272      1.4487      1.5028      1.5927    
  1.7141      1.8542      1.9928      2.1051      2.1682      2.1682      2.1050      1.9928      2.1629      1.9240    
  1.7141      1.5472      1.4272      1.3498      1.3061      1.2854      1.2795      1.2854      1.3060      1.3498    
  1.4272      1.5473      1.7141      1.9239      2.1629      2.4060      2.6191      2.7661      2.8187      2.7661    
  2.6191      2.4060      2.5227      2.1629      1.8542      1.6092      1.4286      1.3061      1.2320      1.1975    
  1.1975      1.2319      1.3061      1.4287      1.6092      1.8543      2.1629      2.5226      2.9051      3.2661    
  3.5513      3.7095      3.7095      3.5513      3.2661      2.9052      2.9052      2.4060      1.9928      1.6726    
  1.4402      1.2854      1.1975      1.1691      1.1975      1.2854      1.4403      1.6726      1.9928      2.4059    
  2.9051      3.4633      4.0282      4.5242      4.8673      4.9903      4.8673      4.5242      4.0283      3.4634    
  3.2661      2.6191      2.1050      1.7199      1.4498      1.2795      1.1975      1.1975      1.2796      1.4498    
  1.7200      2.1051      2.6191      3.2660      4.0281      4.8526      5.6449      6.2804      6.6366      6.6366    
  6.2803      5.6448      4.8526      4.0283      3.5513      2.7661      2.1682      1.7374      1.4498      1.2854    
  1.2319      1.2854      1.4498      1.7375      2.1682      2.7661      3.5511      4.5241      5.6448      6.8122    
  7.8626      8.6020      8.8694      8.6019      7.8624      6.8120      5.6448      4.5242      3.7095      2.8187    
  2.1682      1.7199      1.4402      1.3060      1.3061      1.4403      1.7200      2.1682      2.8187      3.7094    
  4.8672      6.2803      7.8626      9.4294      10.715      11.446      11.446      10.715      9.4292      7.8624    
  6.2803      4.8673      3.7095      2.7661      2.1051      1.6725      1.4286      1.3498      1.4287      1.6726    
  2.1051      2.7661      3.7094      4.9902      6.6365      8.6020      10.715      12.665      14.061      14.570    
  14.061      12.665      10.715      8.6019      6.6366      4.9903      3.5513      2.6191      1.9928      1.6091    
  1.4272      1.4272      1.6092      1.9928      2.6191      3.5511      4.8672      6.6365      8.8695      11.446    
  14.061      16.245      17.500      17.500      16.245      14.061      11.446      8.8694      6.6366      4.8673    
  3.2661      2.4060      1.8542      1.5472      1.4487      1.5473      1.8543      2.4059      3.2660      4.5241    
  6.2803      8.6020      11.446      14.570      17.500      19.621      20.399      19.621      17.500      14.570    
  11.446      8.6020      6.2804      4.5242      2.9051      2.1629      1.7141      1.5028      1.5028      1.7141    
  2.1629      2.9051      4.0281      5.6448      7.8626      10.715      14.061      17.500      20.399      22.073    
  22.073      20.399      17.500      14.061      10.715      7.8626      5.6449      4.0282      2.5226      1.9239    
  1.5927      1.4867      1.5927      1.9239      2.5226      3.4633      4.8526      6.8122      9.4294      12.665    
  16.245      19.621      22.073      22.974      22.073      19.621      16.245      12.665      9.4294      6.8122    
  4.8526      3.4633      2.1629      1.7141      1.5028      1.5028      1.7141      2.1629      2.9051      4.0282    
  5.6449      7.8626      10.715      14.061      17.500      20.399      22.073      22.073      20.399      17.500    
  14.061      10.715      7.8626      5.6448      4.0281      2.9051      1.8543      1.5473      1.4487      1.5472    
  1.8542      2.4060      3.2661      4.5242      6.2804      8.6020      11.446      14.570      17.500      19.621    
  20.399      19.621      17.500      14.570      11.446      8.6020      6.2803      4.5241      3.2660      2.4059    
  1.6092      1.4272      1.4272      1.6091      1.9928      2.6191      3.5513      4.8673      6.6366      8.8694    
  11.446      14.061      16.245      17.500      17.500      16.245      14.061      11.446      8.8695      6.6365    
  4.8672      3.5511      2.6191      1.9928      1.4287      1.3498      1.4286      1.6725      2.1051      2.7661    
  3.7095      4.9903      6.6366      8.6019      10.715      12.665      14.061      14.570      14.061      12.665    
  10.715      8.6020      6.6365      4.9902      3.7094      2.7661      2.1051      1.6726      1.3061      1.3060    
  1.4402      1.7199      2.1682      2.8187      3.7095      4.8673      6.2803      7.8624      9.4292      10.715    
  11.446      11.446      10.715      9.4294      7.8626      6.2803      4.8672      3.7094      2.8187      2.1682    
  1.7200      1.4403      1.2319      1.2854      1.4498      1.7374      2.1682      2.7661      3.5513      4.5242    
  5.6448      6.8120      7.8624      8.6019      8.8694      8.6020      7.8626      6.8122      5.6448      4.5241    
  3.5511      2.7661      2.1682      1.7375      1.4498      1.2854      1.1975      1.2795      1.4498      1.7199    
  2.1050      2.6191      3.2661      4.0283      4.8526      5.6448      6.2803      6.6366      6.6366      6.2804    
  5.6449      4.8526      4.0281      3.2660      2.6191      2.1051      1.7200      1.4498      1.2796      1.1975    
  1.1975      1.2854      1.4402      1.6726      1.9928      2.4060      2.9052      3.4634      4.0283      4.5242    
  4.8673      4.9903      4.8673      4.5242      4.0282      3.4633      2.9051      2.4059      1.9928      1.6726    
  1.4403      1.2854      1.1975      1.1691      1.5594      1.6180      1.7136      1.8542      2.0431      2.2762    
  2.5389      2.8049      3.0379      3.1986      3.2560      3.1985      3.0378      2.8049      2.5389      2.2762    
  2.0431      1.8542      1.7136      1.6180      1.5594      1.5290      1.5197      1.5290      1.6180      1.6233    
  1.6524      1.7141      1.8113      1.9395      2.0861      2.2303      2.3471      2.4128      2.4128      2.3471    
  2.2303      2.0861      1.9395      1.8113      1.7141      1.6524      1.6233      1.6180      1.6245      1.6313    
  1.6313      1.6245      1.7136      1.6524      1.6085      1.5927      1.6085      1.6524      1.7136      1.7764    
  1.8234      1.8408      1.8234      1.7764      1.7136      1.6524      1.6085      1.5927      1.6085      1.6524    
  1.7136      1.7764      1.8234      1.8408      1.8234      1.7764      1.8542      1.7141      1.5927      1.5028    
  1.4488      1.4272      1.4286      1.4402      1.4498      1.4498      1.4402      1.4286      1.4272      1.4488    
  1.5028      1.5926      1.7140      1.8542      1.9927      2.1051      2.1682      2.1682      2.1051      1.9928    
  2.0431      1.8113      1.6085      1.4488      1.3356      1.2644      1.2257      1.2083      1.2036      1.2083    
  1.2257      1.2644      1.3356      1.4487      1.6085      1.8113      2.0431      2.2793      2.4864      2.6291    
  2.6802      2.6291      2.4863      2.2793      2.2762      1.9395      1.6524      1.4272      1.2644      1.1567    
  1.0934      1.0647      1.0647      1.0934      1.1567      1.2644      1.4272      1.6524      1.9395      2.2762    
  2.6349      2.9731      3.2397      3.3875      3.3874      3.2397      2.9730      2.6348      2.5389      2.0861    