unknown system                          
   1.00000000000000     
     0.000000    2.715000    2.715000
     2.715000    0.000000    2.715000
     2.715000    2.715000    0.000000
   Si
     2
Direct
  0.500000  0.500000  0.500000
  0.750000  0.750000  0.750000
 
   24   24   24
 0.86458762183E+00 0.90218498969E+00 0.10199157066E+01 0.12319703633E+01 0.15594090803E+01
 0.20249945929E+01 0.26442929450E+01 0.34127708406E+01 0.42908479228E+01 0.51933849388E+01
 0.59939130047E+01 0.65508826437E+01 0.67510258118E+01 0.65508665389E+01 0.59938959642E+01
 0.51933807947E+01 0.42908581640E+01 0.34127889988E+01 0.26443120807E+01 0.20250087646E+01
 0.15594143113E+01 0.12319679048E+01 0.10199110781E+01 0.90218232045E+00 0.90218498969E+00
 0.96338527569E+00 0.10934201204E+01 0.13060737606E+01 0.16179601642E+01 0.20428335646E+01
 0.25833900312E+01 0.32212238791E+01 0.39077684703E+01 0.45621574800E+01 0.50826097935E+01
 0.53725291278E+01 0.53725239044E+01 0.50826173317E+01 0.45622106150E+01 0.39078539839E+01
 0.32212879563E+01 0.25833940563E+01 0.20427872617E+01 0.16179036971E+01 0.13060424749E+01
 0.10934239562E+01 0.96340727009E+00 0.90219693842E+00 0.10199157066E+01 0.10934201204E+01
 0.12256708636E+01 0.14286198930E+01 0.17136166342E+01 0.20860663855E+01 0.25389207581E+01
 0.30460328801E+01 0.35581847835E+01 0.40063230325E+01 0.43153143822E+01 0.44258622028E+01
 0.43153317398E+01 0.40063536600E+01 0.35582127069E+01 0.30460388011E+01 0.25389024005E+01
 0.20860392169E+01 0.17135938561E+01 0.14286034040E+01 0.12256607855E+01 0.10934184839E+01
 0.10199187897E+01 0.99646532647E+00 0.12319703633E+01 0.13060737606E+01 0.14286198930E+01
 0.16091573979E+01 0.18542048164E+01 0.21629380568E+01 0.25226750409E+01 0.29051644296E+01
 0.32661377618E+01 0.35512804748E+01 0.37095254860E+01 0.37095376939E+01 0.35512977115E+01
 0.32661211356E+01 0.29050984437E+01 0.25225933867E+01 0.21628977772E+01 0.18542296637E+01
 0.16092148741E+01 0.14286586191E+01 0.13060734856E+01 0.12319500089E+01 0.11974932336E+01
 0.11975042596E+01 0.15594090803E+01 0.16179601642E+01 0.17136166342E+01 0.18542048164E+01
 0.20431264767E+01 0.22762110498E+01 0.25389272009E+01 0.28049153906E+01 0.30378690227E+01
 0.31985526055E+01 0.32560403086E+01 0.31985290026E+01 0.30378354600E+01 0.28048853752E+01
 0.25389084464E+01 0.22762098709E+01 0.20431447656E+01 0.18542327887E+01 0.17136403409E+01
 0.16179765147E+01 0.15594233669E+01 0.15290048405E+01 0.15197352200E+01 0.15289939042E+01
 0.20249945929E+01 0.20428335646E+01 0.20860663855E+01 0.21629380568E+01 0.22762110498E+01
 0.24209603498E+01 0.25833844648E+01 0.27414314632E+01 0.28683468831E+01 0.29393244663E+01
 0.29393045748E+01 0.28683111911E+01 0.27414245201E+01 0.25834252523E+01 0.24210289472E+01
 0.22762673251E+01 0.21629477140E+01 0.20860271679E+01 0.20427855614E+01 0.20249856959E+01
 0.20217833749E+01 0.20231585204E+01 0.20231381933E+01 0.20217532084E+01 0.26442929450E+01
 0.25833900312E+01 0.25389207581E+01 0.25226750409E+01 0.25389272009E+01 0.25833844648E+01
 0.26442750668E+01 0.27053460566E+01 0.27501552285E+01 0.27665720737E+01 0.27501546696E+01
 0.27053672561E+01 0.26443156298E+01 0.25834125363E+01 0.25389281534E+01 0.25226647720E+01
 0.25389087459E+01 0.25833669097E+01 0.26442601827E+01 0.27053335900E+01 0.27501483544E+01
 0.27665724983E+01 0.27501553785E+01 0.27053570841E+01 0.34127708406E+01 0.32212238791E+01
 0.30460328801E+01 0.29051644296E+01 0.28049153906E+01 0.27414314632E+01 0.27053460566E+01
 0.26869146785E+01 0.26792890009E+01 0.26792871905E+01 0.26869266794E+01 0.27053773931E+01
 0.27414344180E+01 0.28048545684E+01 0.29050849143E+01 0.30460052048E+01 0.32212505502E+01
 0.34127989975E+01 0.35939148323E+01 0.37354415221E+01 0.38130519905E+01 0.38130575982E+01
 0.37354533022E+01 0.35939139308E+01 0.42908479228E+01 0.39077684703E+01 0.35581847835E+01
 0.32661377618E+01 0.30378690227E+01 0.28683468831E+01 0.27501552285E+01 0.26792890009E+01
 0.26554847352E+01 0.26792624146E+01 0.27501359693E+01 0.28683359034E+01 0.30378371249E+01
 0.32660945007E+01 0.35581736480E+01 0.39077924280E+01 0.42908687198E+01 0.46661562319E+01
 0.49834594066E+01 0.51957846933E+01 0.52704156737E+01 0.51957514288E+01 0.49834333390E+01
 0.46661458572E+01 0.51933849388E+01 0.45621574800E+01 0.40063230325E+01 0.35512804748E+01
 0.31985526055E+01 0.29393244663E+01 0.27665720737E+01 0.26792871905E+01 0.26792624146E+01
 0.27665292046E+01 0.29393051164E+01 0.31985510984E+01 0.35512833427E+01 0.40063496653E+01
 0.45622112058E+01 0.51934191073E+01 0.58449199718E+01 0.64391275188E+01 0.68932447041E+01
 0.71392307236E+01 0.71392206788E+01 0.68932408171E+01 0.64391519099E+01 0.58449342478E+01
 0.59939130047E+01 0.50826097935E+01 0.43153143822E+01 0.37095254860E+01 0.32560403086E+01
 0.29393045748E+01 0.27501546696E+01 0.26869266794E+01 0.27501359693E+01 0.29393051164E+01
 0.32560648968E+01 0.37095403701E+01 0.43153140626E+01 0.50826231283E+01 0.59939387243E+01
 0.69889252890E+01 0.79641478719E+01 0.87912842378E+01 0.93469297619E+01 0.95427883459E+01
 0.93469373147E+01 0.87913124939E+01 0.79641788596E+01 0.69889243109E+01 0.65508826437E+01
 0.53725291278E+01 0.44258622028E+01 0.37095376939E+01 0.31985290026E+01 0.28683111911E+01
 0.27053672561E+01 0.27053773931E+01 0.28683359034E+01 0.31985510984E+01 0.37095403701E+01
 0.44258487851E+01 0.53725141827E+01 0.65508620611E+01 0.79111661203E+01 0.93383764710E+01
 0.10661853119E+02 0.11688776094E+02 0.12251157884E+02 0.12251130889E+02 0.11688733359E+02
 0.10661852932E+02 0.93384181983E+01 0.79112065057E+01 0.67510258118E+01 0.53725239044E+01
 0.43153317398E+01 0.35512977115E+01 0.30378354600E+01 0.27414245201E+01 0.26443156298E+01
 0.27414344180E+01 0.30378371249E+01 0.35512833427E+01 0.43153140626E+01 0.53725141827E+01
 0.67510184295E+01 0.84292873767E+01 0.10305422726E+02 0.12188607475E+02 0.13822622327E+02
 0.14940574106E+02 0.15337776958E+02 0.14940568795E+02 0.13822619333E+02 0.12188614745E+02
 0.10305438503E+02 0.84293011146E+01 0.65508665389E+01 0.50826173317E+01 0.40063536600E+01
 0.32661211356E+01 0.28048853752E+01 0.25834252523E+01 0.25834125363E+01 0.28048545684E+01
 0.32660945007E+01 0.40063496653E+01 0.50826231283E+01 0.65508620611E+01 0.84292873767E+01
 0.10655056712E+02 0.13053300050E+02 0.15336751119E+02 0.17132463337E+02 0.18108789703E+02
 0.18108847174E+02 0.17132558023E+02 0.15336764038E+02 0.13053232387E+02 0.10654998909E+02
 0.84292786674E+01 0.59938959642E+01 0.45622106150E+01 0.35582127069E+01 0.29050984437E+01
 0.25389084464E+01 0.24210289472E+01 0.25389281534E+01 0.29050849143E+01 0.35581736480E+01
 0.45622112058E+01 0.59939387243E+01 0.79111661203E+01 0.10305422726E+02 0.13053300050E+02
 0.15885676116E+02 0.18356606609E+02 0.20006809160E+02 0.20581551370E+02 0.20006826187E+02
 0.18356592518E+02 0.15885636484E+02 0.13053287913E+02 0.10305432774E+02 0.79111447276E+01
 0.51933807947E+01 0.39078539839E+01 0.30460388011E+01 0.25225933867E+01 0.22762098709E+01
 0.22762673251E+01 0.25226647720E+01 0.30460052048E+01 0.39077924280E+01 0.51934191073E+01
 0.69889252890E+01 0.93383764710E+01 0.12188607475E+02 0.15336751119E+02 0.18356606609E+02
 0.20678179840E+02 0.21920035837E+02 0.21919993509E+02 0.20678084604E+02 0.18356550128E+02
 0.15336808753E+02 0.12188717624E+02 0.93383956461E+01 0.69888431817E+01 0.42908581640E+01
 0.32212879563E+01 0.25389024005E+01 0.21628977772E+01 0.20431447656E+01 0.21629477140E+01
 0.25389087459E+01 0.32212505502E+01 0.42908687198E+01 0.58449199718E+01 0.79641478719E+01
 0.10661853119E+02 0.13822622327E+02 0.17132463337E+02 0.20006809160E+02 0.21920035837E+02
 0.22585841638E+02 0.21920105385E+02 0.20006841136E+02 0.17132443684E+02 0.13822639305E+02
 0.10661907385E+02 0.79641469649E+01 0.58448655407E+01 0.34127889988E+01 0.25833940563E+01
 0.20860392169E+01 0.18542296637E+01 0.18542327887E+01 0.20860271679E+01 0.25833669097E+01
 0.34127989975E+01 0.46661562319E+01 0.64391275188E+01 0.87912842378E+01 0.11688776094E+02
 0.14940574106E+02 0.18108789703E+02 0.20581551370E+02 0.21919993509E+02 0.21920105385E+02
 0.20581722360E+02 0.18108790072E+02 0.14940450382E+02 0.11688719799E+02 0.87913158288E+01
 0.64391310571E+01 0.46661148912E+01 0.26443120807E+01 0.20427872617E+01 0.17135938561E+01
 0.16092148741E+01 0.17136403409E+01 0.20427855614E+01 0.26442601827E+01 0.35939148323E+01
 0.49834594066E+01 0.68932447041E+01 0.93469297619E+01 0.12251157884E+02 0.15337776958E+02
 0.18108847174E+02 0.20006826187E+02 0.20678084604E+02 0.20006841136E+02 0.18108790072E+02
 0.15337664235E+02 0.12251104987E+02 0.93469506358E+01 0.68932432784E+01 0.49834225050E+01
 0.35939243964E+01 0.20250087646E+01 0.16179036971E+01 0.14286034040E+01 0.14286586191E+01
 0.16179765147E+01 0.20249856959E+01 0.27053335900E+01 0.37354415221E+01 0.51957846933E+01
 0.71392307236E+01 0.95427883459E+01 0.12251130889E+02 0.14940568795E+02 0.17132558023E+02
 0.18356592518E+02 0.18356550128E+02 0.17132443684E+02 0.14940450382E+02 0.12251104987E+02
 0.95428500005E+01 0.71392661350E+01 0.51957531340E+01 0.37354364062E+01 0.27053950245E+01
 0.15594143113E+01 0.13060424749E+01 0.12256607855E+01 0.13060734856E+01 0.15594233669E+01
 0.20217833749E+01 0.27501483544E+01 0.38130519905E+01 0.52704156737E+01 0.71392206788E+01
 0.93469373147E+01 0.11688733359E+02 0.13822619333E+02 0.15336764038E+02 0.15885636484E+02
 0.15336808753E+02 0.13822639305E+02 0.11688719799E+02 0.93469506358E+01 0.71392661350E+01
 0.52704313063E+01 0.38130272701E+01 0.27501381981E+01 0.20217972958E+01 0.12319679048E+01
 0.10934239562E+01 0.10934184839E+01 0.12319500089E+01 0.15290048405E+01 0.20231585204E+01
 0.27665724983E+01 0.38130575982E+01 0.51957514288E+01 0.68932408171E+01 0.87913124939E+01
 0.10661852932E+02 0.12188614745E+02 0.13053232387E+02 0.13053287913E+02 0.12188717624E+02
 0.10661907385E+02 0.87913158288E+01 0.68932432784E+01 0.51957531340E+01 0.38130272701E+01
 0.27665260190E+01 0.20231411004E+01 0.15290205180E+01 0.10199110781E+01 0.96340727009E+00
 0.10199187897E+01 0.11974932336E+01 0.15197352200E+01 0.20231381933E+01 0.27501553785E+01
 0.37354533022E+01 0.49834333390E+01 0.64391519099E+01 0.79641788596E+01 0.93384181983E+01
 0.10305438503E+02 0.10654998909E+02 0.10305432774E+02 0.93383956461E+01 0.79641469649E+01
 0.64391310571E+01 0.49834225050E+01 0.37354364062E+01 0.27501381981E+01 0.20231411004E+01
 0.15197524225E+01 0.11974988056E+01 0.90218232045E+00 0.90219693842E+00 0.99646532647E+00
 0.11975042596E+01 0.15289939042E+01 0.20217532084E+01 0.27053570841E+01 0.35939139308E+01
 0.46661458572E+01 0.58449342478E+01 0.69889243109E+01 0.79112065057E+01 0.84293011146E+01
 0.84292786674E+01 0.79111447276E+01 0.69888431817E+01 0.58448655407E+01 0.46661148912E+01
 0.35939243964E+01 0.27053950245E+01 0.20217972958E+01 0.15290205180E+01 0.11974988056E+01
 0.99643931034E+00 0.90217997613E+00 0.96338031527E+00 0.10934190686E+01 0.13060737033E+01
 0.16179583393E+01 0.20428338535E+01 0.25833966949E+01 0.32212347928E+01 0.39077800126E+01
 0.45621692991E+01 0.50826186128E+01 0.53725250098E+01 0.53725004608E+01 0.50825810219E+01
 0.45621744164E+01 0.39078272566E+01 0.32212767411E+01 0.25834028745E+01 0.20428128076E+01
 0.16179326802E+01 0.13060630569E+01 0.10934351693E+01 0.96341286437E+00 0.90219707521E+00
 0.96338031527E+00 0.10320504671E+01 0.11567077202E+01 0.13498365276E+01 0.16232584128E+01
 0.19826336050E+01 0.24209606102E+01 0.29122426489E+01 0.34080748343E+01 0.38413078129E+01
 0.41395782246E+01 0.42461818682E+01 0.41395794649E+01 0.38413553037E+01 0.34081728947E+01
 0.29123246744E+01 0.24209654726E+01 0.19825752471E+01 0.16231981298E+01 0.13498139542E+01
 0.11567195448E+01 0.10320747456E+01 0.96339779689E+00 0.94159656636E+00 0.10934190686E+01
 0.11567077202E+01 0.12644186344E+01 0.14271941525E+01 0.16523688156E+01 0.19395241258E+01
 0.22762037187E+01 0.26348425958E+01 0.29730457612E+01 0.32397167832E+01 0.33874680048E+01
 0.33874783061E+01 0.32397505816E+01 0.29730956309E+01 0.26348776928E+01 0.22761970267E+01
 0.19394841912E+01 0.16523271501E+01 0.14271700671E+01 0.12644111478E+01 0.11567108436E+01
 0.10934271482E+01 0.10647004403E+01 0.10646960326E+01 0.13060737033E+01 0.13498365276E+01
 0.14271941525E+01 0.15472166674E+01 0.17140537840E+01 0.19239496236E+01 0.21629382403E+01
 0.24059746736E+01 0.26191180672E+01 0.27661553242E+01 0.28187666475E+01 0.27661700580E+01
 0.26191252728E+01 0.24059482521E+01 0.21628783248E+01 0.19238926165E+01 0.17140391312E+01
 0.15472445761E+01 0.14272289005E+01 0.13498489519E+01 0.13060657436E+01 0.12853972746E+01
 0.12795600316E+01 0.12854074538E+01 0.16179583393E+01 0.16232584128E+01 0.16523688156E+01
 0.17140537840E+01 0.18112678419E+01 0.19395297103E+01 0.20860711085E+01 0.22303459911E+01
 0.23471390664E+01 0.24127854158E+01 0.24127816197E+01 0.23471299108E+01 0.22303305181E+01
 0.20860424575E+01 0.19394930955E+01 0.18112485268E+01 0.17140713816E+01 0.16524120539E+01
 0.16232986103E+01 0.16179801493E+01 0.16244911562E+01 0.16313010958E+01 0.16312995446E+01
 0.16244835899E+01 0.20428338535E+01 0.19826336050E+01 0.19395241258E+01 0.19239496236E+01
 0.19395297103E+01 0.19826337881E+01 0.20428285757E+01 0.21045671125E+01 0.21507545875E+01
 0.21678715649E+01 0.21507578007E+01 0.21045782778E+01 0.20428430238E+01 0.19826421509E+01
 0.19395354963E+01 0.19239629901E+01 0.19395411350E+01 0.19826424388E+01 0.20428378941E+01
 0.21045786040E+01 0.21507635135E+01 0.21678716697E+01 0.21507490771E+01 0.21045669678E+01
 0.25833966949E+01 0.24209606102E+01 0.22762037187E+01 0.21629382403E+01 0.20860711085E+01
 0.20428285757E+01 0.20249838647E+01 0.20217532305E+01 0.20231491655E+01 0.20231693879E+01
 0.20217981081E+01 0.20250146691E+01 0.20428168219E+01 0.20860361391E+01 0.21629311949E+01
 0.22762410482E+01 0.24209987259E+01 0.25833890955E+01 0.27413955101E+01 0.28683070632E+01
 0.29393188263E+01 0.29393359398E+01 0.28683525223E+01 0.27414422622E+01 0.32212347928E+01
 0.29122426489E+01 0.26348425958E+01 0.24059746736E+01 0.22303459911E+01 0.21045671125E+01
 0.20217532305E+01 0.19751387934E+01 0.19601444753E+01 0.19751726799E+01 0.20217761397E+01
 0.21045304290E+01 0.22302581039E+01 0.24059110847E+01 0.26348666983E+01 0.29123249956E+01
 0.32212839775E+01 0.35310118533E+01 0.37999948298E+01 0.39843613642E+01 0.40501258724E+01
 0.39844201089E+01 0.38000734154E+01 0.35310443783E+01 0.39077800126E+01 0.34080748343E+01
 0.29730457612E+01 0.26191180672E+01 0.23471390664E+01 0.21507545875E+01 0.20231491655E+01
 0.19601444753E+01 0.19601405756E+01 0.20231216887E+01 0.21506826635E+01 0.23470449107E+01
 0.26190694314E+01 0.29730881830E+01 0.34081696107E+01 0.39078402581E+01 0.44339052524E+01
 0.49264445970E+01 0.53130083396E+01 0.55265985372E+01 0.55266030118E+01 0.53130327943E+01
 0.49264867454E+01 0.44339167029E+01 0.45621692991E+01 0.38413078129E+01 0.32397167832E+01
 0.27661553242E+01 0.24127854158E+01 0.21678715649E+01 0.20231693879E+01 0.19751726799E+01
 0.20231216887E+01 0.21677715820E+01 0.24126782173E+01 0.27661319681E+01 0.32398179563E+01
 0.38414566452E+01 0.45622427451E+01 0.53635597037E+01 0.61696667083E+01 0.68732668315E+01
 0.73576193993E+01 0.75307470944E+01 0.73576024602E+01 0.68732883226E+01 0.61697364015E+01
 0.53635969334E+01 0.50826186128E+01 0.41395782246E+01 0.33874680048E+01 0.28187666475E+01
 0.24127816197E+01 0.21507578007E+01 0.20217981081E+01 0.20217761397E+01 0.21506826635E+01
 0.24126782173E+01 0.28187341240E+01 0.33875788211E+01 0.41397607131E+01 0.50827162781E+01
 0.61899029871E+01 0.73819171669E+01 0.85209281750E+01 0.94295776145E+01 0.99369645863E+01
 0.99369561505E+01 0.94295871731E+01 0.85210080602E+01 0.73820414005E+01 0.61899570472E+01
 0.53725250098E+01 0.42461818682E+01 0.33874783061E+01 0.27661700580E+01 0.23471299108E+01
 0.21045782778E+01 0.20250146691E+01 0.21045304290E+01 0.23470449107E+01 0.27661319681E+01
 0.33875788211E+01 0.42463676394E+01 0.53726210352E+01 0.67658463997E+01 0.83634638115E+01
 0.10016943824E+02 0.11495022789E+02 0.12530279026E+02 0.12903725530E+02 0.12530268757E+02
 0.11495048559E+02 0.10017056662E+02 0.83636297818E+01 0.67659282260E+01 0.53725004608E+01
 0.41395794649E+01 0.32397505816E+01 0.26191252728E+01 0.22303305181E+01 0.20428430238E+01
 0.20428168219E+01 0.22302581039E+01 0.26190694314E+01 0.32398179563E+01 0.41397607131E+01
 0.53726210352E+01 0.69730101351E+01 0.89164774132E+01 0.11075697040E+02 0.13196387863E+02
 0.14924849778E+02 0.15903281675E+02 0.15903280908E+02 0.14924841327E+02 0.13196402051E+02
 0.11075802826E+02 0.89166449266E+01 0.69730774056E+01 0.50825810219E+01 0.38413553037E+01
 0.29730956309E+01 0.24059482521E+01 0.20860424575E+01 0.19826421509E+01 0.20860361391E+01
 0.24059110847E+01 0.29730881830E+01 0.38414566452E+01 0.50827162781E+01 0.67658463997E+01
 0.89164774132E+01 0.11459589235E+02 0.14165477611E+02 0.16639927491E+02 0.18401164556E+02
 0.19041822045E+02 0.18401176297E+02 0.16639901244E+02 0.14165455473E+02 0.11459658543E+02
 0.89165816429E+01 0.67658329990E+01 0.45621744164E+01 0.34081728947E+01 0.26348776928E+01
 0.21628783248E+01 0.19394930955E+01 0.19395354963E+01 0.21629311949E+01 0.26348666983E+01
 0.34081696107E+01 0.45622427451E+01 0.61899029871E+01 0.83634638115E+01 0.11075697040E+02
 0.14165477611E+02 0.17265679323E+02 0.19833555346E+02 0.21298104983E+02 0.21298120492E+02
 0.19833544622E+02 0.17265603422E+02 0.14165432478E+02 0.11075747815E+02 0.83635095425E+01
 0.61898523291E+01 0.39078272566E+01 0.29123246744E+01 0.22761970267E+01 0.19238926165E+01
 0.18112485268E+01 0.19239629901E+01 0.22762410482E+01 0.29123249956E+01 0.39078402581E+01
 0.53635597037E+01 0.73819171669E+01 0.10016943824E+02 0.13196387863E+02 0.16639927491E+02
 0.19833555346E+02 0.22119824412E+02 0.22950004160E+02 0.22119905690E+02 0.19833547005E+02
 0.16639804876E+02 0.13196321911E+02 0.10017007025E+02 0.73819888391E+01 0.53635598834E+01
 0.32212767411E+01 0.24209654726E+01 0.19394841912E+01 0.17140391312E+01 0.17140713816E+01
 0.19395411350E+01 0.24209987259E+01 0.32212839775E+01 0.44339052524E+01 0.61696667083E+01
 0.85209281750E+01 0.11495022789E+02 0.14924849778E+02 0.18401164556E+02 0.21298104983E+02
 0.22950004160E+02 0.22950132378E+02 0.21298285708E+02 0.18401113393E+02 0.14924637879E+02
 0.11494930701E+02 0.85210250397E+01 0.61697898571E+01 0.44339490004E+01 0.25834028745E+01
 0.19825752471E+01 0.16523271501E+01 0.15472445761E+01 0.16524120539E+01 0.19826424388E+01
 0.25833890955E+01 0.35310118533E+01 0.49264445970E+01 0.68732668315E+01 0.94295776145E+01
 0.12530279026E+02 0.15903281675E+02 0.19041822045E+02 0.21298120492E+02 0.22119905690E+02
 0.21298285708E+02 0.19041869201E+02 0.15903085972E+02 0.12530046409E+02 0.94295266079E+01
 0.68733737595E+01 0.49265735457E+01 0.35310949631E+01 0.20428128076E+01 0.16231981298E+01
 0.14271700671E+01 0.14272289005E+01 0.16232986103E+01 0.20428378941E+01 0.27413955101E+01
 0.37999948298E+01 0.53130083396E+01 0.73576193993E+01 0.99369645863E+01 0.12903725530E+02
 0.15903280908E+02 0.18401176297E+02 0.19833544622E+02 0.19833547005E+02 0.18401113393E+02
 0.15903085972E+02 0.12903502060E+02 0.99368725968E+01 0.73576785801E+01 0.53131266500E+01
 0.38001059548E+01 0.27414622350E+01 0.16179326802E+01 0.13498139542E+01 0.12644111478E+01
 0.13498489519E+01 0.16179801493E+01 0.21045786040E+01 0.28683070632E+01 0.39843613642E+01
 0.55265985372E+01 0.75307470944E+01 0.99369561505E+01 0.12530268757E+02 0.14924841327E+02
 0.16639901244E+02 0.17265603422E+02 0.16639804876E+02 0.14924637879E+02 0.12530046409E+02
 0.99368725968E+01 0.75308485087E+01 0.55267635303E+01 0.39844558760E+01 0.28683112149E+01
 0.21045400585E+01 0.13060630569E+01 0.11567195448E+01 0.11567108436E+01 0.13060657436E+01
 0.16244911562E+01 0.21507635135E+01 0.29393188263E+01 0.40501258724E+01 0.55266030118E+01
 0.73576024602E+01 0.94295871731E+01 0.11495048559E+02 0.13196402051E+02 0.14165455473E+02
 0.14165432478E+02 0.13196321911E+02 0.11494930701E+02 0.94295266079E+01 0.73576785801E+01
 0.55267635303E+01 0.40502308410E+01 0.29392979093E+01 0.21506770879E+01 0.16244346832E+01
 0.10934351693E+01 0.10320747456E+01 0.10934271482E+01 0.12853972746E+01 0.16313010958E+01
 0.21678716697E+01 0.29393359398E+01 0.39844201089E+01 0.53130327943E+01 0.68732883226E+01
 0.85210080602E+01 0.10017056662E+02 0.11075802826E+02 0.11459658543E+02 0.11075747815E+02
 0.10017007025E+02 0.85210250397E+01 0.68733737595E+01 0.53131266500E+01 0.39844558760E+01
 0.29392979093E+01 0.21678007494E+01 0.16312504879E+01 0.12853861986E+01 0.96341286437E+00
 0.96339779689E+00 0.10647004403E+01 0.12795600316E+01 0.16312995446E+01 0.21507490771E+01
 0.28683525223E+01 0.38000734154E+01 0.49264867454E+01 0.61697364015E+01 0.73820414005E+01
 0.83636297818E+01 0.89166449266E+01 0.89165816429E+01 0.83635095425E+01 0.73819888391E+01
 0.61697898571E+01 0.49265735457E+01 0.38001059548E+01 0.28683112149E+01 0.21506770879E+01
 0.16312504879E+01 0.12795571558E+01 0.10647258074E+01 0.90219707521E+00 0.94159656636E+00
 0.10646960326E+01 0.12854074538E+01 0.16244835899E+01 0.21045669678E+01 0.27414422622E+01
 0.35310443783E+01 0.44339167029E+01 0.53635969334E+01 0.61899570472E+01 0.67659282260E+01
 0.69730774056E+01 0.67658329990E+01 0.61898523291E+01 0.53635598834E+01 0.44339490004E+01
 0.35310949631E+01 0.27414622350E+01 0.21045400585E+01 0.16244346832E+01 0.12853861986E+01
 0.10647258074E+01 0.94163954250E+00 0.10199038954E+01 0.10934124451E+01 0.12256712219E+01
 0.14286218143E+01 0.17136159978E+01 0.20860697717E+01 0.25389326987E+01 0.30460461600E+01
 0.35581911658E+01 0.40063216777E+01 0.43153023871E+01 0.44258308195E+01 0.43152823017E+01
 0.40063058166E+01 0.35581870642E+01 0.30460405394E+01 0.25389274115E+01 0.20860824543E+01
 0.17136431648E+01 0.14286391433E+01 0.12256731881E+01 0.10934161791E+01 0.10199129097E+01
 0.99645658564E+00 0.10934124451E+01 0.11567051375E+01 0.12644200769E+01 0.14271960983E+01
 0.16523699570E+01 0.19395271558E+01 0.22762089117E+01 0.26348449315E+01 0.29730406748E+01
 0.32397037455E+01 0.33874473309E+01 0.33874511853E+01 0.32397247269E+01 0.29730841583E+01
 0.26348881782E+01 0.22762253319E+01 0.19395202267E+01 0.16523613519E+01 0.14271935998E+01
 0.12644177415E+01 0.11567026287E+01 0.10934136874E+01 0.10646890633E+01 0.10646872950E+01
 0.12256712219E+01 0.12644200769E+01 0.13355732493E+01 0.14487501137E+01 0.16085054260E+01
 0.18112640579E+01 0.20431209965E+01 0.22792502636E+01 0.24863276906E+01 0.26291004744E+01
 0.26801620537E+01 0.26291158702E+01 0.24863548032E+01 0.22792764257E+01 0.20431322265E+01
 0.18112592170E+01 0.16084928220E+01 0.14487330600E+01 0.13355515335E+01 0.12644016039E+01
 0.12256659782E+01 0.12082902992E+01 0.12035899876E+01 0.12082865267E+01 0.14286218143E+01
 0.14271960983E+01 0.14487501137E+01 0.15027687260E+01 0.15926544439E+01 0.17140559139E+01
 0.18542071421E+01 0.19927598896E+01 0.21050619901E+01 0.21681997763E+01 0.21682004352E+01
 0.21050585028E+01 0.19927420315E+01 0.18541743264E+01 0.17140245045E+01 0.15926433845E+01
 0.15027772170E+01 0.14487591439E+01 0.14271938457E+01 0.14286155131E+01 0.14402312073E+01
 0.14497969231E+01 0.14497957199E+01 0.14402322674E+01 0.17136159978E+01 0.16523699570E+01
 0.16085054260E+01 0.15926544439E+01 0.16085103531E+01 0.16523754521E+01 0.17136223925E+01
 0.17764320691E+01 0.18234180147E+01 0.18408239683E+01 0.18233975314E+01 0.17764030833E+01
 0.17135948360E+01 0.16523530427E+01 0.16084990261E+01 0.15926619300E+01 0.16085297513E+01
 0.16523984969E+01 0.17136386567E+01 0.17764365399E+01 0.18234150928E+01 0.18408234427E+01
 0.18234064233E+01 0.17764210759E+01 0.20860697717E+01 0.19395271558E+01 0.18112640579E+01
 0.17140559139E+01 0.16523754521E+01 0.16232614711E+01 0.16179580973E+01 0.16244857542E+01
 0.16312995565E+01 0.16312877692E+01 0.16244649131E+01 0.16179529620E+01 0.16232781905E+01
 0.16524007910E+01 0.17140768429E+01 0.18112772256E+01 0.19395348285E+01 0.20860768690E+01
 0.22303487642E+01 0.23471364379E+01 0.24127785572E+01 0.24127716661E+01 0.23471220660E+01
 0.22303370821E+01 0.25389326987E+01 0.22762089117E+01 0.20431209965E+01 0.18542071421E+01
 0.17136223925E+01 0.16179580973E+01 0.15594034531E+01 0.15289958989E+01 0.15197405523E+01
 0.15290023728E+01 0.15594174820E+01 0.16179784790E+01 0.17136458966E+01 0.18542307585E+01
 0.20431394360E+01 0.22762123796E+01 0.25389144076E+01 0.28048835174E+01 0.30378300337E+01
 0.31985311763E+01 0.32560457860E+01 0.31985502388E+01 0.30378631880E+01 0.28049173509E+01
 0.30460461600E+01 0.26348449315E+01 0.22792502636E+01 0.19927598896E+01 0.17764320691E+01
 0.16244857542E+01 0.15289958989E+01 0.14831597603E+01 0.14831704548E+01 0.15290180593E+01
 0.16245012965E+01 0.17764333848E+01 0.19927526626E+01 0.22792433745E+01 0.26348419894E+01
 0.30460415616E+01 0.34819620758E+01 0.38932115378E+01 0.42183127218E+01 0.43988908404E+01
 0.43989124877E+01 0.42183605102E+01 0.38932531157E+01 0.34819815916E+01 0.35581911658E+01
 0.29730406748E+01 0.24863276906E+01 0.21050619901E+01 0.18234180147E+01 0.16312995565E+01
 0.15197405523E+01 0.14831704548E+01 0.15197526755E+01 0.16313007536E+01 0.18234036119E+01
 0.21050501924E+01 0.24863225041E+01 0.29730280219E+01 0.35581738653E+01 0.42118843808E+01
 0.48740304596E+01 0.54563818794E+01 0.58598635679E+01 0.60046270658E+01 0.58598592262E+01
 0.54563651463E+01 0.48740117575E+01 0.42118849749E+01 0.40063216777E+01 0.32397037455E+01
 0.26291004744E+01 0.21681997763E+01 0.18408239683E+01 0.16312877692E+01 0.15290023728E+01
 0.15290180593E+01 0.16313007536E+01 0.18407992946E+01 0.21681734029E+01 0.26291160910E+01
 0.32397333357E+01 0.40063188187E+01 0.49098171033E+01 0.58890637952E+01 0.68324918246E+01
 0.75909024287E+01 0.80166555578E+01 0.80166374485E+01 0.75908500768E+01 0.68324307502E+01
 0.58890392927E+01 0.49098318634E+01 0.43153023871E+01 0.33874473309E+01 0.26801620537E+01
 0.21682004352E+01 0.18233975314E+01 0.16244649131E+01 0.15594174820E+01 0.16245012965E+01
 0.18234036119E+01 0.21681734029E+01 0.26801680178E+01 0.33874924921E+01 0.43153228422E+01
 0.54668464412E+01 0.67964238854E+01 0.81849692185E+01 0.94373203625E+01 0.10320533231E+02
 0.10640330740E+02 0.10320550574E+02 0.94373060937E+01 0.81849303974E+01 0.67964153503E+01
 0.54668606242E+01 0.44258308195E+01 0.33874511853E+01 0.26291158702E+01 0.21050585028E+01
 0.17764030833E+01 0.16179529620E+01 0.16179784790E+01 0.17764333848E+01 0.21050501924E+01
 0.26291160910E+01 0.33874924921E+01 0.44258501311E+01 0.57779156566E+01 0.74318421976E+01
 0.92877563452E+01 0.11129161389E+02 0.12642520604E+02 0.13503762975E+02 0.13503810521E+02
 0.12642586608E+02 0.11129155096E+02 0.92877277511E+01 0.74318696551E+01 0.57779556371E+01
 0.43152823017E+01 0.32397247269E+01 0.24863548032E+01 0.19927420315E+01 0.17135948360E+01
 0.16232781905E+01 0.17136458966E+01 0.19927526626E+01 0.24863225041E+01 0.32397333357E+01
 0.43153228422E+01 0.57779156566E+01 0.76609935597E+01 0.99119991329E+01 0.12334636691E+02
 0.14571750827E+02 0.16174908816E+02 0.16760077596E+02 0.16174951974E+02 0.14571744480E+02
 0.12334586437E+02 0.99120064051E+01 0.76610588350E+01 0.57779344533E+01 0.40063058166E+01
 0.29730841583E+01 0.22792764257E+01 0.18541743264E+01 0.16523530427E+01 0.16524007910E+01
 0.18542307585E+01 0.22792433745E+01 0.29730280219E+01 0.40063188187E+01 0.54668464412E+01
 0.74318421976E+01 0.99119991329E+01 0.12773265786E+02 0.15676519082E+02 0.18101484010E+02
 0.19494897433E+02 0.19494901814E+02 0.18101450770E+02 0.15676422709E+02 0.12773197318E+02
 0.99120189619E+01 0.74318696505E+01 0.54668169451E+01 0.35581870642E+01 0.26348881782E+01
 0.20431322265E+01 0.17140245045E+01 0.16084990261E+01 0.17140768429E+01 0.20431394360E+01
 0.26348419894E+01 0.35581738653E+01 0.49098171033E+01 0.67964238854E+01 0.92877563452E+01
 0.12334636691E+02 0.15676519082E+02 0.18806827064E+02 0.21071232155E+02 0.21901573150E+02
 0.21071236015E+02 0.18806752994E+02 0.15676391197E+02 0.12334577375E+02 0.92877825911E+01
 0.67964360315E+01 0.49097928062E+01 0.30460405394E+01 0.22762253319E+01 0.18112592170E+01
 0.15926433845E+01 0.15926619300E+01 0.18112772256E+01 0.22762123796E+01 0.30460415616E+01
 0.42118843808E+01 0.58890637952E+01 0.81849692185E+01 0.11129161389E+02 0.14571750827E+02
 0.18101484010E+02 0.21071232155E+02 0.22784937636E+02 0.22784966068E+02 0.21071247998E+02
 0.18101417056E+02 0.14571677912E+02 0.11129178049E+02 0.81850259589E+01 0.58890655444E+01
 0.42118511627E+01 0.25389274115E+01 0.19395202267E+01 0.16084928220E+01 0.15027772170E+01
 0.16085297513E+01 0.19395348285E+01 0.25389144076E+01 0.34819620758E+01 0.48740304596E+01
 0.68324918246E+01 0.94373203625E+01 0.12642520604E+02 0.16174908816E+02 0.19494897433E+02
 0.21901573150E+02 0.22784966068E+02 0.21901618094E+02 0.19494918982E+02 0.16174897506E+02
 0.12642533743E+02 0.94373615302E+01 0.68325020001E+01 0.48740035662E+01 0.34819528758E+01
 0.20860824543E+01 0.16523613519E+01 0.14487330600E+01 0.14487591439E+01 0.16523984969E+01
 0.20860768690E+01 0.28048835174E+01 0.38932115378E+01 0.54563818794E+01 0.75909024287E+01
 0.10320533231E+02 0.13503762975E+02 0.16760077596E+02 0.19494901814E+02 0.21071236015E+02
 0.21071247998E+02 0.19494918982E+02 0.16760078610E+02 0.13503757935E+02 0.10320531401E+02
 0.75908895022E+01 0.54563606350E+01 0.38932148931E+01 0.28049127970E+01 0.17136431648E+01
 0.14271935998E+01 0.13355515335E+01 0.14271938457E+01 0.17136386567E+01 0.22303487642E+01
 0.30378300337E+01 0.42183127218E+01 0.58598635679E+01 0.80166555578E+01 0.10640330740E+02
 0.13503810521E+02 0.16174951974E+02 0.18101450770E+02 0.18806752994E+02 0.18101417056E+02
 0.16174897506E+02 0.13503757935E+02 0.10640298725E+02 0.80166454168E+01 0.58598643393E+01
 0.42183172906E+01 0.30378382366E+01 0.22303579931E+01 0.14286391433E+01 0.12644177415E+01
 0.12644016039E+01 0.14286155131E+01 0.17764365399E+01 0.23471364379E+01 0.31985311763E+01
 0.43988908404E+01 0.60046270658E+01 0.80166374485E+01 0.10320550574E+02 0.12642586608E+02
 0.14571744480E+02 0.15676422709E+02 0.15676391197E+02 0.14571677912E+02 0.12642533743E+02
 0.10320531401E+02 0.80166454168E+01 0.60046514969E+01 0.43989141350E+01 0.31985317696E+01