<?xml version="1.0" encoding="ISO-8859-1"?>
<modeling>
 <generator>
  <i name="program" type="string">vasp </i>
  <i name="version" type="string">5.4.4.18Apr17-6-g9f103f2a35  </i>
  <i name="subversion" type="string">(build Dec 09 2018 21:25:21) complex            parallel </i>
  <i name="platform" type="string">IFC18.0.1.163_CrayMPICH7.7.0_MKL18.0.1.163 </i>
  <i name="date" type="string">2019 03 19 </i>
  <i name="time" type="string">13:26:33 </i>
 </generator>
 <incar>
  <i type="string" name="PREC">normal</i>
  <i type="int" name="IBRION">     2</i>
  <i name="EDIFF">      0.00040000</i>
  <i name="EDIFFG">     -0.01000000</i>
  <i type="int" name="NSW">    15</i>
  <i type="int" name="ISIF">     2</i>
  <i name="ENCUT">    150.00000000</i>
  <i type="int" name="NBANDS">     8</i>
  <i type="logical" name="LREAL"> F  </i>
  <i type="int" name="ISMEAR">     0</i>
  <i name="SIGMA">      0.20000000</i>
  <v type="int" name="KPOINT_BSE">    -1     0     0     0</v>
 </incar>
 <structure name="primitive_cell" >
  <crystal>
   <varray name="basis" >
    <v>       0.00000000       2.71500000       2.71500000 </v>
    <v>       2.71500000       0.00000000       2.71500000 </v>
    <v>       2.71500000       2.71500000       0.00000000 </v>
   </varray>
   <i name="volume">     40.02575175 </i>
   <varray name="rec_basis" >
    <v>      -0.18416206       0.18416206       0.18416206 </v>
    <v>       0.18416206      -0.18416206       0.18416206 </v>
    <v>       0.18416206       0.18416206      -0.18416206 </v>
   </varray>
  </crystal>
  <varray name="positions" >
   <v>      -0.50000000      -0.50000000      -0.50000000 </v>
   <v>      -0.25000000      -0.25000000      -0.25000000 </v>
  </varray>
 </structure>
 <varray name="primitive_index" >
  <v type="int" >        1 </v>
  <v type="int" >        2 </v>
 </varray>
 <kpoints>
  <generation param="Monkhorst-Pack">
   <v type="int" name="divisions">       7        7        7 </v>
   <v name="usershift">      0.00000000       0.00000000       0.00000000 </v>
   <v name="genvec1">      0.14285714      -0.00000000       0.00000000 </v>
   <v name="genvec2">     -0.00000000       0.14285714      -0.00000000 </v>
   <v name="genvec3">      0.00000000       0.00000000       0.14285714 </v>
   <v name="shift">      0.00000000       0.00000000       0.00000000 </v>
  </generation>
  <varray name="kpointlist" >
   <v>       0.00000000       0.00000000       0.00000000 </v>
   <v>       0.14285714      -0.00000000      -0.00000000 </v>
   <v>       0.28571429      -0.00000000       0.00000000 </v>
   <v>       0.42857143      -0.00000000       0.00000000 </v>
   <v>       0.14285714       0.14285714       0.00000000 </v>
   <v>       0.28571429       0.14285714      -0.00000000 </v>
   <v>       0.42857143       0.14285714       0.00000000 </v>
   <v>      -0.42857143       0.14285714      -0.00000000 </v>
   <v>      -0.28571429       0.14285714      -0.00000000 </v>
   <v>      -0.14285714       0.14285714      -0.00000000 </v>
   <v>       0.28571429       0.28571429       0.00000000 </v>
   <v>       0.42857143       0.28571429      -0.00000000 </v>
   <v>      -0.42857143       0.28571429       0.00000000 </v>
   <v>      -0.28571429       0.28571429      -0.00000000 </v>
   <v>       0.42857143       0.42857143       0.00000000 </v>
   <v>      -0.42857143       0.42857143      -0.00000000 </v>
   <v>       0.42857143       0.28571429       0.14285714 </v>
   <v>      -0.42857143       0.28571429       0.14285714 </v>
   <v>      -0.42857143       0.42857143       0.14285714 </v>
   <v>      -0.28571429       0.42857143       0.14285714 </v>
  </varray>
  <varray name="weights" >
   <v>       0.00291545 </v>
   <v>       0.02332362 </v>
   <v>       0.02332362 </v>
   <v>       0.02332362 </v>
   <v>       0.01749271 </v>
   <v>       0.06997085 </v>
   <v>       0.06997085 </v>
   <v>       0.06997085 </v>
   <v>       0.06997085 </v>
   <v>       0.03498542 </v>
   <v>       0.01749271 </v>
   <v>       0.06997085 </v>
   <v>       0.06997085 </v>
   <v>       0.03498542 </v>
   <v>       0.01749271 </v>
   <v>       0.03498542 </v>
   <v>       0.06997085 </v>
   <v>       0.13994169 </v>
   <v>       0.06997085 </v>
   <v>       0.06997085 </v>
  </varray>
 </kpoints>
 <parameters>
  <separator name="general" >
   <i type="string" name="SYSTEM">unknown system</i>
   <i type="logical" name="LCOMPAT"> F  </i>
  </separator>
  <separator name="electronic" >
   <i type="string" name="PREC">normal</i>
   <i name="ENMAX">    150.00000000</i>
   <i name="ENAUG">    322.06900000</i>
   <i name="EDIFF">      0.00040000</i>
   <i type="int" name="IALGO">    38</i>
   <i type="int" name="IWAVPR">    11</i>
   <i type="int" name="NBANDS">     8</i>
   <i name="NELECT">      8.00000000</i>
   <i type="int" name="TURBO">     0</i>
   <i type="int" name="IRESTART">     0</i>
   <i type="int" name="NREBOOT">     0</i>
   <i type="int" name="NMIN">     0</i>
   <i name="EREF">      0.00000000</i>
   <separator name="electronic smearing" >
    <i type="int" name="ISMEAR">     0</i>
    <i name="SIGMA">      0.20000000</i>
    <i name="KSPACING">      0.50000000</i>
    <i type="logical" name="KGAMMA"> T  </i>
   </separator>
   <separator name="electronic projectors" >
    <i type="logical" name="LREAL"> F  </i>
    <v name="ROPT">      0.00000000</v>
    <i type="int" name="LMAXPAW">  -100</i>
    <i type="int" name="LMAXMIX">     2</i>
    <i type="logical" name="NLSPLINE"> F  </i>
   </separator>
   <separator name="electronic startup" >
    <i type="int" name="ISTART">     1</i>
    <i type="int" name="ICHARG">     0</i>
    <i type="int" name="INIWAV">     1</i>
   </separator>
   <separator name="electronic spin" >
    <i type="int" name="ISPIN">     1</i>
    <i type="logical" name="LNONCOLLINEAR"> F  </i>
    <v name="MAGMOM">      1.00000000      1.00000000</v>
    <i name="NUPDOWN">     -1.00000000</i>
    <i type="logical" name="LSORBIT"> F  </i>
    <v name="SAXIS">      0.00000000      0.00000000      1.00000000</v>
    <i type="logical" name="LSPIRAL"> F  </i>
    <v name="QSPIRAL">      0.00000000      0.00000000      0.00000000</v>
    <i type="logical" name="LZEROZ"> F  </i>
   </separator>
   <separator name="electronic exchange-correlation" >
    <i type="logical" name="LASPH"> F  </i>
    <i type="logical" name="LMETAGGA"> F  </i>
   </separator>
   <separator name="electronic convergence" >
    <i type="int" name="NELM">    60</i>
    <i type="int" name="NELMDL">     0</i>
    <i type="int" name="NELMIN">     2</i>
    <i name="ENINI">    150.00000000</i>
    <separator name="electronic convergence detail" >
     <i type="logical" name="LDIAG"> T  </i>
     <i type="logical" name="LSUBROT"> F  </i>
     <i name="WEIMIN">      0.00100000</i>
     <i name="EBREAK">      0.00001250</i>
     <i name="DEPER">      0.30000000</i>
     <i type="int" name="NRMM">     4</i>
     <i name="TIME">      0.40000000</i>
    </separator>
   </separator>
   <separator name="electronic mixer" >
    <i name="AMIX">      0.40000000</i>
    <i name="BMIX">      1.00000000</i>
    <i name="AMIN">      0.10000000</i>
    <i name="AMIX_MAG">      1.60000000</i>
    <i name="BMIX_MAG">      1.00000000</i>
    <separator name="electronic mixer details" >
     <i type="int" name="IMIX">     4</i>
     <i type="logical" name="MIXFIRST"> F  </i>
     <i type="int" name="MAXMIX">   -45</i>
     <i name="WC">    100.00000000</i>
     <i type="int" name="INIMIX">     1</i>
     <i type="int" name="MIXPRE">     1</i>
     <i type="int" name="MREMOVE">     5</i>
    </separator>
   </separator>
   <separator name="electronic dipolcorrection" >
    <i type="logical" name="LDIPOL"> F  </i>
    <i type="logical" name="LMONO"> F  </i>
    <i type="int" name="IDIPOL">     0</i>
    <i name="EPSILON">      1.00000000</i>
    <v name="DIPOL">   -100.00000000   -100.00000000   -100.00000000</v>
    <i name="EFIELD">      0.00000000</i>
   </separator>
  </separator>
  <separator name="grids" >
   <i type="int" name="NGX">    12</i>
   <i type="int" name="NGY">    12</i>
   <i type="int" name="NGZ">    12</i>
   <i type="int" name="NGXF">    24</i>
   <i type="int" name="NGYF">    24</i>
   <i type="int" name="NGZF">    24</i>
   <i type="logical" name="ADDGRID"> F  </i>
  </separator>
  <separator name="ionic" >
   <i type="int" name="NSW">    15</i>
   <i type="int" name="IBRION">     2</i>
   <i type="int" name="MDALGO">     0</i>
   <i type="int" name="ISIF">     2</i>
   <i name="PSTRESS">      0.00000000</i>
   <i name="EDIFFG">     -0.01000000</i>
   <i type="int" name="NFREE">     1</i>
   <i name="POTIM">      0.50000000</i>
   <i name="SMASS">     -3.00000000</i>
   <i name="SCALEE">      1.00000000</i>
  </separator>
  <separator name="ionic md" >
   <i name="TEBEG">      0.00010000</i>
   <i name="TEEND">      0.00010000</i>
   <i type="int" name="NBLOCK">     1</i>
   <i type="int" name="KBLOCK">    15</i>
   <i type="int" name="NPACO">   256</i>
   <i name="APACO">     16.00000000</i>
  </separator>
  <separator name="symmetry" >
   <i type="int" name="ISYM">     2</i>
   <i name="SYMPREC">      0.00001000</i>
  </separator>
  <separator name="dos" >
   <i type="int" name="LORBIT">     0</i>
   <v name="RWIGS">     -1.00000000</v>
   <i type="int" name="NEDOS">   301</i>
   <i name="EMIN">     10.00000000</i>
   <i name="EMAX">    -10.00000000</i>
   <i name="EFERMI">      0.00000000</i>
  </separator>
  <separator name="writing" >
   <i type="int" name="NWRITE">     2</i>
   <i type="logical" name="LWAVE"> T  </i>
   <i type="logical" name="LDOWNSAMPLE"> F  </i>
   <i type="logical" name="LCHARG"> T  </i>
   <i type="logical" name="LPARD"> F  </i>
   <i type="logical" name="LVTOT"> F  </i>
   <i type="logical" name="LVHAR"> F  </i>
   <i type="logical" name="LELF"> F  </i>
   <i type="logical" name="LOPTICS"> F  </i>
   <v name="STM">      0.00000000      0.00000000      0.00000000      0.00000000      0.00000000      0.00000000      0.00000000</v>
  </separator>
  <separator name="performance" >
   <i type="int" name="NPAR">     8</i>
   <i type="int" name="NSIM">     4</i>
   <i type="int" name="NBLK">    -1</i>
   <i type="logical" name="LPLANE"> T  </i>
   <i type="logical" name="LSCALAPACK"> T  </i>
   <i type="logical" name="LSCAAWARE"> F  </i>
   <i type="logical" name="LSCALU"> F  </i>
   <i type="logical" name="LASYNC"> F  </i>
   <i type="logical" name="LORBITALREAL"> F  </i>
  </separator>
  <separator name="miscellaneous" >
   <i type="int" name="IDIOT">     3</i>
   <i type="int" name="ISPECIAL">     0</i>
   <i type="logical" name="LMUSIC"> F  </i>
   <v name="POMASS">     28.08500000</v>
   <v name="DARWINR">      0.00000000</v>
   <v name="DARWINV">      1.00000000</v>
   <i type="logical" name="LCORR"> T  </i>
  </separator>
  <i type="logical" name="GGA_COMPAT"> T  </i>
  <i type="logical" name="LBERRY"> F  </i>
  <i type="int" name="ICORELEVEL">     0</i>
  <i type="logical" name="LDAU"> F  </i>
  <i type="int" name="I_CONSTRAINED_M">     0</i>
  <separator name="electronic exchange-correlation" >
   <i type="string" name="GGA">--</i>
   <i type="int" name="VOSKOWN">     0</i>
   <i type="logical" name="LHFCALC"> F  </i>
   <i type="string" name="PRECFOCK"></i>
   <i type="logical" name="LSYMGRAD"> F  </i>
   <i type="logical" name="LHFONE"> F  </i>
   <i type="logical" name="LRHFCALC"> F  </i>
   <i type="logical" name="LTHOMAS"> F  </i>
   <i type="logical" name="LMODELHF"> F  </i>
   <i name="ENCUT4O">     -1.00000000</i>
   <i type="int" name="EXXOEP">     0</i>
   <i type="int" name="FOURORBIT">     0</i>
   <i name="AEXX">      0.00000000</i>
   <i name="HFALPHA">      0.00000000</i>
   <i name="MCALPHA">      0.00000000</i>
   <i name="ALDAX">      1.00000000</i>
   <i name="AGGAX">      1.00000000</i>
   <i name="ALDAC">      1.00000000</i>
   <i name="AGGAC">      1.00000000</i>
   <i type="int" name="NKREDX">     1</i>
   <i type="int" name="NKREDY">     1</i>
   <i type="int" name="NKREDZ">     1</i>
   <i type="logical" name="SHIFTRED"> F  </i>
   <i type="logical" name="ODDONLY"> F  </i>
   <i type="logical" name="EVENONLY"> F  </i>
   <i type="int" name="LMAXFOCK">     0</i>
   <i type="int" name="NMAXFOCKAE">     0</i>
   <i type="logical" name="LFOCKAEDFT"> F  </i>
   <i name="HFSCREEN">      0.00000000</i>
   <i name="HFSCREENC">      0.00000000</i>
   <i type="int" name="NBANDSGWLOW">     0</i>
  </separator>
  <separator name="vdW DFT" >
   <i type="logical" name="LUSE_VDW"> F  </i>
   <i name="Zab_VDW">     -0.84910000</i>
   <i name="PARAM1">      0.12340000</i>
   <i name="PARAM2">      1.00000000</i>
   <i name="PARAM3">      0.00000000</i>
  </separator>
  <separator name="model GW" >
   <i type="int" name="MODEL_GW">     0</i>
   <i name="MODEL_EPS0">     12.00772552</i>
   <i name="MODEL_ALPHA">      1.00000000</i>
  </separator>
  <separator name="linear response parameters" >
   <i type="logical" name="LEPSILON"> F  </i>
   <i type="logical" name="LRPA"> F  </i>
   <i type="logical" name="LNABLA"> F  </i>
   <i type="logical" name="LVEL"> F  </i>
   <i type="int" name="KINTER">     0</i>
   <i name="CSHIFT">      0.10000000</i>
   <i name="OMEGAMAX">     -1.00000000</i>
   <i name="DEG_THRESHOLD">      0.00200000</i>
   <i name="RTIME">     -0.10000000</i>
   <i name="WPLASMAI">      0.00000000</i>
   <v name="DFIELD">      0.00000000      0.00000000      0.00000000</v>
   <v name="WPLASMA">      0.00000000      0.00000000      0.00000000      0.00000000      0.00000000      0.00000000      0.00000000      0.00000000      0.00000000</v>
  </separator>
  <separator name="orbital magnetization" >
   <i type="logical" name="NUCIND"> F  </i>
   <v name="MAGPOS">      0.00000000      0.00000000      0.00000000</v>
   <i type="logical" name="LNICSALL"> T  </i>
   <i type="logical" name="ORBITALMAG"> F  </i>
   <i type="logical" name="LMAGBLOCH"> F  </i>
   <i type="logical" name="LCHIMAG"> F  </i>
   <i type="logical" name="LGAUGE"> T  </i>
   <i type="int" name="MAGATOM">     0</i>
   <v name="MAGDIPOL">      0.00000000      0.00000000      0.00000000</v>
   <v name="AVECCONST">      0.00000000      0.00000000      0.00000000</v>
  </separator>
  <separator name="response functions" >
   <i type="logical" name="LADDER"> F  </i>
   <i type="logical" name="LRPAFORCE"> F  </i>
   <i type="logical" name="LFXC"> F  </i>
   <i type="logical" name="LHARTREE"> T  </i>
   <i type="int" name="IBSE">     0</i>
   <v type="int" name="KPOINT">    -1     0     0     0</v>
   <i type="logical" name="LTCTE"> F  </i>
   <i type="logical" name="LTETE"> F  </i>
   <i type="logical" name="LTRIPLET"> F  </i>
   <i type="logical" name="LFXCEPS"> F  </i>
   <i type="logical" name="LFXHEG"> F  </i>
   <i type="int" name="NATURALO">     2</i>
   <i type="logical" name="L2ORDER"> F  </i>
   <i type="logical" name="LMP2LT"> F  </i>
   <i type="logical" name="LUSEW"> F  </i>
   <i name="ENCUTGW">     -2.00000000</i>
   <i name="ENCUTGWSOFT">     -2.00000000</i>
   <i name="ENCUTLF">     -1.00000000</i>
   <i type="int" name="LMAXMP2">    -1</i>
   <i name="SCISSOR">      0.00000000</i>
   <i type="int" name="NOMEGA">     0</i>
   <i type="int" name="NOMEGAR">     0</i>
   <i type="int" name="NBANDSGW">    -1</i>
   <i type="int" name="NBANDSO">    -1</i>
   <i type="int" name="NBANDSV">    -1</i>
   <i type="int" name="NELM">     1</i>
   <i type="int" name="NELMHF">     1</i>
   <i type="int" name="DIM">     3</i>
   <i type="int" name="ANTIRES">     0</i>
   <i name="OMEGAMAX">    -30.00000000</i>
   <i name="OMEGAMIN">    -30.00000000</i>
   <i name="OMEGATL">   -200.00000000</i>
   <i type="int" name="OMEGAGRID">   140</i>
   <i name="CSHIFT">     -0.10000000</i>
   <i type="logical" name="SELFENERGY"> F  </i>
   <i type="logical" name="LSPECTRAL"> F  </i>
   <i type="logical" name="LSPECTRALGW"> F  </i>
   <i type="logical" name="LSINGLES"> F  </i>
   <i type="logical" name="LFERMIGW"> F  </i>
   <i type="logical" name="ODDONLYGW"> F  </i>
   <i type="logical" name="EVENONLYGW"> F  </i>
   <i type="int" name="NKREDLFX">     1</i>
   <i type="int" name="NKREDLFY">     1</i>
   <i type="int" name="NKREDLFZ">     1</i>
   <i type="int" name="MAXMEM">  2800</i>
   <i type="int" name="TELESCOPE">     0</i>
   <i type="int" name="TAUPAR">     1</i>
   <i type="int" name="OMEGAPAR">    -1</i>
   <i name="LAMBDA">      1.00000000</i>
  </separator>
  <separator name="External order field" >
   <i name="OFIELD_KAPPA">      0.00000000</i>
   <v name="OFIELD_K">      0.00000000      0.00000000      0.00000000</v>
   <i name="OFIELD_Q6_NEAR">      0.00000000</i>
   <i name="OFIELD_Q6_FAR">      0.00000000</i>
   <i name="OFIELD_A">      0.00000000</i>
  </separator>
 </parameters>
 <atominfo>
  <atoms>       2 </atoms>
  <types>       1 </types>
  <array name="atoms" >
   <dimension dim="1">ion</dimension>
   <field type="string">element</field>
   <field type="int">atomtype</field>
   <set>
    <rc><c>Si</c><c>   1</c></rc>
    <rc><c>Si</c><c>   1</c></rc>
   </set>
  </array>
  <array name="atomtypes" >
   <dimension dim="1">type</dimension>
   <field type="int">atomspertype</field>
   <field type="string">element</field>
   <field>mass</field>
   <field>valence</field>
   <field type="string">pseudopotential</field>
   <set>
    <rc><c>   2</c><c>Si</c><c>     28.08500000</c><c>      4.00000000</c><c> PAW_PBE Si 05Jan2001                   </c></rc>
   </set>
  </array>
 </atominfo>
 <structure name="initialpos" >
  <crystal>
   <varray name="basis" >
    <v>       0.00000000       2.71500000       2.71500000 </v>
    <v>       2.71500000       0.00000000       2.71500000 </v>
    <v>       2.71500000       2.71500000       0.00000000 </v>
   </varray>
   <i name="volume">     40.02575175 </i>
   <varray name="rec_basis" >
    <v>      -0.18416206       0.18416206       0.18416206 </v>
    <v>       0.18416206      -0.18416206       0.18416206 </v>
    <v>       0.18416206       0.18416206      -0.18416206 </v>
   </varray>
  </crystal>
  <varray name="positions" >
   <v>       0.50000000       0.50000000       0.50000000 </v>
   <v>       0.75000000       0.75000000       0.75000000 </v>
  </varray>
 </structure>
 <calculation>
  <scstep>
   <time name="dav">    0.10    0.11</time>
   <time name="total">    0.15    0.17</time>
   <energy>
    <i name="alphaZ">      3.36414203 </i>
    <i name="ewald">   -228.56352493 </i>
    <i name="hartreedc">    -14.90826820 </i>
    <i name="XCdc">    -17.92079824 </i>
    <i name="pawpsdc">     76.70186956 </i>
    <i name="pawaedc">    -41.75420648 </i>
    <i name="eentropy">     -0.00029071 </i>
    <i name="bandstr">      6.25448694 </i>
    <i name="atom">    206.09183643 </i>
    <i name="e_fr_energy">    -10.73475360 </i>
    <i name="e_wo_entrp">    -10.73446289 </i>
    <i name="e_0_energy">    -10.73460825 </i>
   </energy>
  </scstep>
  <scstep>
   <time name="dav">    0.09    0.09</time>
   <time name="total">    0.11    0.12</time>
   <energy>
    <i name="alphaZ">      3.36414203 </i>
    <i name="ewald">   -228.56352493 </i>
    <i name="hartreedc">    -14.90812844 </i>
    <i name="XCdc">    -17.92078401 </i>
    <i name="pawpsdc">     76.70052398 </i>
    <i name="pawaedc">    -41.75280690 </i>
    <i name="eentropy">     -0.00029045 </i>
    <i name="bandstr">      6.25427855 </i>
    <i name="atom">    206.09183643 </i>
    <i name="e_fr_energy">    -10.73475374 </i>
    <i name="e_wo_entrp">    -10.73446329 </i>
    <i name="e_0_energy">    -10.73460851 </i>
   </energy>
  </scstep>
  <structure>
   <crystal>
    <varray name="basis" >
     <v>       0.00000000       2.71500000       2.71500000 </v>
     <v>       2.71500000       0.00000000       2.71500000 </v>
     <v>       2.71500000       2.71500000       0.00000000 </v>
    </varray>
    <i name="volume">     40.02575175 </i>
    <varray name="rec_basis" >
     <v>      -0.18416206       0.18416206       0.18416206 </v>
     <v>       0.18416206      -0.18416206       0.18416206 </v>
     <v>       0.18416206       0.18416206      -0.18416206 </v>
    </varray>
   </crystal>
   <varray name="positions" >
    <v>       0.50000000       0.50000000       0.50000000 </v>
    <v>       0.75000000       0.75000000       0.75000000 </v>
   </varray>
  </structure>
  <varray name="forces" >
   <v>      -0.00000000      -0.00000000      -0.00000000 </v>
   <v>       0.00000000       0.00000000       0.00000000 </v>
  </varray>
  <varray name="stress" >
   <v>      19.55898807      -0.00000000       0.00000000 </v>
   <v>      -0.00000000      19.55898807       0.00000000 </v>
   <v>       0.00000000      -0.00000000      19.55898807 </v>
  </varray>
  <energy>
   <i name="e_fr_energy">    -10.73475374 </i>
   <i name="e_wo_entrp">    -10.73460851 </i>
   <i name="e_0_energy">     -0.00029045 </i>
  </energy>
  <time name="totalsc">    0.73    1.20</time>
  <eigenvalues>
   <array>
    <dimension dim="1">band</dimension>
    <dimension dim="2">kpoint</dimension>
    <dimension dim="3">spin</dimension>
    <field>eigene</field>
    <field>occ</field>
    <set>
     <set comment="spin 1">
      <set comment="kpoint 1">
       <r>   -6.1323    1.0000 </r>
       <r>    5.8800    0.9764 </r>
       <r>    5.8800    0.9764 </r>
       <r>    5.8803    0.9763 </r>
       <r>    8.4569    0.0000 </r>
       <r>    8.4569    0.0000 </r>
       <r>    8.4571    0.0000 </r>
       <r>    9.2013    0.0000 </r>
      </set>
      <set comment="kpoint 2">
       <r>   -5.8657    1.0000 </r>
       <r>    3.9292    1.0000 </r>
       <r>    5.5161    1.0000 </r>
       <r>    5.5164    1.0000 </r>
       <r>    8.3259    0.0000 </r>
       <r>    8.9867    0.0000 </r>
       <r>    8.9870    0.0000 </r>
       <r>   10.8901    0.0000 </r>
      </set>
      <set comment="kpoint 3">
       <r>   -5.0974    1.0000 </r>
       <r>    1.2928    1.0000 </r>
       <r>    4.9893    1.0000 </r>
       <r>    4.9895    1.0000 </r>
       <r>    7.8008    0.0000 </r>
       <r>    9.4614    0.0000 </r>
       <r>    9.4618    0.0000 </r>
       <r>   13.3386    0.0000 </r>
      </set>
      <set comment="kpoint 4">
       <r>   -4.0529    1.0000 </r>
       <r>   -0.7510    1.0000 </r>
       <r>    4.6961    1.0000 </r>
       <r>    4.6963    1.0000 </r>
       <r>    7.4588    0.0000 </r>
       <r>    9.3272    0.0000 </r>
       <r>    9.3276    0.0000 </r>
       <r>   13.6707    0.0000 </r>
      </set>
      <set comment="kpoint 5">
       <r>   -5.7755    1.0000 </r>
       <r>    4.2337    1.0000 </r>
       <r>    4.8937    1.0000 </r>
       <r>    4.8939    1.0000 </r>
       <r>    7.7750    0.0000 </r>
       <r>    9.8903    0.0000 </r>
       <r>    9.8905    0.0000 </r>
       <r>   10.3141    0.0000 </r>
      </set>
      <set comment="kpoint 6">
       <r>   -5.1671    1.0000 </r>
       <r>    2.0931    1.0000 </r>
       <r>    4.3063    1.0000 </r>
       <r>    4.3419    1.0000 </r>
       <r>    7.9802    0.0000 </r>
       <r>    9.8134    0.0000 </r>
       <r>   10.5327    0.0000 </r>
       <r>   10.6930    0.0000 </r>
      </set>
      <set comment="kpoint 7">
       <r>   -4.1548    1.0000 </r>
       <r>   -0.1060    1.0000 </r>
       <r>    3.6131    1.0000 </r>
       <r>    4.1476    1.0000 </r>
       <r>    8.0507    0.0000 </r>
       <r>    9.7431    0.0000 </r>
       <r>   10.4857    0.0000 </r>
       <r>   11.7488    0.0000 </r>
      </set>
      <set comment="kpoint 8">
       <r>   -3.5929    1.0000 </r>
       <r>   -0.9766    1.0000 </r>
       <r>    3.1914    1.0000 </r>
       <r>    4.3497    1.0000 </r>
       <r>    8.1463    0.0000 </r>
       <r>    9.6575    0.0000 </r>
       <r>   10.0901    0.0000 </r>
       <r>   14.1005    0.0000 </r>
      </set>
      <set comment="kpoint 9">
       <r>   -4.5248    1.0000 </r>
       <r>    0.5781    1.0000 </r>
       <r>    3.1963    1.0000 </r>
       <r>    4.8686    1.0000 </r>
       <r>    8.5564    0.0000 </r>
       <r>    9.8308    0.0000 </r>
       <r>    9.8647    0.0000 </r>
       <r>   12.5777    0.0000 </r>
      </set>
      <set comment="kpoint 10">
       <r>   -5.4284    1.0000 </r>
       <r>    2.7185    1.0000 </r>
       <r>    3.8903    1.0000 </r>
       <r>    5.4754    1.0000 </r>
       <r>    8.9566    0.0000 </r>
       <r>    9.2023    0.0000 </r>
       <r>    9.4821    0.0000 </r>
       <r>   11.5469    0.0000 </r>
      </set>
      <set comment="kpoint 11">
       <r>   -4.7220    1.0000 </r>
       <r>    1.6903    1.0000 </r>
       <r>    3.7103    1.0000 </r>
       <r>    3.7104    1.0000 </r>
       <r>    6.8273    0.0000 </r>
       <r>    8.5486    0.0000 </r>
       <r>   12.3488    0.0000 </r>
       <r>   12.3491    0.0000 </r>
      </set>
      <set comment="kpoint 12">
       <r>   -3.8167    1.0000 </r>
       <r>    0.1794    1.0000 </r>
       <r>    2.7267    1.0000 </r>
       <r>    3.4466    1.0000 </r>
       <r>    7.1180    0.0000 </r>
       <r>    8.6169    0.0000 </r>
       <r>   12.5638    0.0000 </r>
       <r>   12.7559    0.0000 </r>
      </set>
      <set comment="kpoint 13">
       <r>   -2.8943    1.0000 </r>
       <r>   -1.0083    1.0000 </r>
       <r>    1.7693    1.0000 </r>
       <r>    3.6151    1.0000 </r>
       <r>    7.3626    0.0000 </r>
       <r>   10.9000    0.0000 </r>
       <r>   12.2467    0.0000 </r>
       <r>   12.2834    0.0000 </r>
      </set>
      <set comment="kpoint 14">
       <r>   -3.5475    1.0000 </r>
       <r>   -0.2542    1.0000 </r>
       <r>    1.6950    1.0000 </r>
       <r>    4.1725    1.0000 </r>
       <r>    7.9793    0.0000 </r>
       <r>   11.3918    0.0000 </r>
       <r>   11.7804    0.0000 </r>
       <r>   12.5097    0.0000 </r>
      </set>
      <set comment="kpoint 15">
       <r>   -3.0293    1.0000 </r>
       <r>   -0.8216    1.0000 </r>
       <r>    3.0712    1.0000 </r>
       <r>    3.0713    1.0000 </r>
       <r>    6.4809    0.0118 </r>
       <r>    6.9916    0.0000 </r>
       <r>   15.0503    0.0000 </r>
       <r>   15.0505    0.0000 </r>
      </set>
      <set comment="kpoint 16">
       <r>   -2.0753    1.0000 </r>
       <r>   -1.7861    1.0000 </r>
       <r>    2.1749    1.0000 </r>
       <r>    3.1320    1.0000 </r>
       <r>    6.7804    0.0000 </r>
       <r>    8.0467    0.0000 </r>
       <r>   14.7752    0.0000 </r>
       <r>   15.1826    0.0000 </r>
      </set>
      <set comment="kpoint 17">
       <r>   -4.4122    1.0000 </r>
       <r>    0.9484    1.0000 </r>
       <r>    2.7320    1.0000 </r>
       <r>    4.0656    1.0000 </r>
       <r>    8.4943    0.0000 </r>
       <r>    9.7688    0.0000 </r>
       <r>   10.0744    0.0000 </r>
       <r>   12.0988    0.0000 </r>
      </set>
      <set comment="kpoint 18">
       <r>   -3.3660    1.0000 </r>
       <r>   -0.5947    1.0000 </r>
       <r>    2.1573    1.0000 </r>
       <r>    3.5226    1.0000 </r>
       <r>    8.9886    0.0000 </r>
       <r>    9.4057    0.0000 </r>
       <r>   11.4114    0.0000 </r>
       <r>   12.5682    0.0000 </r>
      </set>
      <set comment="kpoint 19">
       <r>   -2.8239    1.0000 </r>
       <r>   -0.9087    1.0000 </r>
       <r>    2.2432    1.0000 </r>
       <r>    2.6555    1.0000 </r>
       <r>    8.1216    0.0000 </r>
       <r>    8.4901    0.0000 </r>
       <r>   12.1010    0.0000 </r>
       <r>   14.6194    0.0000 </r>
      </set>
      <set comment="kpoint 20">
       <r>   -2.3843    1.0000 </r>
       <r>   -1.3091    1.0000 </r>
       <r>    1.6007    1.0000 </r>
       <r>    2.7489    1.0000 </r>
       <r>    8.6555    0.0000 </r>
       <r>   10.7888    0.0000 </r>
       <r>   11.5784    0.0000 </r>
       <r>   11.7294    0.0000 </r>
      </set>
     </set>
    </set>
   </array>
  </eigenvalues>
  <separator name="orbital magnetization" >
   <v name="MAGDIPOLOUT">      0.00000000      0.00000000      0.00000000</v>
  </separator>
  <dos>
   <i name="efermi">      6.16079526 </i>
   <total>
    <array>
     <dimension dim="1">gridpoints</dimension>
     <dimension dim="2">spin</dimension>
     <field>energy</field>
     <field>total</field>
     <field>integrated</field>
     <set>
      <set comment="spin 1">
       <r>    -8.1323     0.0000     0.0000 </r>
       <r>    -8.0479     0.0000     0.0000 </r>
       <r>    -7.9635     0.0000     0.0000 </r>
       <r>    -7.8791     0.0000     0.0000 </r>
       <r>    -7.7947     0.0000     0.0000 </r>
       <r>    -7.7104     0.0000     0.0000 </r>
       <r>    -7.6260     0.0000     0.0000 </r>
       <r>    -7.5416     0.0000     0.0000 </r>
       <r>    -7.4572     0.0000     0.0000 </r>
       <r>    -7.3728     0.0000     0.0000 </r>
       <r>    -7.2884     0.0000     0.0000 </r>
       <r>    -7.2041     0.0000     0.0000 </r>
       <r>    -7.1197     0.0000     0.0000 </r>
       <r>    -7.0353     0.0000     0.0000 </r>
       <r>    -6.9509     0.0000     0.0000 </r>
       <r>    -6.8665     0.0000     0.0000 </r>
       <r>    -6.7821     0.0000     0.0000 </r>
       <r>    -6.6978     0.0000     0.0000 </r>
       <r>    -6.6134     0.0000     0.0000 </r>
       <r>    -6.5290     0.0002     0.0000 </r>
       <r>    -6.4446     0.0008     0.0001 </r>
       <r>    -6.3602     0.0029     0.0003 </r>
       <r>    -6.2759     0.0080     0.0010 </r>
       <r>    -6.1915     0.0181     0.0025 </r>
       <r>    -6.1071     0.0378     0.0057 </r>
       <r>    -6.0227     0.0768     0.0122 </r>
       <r>    -5.9383     0.1386     0.0239 </r>
       <r>    -5.8539     0.2002     0.0408 </r>
       <r>    -5.7696     0.2219     0.0595 </r>
       <r>    -5.6852     0.1961     0.0761 </r>
       <r>    -5.6008     0.1678     0.0902 </r>
       <r>    -5.5164     0.1833     0.1057 </r>
       <r>    -5.4320     0.2422     0.1261 </r>
       <r>    -5.3476     0.3237     0.1534 </r>
       <r>    -5.2633     0.4251     0.1893 </r>
       <r>    -5.1789     0.5207     0.2332 </r>
       <r>    -5.0945     0.5314     0.2781 </r>
       <r>    -5.0101     0.4196     0.3135 </r>
       <r>    -4.9257     0.2619     0.3356 </r>
       <r>    -4.8413     0.1686     0.3498 </r>
       <r>    -4.7570     0.1866     0.3655 </r>
       <r>    -4.6726     0.3080     0.3915 </r>
       <r>    -4.5882     0.5014     0.4338 </r>
       <r>    -4.5038     0.6925     0.4923 </r>
       <r>    -4.4194     0.7803     0.5581 </r>
       <r>    -4.3350     0.7396     0.6205 </r>
       <r>    -4.2507     0.6603     0.6762 </r>
       <r>    -4.1663     0.6206     0.7286 </r>
       <r>    -4.0819     0.5943     0.7788 </r>
       <r>    -3.9975     0.5458     0.8248 </r>
       <r>    -3.9131     0.5172     0.8685 </r>
       <r>    -3.8287     0.5521     0.9150 </r>
       <r>    -3.7444     0.6339     0.9685 </r>
       <r>    -3.6600     0.7422     1.0312 </r>
       <r>    -3.5756     0.8732     1.1048 </r>
       <r>    -3.4912     1.0004     1.1893 </r>
       <r>    -3.4068     1.0634     1.2790 </r>
       <r>    -3.3224     0.9853     1.3621 </r>
       <r>    -3.2381     0.7559     1.4259 </r>
       <r>    -3.1537     0.5095     1.4689 </r>
       <r>    -3.0693     0.4235     1.5046 </r>
       <r>    -2.9849     0.5420     1.5504 </r>
       <r>    -2.9005     0.7351     1.6124 </r>
       <r>    -2.8162     0.8059     1.6804 </r>
       <r>    -2.7318     0.6697     1.7369 </r>
       <r>    -2.6474     0.4380     1.7739 </r>
       <r>    -2.5630     0.2934     1.7986 </r>
       <r>    -2.4786     0.3042     1.8243 </r>
       <r>    -2.3942     0.3849     1.8568 </r>
       <r>    -2.3099     0.4117     1.8915 </r>
       <r>    -2.2255     0.3597     1.9219 </r>
       <r>    -2.1411     0.2966     1.9469 </r>
       <r>    -2.0567     0.2638     1.9692 </r>
       <r>    -1.9723     0.2467     1.9900 </r>
       <r>    -1.8879     0.2369     2.0100 </r>
       <r>    -1.8036     0.2333     2.0297 </r>
       <r>    -1.7192     0.2121     2.0476 </r>
       <r>    -1.6348     0.1643     2.0614 </r>
       <r>    -1.5504     0.1344     2.0728 </r>
       <r>    -1.4660     0.1798     2.0880 </r>
       <r>    -1.3816     0.3001     2.1133 </r>
       <r>    -1.2973     0.4294     2.1495 </r>
       <r>    -1.2129     0.5329     2.1945 </r>
       <r>    -1.1285     0.6860     2.2524 </r>
       <r>    -1.0441     0.9519     2.3327 </r>
       <r>    -0.9597     1.2121     2.4350 </r>
       <r>    -0.8753     1.2795     2.5430 </r>
       <r>    -0.7910     1.1638     2.6412 </r>
       <r>    -0.7066     1.0484     2.7296 </r>
       <r>    -0.6222     1.0062     2.8145 </r>
       <r>    -0.5378     0.9190     2.8921 </r>
       <r>    -0.4534     0.7124     2.9522 </r>
       <r>    -0.3690     0.5020     2.9946 </r>
       <r>    -0.2847     0.4294     3.0308 </r>
       <r>    -0.2003     0.4851     3.0717 </r>
       <r>    -0.1159     0.5518     3.1183 </r>
       <r>    -0.0315     0.5507     3.1648 </r>
       <r>     0.0529     0.5102     3.2078 </r>
       <r>     0.1373     0.4846     3.2487 </r>
       <r>     0.2216     0.4530     3.2869 </r>
       <r>     0.3060     0.3769     3.3187 </r>
       <r>     0.3904     0.3053     3.3445 </r>
       <r>     0.4748     0.3156     3.3711 </r>
       <r>     0.5592     0.3840     3.4035 </r>
       <r>     0.6435     0.4100     3.4381 </r>
       <r>     0.7279     0.3674     3.4691 </r>
       <r>     0.8123     0.3391     3.4977 </r>
       <r>     0.8967     0.3762     3.5295 </r>
       <r>     0.9811     0.4109     3.5642 </r>
       <r>     1.0655     0.3650     3.5950 </r>
       <r>     1.1498     0.2682     3.6176 </r>
       <r>     1.2342     0.2010     3.6345 </r>
       <r>     1.3186     0.1930     3.6508 </r>
       <r>     1.4030     0.2450     3.6715 </r>
       <r>     1.4874     0.3868     3.7041 </r>
       <r>     1.5718     0.6261     3.7570 </r>
       <r>     1.6561     0.8669     3.8301 </r>
       <r>     1.7405     0.9614     3.9112 </r>
       <r>     1.8249     0.8724     3.9849 </r>
       <r>     1.9093     0.7637     4.0493 </r>
       <r>     1.9937     0.8761     4.1232 </r>
       <r>     2.0781     1.2523     4.2289 </r>
       <r>     2.1624     1.6092     4.3647 </r>
       <r>     2.2468     1.5987     4.4996 </r>
       <r>     2.3312     1.2022     4.6011 </r>
       <r>     2.4156     0.7564     4.6649 </r>
       <r>     2.5000     0.6251     4.7176 </r>
       <r>     2.5844     0.9230     4.7955 </r>
       <r>     2.6687     1.4308     4.9162 </r>
       <r>     2.7531     1.7186     5.0613 </r>
       <r>     2.8375     1.5394     5.1912 </r>
       <r>     2.9219     1.1169     5.2854 </r>
       <r>     3.0063     0.8773     5.3594 </r>
       <r>     3.0907     0.9666     5.4410 </r>
       <r>     3.1750     1.1708     5.5398 </r>
       <r>     3.2594     1.2584     5.6460 </r>
       <r>     3.3438     1.2852     5.7544 </r>
       <r>     3.4282     1.4618     5.8778 </r>
       <r>     3.5126     1.7724     6.0274 </r>
       <r>     3.5970     1.9278     6.1900 </r>
       <r>     3.6813     1.7273     6.3358 </r>
       <r>     3.7657     1.3038     6.4458 </r>
       <r>     3.8501     0.9588     6.5267 </r>
       <r>     3.9345     0.8708     6.6002 </r>
       <r>     4.0189     1.0225     6.6865 </r>
       <r>     4.1032     1.3009     6.7962 </r>
       <r>     4.1876     1.5799     6.9296 </r>
       <r>     4.2720     1.7359     7.0760 </r>
       <r>     4.3564     1.6490     7.2152 </r>
       <r>     4.4408     1.2939     7.3244 </r>
       <r>     4.5252     0.8467     7.3958 </r>
       <r>     4.6095     0.5624     7.4433 </r>
       <r>     4.6939     0.5393     7.4888 </r>
       <r>     4.7783     0.6886     7.5469 </r>
       <r>     4.8627     0.8504     7.6186 </r>
       <r>     4.9471     0.8794     7.6928 </r>
       <r>     5.0315     0.7217     7.7537 </r>
       <r>     5.1158     0.4615     7.7927 </r>
       <r>     5.2002     0.2465     7.8135 </r>
       <r>     5.2846     0.1724     7.8280 </r>
       <r>     5.3690     0.2432     7.8485 </r>
       <r>     5.4534     0.3786     7.8805 </r>
       <r>     5.5378     0.4511     7.9186 </r>
       <r>     5.6221     0.3897     7.9514 </r>
       <r>     5.7065     0.2498     7.9725 </r>
       <r>     5.7909     0.1335     7.9838 </r>
       <r>     5.8753     0.0775     7.9903 </r>
       <r>     5.9597     0.0539     7.9949 </r>
       <r>     6.0441     0.0354     7.9979 </r>
       <r>     6.1284     0.0197     7.9995 </r>
       <r>     6.2128     0.0157     8.0009 </r>
       <r>     6.2972     0.0300     8.0034 </r>
       <r>     6.3816     0.0621     8.0086 </r>
       <r>     6.4660     0.1007     8.0171 </r>
       <r>     6.5504     0.1363     8.0286 </r>
       <r>     6.6347     0.1825     8.0440 </r>
       <r>     6.7191     0.2567     8.0657 </r>
       <r>     6.8035     0.3393     8.0943 </r>
       <r>     6.8879     0.3985     8.1280 </r>
       <r>     6.9723     0.4469     8.1657 </r>
       <r>     7.0567     0.5106     8.2087 </r>
       <r>     7.1410     0.5694     8.2568 </r>
       <r>     7.2254     0.5977     8.3072 </r>
       <r>     7.3098     0.6090     8.3586 </r>
       <r>     7.3942     0.5958     8.4089 </r>
       <r>     7.4786     0.5147     8.4523 </r>
       <r>     7.5629     0.3816     8.4845 </r>
       <r>     7.6473     0.2962     8.5095 </r>
       <r>     7.7317     0.3495     8.5390 </r>
       <r>     7.8161     0.5778     8.5878 </r>
       <r>     7.9005     0.9786     8.6703 </r>
       <r>     7.9849     1.4614     8.7937 </r>
       <r>     8.0692     1.7962     8.9452 </r>
       <r>     8.1536     1.7724     9.0948 </r>
       <r>     8.2380     1.4623     9.2182 </r>
       <r>     8.3224     1.2120     9.3205 </r>
       <r>     8.4068     1.3070     9.4307 </r>
       <r>     8.4912     1.6735     9.5720 </r>
       <r>     8.5755     1.9425     9.7359 </r>
       <r>     8.6599     1.8316     9.8904 </r>
       <r>     8.7443     1.4485    10.0127 </r>
       <r>     8.8287     1.1681    10.1112 </r>
       <r>     8.9131     1.1982    10.2123 </r>
       <r>     8.9975     1.3506    10.3263 </r>
       <r>     9.0818     1.3361    10.4390 </r>
       <r>     9.1662     1.1795    10.5386 </r>
       <r>     9.2506     1.1483    10.6355 </r>
       <r>     9.3350     1.3492    10.7493 </r>
       <r>     9.4194     1.5933    10.8838 </r>
       <r>     9.5038     1.6793    11.0255 </r>
       <r>     9.5881     1.6940    11.1684 </r>
       <r>     9.6725     1.8801    11.3271 </r>
       <r>     9.7569     2.2284    11.5151 </r>
       <r>     9.8413     2.4204    11.7193 </r>
       <r>     9.9257     2.2354    11.9080 </r>
       <r>    10.0101     1.8068    12.0604 </r>
       <r>    10.0944     1.3708    12.1761 </r>
       <r>    10.1788     1.0029    12.2607 </r>
       <r>    10.2632     0.7286    12.3222 </r>
       <r>    10.3476     0.6390    12.3761 </r>
       <r>    10.4320     0.7637    12.4406 </r>
       <r>    10.5163     0.9804    12.5233 </r>
       <r>    10.6007     1.1409    12.6196 </r>
       <r>    10.6851     1.2162    12.7222 </r>
       <r>    10.7695     1.2406    12.8269 </r>
       <r>    10.8539     1.1826    12.9267 </r>
       <r>    10.9383     0.9796    13.0094 </r>
       <r>    11.0226     0.6665    13.0656 </r>
       <r>    11.1070     0.3962    13.0990 </r>
       <r>    11.1914     0.3327    13.1271 </r>
       <r>    11.2758     0.5454    13.1731 </r>
       <r>    11.3602     0.9486    13.2532 </r>
       <r>    11.4446     1.3281    13.3652 </r>
       <r>    11.5289     1.5204    13.4935 </r>
       <r>    11.6133     1.5490    13.6242 </r>
       <r>    11.6977     1.4974    13.7506 </r>
       <r>    11.7821     1.3500    13.8645 </r>
       <r>    11.8665     1.1020    13.9575 </r>
       <r>    11.9509     0.9151    14.0347 </r>
       <r>    12.0352     0.9674    14.1164 </r>
       <r>    12.1196     1.2133    14.2187 </r>
       <r>    12.2040     1.4444    14.3406 </r>
       <r>    12.2884     1.5411    14.4707 </r>
       <r>    12.3728     1.5873    14.6046 </r>
       <r>    12.4572     1.7474    14.7521 </r>
       <r>    12.5415     1.9894    14.9199 </r>
       <r>    12.6259     2.0289    15.0911 </r>
       <r>    12.7103     1.6893    15.2337 </r>
       <r>    12.7947     1.1322    15.3292 </r>
       <r>    12.8791     0.6221    15.3817 </r>
       <r>    12.9635     0.2829    15.4056 </r>
       <r>    13.0478     0.1103    15.4149 </r>
       <r>    13.1322     0.0571    15.4197 </r>
       <r>    13.2166     0.0735    15.4259 </r>
       <r>    13.3010     0.1141    15.4355 </r>
       <r>    13.3854     0.1393    15.4473 </r>
       <r>    13.4698     0.1379    15.4589 </r>
       <r>    13.5541     0.1329    15.4702 </r>
       <r>    13.6385     0.1400    15.4820 </r>
       <r>    13.7229     0.1423    15.4940 </r>
       <r>    13.8073     0.1314    15.5051 </r>
       <r>    13.8917     0.1442    15.5172 </r>
       <r>    13.9760     0.2225    15.5360 </r>
       <r>    14.0604     0.3371    15.5644 </r>
       <r>    14.1448     0.3909    15.5974 </r>
       <r>    14.2292     0.3288    15.6252 </r>
       <r>    14.3136     0.2124    15.6431 </r>
       <r>    14.3980     0.1547    15.6562 </r>
       <r>    14.4823     0.2148    15.6743 </r>
       <r>    14.5667     0.3602    15.7047 </r>
       <r>    14.6511     0.4899    15.7460 </r>
       <r>    14.7355     0.5154    15.7895 </r>
       <r>    14.8199     0.4418    15.8268 </r>
       <r>    14.9043     0.3533    15.8566 </r>
       <r>    14.9886     0.3242    15.8840 </r>
       <r>    15.0730     0.3501    15.9135 </r>
       <r>    15.1574     0.3626    15.9441 </r>
       <r>    15.2418     0.3090    15.9702 </r>
       <r>    15.3262     0.2037    15.9874 </r>
       <r>    15.4106     0.1009    15.9959 </r>
       <r>    15.4949     0.0369    15.9990 </r>
       <r>    15.5793     0.0098    15.9998 </r>
       <r>    15.6637     0.0019    16.0000 </r>
       <r>    15.7481     0.0003    16.0000 </r>
       <r>    15.8325     0.0000    16.0000 </r>
       <r>    15.9169     0.0000    16.0000 </r>
       <r>    16.0012     0.0000    16.0000 </r>
       <r>    16.0856     0.0000    16.0000 </r>
       <r>    16.1700     0.0000    16.0000 </r>
       <r>    16.2544     0.0000    16.0000 </r>
       <r>    16.3388     0.0000    16.0000 </r>
       <r>    16.4232     0.0000    16.0000 </r>
       <r>    16.5075     0.0000    16.0000 </r>
       <r>    16.5919     0.0000    16.0000 </r>
       <r>    16.6763     0.0000    16.0000 </r>
       <r>    16.7607     0.0000    16.0000 </r>
       <r>    16.8451     0.0000    16.0000 </r>
       <r>    16.9295     0.0000    16.0000 </r>
       <r>    17.0138     0.0000    16.0000 </r>
       <r>    17.0982     0.0000    16.0000 </r>
       <r>    17.1826     0.0000    16.0000 </r>
      </set>
     </set>
    </array>
   </total>
  </dos>
 </calculation>
 <structure name="finalpos" >
  <crystal>
   <varray name="basis" >
    <v>       0.00000000       2.71500000       2.71500000 </v>
    <v>       2.71500000       0.00000000       2.71500000 </v>
    <v>       2.71500000       2.71500000       0.00000000 </v>
   </varray>
   <i name="volume">     40.02575175 </i>
   <varray name="rec_basis" >
    <v>      -0.18416206       0.18416206       0.18416206 </v>
    <v>       0.18416206      -0.18416206       0.18416206 </v>
    <v>       0.18416206       0.18416206      -0.18416206 </v>
   </varray>
  </crystal>
  <varray name="positions" >
   <v>       0.50000000       0.50000000       0.50000000 </v>
   <v>       0.75000000       0.75000000       0.75000000 </v>
  </varray>
 </structure>
</modeling>
