unknown system                          
   1.00000000000000     
     0.000000    2.715000    2.715000
     2.715000    0.000000    2.715000
     2.715000    2.715000    0.000000
   Si
     2
Direct
  0.500000  0.500000  0.500000
  0.750000  0.750000  0.750000
 
   36   36   36
 0.80515729801E+00 0.82179013269E+00 0.87273972820E+00 0.96102826303E+00 0.10913243909E+01
 0.12694915701E+01 0.15020675553E+01 0.17956155214E+01 0.21557513400E+01 0.25856242042E+01
 0.30837920295E+01 0.36417594411E+01 0.42418096152E+01 0.48559913533E+01 0.54470588390E+01
 0.59717496919E+01 0.63861407259E+01 0.66521633456E+01 0.67438983108E+01 0.66521515081E+01
 0.63861295228E+01 0.59717603962E+01 0.54471101771E+01 0.48560838153E+01 0.42419191849E+01
 0.36418492269E+01 0.30838345142E+01 0.25856163813E+01 0.21557121777E+01 0.17955707755E+01
 0.15020349559E+01 0.12694756136E+01 0.10913207763E+01 0.96103075920E+00 0.87274377811E+00
 0.82179292035E+00 0.82179013269E+00 0.85090091458E+00 0.91083215949E+00 0.10048321122E+01
 0.11373491619E+01 0.13135699907E+01 0.15388403317E+01 0.18179092013E+01 0.21538816692E+01
 0.25467966718E+01 0.29918972702E+01 0.34778924640E+01 0.39857365184E+01 0.44885621360E+01
 0.49532895117E+01 0.53440542033E+01 0.56270442424E+01 0.57758092088E+01 0.57758102012E+01
 0.56270501661E+01 0.53440741548E+01 0.49533341321E+01 0.44886311464E+01 0.39858102209E+01
 0.34779408525E+01 0.29919010029E+01 0.25467595778E+01 0.21538250415E+01 0.18178568815E+01
 0.15388071950E+01 0.13135582208E+01 0.11373509423E+01 0.10048364277E+01 0.91083233775E+00
 0.85089768294E+00 0.82178820218E+00 0.87273972820E+00 0.91083215949E+00 0.97663571199E+00
 0.10733943750E+01 0.12051658186E+01 0.13763337673E+01 0.15909747877E+01 0.18520484600E+01
 0.21603740625E+01 0.25134102089E+01 0.29039723413E+01 0.33191701065E+01 0.37399656632E+01
 0.41417813840E+01 0.44964528318E+01 0.47754979799E+01 0.49542240088E+01 0.50157947255E+01
 0.49542304940E+01 0.47755136733E+01 0.44964805761E+01 0.41418176198E+01 0.37399957944E+01
 0.33191747244E+01 0.29039418379E+01 0.25133530777E+01 0.21603108829E+01 0.18519991223E+01
 0.15909500014E+01 0.13763330992E+01 0.12051793293E+01 0.10734076459E+01 0.97663846360E+00
 0.91082481725E+00 0.87273160926E+00 0.86027699669E+00 0.96102826303E+00 0.10048321122E+01
 0.10733943750E+01 0.11698198199E+01 0.12976751152E+01 0.14604710661E+01 0.16610068804E+01
 0.19005822850E+01 0.21780961223E+01 0.24890977818E+01 0.28249407998E+01 0.31722730883E+01
 0.35131489817E+01 0.38260321034E+01 0.40878298013E+01 0.42768253485E+01 0.43760078335E+01
 0.43760092661E+01 0.42768306123E+01 0.40878389858E+01 0.38260398030E+01 0.35131445039E+01
 0.31722475316E+01 0.28248949517E+01 0.24890430618E+01 0.21780482372E+01 0.19005537605E+01
 0.16610030788E+01 0.14604890119E+01 0.12977037959E+01 0.11698440243E+01 0.10734028231E+01
 0.10048245126E+01 0.96101492402E+00 0.93971042747E+00 0.93971674605E+00 0.10913243909E+01
 0.11373491619E+01 0.12051658186E+01 0.12976751152E+01 0.14179045766E+01 0.15684786453E+01
 0.17509955951E+01 0.19653430628E+01 0.22089901435E+01 0.24763256577E+01 0.27581717075E+01
 0.30416577291E+01 0.33106617768E+01 0.35469907238E+01 0.37323416055E+01 0.38508367908E+01
 0.38916225840E+01 0.38508365871E+01 0.37323404598E+01 0.35469840456E+01 0.33106426118E+01
 0.30416242956E+01 0.27581319798E+01 0.24762927262E+01 0.22089740983E+01 0.19653475780E+01
 0.17510191975E+01 0.15685154002E+01 0.14179436730E+01 0.12977037026E+01 0.12051756636E+01
 0.11373415570E+01 0.10913089367E+01 0.10647191140E+01 0.10560377244E+01 0.10647306504E+01
 0.12694915701E+01 0.13135699907E+01 0.13763337673E+01 0.14604710661E+01 0.15684786453E+01
 0.17021601422E+01 0.18620995914E+01 0.20471411044E+01 0.22538964503E+01 0.24763256556E+01
 0.27054950625E+01 0.29296736852E+01 0.31349413658E+01 0.33064233958E+01 0.34301124308E+01
 0.34949986480E+01 0.34949989451E+01 0.34301115878E+01 0.33064167355E+01 0.31349245888E+01
 0.29296489970E+01 0.27054730921E+01 0.24763188659E+01 0.22539106890E+01 0.20471738167E+01
 0.18621436098E+01 0.17022062343E+01 0.15685162249E+01 0.14604914427E+01 0.13763350170E+01
 0.13135578894E+01 0.12694753531E+01 0.12416461046E+01 0.12282281487E+01 0.12282327827E+01
 0.12416586984E+01 0.15020675553E+01 0.15388403317E+01 0.15909747877E+01 0.16610068804E+01
 0.17509955951E+01 0.18620995914E+01 0.19941957795E+01 0.21455406393E+01 0.23124611127E+01
 0.24890978077E+01 0.26673020401E+01 0.28368536203E+01 0.29861588791E+01 0.31034844592E+01
 0.31785971602E+01 0.32044718197E+01 0.31786001394E+01 0.31034851440E+01 0.29861525337E+01
 0.28368425440E+01 0.26672959386E+01 0.24891069198E+01 0.23124888646E+01 0.21455823503E+01
 0.19942421004E+01 0.18621393425E+01 0.17510182200E+01 0.16610073445E+01 0.15909577581E+01
 0.15388174867E+01 0.15020493046E+01 0.14780712938E+01 0.14646773048E+01 0.14603872212E+01
 0.14646811563E+01 0.14780814333E+01 0.17956155214E+01 0.18179092013E+01 0.18520484600E+01
 0.19005822850E+01 0.19653430628E+01 0.20471411044E+01 0.21455406393E+01 0.22586736138E+01
 0.23830527662E+01 0.25134102893E+01 0.26426855807E+01 0.27623384116E+01 0.28631104470E+01
 0.29362059448E+01 0.29746791715E+01 0.29746827980E+01 0.29362134713E+01 0.28631159344E+01
 0.27623405274E+01 0.26426890710E+01 0.25134210919E+01 0.23830731321E+01 0.22587010533E+01
 0.21455685494E+01 0.20471593203E+01 0.19653413822E+01 0.19005578117E+01 0.18520102298E+01
 0.18178733818E+01 0.17955942029E+01 0.17822937337E+01 0.17752362426E+01 0.17722890459E+01
 0.17722872276E+01 0.17752341280E+01 0.17822995939E+01 0.21557513400E+01 0.21538816692E+01
 0.21603740625E+01 0.21780961223E+01 0.22089901435E+01 0.22538964503E+01 0.23124611127E+01
 0.23830527662E+01 0.24626560794E+01 0.25467967653E+01 0.26296383470E+01 0.27043993417E+01
 0.27641363194E+01 0.28027761882E+01 0.28161548609E+01 0.28027869060E+01 0.27641520348E+01
 0.27044139178E+01 0.26296485538E+01 0.25468013643E+01 0.24626550746E+01 0.23830479523E+01
 0.23124537020E+01 0.22538825663E+01 0.22089622660E+01 0.21780521085E+01 0.21603235687E+01
 0.21538411692E+01 0.21557322492E+01 0.21625182048E+01 0.21706093644E+01 0.21768835445E+01
 0.21792208207E+01 0.21768736936E+01 0.21705974631E+01 0.21625166324E+01 0.25856242042E+01
 0.25467966718E+01 0.25134102089E+01 0.24890977818E+01 0.24763256577E+01 0.24763256556E+01
 0.24890978077E+01 0.25134102893E+01 0.25467967653E+01 0.25856242845E+01 0.26253412371E+01
 0.26609749508E+01 0.26878354319E+01 0.27022696109E+01 0.27022782233E+01 0.26878574009E+01
 0.26610004433E+01 0.26253580018E+01 0.25856216122E+01 0.25467705348E+01 0.25133663651E+01
 0.24890477403E+01 0.24762766969E+01 0.24762772572E+01 0.24890490864E+01 0.25133677612E+01
 0.25467713491E+01 0.25856215980E+01 0.26253572942E+01 0.26609994353E+01 0.26878565222E+01
 0.27022776751E+01 0.27022693019E+01 0.26878352002E+01 0.26609747620E+01 0.26253411202E+01
 0.30837920295E+01 0.29918972702E+01 0.29039723413E+01 0.28249407998E+01 0.27581717075E+01
 0.27054950625E+01 0.26673020401E+01 0.26426855807E+01 0.26296383470E+01 0.26253412371E+01
 0.26265605470E+01 0.26301282722E+01 0.26334197204E+01 0.26347219701E+01 0.26334402039E+01
 0.26301591778E+01 0.26265829958E+01 0.26253342908E+01 0.26295913237E+01 0.26426068573E+01
 0.26672139563E+01 0.27054183346E+01 0.27581153696E+01 0.28249058992E+01 0.29039600360E+01
 0.29919083326E+01 0.30838215061E+01 0.31734069723E+01 0.32535335127E+01 0.33170795622E+01
 0.33579542881E+01 0.33720552756E+01 0.33579376186E+01 0.33170503300E+01 0.32534969061E+01
 0.31733692245E+01 0.36417594411E+01 0.34778924640E+01 0.33191701065E+01 0.31722730883E+01
 0.30416577291E+01 0.29296736852E+01 0.28368536203E+01 0.27623384116E+01 0.27043993417E+01
 0.26609749508E+01 0.26301282722E+01 0.26103528896E+01 0.26006922803E+01 0.26007037573E+01
 0.26103806472E+01 0.26301520855E+01 0.26609669001E+01 0.27043410296E+01 0.27622375372E+01
 0.28367412507E+01 0.29295834356E+01 0.30416078400E+01 0.31722654697E+01 0.33191986348E+01
 0.34779467092E+01 0.36418237706E+01 0.38020825751E+01 0.39484970179E+01 0.40703950364E+01
 0.41580032669E+01 0.42038361570E+01 0.42038323364E+01 0.41579910070E+01 0.40703710507E+01
 0.39484563999E+01 0.38020251355E+01 0.42418096152E+01 0.39857365184E+01 0.37399656632E+01
 0.35131489817E+01 0.33106617768E+01 0.31349413658E+01 0.29861588791E+01 0.28631104470E+01
 0.27641363194E+01 0.26878354319E+01 0.26334197204E+01 0.26006922803E+01 0.25897624738E+01
 0.26007106030E+01 0.26334391925E+01 0.26878262515E+01 0.27640742538E+01 0.28630001878E+01
 0.29860367489E+01 0.31348508845E+01 0.33106270386E+01 0.35131694208E+01 0.37400270594E+01
 0.39858194570E+01 0.42418923155E+01 0.44964235235E+01 0.47351044161E+01 0.49424277794E+01
 0.51034335009E+01 0.52056170997E+01 0.52406564115E+01 0.52056269744E+01 0.51034436771E+01
 0.49424233353E+01 0.47350724463E+01 0.44963609664E+01 0.48559913533E+01 0.44885621360E+01
 0.41417813840E+01 0.38260321034E+01 0.35469907238E+01 0.33064233958E+01 0.31034844592E+01
 0.29362059448E+01 0.28027761882E+01 0.27022696109E+01 0.26347219701E+01 0.26007037573E+01
 0.26007106030E+01 0.26347322587E+01 0.27022562697E+01 0.28027122005E+01 0.29360919451E+01
 0.31033589248E+01 0.33063372825E+01 0.35469709007E+01 0.38260711762E+01 0.41418551963E+01
 0.44886464641E+01 0.48560652608E+01 0.52289414224E+01 0.55880825805E+01 0.59118853250E+01
 0.61785788820E+01 0.63687516777E+01 0.64677816089E+01 0.64677956148E+01 0.63687862707E+01
 0.61786161174E+01 0.59119055722E+01 0.55880714729E+01 0.52288948449E+01 0.54470588390E+01
 0.49532895117E+01 0.44964528318E+01 0.40878298013E+01 0.37323416055E+01 0.34301124308E+01
 0.31785971602E+01 0.29746791715E+01 0.28161548609E+01 0.27022782233E+01 0.26334402039E+01
 0.26103806472E+01 0.26334391925E+01 0.27022562697E+01 0.28160865475E+01 0.29745617267E+01
 0.31784678827E+01 0.34300271975E+01 0.37323301130E+01 0.40878769137E+01 0.44965220993E+01
 0.49533528395E+01 0.54471020120E+01 0.59595885278E+01 0.64664364124E+01 0.69390089693E+01
 0.73472208073E+01 0.76627719023E+01 0.78623943186E+01 0.79307352568E+01 0.78624201950E+01
 0.76628156518E+01 0.73472697486E+01 0.69390482883E+01 0.64664521759E+01 0.59595736769E+01
 0.59717496919E+01 0.53440542033E+01 0.47754979799E+01 0.42768253485E+01 0.38508367908E+01
 0.34949986480E+01 0.32044718197E+01 0.29746827980E+01 0.28027869060E+01 0.26878574009E+01
 0.26301591778E+01 0.26301520855E+01 0.26878262515E+01 0.28027122005E+01 0.29745617267E+01
 0.32043391557E+01 0.34949115334E+01 0.38508278109E+01 0.42768749094E+01 0.47755582023E+01
 0.53440912062E+01 0.59717562684E+01 0.66385008385E+01 0.73153069407E+01 0.79663025420E+01
 0.85520994360E+01 0.90337273784E+01 0.93767430634E+01 0.95552345076E+01 0.95552326681E+01
 0.93767435002E+01 0.90337424673E+01 0.85521350100E+01 0.79663492402E+01 0.73153469277E+01
 0.66385207603E+01 0.63861407259E+01 0.56270442424E+01 0.49542240088E+01 0.43760078335E+01
 0.38916225840E+01 0.34949989451E+01 0.31786001394E+01 0.29362134713E+01 0.27641520348E+01
 0.26610004433E+01 0.26265829958E+01 0.26609669001E+01 0.27640742538E+01 0.29360919451E+01
 0.31784678827E+01 0.34949115334E+01 0.38916141427E+01 0.43760582908E+01 0.49542788265E+01
 0.56270633697E+01 0.63861203064E+01 0.72114776912E+01 0.80710893609E+01 0.89228054911E+01
 0.97180159910E+01 0.10406062676E+02 0.10939006626E+02 0.11276794017E+02 0.11392535528E+02
 0.11276734780E+02 0.10938927111E+02 0.10406011981E+02 0.97180179986E+01 0.89228478671E+01
 0.80711441638E+01 0.72115232022E+01 0.66521633456E+01 0.57758092088E+01 0.50157947255E+01
 0.43760092661E+01 0.38508365871E+01 0.34301115878E+01 0.31034851440E+01 0.28631159344E+01
 0.27044139178E+01 0.26253580018E+01 0.26253342908E+01 0.27043410296E+01 0.28630001878E+01
 0.31033589248E+01 0.34300271975E+01 0.38508278109E+01 0.43760582908E+01 0.50158467265E+01
 0.57758212247E+01 0.66521318842E+01 0.76274248439E+01 0.86692712945E+01 0.97315764421E+01
 0.10758168226E+02 0.11687243625E+02 0.12456172157E+02 0.13007322352E+02 0.13295443621E+02
 0.13295374337E+02 0.13007150799E+02 0.12455983858E+02 0.11687118224E+02 0.10758133199E+02
 0.97316071674E+01 0.86693281299E+01 0.76274798342E+01 0.67438983108E+01 0.57758102012E+01
 0.49542304940E+01 0.42768306123E+01 0.37323404598E+01 0.33064167355E+01 0.29861525337E+01
 0.27623405274E+01 0.26296485538E+01 0.25856216122E+01 0.26295913237E+01 0.27622375372E+01
 0.29860367489E+01 0.33063372825E+01 0.37323301130E+01 0.42768749094E+01 0.49542788265E+01
 0.57758212247E+01 0.67438691722E+01 0.78463820665E+01 0.90538491595E+01 0.10319727259E+02
 0.11583615023E+02 0.12775269478E+02 0.13818528583E+02 0.14636482635E+02 0.15159547086E+02
 0.15339366343E+02 0.15159368593E+02 0.14636202774E+02 0.13818260301E+02 0.12775097822E+02
 0.11583555742E+02 0.10319742307E+02 0.90538941366E+01 0.78464299996E+01 0.66521515081E+01
 0.56270501661E+01 0.47755136733E+01 0.40878389858E+01 0.35469840456E+01 0.31349245888E+01
 0.28368425440E+01 0.26426890710E+01 0.25468013643E+01 0.25467705348E+01 0.26426068573E+01
 0.28367412507E+01 0.31348508845E+01 0.35469709007E+01 0.40878769137E+01 0.47755582023E+01
 0.56270633697E+01 0.66521318842E+01 0.78463820665E+01 0.91865761835E+01 0.10629740091E+02
 0.12115677019E+02 0.13570372630E+02 0.14908334938E+02 0.16031776090E+02 0.16841495772E+02
 0.17265179349E+02 0.17265086431E+02 0.16841248757E+02 0.16031460867E+02 0.14908056126E+02
 0.13570198136E+02 0.12115607769E+02 0.10629734623E+02 0.91865978085E+01 0.78464122929E+01
 0.63861295228E+01 0.53440741548E+01 0.44964805761E+01 0.38260398030E+01 0.33106426118E+01
 0.29296489970E+01 0.26672959386E+01 0.25134210919E+01 0.24626550746E+01 0.25133663651E+01
 0.26672139563E+01 0.29295834356E+01 0.33106270386E+01 0.38260711762E+01 0.44965220993E+01
 0.53440912062E+01 0.63861203064E+01 0.76274248439E+01 0.90538491595E+01 0.10629740091E+02
 0.12299597485E+02 0.13991075246E+02 0.15615233648E+02 0.17054099235E+02 0.18183105172E+02
 0.18903663299E+02 0.19151353677E+02 0.18903538111E+02 0.18182878960E+02 0.17053830552E+02
 0.15614998557E+02 0.13990921224E+02 0.12299520834E+02 0.10629710553E+02 0.90538458196E+01
 0.76274374115E+01 0.59717603962E+01 0.49533341321E+01 0.41418176198E+01 0.35131445039E+01
 0.30416242956E+01 0.27054730921E+01 0.24891069198E+01 0.23830731321E+01 0.23830479523E+01
 0.24890477403E+01 0.27054183346E+01 0.30416078400E+01 0.35131694208E+01 0.41418551963E+01
 0.49533528395E+01 0.59717562684E+01 0.72114776912E+01 0.86692712945E+01 0.10319727259E+02
 0.12115677019E+02 0.13991075246E+02 0.15860214687E+02 0.17595001903E+02 0.19050096327E+02
 0.20100949106E+02 0.20652715619E+02 0.20652695072E+02 0.20100872935E+02 0.19049948183E+02
 0.17594805069E+02 0.15860025219E+02 0.13990934802E+02 0.12115590371E+02 0.10319680515E+02
 0.86692551933E+01 0.72114828534E+01 0.54471101771E+01 0.44886311464E+01 0.37399957944E+01
 0.31722475316E+01 0.27581319798E+01 0.24763188659E+01 0.23124888646E+01 0.22587010533E+01
 0.23124537020E+01 0.24762766969E+01 0.27581153696E+01 0.31722654697E+01 0.37400270594E+01
 0.44886464641E+01 0.54471020120E+01 0.66385008385E+01 0.80710893609E+01 0.97315764421E+01
 0.11583615023E+02 0.13570372630E+02 0.15615233648E+02 0.17595001903E+02 0.19350173870E+02
 0.20734469701E+02 0.21623844643E+02 0.21930990718E+02 0.21623877510E+02 0.20734470770E+02
 0.19350088134E+02 0.17594842286E+02 0.15615060605E+02 0.13570234290E+02 0.11583524895E+02
 0.97315294902E+01 0.80710791091E+01 0.66385128917E+01 0.48560838153E+01 0.39858102209E+01
 0.33191747244E+01 0.28248949517E+01 0.24762927262E+01 0.22539106890E+01 0.21455823503E+01
 0.21455685494E+01 0.22538825663E+01 0.24762772572E+01 0.28249058992E+01 0.33191986348E+01
 0.39858194570E+01 0.48560652608E+01 0.59595885278E+01 0.73153069407E+01 0.89228054911E+01
 0.10758168226E+02 0.12775269478E+02 0.14908334938E+02 0.17054099235E+02 0.19050096327E+02
 0.20734469701E+02 0.21960403665E+02 0.22608206852E+02 0.22608260527E+02 0.21960507046E+02
 0.20734511100E+02 0.19050018403E+02 0.17053938168E+02 0.14908164586E+02 0.12775137682E+02
 0.10758088018E+02 0.89227750710E+01 0.73153183313E+01 0.59596189983E+01 0.42419191849E+01
 0.34779408525E+01 0.29039418379E+01 0.24890430618E+01 0.22089740983E+01 0.20471738167E+01
 0.19942421004E+01 0.20471593203E+01 0.22089622660E+01 0.24890490864E+01 0.29039600360E+01
 0.34779467092E+01 0.42418923155E+01 0.52289414224E+01 0.64664364124E+01 0.79663025420E+01
 0.97180159910E+01 0.11687243625E+02 0.13818528583E+02 0.16031776090E+02 0.18183105172E+02
 0.20100949106E+02 0.21623844643E+02 0.22608206852E+02 0.22949386889E+02 0.22608329272E+02
 0.21623975660E+02 0.20100974677E+02 0.18183006281E+02 0.16031615547E+02 0.13818374503E+02
 0.11687131435E+02 0.97179586009E+01 0.79663027935E+01 0.64664800952E+01 0.52289935672E+01
 0.36418492269E+01 0.29919010029E+01 0.25133530777E+01 0.21780482372E+01 0.19653475780E+01
 0.18621436098E+01 0.18621393425E+01 0.19653413822E+01 0.21780521085E+01 0.25133677612E+01
 0.29919083326E+01 0.36418237706E+01 0.44964235235E+01 0.55880825805E+01 0.69390089693E+01
 0.85520994360E+01 0.10406062676E+02 0.12456172157E+02 0.14636482635E+02 0.16841495772E+02
 0.18903663299E+02 0.20652715619E+02 0.21930990718E+02 0.22608260527E+02 0.22608329272E+02
 0.21931136872E+02 0.20652820303E+02 0.18903657800E+02 0.16841399358E+02 0.14636352141E+02
 0.12456052211E+02 0.10405982957E+02 0.85520810918E+01 0.69390539828E+01 0.55881605287E+01
 0.44964886453E+01 0.30838345142E+01 0.25467595778E+01 0.21603108829E+01 0.19005537605E+01
 0.17510191975E+01 0.17022062343E+01 0.17510182200E+01 0.19005578117E+01 0.21603235687E+01
 0.25467713491E+01 0.30838215061E+01 0.38020825751E+01 0.47351044161E+01 0.59118853250E+01
 0.73472208073E+01 0.90337273784E+01 0.10939006626E+02 0.13007322352E+02 0.15159547086E+02
 0.17265179349E+02 0.19151353677E+02 0.20652695072E+02 0.21623877510E+02 0.21960507046E+02
 0.21623975660E+02 0.20652820303E+02 0.19151430444E+02 0.17265181736E+02 0.15159491824E+02
 0.13007238042E+02 0.10938928679E+02 0.90336958273E+01 0.73472599461E+01 0.59119786136E+01
 0.47352019868E+01 0.38021416279E+01 0.25856163813E+01 0.21538250415E+01 0.18519991223E+01
 0.16610030788E+01 0.15685154002E+01 0.15685162249E+01 0.16610073445E+01 0.18520102298E+01
 0.21538411692E+01 0.25856215980E+01 0.31734069723E+01 0.39484970179E+01 0.49424277794E+01
 0.61785788820E+01 0.76627719023E+01 0.93767430634E+01 0.11276794017E+02 0.13295443621E+02
 0.15339366343E+02 0.17265086431E+02 0.18903538111E+02 0.20100872935E+02 0.20734470770E+02
 0.20734511100E+02 0.20100974677E+02 0.18903657800E+02 0.17265181736E+02 0.15339410169E+02
 0.13295429038E+02 0.11276745339E+02 0.93767112700E+01 0.76628030659E+01 0.61786763757E+01
 0.49425466263E+01 0.39485836459E+01 0.31734398306E+01 0.21557121777E+01 0.18178568815E+01
 0.15909500014E+01 0.14604890119E+01 0.14179436730E+01 0.14604914427E+01 0.15909577581E+01
 0.18178733818E+01 0.21557322492E+01 0.26253572942E+01 0.32535335127E+01 0.40703950364E+01
 0.51034335009E+01 0.63687516777E+01 0.78623943186E+01 0.95552345076E+01 0.11392535528E+02
 0.13295374337E+02 0.15159368593E+02 0.16841248757E+02 0.18182878960E+02 0.19049948183E+02
 0.19350088134E+02 0.19050018403E+02 0.18183006281E+02 0.16841399358E+02 0.15159491824E+02
 0.13295429038E+02 0.11392524949E+02 0.95552095167E+01 0.78624155510E+01 0.63688415888E+01
 0.51035584935E+01 0.40704979026E+01 0.32535803412E+01 0.26253558892E+01 0.17955707755E+01
 0.15388071950E+01 0.13763330992E+01 0.12977037959E+01 0.12977037026E+01 0.13763350170E+01
 0.15388174867E+01 0.17955942029E+01 0.21625182048E+01 0.26609994353E+01 0.33170795622E+01
 0.41580032669E+01 0.52056170997E+01 0.64677816089E+01 0.79307352568E+01 0.95552326681E+01
 0.11276734780E+02 0.13007150799E+02 0.14636202774E+02 0.16031460867E+02 0.17053830552E+02
 0.17594805069E+02 0.17594842286E+02 0.17053938168E+02 0.16031615547E+02 0.14636352141E+02
 0.13007238042E+02 0.11276745339E+02 0.95552095167E+01 0.79307437691E+01 0.64678564111E+01
 0.52057361313E+01 0.41581113281E+01 0.33171342250E+01 0.26609988908E+01 0.21624916177E+01
 0.15020349559E+01 0.13135582208E+01 0.12051793293E+01 0.11698440243E+01 0.12051756636E+01
 0.13135578894E+01 0.15020493046E+01 0.17822937337E+01 0.21706093644E+01 0.26878565222E+01
 0.33579542881E+01 0.42038361570E+01 0.52406564115E+01 0.64677956148E+01 0.78624201950E+01
 0.93767435002E+01 0.10938927111E+02 0.12455983858E+02 0.13818260301E+02 0.14908056126E+02
 0.15614998557E+02 0.15860025219E+02 0.15615060605E+02 0.14908164586E+02 0.13818374503E+02
 0.12456052211E+02 0.10938928679E+02 0.93767112700E+01 0.78624155510E+01 0.64678564111E+01
 0.52407674336E+01 0.42039457052E+01 0.33580152790E+01 0.26878577792E+01 0.21705761307E+01
 0.17822610012E+01 0.12694756136E+01 0.11373509423E+01 0.10734076459E+01 0.10734028231E+01
 0.11373415570E+01 0.12694753531E+01 0.14780712938E+01 0.17752362426E+01 0.21768835445E+01
 0.27022776751E+01 0.33720552756E+01 0.42038323364E+01 0.52056269744E+01 0.63687862707E+01
 0.76628156518E+01 0.90337424673E+01 0.10406011981E+02 0.11687118224E+02 0.12775097822E+02
 0.13570198136E+02 0.13990921224E+02 0.13990934802E+02 0.13570234290E+02 0.12775137682E+02
 0.11687131435E+02 0.10405982957E+02 0.90336958273E+01 0.76628030659E+01 0.63688415888E+01
 0.52057361313E+01 0.42039457052E+01 0.33721244396E+01 0.27022850830E+01 0.21768480647E+01
 0.17751941363E+01 0.14780490364E+01 0.10913207763E+01 0.10048364277E+01 0.97663846360E+00
 0.10048245126E+01 0.10913089367E+01 0.12416461046E+01 0.14646773048E+01 0.17722890459E+01
 0.21792208207E+01 0.27022693019E+01 0.33579376186E+01 0.41579910070E+01 0.51034436771E+01
 0.61786161174E+01 0.73472697486E+01 0.85521350100E+01 0.97180179986E+01 0.10758133199E+02
 0.11583555742E+02 0.12115607769E+02 0.12299520834E+02 0.12115590371E+02 0.11583524895E+02
 0.10758088018E+02 0.97179586009E+01 0.85520810918E+01 0.73472599461E+01 0.61786763757E+01
 0.51035584935E+01 0.41581113281E+01 0.33580152790E+01 0.27022850830E+01 0.21791889629E+01
 0.17722423537E+01 0.14646457351E+01 0.12416407149E+01 0.96103075920E+00 0.91083233775E+00
 0.91082481725E+00 0.96101492402E+00 0.10647191140E+01 0.12282281487E+01 0.14603872212E+01
 0.17722872276E+01 0.21768736936E+01 0.26878352002E+01 0.33170503300E+01 0.40703710507E+01
 0.49424233353E+01 0.59119055722E+01 0.69390482883E+01 0.79663492402E+01 0.89228478671E+01
 0.97316071674E+01 0.10319742307E+02 0.10629734623E+02 0.10629710553E+02 0.10319680515E+02
 0.97315294902E+01 0.89227750710E+01 0.79663027935E+01 0.69390539828E+01 0.59119786136E+01
 0.49425466263E+01 0.40704979026E+01 0.33171342250E+01 0.26878577792E+01 0.21768480647E+01
 0.17722423537E+01 0.14603506909E+01 0.12282149032E+01 0.10647274546E+01 0.87274377811E+00
 0.85089768294E+00 0.87273160926E+00 0.93971042747E+00 0.10560377244E+01 0.12282327827E+01
 0.14646811563E+01 0.17752341280E+01 0.21705974631E+01 0.26609747620E+01 0.32534969061E+01
 0.39484563999E+01 0.47350724463E+01 0.55880714729E+01 0.64664521759E+01 0.73153469277E+01
 0.80711441638E+01 0.86693281299E+01 0.90538941366E+01 0.91865978085E+01 0.90538458196E+01
 0.86692551933E+01 0.80710791091E+01 0.73153183313E+01 0.64664800952E+01 0.55881605287E+01
 0.47352019868E+01 0.39485836459E+01 0.32535803412E+01 0.26609988908E+01 0.21705761307E+01
 0.17751941363E+01 0.14646457351E+01 0.12282149032E+01 0.10560395572E+01 0.93972418309E+00
 0.82179292035E+00 0.82178820218E+00 0.86027699669E+00 0.93971674605E+00 0.10647306504E+01
 0.12416586984E+01 0.14780814333E+01 0.17822995939E+01 0.21625166324E+01 0.26253411202E+01
 0.31733692245E+01 0.38020251355E+01 0.44963609664E+01 0.52288948449E+01 0.59595736769E+01
 0.66385207603E+01 0.72115232022E+01 0.76274798342E+01 0.78464299996E+01 0.78464122929E+01
 0.76274374115E+01 0.72114828534E+01 0.66385128917E+01 0.59596189983E+01 0.52289935672E+01
 0.44964886453E+01 0.38021416279E+01 0.31734398306E+01 0.26253558892E+01 0.21624916177E+01
 0.17822610012E+01 0.14780490364E+01 0.12416407149E+01 0.10647274546E+01 0.93972418309E+00
 0.86028732464E+00 0.82179023342E+00 0.85090094082E+00 0.91083219793E+00 0.10048321732E+01
 0.11373491717E+01 0.13135699427E+01 0.15388403073E+01 0.18179092236E+01 0.21538816741E+01
 0.25467966471E+01 0.29918972905E+01 0.34778925483E+01 0.39857365597E+01 0.44885619795E+01
 0.49532890079E+01 0.53440532351E+01 0.56270428952E+01 0.57758079412E+01 0.57758096507E+01
 0.56270506504E+01 0.53440753829E+01 0.49533353854E+01 0.44886316833E+01 0.39858096339E+01
 0.34779393116E+01 0.29918992384E+01 0.25467584516E+01 0.21538249848E+01 0.18178577288E+01
 0.15388084865E+01 0.13135595356E+01 0.11373520009E+01 0.10048371158E+01 0.91083273198E+00
 0.85089794533E+00 0.82178839934E+00 0.85090094082E+00 0.88833685227E+00 0.95295969197E+00
 0.10479127240E+01 0.11771668777E+01 0.13450684948E+01 0.15557213453E+01 0.18121614476E+01
 0.21152969461E+01 0.24626559848E+01 0.28471046752E+01 0.32558267495E+01 0.36699499962E+01
 0.40652111275E+01 0.44139144844E+01 0.46881363557E+01 0.48637144284E+01 0.49241904670E+01
 0.48637211797E+01 0.46881526149E+01 0.44139439545E+01 0.40652523263E+01 0.36699904095E+01
 0.32558469382E+01 0.28470917509E+01 0.24626134006E+01 0.21152415370E+01 0.18121125422E+01
 0.15556917524E+01 0.13450607245E+01 0.11771734960E+01 0.10479210190E+01 0.95296011596E+00
 0.88832933577E+00 0.85089336720E+00 0.83864784465E+00 0.91083219793E+00 0.95295969197E+00
 0.10188008138E+01 0.11112982582E+01 0.12339223827E+01 0.13902030536E+01 0.15830737647E+01
 0.18140268796E+01 0.20821333521E+01 0.23830527197E+01 0.27082236079E+01 0.30444608271E+01
 0.33741894198E+01 0.36765118003E+01 0.39291958781E+01 0.41114500023E+01 0.42070407071E+01
 0.42070416952E+01 0.41114544038E+01 0.39292058342E+01 0.36765257006E+01 0.33741995398E+01
 0.30444567218E+01 0.27081993274E+01 0.23830117090E+01 0.20820870124E+01 0.18139887342E+01
 0.15830536300E+01 0.13902032070E+01 0.12339362711E+01 0.11113133688E+01 0.10188060915E+01
 0.95295282556E+00 0.91082068620E+00 0.89030576751E+00 0.89031124173E+00 0.10048321732E+01
 0.10479127240E+01 0.11112982582E+01 0.11977396833E+01 0.13102449501E+01 0.14515837245E+01
 0.16236219123E+01 0.18265313271E+01 0.20579810423E+01 0.23124611002E+01 0.25808975138E+01
 0.28506952226E+01 0.31063181022E+01 0.33304885587E+01 0.35060175497E+01 0.36180997904E+01
 0.36566533777E+01 0.36180971013E+01 0.35060144219E+01 0.33304848769E+01 0.31063095338E+01
 0.28506774477E+01 0.25808709636E+01 0.23124309335E+01 0.20579541401E+01 0.18265143178E+01
 0.16236198688E+01 0.14515972979E+01 0.13102678527E+01 0.11977607449E+01 0.11113080082E+01
 0.10479091568E+01 0.10048212988E+01 0.97988663370E+00 0.97173509083E+00 0.97989541707E+00
 0.11373491717E+01 0.11771668777E+01 0.12339223827E+01 0.13102449501E+01 0.14087467489E+01
 0.15315153847E+01 0.16794946643E+01 0.18518294559E+01 0.20452898235E+01 0.22538964379E+01
 0.24688460295E+01 0.26788040917E+01 0.28706170648E+01 0.30304863527E+01 0.31455794769E+01
 0.32058820142E+01 0.32058804345E+01 0.31455751895E+01 0.30304790601E+01 0.28706045430E+01
 0.26787856759E+01 0.24688261265E+01 0.22538822346E+01 0.20452860756E+01 0.18518371272E+01
 0.16795129285E+01 0.15315415719E+01 0.14087744801E+01 0.13102656232E+01 0.12339304713E+01
 0.11771633951E+01 0.11373400045E+01 0.11121887020E+01 0.11000514023E+01 0.11000546608E+01
 0.11121970613E+01 0.13135699427E+01 0.13450684948E+01 0.13902030536E+01 0.14515837245E+01
 0.15315153847E+01 0.16315218909E+01 0.17518411700E+01 0.18909629325E+01 0.20452898242E+01
 0.22089901397E+01 0.23740935152E+01 0.25308764653E+01 0.26685890974E+01 0.27765517859E+01
 0.28455518889E+01 0.28692991190E+01 0.28455529283E+01 0.27765507065E+01 0.26685824427E+01
 0.25308647589E+01 0.23740828297E+01 0.22089884144E+01 0.20453012695E+01 0.18909862033E+01
 0.17518714018E+01 0.16315524533E+01 0.15315387812E+01 0.14515943606E+01 0.13902009730E+01
 0.13450593444E+01 0.13135604209E+01 0.12931938044E+01 0.12818878968E+01 0.12782788185E+01
 0.12818907528E+01 0.12932001568E+01 0.15388403073E+01 0.15557213453E+01 0.15830737647E+01
 0.16236219123E+01 0.16794946643E+01 0.17518411700E+01 0.18404924252E+01 0.19437000893E+01
 0.20579810434E+01 0.21780961523E+01 0.22972082595E+01 0.24072868928E+01 0.24998212656E+01
 0.25668357589E+01 0.26020733407E+01 0.26020762736E+01 0.25668412103E+01 0.24998230525E+01
 0.24072830868E+01 0.22972034482E+01 0.21780973794E+01 0.20579926017E+01 0.19437215800E+01
 0.18405191101E+01 0.17518647962E+01 0.16795061737E+01 0.16236168817E+01 0.15830564563E+01
 0.15557021043E+01 0.15388278432E+01 0.15295129142E+01 0.15250611741E+01 0.15233989251E+01
 0.15233980798E+01 0.15250604620E+01 0.15295168766E+01 0.18179092236E+01 0.18121614476E+01
 0.18140268796E+01 0.18265313271E+01 0.18518294559E+01 0.18909629325E+01 0.19437000893E+01
 0.20084340364E+01 0.20821333558E+01 0.21603741060E+01 0.22375247554E+01 0.23071711127E+01
 0.23628203203E+01 0.23988158882E+01 0.24112785605E+01 0.23988227264E+01 0.23628280676E+01
 0.23071742095E+01 0.22375226185E+01 0.21603700843E+01 0.20821316073E+01 0.20084376132E+01
 0.19437087069E+01 0.18909707360E+01 0.18518272438E+01 0.18265139887E+01 0.18139990498E+01
 0.18121347369E+01 0.18178936532E+01 0.18277199206E+01 0.18379982126E+01 0.18455949046E+01
 0.18483769267E+01 0.18455892664E+01 0.18379924956E+01 0.18277221856E+01 0.21538816741E+01
 0.21152969461E+01 0.20821333521E+01 0.20579810423E+01 0.20452898235E+01 0.20452898242E+01
 0.20579810434E+01 0.20821333558E+01 0.21152969576E+01 0.21538816896E+01 0.21933958788E+01
 0.22289113004E+01 0.22557358387E+01 0.22701719369E+01 0.22701765631E+01 0.22557462941E+01
 0.22289199172E+01 0.21933956395E+01 0.21538696327E+01 0.21152756398E+01 0.20821102347E+01
 0.20579635607E+01 0.20452786108E+01 0.20452779865E+01 0.20579620519E+01 0.20821086990E+01
 0.21152749043E+01 0.21538700516E+01 0.21933969862E+01 0.22289216086E+01 0.22557477591E+01
 0.22701775167E+01 0.22701724119E+01 0.22557360206E+01 0.22289113503E+01 0.21933958781E+01
 0.25467966471E+01 0.24626559848E+01 0.23830527197E+01 0.23124611002E+01 0.22538964379E+01
 0.22089901397E+01 0.21780961523E+01 0.21603741060E+01 0.21538816896E+01 0.21557513463E+01