unknown system                          
   1.00000000000000     
     0.000000    2.715000    2.715000
     2.715000    0.000000    2.715000
     2.715000    2.715000    0.000000
   Si
     2
Direct
  0.500000  0.500000  0.500000
  0.750000  0.750000  0.750000
 
   32   32   32
 0.84540     0.86700     0.93303      1.0474      1.2162      1.4479      1.7519      2.1377      2.6114      3.1717    
  3.8058      4.4852      5.1655      5.7897      6.2953      6.6256      6.7405      6.6255      6.2952      5.7895    
  5.1654      4.4850      3.8057      3.1717      2.6115      2.1379      1.7521      1.4480      1.2162      1.0473    
 0.93296     0.86695     0.86700     0.90432     0.98108      1.1013      1.2706      1.4956      1.7830      2.1386    
  2.5641      3.0539      3.5916      4.1482      4.6823      5.1451      5.4876      5.6701      5.6701      5.4876    
  5.1450      4.6822      4.1481      3.5917      3.0540      2.5643      2.1388      1.7832      1.4956      1.2706    
  1.1013     0.98102     0.90427     0.86698     0.93303     0.98108      1.0639      1.1854      1.3501      1.5630    
  1.8287      2.1496      2.5238      2.9428      3.3882      3.8317      4.2371      4.5646      4.7781      4.8523    
  4.7781      4.5645      4.2371      3.8318      3.3882      2.9429      2.5240      2.1497      1.8288      1.5631    
  1.3501      1.1854      1.0639     0.98104     0.93301     0.91730      1.0474      1.1013      1.1854      1.3029    
  1.4577      1.6534      1.8925      2.1751      2.4968      2.8467      3.2059      3.5486      3.8442      4.0623    
  4.1782      4.1782      4.0623      3.8442      3.5487      3.2060      2.8468      2.4970      2.1752      1.8925    
  1.6533      1.4577      1.3029      1.1854      1.1013      1.0474      1.0210      1.0210      1.2162      1.2706    
  1.3501      1.4577      1.5966      1.7696      1.9776      2.2190      2.4874      2.7706      3.0508      3.3052    
  3.5097      3.6425      3.6886      3.6425      3.5097      3.3052      3.0508      2.7707      2.4874      2.2190    
  1.9776      1.7695      1.5965      1.4576      1.3501      1.2706      1.2162      1.1846      1.1742      1.1846    
  1.4479      1.4956      1.5630      1.6534      1.7696      1.9137      2.0858      2.2826      2.4969      2.7162    
  2.9244      3.1029      3.2340      3.3035      3.3035      3.2340      3.1029      2.9244      2.7162      2.4969    
  2.2827      2.0857      1.9136      1.7695      1.6533      1.5630      1.4956      1.4479      1.4176      1.4028    
  1.4027      1.4175      1.7519      1.7830      1.8287      1.8925      1.9776      2.0858      2.2162      2.3648    
  2.5238      2.6819      2.8254      2.9404      3.0148      3.0406      3.0148      2.9404      2.8254      2.6819    
  2.5239      2.3648      2.2162      2.0857      1.9775      1.8924      1.8287      1.7831      1.7520      1.7322    
  1.7212      1.7177      1.7212      1.7321      2.1377      2.1386      2.1496      2.1751      2.2190      2.2826    
  2.3648      2.4611      2.5641      2.6642      2.7510      2.8148      2.8487      2.8487      2.8148      2.7510    
  2.6642      2.5642      2.4612      2.3649      2.2826      2.2190      2.1751      2.1496      2.1387      2.1378    
  2.1420      2.1471      2.1504      2.1503      2.1470      2.1419      2.6114      2.5641      2.5238      2.4968    
  2.4874      2.4969      2.5238      2.5641      2.6114      2.6582      2.6974      2.7233      2.7324      2.7233    
  2.6974      2.6582      2.6114      2.5642      2.5239      2.4969      2.4874      2.4969      2.5239      2.5642    
  2.6114      2.6582      2.6974      2.7233      2.7324      2.7233      2.6974      2.6582      3.1717      3.0539    
  2.9428      2.8467      2.7706      2.7162      2.6819      2.6642      2.6582      2.6587      2.6614      2.6636    
  2.6636      2.6615      2.6588      2.6583      2.6643      2.6820      2.7163      2.7707      2.8468      2.9429    
  3.0540      3.1717      3.2854      3.3833      3.4552      3.4931      3.4931      3.4552      3.3834      3.2854    
  3.8058      3.5916      3.3882      3.2059      3.0508      2.9244      2.8254      2.7510      2.6974      2.6614    
  2.6408      2.6340      2.6408      2.6616      2.6975      2.7511      2.8256      2.9245      3.0509      3.2060    
  3.3882      3.5916      3.8057      4.0155      4.2035      4.3525      4.4481      4.4810      4.4481      4.3526    
  4.2036      4.0156      4.4852      4.1482      3.8317      3.5486      3.3052      3.1029      2.9404      2.8148    
  2.7233      2.6636      2.6340      2.6341      2.6637      2.7235      2.8150      2.9406      3.1031      3.3053    
  3.5487      3.8317      4.1481      4.4850      4.8231      5.1377      5.4025      5.5939      5.6943      5.6943    
  5.5940      5.4026      5.1378      4.8232      5.1655      4.6823      4.2371      3.8442      3.5097      3.2340    
  3.0148      2.8487      2.7324      2.6636      2.6408      2.6637      2.7326      2.8489      3.0150      3.2342    
  3.5098      3.8442      4.2370      4.6822      5.1654      5.6630      6.1427      6.5676      6.9016      7.1149    
  7.1882      7.1149      6.9017      6.5678      6.1428      5.6631      5.7897      5.1451      4.5646      4.0623    
  3.6425      3.3035      3.0406      2.8487      2.7233      2.6615      2.6616      2.7235      2.8489      3.0408    
  3.3037      3.6426      4.0623      4.5645      5.1449      5.7895      6.4717      7.1523      7.7830      8.3124    
  8.6945      8.8947      8.8947      8.6945      8.3125      7.7830      7.1524      6.4718      6.2953      5.4876    
  4.7781      4.1782      3.6886      3.3035      3.0148      2.8148      2.6974      2.6588      2.6975      2.8150    
  3.0150      3.3037      3.6887      4.1782      4.7780      5.4875      6.2952      7.1743      8.0815      8.9581    
  9.7371      10.352      10.745      10.881      10.745      10.352      9.7370      8.9580      8.0815      7.1744    
  6.6256      5.6701      4.8523      4.1782      3.6425      3.2340      2.9404      2.7510      2.6582      2.6583    
  2.7511      2.9406      3.2342      3.6426      4.1782      4.8522      5.6700      6.6254      7.6956      8.8367    
  9.9845      11.058      11.969      12.633      12.984      12.984      12.633      11.969      11.058      9.9844    
  8.8367      7.6956      6.7405      5.6701      4.7781      4.0623      3.5097      3.1029      2.8254      2.6642    
  2.6114      2.6643      2.8256      3.1031      3.5098      4.0623      4.7780      5.6700      6.7403      7.9736    
  9.3314      10.750      12.141      13.399      14.409      15.064      15.291      15.064      14.408      13.399    
  12.141      10.750      9.3314      7.9737      6.6255      5.4876      4.5645      3.8442      3.3052      2.9244    
  2.6819      2.5642      2.5642      2.6820      2.9245      3.3053      3.8442      4.5645      5.4875      6.6254    
  7.9736      9.5038      11.160      12.856      14.478      15.883      16.916      17.462      17.462      16.916    
  15.883      14.478      12.856      11.160      9.5038      7.9737      6.2952      5.1450      4.2371      3.5487    
  3.0508      2.7162      2.5239      2.4612      2.5239      2.7163      3.0509      3.5487      4.2370      5.1449    
  6.2952      7.6956      9.3314      11.160      13.107      15.060      16.860      18.308      19.243      19.567    
  19.243      18.308      16.860      15.060      13.107      11.160      9.3314      7.6956      5.7895      4.6822    
  3.8318      3.2060      2.7707      2.4969      2.3648      2.3649      2.4969      2.7707      3.2060      3.8317    
  4.6822      5.7895      7.1743      8.8367      10.750      12.856      15.060      17.203      19.055      20.415    
  21.135      21.135      20.416      19.056      17.203      15.060      12.856      10.750      8.8366      7.1743    
  5.1654      4.1481      3.3882      2.8468      2.4874      2.2827      2.2162      2.2826      2.4874      2.8468    
  3.3882      4.1481      5.1654      6.4717      8.0815      9.9845      12.141      14.478      16.860      19.055    
  20.824      21.973      22.372      21.973      20.825      19.056      16.860      14.478      12.141      9.9844    
  8.0814      6.4717      4.4850      3.5917      2.9429      2.4970      2.2190      2.0857      2.0857      2.2190    
  2.4969      2.9429      3.5916      4.4850      5.6630      7.1523      8.9581      11.058      13.399      15.883    
  18.308      20.415      21.973      22.802      22.802      21.973      20.415      18.308      15.883      13.399    
  11.058      8.9579      7.1522      5.6629      3.8057      3.0540      2.5240      2.1752      1.9776      1.9136    
  1.9775      2.1751      2.5239      3.0540      3.8057      4.8231      6.1427      7.7830      9.7371      11.969    
  14.409      16.916      19.243      21.135      22.372      22.802      22.371      21.135      19.243      16.916    
  14.408      11.969      9.7369      7.7828      6.1426      4.8230      3.1717      2.5643      2.1497      1.8925    
  1.7695      1.7695      1.8924      2.1496      2.5642      3.1717      4.0155      5.1377      6.5676      8.3124    
  10.352      12.633      15.064      17.462      19.567      21.135      21.973      21.973      21.135      19.566    
  17.462      15.064      12.633      10.351      8.3123      6.5675      5.1375      4.0154      2.6115      2.1388    
  1.8288      1.6533      1.5965      1.6533      1.8287      2.1387      2.6114      3.2854      4.2035      5.4025    
  6.9016      8.6945      10.745      12.984      15.291      17.462      19.243      20.416      20.825      20.415    
  19.243      17.462      15.291      12.984      10.745      8.6944      6.9015      5.4024      4.2034      3.2854    
  2.1379      1.7832      1.5631      1.4577      1.4576      1.5630      1.7831      2.1378      2.6582      3.3833    
  4.3525      5.5939      7.1149      8.8947      10.881      12.984      15.064      16.916      18.308      19.056    
  19.056      18.308      16.916      15.064      12.984      10.881      8.8945      7.1147      5.5938      4.3524    
  3.3833      2.6583      1.7521      1.4956      1.3501      1.3029      1.3501      1.4956      1.7520      2.1420    
  2.6974      3.4552      4.4481      5.6943      7.1882      8.8947      10.745      12.633      14.408      15.883    
  16.860      17.203      16.860      15.883      14.408      12.633      10.745      8.8945      7.1881      5.6942    
  4.4480      3.4552      2.6975      2.1421      1.4480      1.2706      1.1854      1.1854      1.2706      1.4479    
  1.7322      2.1471      2.7233      3.4931      4.4810      5.6943      7.1149      8.6945      10.352      11.969    
  13.399      14.478      15.060      15.060      14.478      13.399      11.969      10.351      8.6944      7.1147    
  5.6942      4.4810      3.4931      2.7234      2.1472      1.7323      1.2162      1.1013      1.0639      1.1013    
  1.2162      1.4176      1.7212      2.1504      2.7324      3.4931      4.4481      5.5940      6.9017      8.3125    
  9.7370      11.058      12.141      12.856      13.107      12.856      12.141      11.058      9.7369      8.3123    
  6.9015      5.5938      4.4480      3.4931      2.7325      2.1505      1.7213      1.4176      1.0473     0.98102    
 0.98104      1.0474      1.1846      1.4028      1.7177      2.1503      2.7233      3.4552      4.3526      5.4026    
  6.5678      7.7830      8.9580      9.9844      10.750      11.160      11.160      10.750      9.9844      8.9579    
  7.7828      6.5675      5.4024      4.3524      3.4552      2.7234      2.1505      1.7178      1.4028      1.1846    
 0.93296     0.90427     0.93301      1.0210      1.1742      1.4027      1.7212      2.1470      2.6974      3.3834    
  4.2036      5.1378      6.1428      7.1524      8.0815      8.8367      9.3314      9.5038      9.3314      8.8366    
  8.0814      7.1522      6.1426      5.1375      4.2034      3.3833      2.6975      2.1472      1.7213      1.4028    
  1.1742      1.0210     0.86695     0.86698     0.91730      1.0210      1.1846      1.4175      1.7321      2.1419    
  2.6582      3.2854      4.0156      4.8232      5.6631      6.4718      7.1744      7.6956      7.9737      7.9737    
  7.6956      7.1743      6.4717      5.6629      4.8230      4.0154      3.2854      2.6583      2.1421      1.7323    
  1.4176      1.1846      1.0210     0.91724     0.86700     0.90432     0.98108      1.1013      1.2706      1.4956    
  1.7830      2.1386      2.5641      3.0539      3.5916      4.1482      4.6823      5.1451      5.4876      5.6701    
  5.6701      5.4876      5.1450      4.6822      4.1481      3.5917      3.0540      2.5643      2.1388      1.7832    
  1.4956      1.2706      1.1013     0.98102     0.90427     0.86698     0.90432     0.95113      1.0320      1.1507    
  1.3119      1.5205      1.7807      2.0949      2.4611      2.8708      3.3060      3.7394      4.1355      4.4555    
  4.6641      4.7366      4.6641      4.4554      4.1354      3.7394      3.3061      2.8709      2.4613      2.0950    
  1.7808      1.5205      1.3119      1.1507      1.0319     0.95109     0.90429     0.88901     0.98108      1.0320    
  1.1117      1.2236      1.3714      1.5586      1.7874      2.0576      2.3648      2.6986      3.0413      3.3682    
  3.6503      3.8585      3.9693      3.9693      3.8585      3.6502      3.3682      3.0413      2.6987      2.3650    
  2.0577      1.7874      1.5586      1.3714      1.2235      1.1116      1.0320     0.98107     0.95634     0.95634    
  1.1013      1.1507      1.2236      1.3231      1.4522      1.6134      1.8075      2.0326      2.2826      2.5465    
  2.8075      3.0448      3.2358      3.3600      3.4031      3.3600      3.2358      3.0448      2.8076      2.5466    
  2.2828      2.0327      1.8075      1.6134      1.4521      1.3230      1.2236      1.1507      1.1013      1.0728    
  1.0635      1.0728      1.2706      1.3119      1.3714      1.4522      1.5571      1.6879      1.8445      2.0238    
  2.2190      2.4190      2.6092      2.7727      2.8930      2.9568      2.9568      2.8930      2.7727      2.6092    
  2.4191      2.2191      2.0239      1.8445      1.6879      1.5570      1.4521      1.3714      1.3119      1.2706    
  1.2448      1.2323      1.2323      1.2447      1.4956      1.5205      1.5586      1.6134      1.6879      1.7836    
  1.8998      2.0326      2.1751      2.3172      2.4466      2.5506      2.6181      2.6415      2.6181      2.5506    
  2.4466      2.3172      2.1752      2.0326      1.8998      1.7836      1.6878      1.6133      1.5586      1.5205    
  1.4956      1.4805      1.4724      1.4699      1.4724      1.4804      1.7830      1.7807      1.7874      1.8075    
  1.8445      1.8998      1.9721      2.0576      2.1495      2.2393      2.3175      2.3752      2.4059      2.4059    
  2.3752      2.3175      2.2393      2.1496      2.0576      1.9721      1.8997      1.8445      1.8075      1.7874    
  1.7807      1.7831      1.7897      1.7965      1.8007      1.8007      1.7965      1.7897      2.1386      2.0949    
  2.0576      2.0326      2.0238      2.0326      2.0576      2.0949      2.1386      2.1821      2.2186      2.2428    
  2.2513      2.2429      2.2187      2.1822      2.1387      2.0949      2.0576      2.0326      2.0238      2.0326    
  2.0576      2.0949      2.1387      2.1822      2.2187      2.2429      2.2513      2.2428      2.2186      2.1821    
  2.5641      2.4611      2.3648      2.2826      2.2190      2.1751      2.1495      2.1386      2.1377      2.1419    
  2.1470      2.1503      2.1504      2.1471      2.1420      2.1378      2.1387      2.1496      2.1751      2.2190    
  2.2826      2.3649      2.4612      2.5642      2.6642      2.7510      2.8148      2.8487      2.8487      2.8148    
  2.7510      2.6642      3.0539      2.8708      2.6986      2.5465      2.4190      2.3172      2.2393      2.1821    
  2.1419      2.1154      2.1005      2.0956      2.1005      2.1156      2.1420      2.1822      2.2394      2.3172    
  2.4190      2.5465      2.6986      2.8708      3.0539      3.2350      3.3988      3.5295      3.6138      3.6430    
  3.6139      3.5295      3.3989      3.2351      3.5916      3.3060      3.0413      2.8075      2.6092      2.4466    
  2.3175      2.2186      2.1470      2.1005      2.0775      2.0775      2.1006      2.1472      2.2188      2.3175    
  2.4466      2.6092      2.8075      3.0412      3.3060      3.5916      3.8816      4.1547      4.3870      4.5564    
  4.6457      4.6458      4.5565      4.3871      4.1548      3.8817      4.1482      3.7394      3.3682      3.0448    
  2.7727      2.5506      2.3752      2.2428      2.1503      2.0956      2.0775      2.0957      2.1505      2.2430    
  2.3753      2.5506      2.7726      3.0447      3.3681      3.7393      4.1481      4.5751      4.9928      5.3678    
  5.6660      5.8582      5.9245      5.8582      5.6661      5.3679      4.9929      4.5752      4.6823      4.1355    
  3.6503      3.2358      2.8930      2.6181      2.4059      2.2513      2.1504      2.1005      2.1006      2.1505    
  2.2515      2.4060      2.6181      2.8929      3.2356      3.6501      4.1354      4.6821      5.2701      5.8662    
  6.4273      6.9051      7.2538      7.4378      7.4378      7.2538      6.9052      6.4274      5.8663      5.2702    
  5.1451      4.4555      3.8585      3.3600      2.9568      2.6415      2.4059      2.2429      2.1471      2.1156    
  2.1472      2.2430      2.4060      2.6415      2.9567      3.3598      3.8584      4.4553      5.1449      5.9080    
  6.7088      7.4956      8.2052      8.7720      9.1384      9.2652      9.1384      8.7720      8.2052      7.4956    
  6.7089      5.9081      5.4876      4.6641      3.9693      3.4031      2.9568      2.6181      2.3752      2.2187    
  2.1420      2.1420      2.2188      2.3753      2.6181      2.9567      3.4030      3.9691      4.6640      5.4875    
  6.4249      7.4417      8.4815      9.4685      10.316      10.939      11.270      11.270      10.939      10.316    
  9.4684      8.4815      7.4418      6.4251      5.6701      4.7366      3.9693      3.3600      2.8930      2.5506    
  2.3175      2.1822      2.1378      2.1822      2.3175      2.5506      2.8929      3.3598      3.9691      4.7365    
  5.6699      6.7626      7.9859      9.2845      10.576      11.755      12.709      13.331      13.548      13.331    
  12.709      11.755      10.576      9.2845      7.9860      6.7628      5.6701      4.6641      3.8585      3.2358    
  2.7727      2.4466      2.2393      2.1387      2.1387      2.2394      2.4466      2.7726      3.2356      3.8584    
  4.6640      5.6699      6.8801      8.2763      9.8111      11.404      12.940      14.280      15.279      15.815    
  15.815      15.279      14.280      12.939      11.404      9.8111      8.2764      6.8803      5.4876      4.4554    
  3.6502      3.0448      2.6092      2.3172      2.1496      2.0949      2.1496      2.3172      2.6092      3.0447    
  3.6501      4.4553      5.4875      6.7626      8.2763      9.9948      11.848      13.723      15.468      16.903    
  17.854      18.187      17.854      16.903      15.468      13.723      11.848      9.9948      8.2764      6.7627    
  5.1450      4.1354      3.3682      2.8076      2.4191      2.1752      2.0576      2.0576      2.1751      2.4190    
  2.8075      3.3681      4.1354      5.1449      6.4249      7.9859      9.8111      11.848      13.997      16.110    
  17.989      19.410      20.177      20.177      19.410      17.989      16.110      13.997      11.848      9.8111    
  7.9859      6.4250      4.6822      3.7394      3.0413      2.5466      2.2191      2.0326      1.9721      2.0326    
  2.2190      2.5465      3.0412      3.7393      4.6821      5.9080      7.4417      9.2845      11.404      13.723    
  16.110      18.371      20.255      21.506      21.946      21.507      20.255      18.371      16.110      13.723    
  11.404      9.2844      7.4418      5.9080      4.1481      3.3061      2.6987      2.2828      2.0239      1.8998    
  1.8997      2.0238      2.2826      2.6986      3.3060      4.1481      5.2701      6.7088      8.4815      10.576    
  12.940      15.468      17.989      20.255      21.974      22.903      22.904      21.974      20.255      17.989    
  15.468      12.940      10.576      8.4814      6.7088      5.2701      3.5917      2.8709      2.3650      2.0327    
  1.8445      1.7836      1.8445      2.0326      2.3649      2.8708      3.5916      4.5751      5.8662      7.4956    
  9.4685      11.755      14.280      16.903      19.410      21.506      22.903      23.394      22.904      21.507    
  19.410      16.903      14.280      11.755      9.4684      7.4955      5.8662      4.5751      3.0540      2.4613    
  2.0577      1.8075      1.6879      1.6878      1.8075      2.0576      2.4612      3.0539      3.8816      4.9928    
  6.4273      8.2052      10.316      12.709      15.279      17.854      20.177      21.946      22.904      22.904    
  21.945      20.177      17.853      15.279      12.709      10.316      8.2051      6.4273      4.9928      3.8817    
  2.5643      2.0950      1.7874      1.6134      1.5570      1.6133      1.7874      2.0949      2.5642      3.2350    
  4.1547      5.3678      6.9051      8.7720      10.939      13.331      15.815      18.187      20.177      21.507    
  21.974      21.507      20.177      18.186      15.815      13.331      10.939      8.7719      6.9050      5.3678    
  4.1547      3.2352      2.1388      1.7808      1.5586      1.4521      1.4521      1.5586      1.7807      2.1387    
  2.6642      3.3988      4.3870      5.6660      7.2538      9.1384      11.270      13.548      15.815      17.854    
  19.410      20.255      20.255      19.410      17.853      15.815      13.548      11.269      9.1383      7.2537    
  5.6660      4.3871      3.3989      2.6644      1.7832      1.5205      1.3714      1.3230      1.3714      1.5205    
  1.7831      2.1822      2.7510      3.5295      4.5564      5.8582      7.4378      9.2652      11.270      13.331    
  15.279      16.903      17.989      18.371      17.989      16.903      15.279      13.331      11.269      9.2651    
  7.4377      5.8581      4.5565      3.5297      2.7511      2.1823      1.4956      1.3119      1.2235      1.2236    
  1.3119      1.4956      1.7897      2.2187      2.8148      3.6138      4.6457      5.9245      7.4378      9.1384    
  10.939      12.709      14.280      15.468      16.110      16.110      15.468      14.280      12.709      10.939    
  9.1383      7.4377      5.9245      4.6458      3.6140      2.8150      2.2188      1.7898      1.2706      1.1507    
  1.1116      1.1507      1.2706      1.4805      1.7965      2.2429      2.8487      3.6430      4.6458      5.8582    
  7.2538      8.7720      10.316      11.755      12.939      13.723      13.997      13.723      12.940      11.755    
  10.316      8.7719      7.2537      5.8581      4.6458      3.6432      2.8489      2.2430      1.7966      1.4805    
  1.1013      1.0319      1.0320      1.1013      1.2448      1.4724      1.8007      2.2513      2.8487      3.6139    
  4.5565      5.6661      6.9052      8.2052      9.4684      10.576      11.404      11.848      11.848      11.404    
  10.576      9.4684      8.2051      6.9050      5.6660      4.5565      3.6140      2.8489      2.2515      1.8008    
  1.4725      1.2447     0.98102     0.95109     0.98107      1.0728      1.2323      1.4699      1.8007      2.2428    
  2.8148      3.5295      4.3871      5.3679      6.4274      7.4956      8.4815      9.2845      9.8111      9.9948    
  9.8111      9.2844      8.4814      7.4955      6.4273      5.3678      4.3871      3.5297      2.8150      2.2430    
  1.8008      1.4700      1.2323      1.0728     0.90427     0.90429     0.95634      1.0635      1.2323      1.4724    
  1.7965      2.2186      2.7510      3.3989      4.1548      4.9929      5.8663      6.7089      7.4418      7.9860    
  8.2764      8.2764      7.9859      7.4418      6.7088      5.8662      4.9928      4.1547      3.3989      2.7511    
  2.2188      1.7966      1.4725      1.2323      1.0635     0.95627     0.86698     0.88901     0.95634      1.0728    
  1.2447      1.4804      1.7897      2.1821      2.6642      3.2351      3.8817      4.5752      5.2702      5.9081    
  6.4251      6.7628      6.8803      6.7627      6.4250      5.9080      5.2701      4.5751      3.8817      3.2352    
  2.6644      2.1823      1.7898      1.4805      1.2447      1.0728     0.95627     0.88896     0.93303     0.98108    
  1.0639      1.1854      1.3501      1.5630      1.8287      2.1496      2.5238      2.9428      3.3882      3.8317    
  4.2371      4.5646      4.7781      4.8523      4.7781      4.5645      4.2371      3.8318      3.3882      2.9429    
  2.5240      2.1497      1.8288      1.5631      1.3501      1.1854      1.0639     0.98104     0.93301     0.91730    
 0.98108      1.0320      1.1117      1.2236      1.3714      1.5586      1.7874      2.0576      2.3648      2.6986    
  3.0413      3.3682      3.6503      3.8585      3.9693      3.9693      3.8585      3.6502      3.3682      3.0413    
  2.6987      2.3650      2.0577      1.7874      1.5586      1.3714      1.2235      1.1116      1.0320     0.98107    
 0.95634     0.95634      1.0639      1.1117      1.1824      1.2793      1.4053      1.5627      1.7523      1.9721    
  2.2162      2.4737      2.7284      2.9601      3.1467      3.2680      3.3102      3.2680      3.1466      2.9601    
  2.7285      2.4738      2.2163      1.9722      1.7524      1.5627      1.4052      1.2792      1.1824      1.1117    
  1.0640      1.0365      1.0276      1.0365      1.1854      1.2236      1.2793      1.3555      1.4551      1.5796    
  1.7289      1.8998      2.0858      2.2765      2.4579      2.6141      2.7291      2.7902      2.7902      2.7291    
  2.6141      2.4580      2.2765      2.0858      1.8998      1.7289      1.5796      1.4550      1.3554      1.2792    
  1.2236      1.1854      1.1618      1.1506      1.1505      1.1618      1.3501      1.3714      1.4053      1.4551    
  1.5237      1.6125      1.7206      1.8445      1.9776      2.1105      2.2319      2.3296      2.3932      2.4153    
  2.3932      2.3296      2.2319      2.1106      1.9777      1.8446      1.7206      1.6125      1.5237      1.4550    
  1.4052      1.3714      1.3501      1.3378      1.3317      1.3298      1.3316      1.3378      1.5630      1.5586    
  1.5627      1.5796      1.6125      1.6626      1.7289      1.8075      1.8925      1.9758      2.0486      2.1026    
  2.1313      2.1313      2.1026      2.0486      1.9758      1.8925      1.8075      1.7289      1.6626      1.6125    
  1.5796      1.5627      1.5586      1.5631      1.5715      1.5796      1.5844      1.5844      1.5795      1.5714    
  1.8287      1.7874      1.7523      1.7289      1.7206      1.7289      1.7523      1.7874      1.8287      1.8699    
  1.9046      1.9278      1.9359      1.9278      1.9047      1.8699      1.8287      1.7874      1.7523      1.7288    
  1.7206      1.7288      1.7523      1.7874      1.8287      1.8699      1.9047      1.9278      1.9359      1.9278    
  1.9046      1.8699      2.1496      2.0576      1.9721      1.8998      1.8445      1.8075      1.7874      1.7807    
  1.7830      1.7897      1.7965      1.8007      1.8007      1.7965      1.7897      1.7831      1.7807      1.7874    
  1.8075      1.8445      1.8997      1.9721      2.0576      2.1496      2.2393      2.3175      2.3752      2.4059    
  2.4059      2.3752      2.3175      2.2393      2.5238      2.3648      2.2162      2.0858      1.9776      1.8925    
  1.8287      1.7830      1.7519      1.7321      1.7212      1.7177      1.7212      1.7322      1.7520      1.7831    
  1.8287      1.8924      1.9775      2.0857      2.2162      2.3648      2.5239      2.6819      2.8254      2.9404    
  3.0148      3.0406      3.0148      2.9404      2.8254      2.6819      2.9428      2.6986      2.4737      2.2765    
  2.1105      1.9758      1.8699      1.7897      1.7321      1.6949      1.6767      1.6768      1.6950      1.7322    
  1.7897      1.8699      1.9757      2.1104      2.2764      2.4736      2.6986      2.9428      3.1921      3.4282    
  3.6301      3.7779      3.8561      3.8561      3.7779      3.6301      3.4282      3.1922      3.3882      3.0413    
  2.7284      2.4579      2.2319      2.0486      1.9046      1.7965      1.7212      1.6767      1.6620      1.6768    
  1.7213      1.7966      1.9047      2.0485      2.2317      2.4578      2.7283      3.0412      3.3881      3.7531    
  4.1126      4.4375      4.6973      4.8654      4.9236      4.8655      4.6974      4.4376      4.1127      3.7532    
  3.8317      3.3682      2.9601      2.6141      2.3296      2.1026      1.9278      1.8007      1.7177      1.6768    
  1.6768      1.7178      1.8007      1.9278      2.1025      2.3295      2.6139      2.9599      3.3680      3.8316    
  4.3343      4.8483      5.3359      5.7539      6.0606      6.2230      6.2230      6.0606      5.7540      5.3360    
  4.8484      4.3344      4.2371      3.6503      3.1467      2.7291      2.3932      2.1313      1.9359      1.8007    
  1.7212      1.6950      1.7213      1.8007      1.9360      2.1313      2.3931      2.7289      3.1465      3.6501    