 running on    8 total cores
 distrk:  each k-point on    8 cores,    1 groups
 distr:  one band on    1 cores,    8 groups
 using from now: INCAR     
 vasp.5.4.4.18Apr17-6-g9f103f2a35 (build Dec 09 2018 21:25:21) complex          
  
 POSCAR found type information on POSCAR  Si
 POSCAR found :  1 types and       2 ions
 scaLAPACK will be used

 ----------------------------------------------------------------------------- 
|                                                                             |
|           W    W    AA    RRRRR   N    N  II  N    N   GGGG   !!!           |
|           W    W   A  A   R    R  NN   N  II  NN   N  G    G  !!!           |
|           W    W  A    A  R    R  N N  N  II  N N  N  G       !!!           |
|           W WW W  AAAAAA  RRRRR   N  N N  II  N  N N  G  GGG   !            |
|           WW  WW  A    A  R   R   N   NN  II  N   NN  G    G                |
|           W    W  A    A  R    R  N    N  II  N    N   GGGG   !!!           |
|                                                                             |
|      For optimal performance we recommend to set                            |
|        NCORE= 4 - approx SQRT( number of cores)                             |
|      NCORE specifies how many cores store one orbital (NPAR=cpu/NCORE).     |
|      This setting can  greatly improve the performance of VASP for DFT.     |
|      The default,   NCORE=1            might be grossly inefficient         |
|      on modern multi-core architectures or massively parallel machines.     |
|      Do your own testing !!!!                                               |
|      Unfortunately you need to use the default for GW and RPA calculations. |
|      (for HF NCORE is supported but not extensively tested yet)             |
|                                                                             |
 ----------------------------------------------------------------------------- 

 LDA part: xc-table for Pade appr. of Perdew
 POSCAR, INCAR and KPOINTS ok, starting setup
 FFT: planning ...
 WAVECAR not read
 entering main loop
       N       E                     dE             d eps       ncg     rms          rms(c)
DAV:   1    -0.326818515325E-01   -0.32682E-01   -0.23223E+03   176   0.453E+02
DAV:   2    -0.108410510027E+02   -0.10808E+02   -0.10555E+02   256   0.614E+01
DAV:   3    -0.109479850472E+02   -0.10693E+00   -0.10693E+00   200   0.778E+00
DAV:   4    -0.109482652917E+02   -0.28024E-03   -0.28024E-03   264   0.404E-01
DAV:   5    -0.109482653795E+02   -0.87789E-07   -0.87769E-07   200   0.710E-03    0.306E+00
DAV:   6    -0.108174823538E+02    0.13078E+00   -0.84681E-02   192   0.152E+00    0.181E+00
DAV:   7    -0.107581842453E+02    0.59298E-01   -0.15723E-01   184   0.221E+00    0.158E-01
DAV:   8    -0.107596853155E+02   -0.15011E-02   -0.44038E-03   192   0.486E-01    0.259E-02
DAV:   9    -0.107597850639E+02   -0.99748E-04   -0.10107E-04   136   0.792E-02
   1 F= -.10759785E+02 E0= -.10759313E+02  d E =-.107598E+02
 curvature:   0.00 expect dE= 0.000E+00 dE for cont linesearch  0.000E+00
 trial: gam= 0.00000 g(F)=  0.874E-46 g(S)=  0.000E+00 ort = 0.000E+00 (trialstep = 0.100E+01)
 search vector abs. value=  0.100E-09
 reached required accuracy - stopping structural energy minimisation
 writing wavefunctions
