unknown system                          
   1.00000000000000     
     0.000000    2.980386    2.980386
     2.980386    0.000000    2.980386
     2.980386    2.980386    0.000000
   Si
     2
Direct
  0.000000  0.000000  0.000000
  0.250000  0.250000  0.250000
 
   40   40   40
 -8.8613     -7.2000     -2.6567      3.6076      10.114      15.527      18.993      20.275      19.697      17.944    
  15.793      13.679      11.767      10.143      8.8284      7.8033      7.0268      6.4581      6.0670      5.8368    
  5.7605      5.8367      6.0670      6.4581      7.0268      7.8033      8.8284      10.143      11.767      13.679    
  15.793      17.944      19.697      20.275      18.993      15.527      10.114      3.6075     -2.6567     -7.2000    
 -7.2000     -3.9358      1.7125      8.3155      14.385      18.806      21.063      21.256      19.939      17.889    
  15.736      13.716      11.947      10.479      9.3103      8.4083      7.7315      7.2451      6.9278      6.7703    
  6.7703      6.9278      7.2452      7.7315      8.4083      9.3103      10.479      11.947      13.716      15.736    
  17.889      19.939      21.256      21.063      18.806      14.385      8.3155      1.7125     -3.9359     -7.2001    
 -2.6567      1.7125      7.6560      13.701      18.573      21.517      22.391      21.575      19.757      17.651    
  15.605      13.759      12.188      10.911      9.9057      9.1357      8.5634      8.1634      7.9246      7.8449    
  7.9246      8.1634      8.5634      9.1357      9.9057      10.911      12.188      13.759      15.605      17.651    
  19.757      21.575      22.391      21.517      18.573      13.701      7.6560      1.7126     -2.6566     -4.2651    
  3.6076      8.3155      13.701      18.475      21.719      23.079      22.734      21.237      19.275      17.293    
  15.454      13.850      12.517      11.449      10.615      9.9777      9.5085      9.1952      9.0370      9.0370    
  9.1952      9.5085      9.9776      10.615      11.449      12.517      13.850      15.454      17.293      19.275    
  21.237      22.734      23.079      21.719      18.474      13.701      8.3156      3.6077     0.85471     0.85463    
  10.114      14.385      18.573      21.719      23.309      23.334      22.187      20.462      18.635      16.892    
  15.337      14.019      12.945      12.090      11.420      10.906      10.533      10.303      10.225      10.303    
  10.533      10.906      11.420      12.090      12.945      14.019      15.337      16.892      18.635      20.461    
  22.187      23.334      23.309      21.719      18.573      14.385      10.114      6.9118      5.7224      6.9118    
  15.527      18.806      21.517      23.079      23.334      22.514      21.089      19.501      17.941      16.519    
  15.293      14.279      13.459      12.802      12.278      11.870      11.584      11.434      11.434      11.584    
  11.870      12.278      12.802      13.459      14.279      15.293      16.519      17.941      19.501      21.089    
  22.514      23.334      23.079      21.517      18.806      15.527      12.559      10.794      10.794      12.559    
  18.993      21.063      22.391      22.734      22.187      21.089      19.800      18.495      17.281      16.221    
  15.337      14.615      14.025      13.535      13.127      12.807      12.597      12.523      12.597      12.807    
  13.127      13.535      14.025      14.615      15.337      16.221      17.281      18.495      19.800      21.089    
  22.187      22.734      22.391      21.063      18.993      16.732      14.980      14.320      14.980      16.732    
  20.275      21.256      21.575      21.237      20.462      19.501      18.495      17.545      16.711      16.018    
  15.454      14.988      14.584      14.220      13.898      13.648      13.509      13.509      13.648      13.898    
  14.220      14.584      14.988      15.454      16.018      16.711      17.545      18.495      19.501      20.461    
  21.237      21.575      21.256      20.275      18.890      17.547      16.723      16.723      17.547      18.890    
  19.697      19.939      19.757      19.275      18.635      17.941      17.281      16.711      16.253      15.895    
  15.605      15.340      15.069      14.789      14.529      14.340      14.271      14.340      14.529      14.789    
  15.069      15.340      15.605      15.895      16.253      16.711      17.281      17.941      18.635      19.275    
  19.757      19.939      19.697      19.068      18.269      17.606      17.349      17.606      18.269      19.068    
  17.944      17.889      17.651      17.293      16.892      16.519      16.221      16.018      15.895      15.818    
  15.736      15.608      15.419      15.191      14.979      14.849      14.849      14.979      15.191      15.419    
  15.608      15.736      15.818      15.895      16.018      16.221      16.519      16.892      17.293      17.651    
  17.889      17.944      17.771      17.416      17.022      16.765      16.765      17.022      17.416      17.771    
  15.793      15.736      15.605      15.454      15.337      15.293      15.337      15.454      15.605      15.736    
  15.793      15.745      15.600      15.403      15.229      15.161      15.229      15.403      15.601      15.745    
  15.793      15.736      15.605      15.454      15.337      15.293      15.337      15.454      15.605      15.736    
  15.793      15.745      15.601      15.403      15.229      15.161      15.229      15.403      15.600      15.745    
  13.679      13.716      13.759      13.850      14.019      14.279      14.615      14.988      15.340      15.608    
  15.745      15.739      15.610      15.433      15.309      15.310      15.433      15.610      15.739      15.745    
  15.608      15.340      14.988      14.615      14.279      14.019      13.850      13.759      13.716      13.680    
  13.615      13.506      13.368      13.236      13.156      13.156      13.236      13.368      13.506      13.615    
  11.767      11.947      12.188      12.517      12.945      13.459      14.025      14.584      15.069      15.419    
  15.600      15.610      15.496      15.360      15.301      15.360      15.496      15.610      15.601      15.419    
  15.069      14.584      14.025      13.459      12.944      12.517      12.188      11.947      11.767      11.619    
  11.479      11.340      11.215      11.124      11.091      11.124      11.215      11.340      11.479      11.619    
  10.143      10.479      10.911      11.449      12.090      12.802      13.535      14.220      14.789      15.191    
  15.403      15.433      15.360      15.287      15.287      15.360      15.433      15.403      15.191      14.789    
  14.220      13.535      12.802      12.090      11.449      10.911      10.479      10.143      9.8790      9.6653    
  9.4861      9.3380      9.2284      9.1693      9.1693      9.2284      9.3380      9.4861      9.6653      9.8791    
  8.8284      9.3103      9.9057      10.615      11.420      12.278      13.127      13.898      14.529      14.979    
  15.229      15.309      15.301      15.287      15.301      15.310      15.229      14.979      14.529      13.898    
  13.127      12.278      11.420      10.615      9.9057      9.3103      8.8284      8.4455      8.1418      7.8996    
  7.7085      7.5666      7.4777      7.4473      7.4777      7.5666      7.7086      7.8996      8.1418      8.4455    
  7.8033      8.4083      9.1357      9.9777      10.906      11.870      12.807      13.648      14.340      14.849    
  15.161      15.310      15.360      15.360      15.310      15.161      14.849      14.340      13.648      12.807    
  11.870      10.906      9.9777      9.1357      8.4083      7.8033      7.3132      6.9217      6.6115      6.3688    
  6.1865      6.0633      6.0008      6.0008      6.0633      6.1866      6.3688      6.6114      6.9217      7.3131    
  7.0268      7.7315      8.5634      9.5085      10.533      11.584      12.597      13.509      14.271      14.849    
  15.229      15.433      15.496      15.433      15.229      14.849      14.271      13.509      12.597      11.584    
  10.533      9.5085      8.5634      7.7315      7.0268      6.4466      5.9781      5.6046      5.3112      5.0876    
  4.9288      4.8332      4.8013      4.8332      4.9288      5.0876      5.3112      5.6046      5.9781      6.4466    
  6.4581      7.2451      8.1634      9.1952      10.303      11.434      12.523      13.509      14.340      14.979    
  15.403      15.610      15.610      15.403      14.979      14.340      13.509      12.523      11.434      10.303    
  9.1952      8.1634      7.2452      6.4581      5.8028      5.2685      4.8396      4.5003      4.2383      4.0459    
  3.9188      3.8556      3.8555      3.9188      4.0458      4.2382      4.5002      4.8396      5.2686      5.8028    
  6.0670      6.9278      7.9246      9.0370      10.225      11.434      12.597      13.648      14.529      15.191    
  15.601      15.739      15.601      15.191      14.529      13.648      12.597      11.434      10.225      9.0370    
  7.9246      6.9278      6.0670      5.3451      4.7527      4.2742      3.8934      3.5964      3.3733      3.2176    
  3.1254      3.0949      3.1254      3.2176      3.3733      3.5964      3.8934      4.2742      4.7527      5.3451    
  5.8368      6.7703      7.8449      9.0370      10.303      11.584      12.807      13.898      14.789      15.419    
  15.745      15.745      15.419      14.789      13.898      12.807      11.584      10.303      9.0370      7.8448    
  6.7703      5.8368      5.0496      4.4006      3.8744      3.4537      3.1233      2.8714      2.6893      2.5710    
  2.5128      2.5127      2.5710      2.6893      2.8715      3.1234      3.4538      3.8744      4.4006      5.0496    
  5.7605      6.7703      7.9246      9.1952      10.533      11.870      13.127      14.220      15.069      15.608    
  15.793      15.608      15.069      14.220      13.127      11.870      10.533      9.1952      7.9246      6.7703    
  5.7605      4.9041      4.1947      3.6176      3.1548      2.7898      2.5086      2.3007      2.1581      2.0749    
  2.0476      2.0749      2.1581      2.3007      2.5086      2.7898      3.1549      3.6176      4.1947      4.9041    
  5.8367      6.9278      8.1634      9.5085      10.906      12.278      13.535      14.584      15.340      15.736    
  15.736      15.340      14.584      13.535      12.278      10.906      9.5085      8.1634      6.9278      5.8368    
  4.9041      4.1268      3.4916      2.9807      2.5763      2.2629      2.0278      1.8608      1.7542      1.7024    
  1.7024      1.7542      1.8608      2.0278      2.2629      2.5763      2.9807      3.4916      4.1269      4.9041    
  6.0670      7.2452      8.5634      9.9776      11.420      12.802      14.025      14.988      15.605      15.818    
  15.605      14.988      14.025      12.802      11.420      9.9777      8.5634      7.2452      6.0670      5.0496    
  4.1947      3.4916      2.9235      2.4720      2.1204      1.8541      1.6607      1.5305      1.4556      1.4312    
  1.4556      1.5305      1.6607      1.8541      2.1204      2.4720      2.9234      3.4916      4.1947      5.0496    
  6.4581      7.7315      9.1357      10.615      12.090      13.459      14.615      15.454      15.895      15.895    
  15.454      14.615      13.459      12.090      10.615      9.1357      7.7315      6.4581      5.3451      4.4006    
  3.6176      2.9807      2.4720      2.0737      1.7696      1.5455      1.3892      1.2910      1.2437      1.2437    
  1.2910      1.3892      1.5455      1.7696      2.0737      2.4720      2.9807      3.6175      4.4006      5.3451    
  7.0268      8.4083      9.9057      11.449      12.945      14.279      15.337      16.018      16.253      16.018    
  15.337      14.279      12.944      11.449      9.9057      8.4083      7.0268      5.8028      4.7527      3.8744    
  3.1548      2.5763      2.1204      1.7696      1.5079      1.3210      1.1969      1.1264      1.1036      1.1264    
  1.1969      1.3210      1.5079      1.7696      2.1204      2.5763      3.1549      3.8744      4.7527      5.8028    
  7.8033      9.3103      10.911      12.517      14.019      15.293      16.221      16.711      16.711      16.221    
  15.293      14.019      12.517      10.911      9.3103      7.8033      6.4466      5.2685      4.2742      3.4537    
  2.7898      2.2629      1.8541      1.5455      1.3210      1.1664      1.0701      1.0241      1.0241      1.0701    
  1.1664      1.3210      1.5455      1.8540      2.2629      2.7898      3.4538      4.2743      5.2686      6.4467    
  8.8284      10.479      12.188      13.850      15.337      16.519      17.281      17.545      17.281      16.519    
  15.337      13.850      12.188      10.479      8.8284      7.3132      5.9781      4.8396      3.8934      3.1233    
  2.5086      2.0278      1.6607      1.3892      1.1969      1.0701     0.99839     0.97521     0.99840      1.0701    
  1.1969      1.3892      1.6608      2.0278      2.5086      3.1234      3.8934      4.8396      5.9781      7.3132    
  10.143      11.947      13.759      15.454      16.892      17.941      18.495      18.495      17.941      16.892    
  15.454      13.759      11.947      10.143      8.4455      6.9217      5.6046      4.5003      3.5964      2.8714    
  2.3007      1.8608      1.5305      1.2910      1.1264      1.0241     0.97521     0.97521      1.0241      1.1264    
  1.2910      1.5305      1.8608      2.3008      2.8715      3.5964      4.5002      5.6045      6.9217      8.4455    
  11.767      13.716      15.605      17.293      18.635      19.501      19.800      19.501      18.635      17.293    
  15.605      13.716      11.767      9.8790      8.1418      6.6115      5.3112      4.2383      3.3733      2.6893    
  2.1581      1.7542      1.4556      1.2437      1.1036      1.0241     0.99840      1.0241      1.1035      1.2437    
  1.4556      1.7542      2.1581      2.6893      3.3733      4.2383      5.3112      6.6114      8.1418      9.8790    
  13.679      15.736      17.651      19.275      20.461      21.089      21.089      20.461      19.275      17.651    
  15.736      13.680      11.619      9.6653      7.8996      6.3688      5.0876      4.0459      3.2176      2.5710    
  2.0749      1.7024      1.4312      1.2437      1.1264      1.0701      1.0701      1.1264      1.2437      1.4312    
  1.7024      2.0749      2.5710      3.2175      4.0458      5.0876      6.3688      7.8997      9.6653      11.619    
  15.793      17.889      19.757      21.237      22.187      22.514      22.187      21.237      19.757      17.889    
  15.793      13.615      11.479      9.4861      7.7085      6.1865      4.9288      3.9188      3.1254      2.5128    
  2.0476      1.7024      1.4556      1.2910      1.1969      1.1664      1.1969      1.2910      1.4556      1.7024    
  2.0476      2.5128      3.1254      3.9188      4.9288      6.1866      7.7086      9.4861      11.479      13.615    
  17.944      19.939      21.575      22.734      23.334      23.334      22.734      21.575      19.939      17.944    
  15.745      13.506      11.340      9.3380      7.5666      6.0633      4.8332      3.8556      3.0949      2.5127    
  2.0749      1.7542      1.5305      1.3892      1.3210      1.3210      1.3892      1.5305      1.7542      2.0749    
  2.5128      3.0949      3.8556      4.8333      6.0633      7.5666      9.3380      11.340      13.506      15.745    
  19.697      21.256      22.391      23.079      23.309      23.079      22.391      21.256      19.697      17.771    
  15.601      13.368      11.215      9.2284      7.4777      6.0008      4.8013      3.8555      3.1254      2.5710    
  2.1581      1.8608      1.6607      1.5455      1.5079      1.5455      1.6608      1.8608      2.1581      2.5710    
  3.1254      3.8556      4.8013      6.0008      7.4777      9.2284      11.215      13.368      15.601      17.771    
  20.275      21.063      21.517      21.719      21.719      21.517      21.063      20.275      19.068      17.416    
  15.403      13.236      11.124      9.1693      7.4473      6.0008      4.8332      3.9188      3.2176      2.6893    
  2.3007      2.0278      1.8541      1.7696      1.7696      1.8540      2.0278      2.3008      2.6893      3.2175    
  3.9188      4.8333      6.0008      7.4473      9.1693      11.124      13.236      15.403      17.416      19.068    
  18.993      18.806      18.573      18.474      18.573      18.806      18.993      18.890      18.269      17.022    
  15.229      13.156      11.091      9.1693      7.4777      6.0633      4.9288      4.0458      3.3733      2.8715    
  2.5086      2.2629      2.1204      2.0737      2.1204      2.2629      2.5086      2.8715      3.3733      4.0458    
  4.9288      6.0633      7.4777      9.1693      11.091      13.156      15.229      17.022      18.269      18.889    
  15.527      14.385      13.701      13.701      14.385      15.527      16.732      17.547      17.606      16.765    
  15.161      13.156      11.124      9.2284      7.5666      6.1866      5.0876      4.2382      3.5964      3.1234    
  2.7898      2.5763      2.4720      2.4720      2.5763      2.7898      3.1234      3.5964      4.2383      5.0876    
  6.1866      7.5666      9.2284      11.124      13.156      15.160      16.765      17.606      17.547      16.732    
  10.114      8.3155      7.6560      8.3156      10.114      12.559      14.980      16.723      17.349      16.765    
  15.229      13.236      11.215      9.3380      7.7086      6.3688      5.3112      4.5002      3.8934      3.4538    
  3.1549      2.9807      2.9234      2.9807      3.1549      3.4538      3.8934      4.5002      5.3112      6.3688    
  7.7086      9.3380      11.215      13.236      15.229      16.765      17.349      16.723      14.980      12.559    
  3.6075      1.7125      1.7126      3.6077      6.9118      10.794      14.320      16.723      17.606      17.022    
  15.403      13.368      11.340      9.4861      7.8996      6.6114      5.6046      4.8396      4.2742      3.8744    
  3.6176      3.4916      3.4916      3.6175      3.8744      4.2743      4.8396      5.6045      6.6114      7.8997    
  9.4861      11.340      13.368      15.403      17.022      17.606      16.723      14.320      10.794      6.9117    
 -2.6567     -3.9359     -2.6566     0.85471      5.7224      10.794      14.980      17.547      18.269      17.416    
  15.600      13.506      11.479      9.6653      8.1418      6.9217      5.9781      5.2686      4.7527      4.4006    
  4.1947      4.1269      4.1947      4.4006      4.7527      5.2686      5.9781      6.9217      8.1418      9.6653    
  11.479      13.506      15.601      17.416      18.269      17.547      14.980      10.794      5.7223     0.85467    
 -7.2000     -7.2001     -4.2651     0.85463      6.9118      12.559      16.732      18.890      19.068      17.771    
  15.745      13.615      11.619      9.8791      8.4455      7.3131      6.4466      5.8028      5.3451      5.0496    
  4.9041      4.9041      5.0496      5.3451      5.8028      6.4467      7.3132      8.4455      9.8790      11.619    
  13.615      15.745      17.771      19.068      18.889      16.732      12.559      6.9117     0.85467     -4.2649    
 -7.2000     -3.9358      1.7125      8.3155      14.385      18.806      21.063      21.256      19.939      17.889    
  15.736      13.716      11.947      10.479      9.3103      8.4083      7.7315      7.2451      6.9278      6.7703    
  6.7703      6.9278      7.2452      7.7315      8.4083      9.3103      10.479      11.947      13.716      15.736    
  17.889      19.939      21.256      21.063      18.806      14.385      8.3155      1.7125     -3.9359     -7.2001    
 -3.9358     0.64268      6.8776      13.235      18.388      21.548      22.564      21.817      20.011      17.887    
  15.818      13.948      12.355      11.059      10.039      9.2580      8.6774      8.2717      8.0296      7.9487    
  8.0295      8.2717      8.6774      9.2580      10.039      11.059      12.355      13.948      15.818      17.887    
  20.011      21.817      22.564      21.548      18.388      13.235      6.8776     0.64251     -3.9360     -5.6207    
  1.7125      6.8776      12.808      18.106      21.779      23.436      23.253      21.803      19.811      17.783    
  15.895      14.246      12.873      11.772      10.912      10.254      9.7701      9.4469      9.2838      9.2838    
  9.4469      9.7701      10.254      10.912      11.772      12.873      14.246      15.895      17.783      19.811    
  21.803      23.253      23.436      21.779      18.106      12.808      6.8776      1.7125     -1.3034     -1.3034    
  8.3155      13.235      18.106      21.846      23.872      24.154      23.099      21.346      19.453      17.640    
  16.018      14.639      13.512      12.615      11.910      11.369      10.977      10.735      10.653      10.735    
  10.977      11.369      11.910      12.615      13.512      14.639      16.018      17.640      19.453      21.346    
  23.099      24.154      23.872      21.846      18.106      13.235      8.3155      4.6419      3.2796      4.6418    
  14.385      18.388      21.779      23.872      24.461      23.780      22.339      20.673      19.030      17.524    
  16.221      15.139      14.261      13.556      12.990      12.550      12.239      12.077      12.077      12.239    
  12.550      12.990      13.556      14.261      15.139      16.221      17.524      19.030      20.673      22.339    
  23.780      24.461      23.872      21.779      18.388      14.385      10.800      8.6769      8.6769      10.800    
  18.806      21.548      23.436      24.154      23.780      22.683      21.319      19.927      18.624      17.480    
  16.519      15.729      15.079      14.536      14.080      13.720      13.483      13.400      13.483      13.720    
  14.080      14.536      15.079      15.729      16.519      17.480      18.624      19.927      21.319      22.683    
  23.780      24.154      23.436      21.548      18.806      15.891      13.659      12.822      13.659      15.891    
  21.063      22.564      23.253      23.099      22.339      21.319      20.237      19.205      18.292      17.524    
  16.892      16.363      15.897      15.472      15.093      14.796      14.630      14.630      14.796      15.093    
  15.472      15.897      16.363      16.892      17.524      18.292      19.205      20.237      21.319      22.339    
  23.099      23.253      22.564      21.063      19.100      17.255      16.137      16.137      17.255      19.101    
  21.256      21.817      21.803      21.346      20.673      19.927      19.205      18.573      18.055      17.640    
  17.293      16.967      16.627      16.272      15.940      15.697      15.607      15.697      15.940      16.272    
  16.627      16.967      17.293      17.640      18.055      18.573      19.205      19.927      20.673      21.346    
  21.803      21.817      21.256      20.207      18.979      17.995      17.619      17.995      18.979      20.207    
  19.939      20.011      19.811      19.453      19.030      18.624      18.292      18.055      17.899      17.783    
  17.651      17.455      17.179      16.846      16.530      16.335      16.335      16.530      16.846      17.179    
  17.455      17.651      17.783      17.899      18.055      18.292      18.624      19.030      19.453      19.811    
  20.011      19.939      19.533      18.886      18.224      17.807      17.807      18.224      18.886      19.533    
  17.889      17.887      17.783      17.640      17.524      17.480      17.524      17.640      17.783      17.887    
  17.889      17.749      17.462      17.097      16.790      16.670      16.790      17.097      17.462      17.749    
  17.889      17.887      17.783      17.640      17.524      17.480      17.524      17.640      17.783      17.887    
  17.889      17.749      17.462      17.097      16.790      16.670      16.790      17.097      17.462      17.749    
  15.736      15.818      15.895      16.018      16.221      16.519      16.892      17.293      17.651      17.889    
  17.944      17.771      17.416      17.022      16.765      16.765      17.022      17.416      17.771      17.944    
  17.889      17.651      17.293      16.892      16.519      16.221      16.018      15.895      15.818      15.736    
  15.608      15.419      15.191      14.979      14.849      14.849      14.979      15.191      15.419      15.608    
  13.716      13.948      14.246      14.639      15.139      15.729      16.363      16.967      17.455      17.749    
  17.771      17.517      17.109      16.743      16.598      16.743      17.109      17.517      17.771      17.749    
  17.455      16.967      16.363      15.729      15.139      14.639      14.246      13.948      13.716      13.513    
  13.312      13.107      12.918      12.782      12.732      12.782      12.918      13.107      13.312      13.513    
  11.947      12.355      12.873      13.512      14.261      15.079      15.897      16.627      17.179      17.462    
  17.416      17.109      16.720      16.458      16.458      16.720      17.109      17.416      17.462      17.179    
  16.627      15.897      15.079      14.261      13.512      12.873      12.355      11.947      11.621      11.351    
  11.117      10.918      10.767      10.684      10.684      10.767      10.918      11.117      11.351      11.621    
  10.479      11.059      11.772      12.615      13.556      14.536      15.472      16.272      16.846      17.097    
  17.022      16.743      16.458      16.339      16.458      16.743      17.022      17.097      16.846      16.272    
  15.472      14.536      13.556      12.615      11.772      11.059      10.479      10.017      9.6483      9.3516    
  9.1135      8.9331      8.8183      8.7786      8.8182      8.9330      9.1135      9.3516      9.6484      10.017    
  9.3103      10.039      10.912      11.910      12.990      14.080      15.093      15.940      16.530      16.790    
  16.765      16.598      16.458      16.458      16.598      16.765      16.790      16.530      15.940      15.093    
  14.081      12.990      11.910      10.912      10.039      9.3103      8.7196      8.2488      7.8758      7.5830    
  7.3610      7.2091      7.1313      7.1314      7.2092      7.3610      7.5830      7.8758      8.2487      8.7195    
  8.4083      9.2580      10.254      11.369      12.550      13.720      14.796      15.697      16.335      16.670    
  16.765      16.743      16.720      16.743      16.765      16.670      16.335      15.697      14.796      13.720    
  12.550      11.369      10.254      9.2580      8.4083      7.7081      7.1444      6.6969      6.3461      6.0781    
  5.8865      5.7703      5.7313      5.7704      5.8865      6.0782      6.3461      6.6969      7.1443      7.7080    
  7.7315      8.6774      9.7701      10.977      12.239      13.483      14.630      15.607      16.335      16.790    
  17.022      17.109      17.109      17.022      16.790      16.335      15.607      14.630      13.483      12.239    
  10.977      9.7701      8.6774      7.7315      6.9416      6.2991      5.7857      5.3811      5.0690      4.8389    
  4.6861      4.6096      4.6096      4.6861      4.8389      5.0690      5.3811      5.7857      6.2991      6.9416    
  7.2451      8.2717      9.4469      10.735      12.077      13.400      14.630      15.697      16.530      17.097    
  17.416      17.517      17.416      17.097      16.530      15.697      14.630      13.400      12.077      10.735    
  9.4469      8.2717      7.2452      6.3801      5.6706      5.0999      4.6477      4.2957      4.0307      3.8447    
  3.7341      3.6973      3.7340      3.8447      4.0306      4.2956      4.6477      5.1000      5.6707      6.3801    
  6.9278      8.0296      9.2838      10.653      12.077      13.483      14.796      15.940      16.846      17.462    
  17.771      17.771      17.462      16.846      15.940      14.796      13.483      12.077      10.652      9.2838    
  8.0295      6.9278      5.9938      5.2234      4.6007      4.1048      3.7163      3.4196      3.2041      3.0633    
  2.9936      2.9936      3.0633      3.2041      3.4196      3.7163      4.1049      4.6007      5.2234      5.9938    
  6.7703      7.9487      9.2838      10.735      12.239      13.720      15.093      16.272      17.179      17.749    
  17.944      17.749      17.179      16.272      15.093      13.720      12.239      10.735      9.2838      7.9487    
  6.7703      5.7662      4.9344      4.2595      3.7203      3.2958      2.9686      2.7257      2.5579      2.4595    
  2.4271      2.4595      2.5579      2.7257      2.9687      3.2959      3.7203      4.2595      4.9344      5.7662    
  6.7703      8.0295      9.4469      10.977      12.550      14.080      15.472      16.627      17.455      17.889    
  17.889      17.455      16.627      15.472      14.081      12.550      10.977      9.4469      8.0295      6.7703    
  5.6909      4.7920      4.0598      3.4730      3.0096      2.6502      2.3796      2.1863      2.0621      2.0014    
  2.0014      2.0621      2.1863      2.3796      2.6502      3.0096      3.4730      4.0598      4.7920      5.6908    
  6.9278      8.2717      9.7701      11.369      12.990      14.536      15.897      16.967      17.651      17.887    