    2    2   15    1
  0.2647388E+02  0.4214902E-09  0.4214902E-09  0.4214902E-09  0.5000000E-15
  1.000000000000000E-004
  CAR 
 unknown system                          
      8     60      8
 
  0.6250000E-01  0.6250000E-01  0.6250000E-01  0.3906250E-02
    1       -6.887265   1.000000
    2        2.593416   1.000000
    3        3.274347   0.995353
    4        3.274347   0.995353
    5        4.353980   0.000000
    6        5.834435   0.000000
    7        5.834435   0.000000
    8        5.883057   0.000000
 
  0.1875000E+00  0.6250000E-01  0.6250000E-01  0.1171875E-01
    1       -6.676834   1.000000
    2        1.189725   1.000000
    3        2.668699   1.000000
    4        3.165004   0.999630
    5        4.861629   0.000000
    6        6.039704   0.000000
    7        6.165579   0.000000
    8        6.939992   0.000000
 
  0.3125000E+00  0.6250000E-01  0.6250000E-01  0.1171875E-01
    1       -6.175305   1.000000
    2       -0.584623   1.000000
    3        2.237915   1.000000
    4        2.796430   1.000000
    5        4.611605   0.000000
    6        6.514063   0.000000
    7        6.733084   0.000000
    8        8.482566   0.000000
 
  0.4375000E+00  0.6250000E-01  0.6250000E-01  0.1171875E-01
    1       -5.504165   1.000000
    2       -2.042484   1.000000
    3        2.028293   1.000000
    4        2.472280   1.000000
    5        4.358980   0.000000
    6        6.720237   0.000000
    7        6.744624   0.000000
    8       10.065623   0.000000
 
 -0.4375000E+00  0.6250000E-01  0.6250000E-01  0.1171875E-01
    1       -5.197818   1.000000
    2       -2.550476   1.000000
    3        2.044606   1.000000
    4        2.307653   1.000000
    5        4.298943   0.000002
    6        6.618120   0.000000
    7        6.821297   0.000000
    8       10.495007   0.000000
 
 -0.3125000E+00  0.6250000E-01  0.6250000E-01  0.1171875E-01
    1       -5.728141   1.000000
    2       -1.619498   1.000000
    3        2.269785   1.000000
    4        2.342035   1.000000
    5        4.453263   0.000000
    6        6.523435   0.000000
    7        6.941668   0.000000
    8        9.396026   0.000000
 
 -0.1875000E+00  0.6250000E-01  0.6250000E-01  0.1171875E-01
    1       -6.370496   1.000000
    2       -0.007035   1.000000
    3        2.579896   1.000000
    4        2.653991   1.000000
    5        4.771530   0.000000
    6        6.180193   0.000000
    7        6.815336   0.000000
    8        7.906638   0.000000
 
 -0.6250000E-01  0.6250000E-01  0.6250000E-01  0.1171875E-01
    1       -6.781289   1.000000
    2        1.807432   1.000000
    3        2.964991   0.999999
    4        3.031760   0.999992
    5        4.939656   0.000000
    6        5.631323   0.000000
    7        6.267818   0.000000
    8        6.402426   0.000000
 
  0.1875000E+00  0.1875000E+00  0.6250000E-01  0.1171875E-01
    1       -6.570493   1.000000
    2        0.928678   1.000000
    3        2.540841   1.000000
    4        2.551986   1.000000
    5        5.271863   0.000000
    6        5.692215   0.000000
    7        6.937775   0.000000
    8        7.090852   0.000000
 
  0.3125000E+00  0.1875000E+00  0.6250000E-01  0.2343750E-01
    1       -6.161237   1.000000
    2       -0.304147   1.000000
    3        1.781623   1.000000
    4        2.347152   1.000000
    5        5.372631   0.000000
    6        5.981437   0.000000
    7        7.571531   0.000000
    8        7.664668   0.000000
 
  0.4375000E+00  0.1875000E+00  0.6250000E-01  0.2343750E-01
    1       -5.518961   1.000000
    2       -1.704099   1.000000
    3        1.306156   1.000000
    4        2.051169   1.000000
    5        5.291048   0.000000
    6        6.504238   0.000000
    7        7.702301   0.000000
    8        8.220418   0.000000
 
 -0.4375000E+00  0.1875000E+00  0.6250000E-01  0.2343750E-01
    1       -4.982221   1.000000
    2       -2.577490   1.000000
    3        1.048933   1.000000
    4        1.986159   1.000000
    5        5.203491   0.000000
    6        6.607820   0.000000
    7        7.638030   0.000000
    8        9.670661   0.000000
 
 -0.3125000E+00  0.1875000E+00  0.6250000E-01  0.2343750E-01
    1       -5.299281   1.000000
    2       -2.085870   1.000000
    3        1.031836   1.000000
    4        2.192471   1.000000
    5        5.292919   0.000000
    6        6.628058   0.000000
    7        7.540952   0.000000
    8        9.069608   0.000000
 
 -0.1875000E+00  0.1875000E+00  0.6250000E-01  0.2343750E-01
    1       -5.971782   1.000000
    2       -0.794867   1.000000
    3        1.358049   1.000000
    4        2.568573   1.000000
    5        5.498084   0.000000
    6        6.279374   0.000000
    7        7.378230   0.000000
    8        7.930689   0.000000
 
 -0.6250000E-01  0.1875000E+00  0.6250000E-01  0.2343750E-01
    1       -6.469218   1.000000
    2        0.453976   1.000000
    3        2.224478   1.000000
    4        2.847808   1.000000
    5        5.255789   0.000000
    6        5.833273   0.000000
    7        6.799125   0.000000
    8        7.507084   0.000000
 
  0.3125000E+00  0.3125000E+00  0.6250000E-01  0.1171875E-01
    1       -5.845061   1.000000
    2       -0.845575   1.000000
    3        1.670509   1.000000
    4        1.762265   1.000000
    5        4.669054   0.000000
    6        5.928067   0.000000
    7        8.384597   0.000000
    8        8.553753   0.000000
 
  0.4375000E+00  0.3125000E+00  0.6250000E-01  0.2343750E-01
    1       -5.263675   1.000000
    2       -1.837616   1.000000
    3        1.083056   1.000000
    4        1.501834   1.000000
    5        4.929595   0.000000
    6        5.889871   0.000000
    7        8.365973   0.000000
    8        9.338498   0.000000
 
 -0.4375000E+00  0.3125000E+00  0.6250000E-01  0.2343750E-01
    1       -4.603736   1.000000
    2       -2.732713   1.000000
    3        0.450709   1.000000
    4        1.474414   1.000000
    5        5.111176   0.000000
    6        7.208061   0.000000
    7        8.079108   0.000000
    8        9.280779   0.000000
 
 -0.3125000E+00  0.3125000E+00  0.6250000E-01  0.2343750E-01
    1       -4.670355   1.000000
    2       -2.648746   1.000000
    3        0.206095   1.000000
    4        1.730411   1.000000
    5        5.345455   0.000000
    6        7.765606   0.000000
    7        8.610956   0.000000
    8        9.072169   0.000000
 
 -0.1875000E+00  0.3125000E+00  0.6250000E-01  0.2343750E-01
    1       -5.337028   1.000000
    2       -1.841638   1.000000
    3        0.630932   1.000000
    4        2.164488   1.000000
    5        5.575481   0.000000
    6        6.912815   0.000000
    7        7.921783   0.000000
    8        8.362781   0.000000
 
 -0.6250000E-01  0.3125000E+00  0.6250000E-01  0.2343750E-01
    1       -5.888574   1.000000
    2       -1.158180   1.000000
    3        1.791336   1.000000
    4        2.485736   1.000000
    5        4.967792   0.000000
    6        6.417358   0.000000
    7        7.150318   0.000000
    8        8.548811   0.000000
 
  0.4375000E+00  0.4375000E+00  0.6250000E-01  0.1171875E-01
    1       -4.746873   1.000000
    2       -2.545171   1.000000
    3        1.142804   1.000000
    4        1.287421   1.000000
    5        4.410043   0.000000
    6        5.041393   0.000000
    7       10.133022   0.000000
    8       10.261460   0.000000
 
 -0.4375000E+00  0.4375000E+00  0.6250000E-01  0.2343750E-01
    1       -4.050262   1.000000
    2       -3.331902   1.000000
    3        0.755775   1.000000
    4        1.121456   1.000000
    5        4.771417   0.000000
    6        5.345109   0.000000
    7       10.016751   0.000000
    8       10.596493   0.000000
 
 -0.3125000E+00  0.4375000E+00  0.6250000E-01  0.2343750E-01
    1       -4.175767   1.000000
    2       -3.165458   1.000000
    3        0.241334   1.000000
    4        1.362204   1.000000
    5        5.021119   0.000000
    6        7.135568   0.000000
    7        8.857362   0.000000
    8        9.584134   0.000000
 
 -0.1875000E+00  0.4375000E+00  0.6250000E-01  0.2343750E-01
    1       -4.778127   1.000000
    2       -2.653517   1.000000
    3        0.528948   1.000000
    4        1.815853   1.000000
    5        5.349748   0.000000
    6        7.069357   0.000000
    7        8.263251   0.000000
    8        9.421419   0.000000
 
 -0.6250000E-01  0.4375000E+00  0.6250000E-01  0.2343750E-01
    1       -5.241846   1.000000
    2       -2.371831   1.000000
    3        1.601104   1.000000
    4        2.238866   1.000000
    5        4.768896   0.000000
    6        6.563937   0.000000
    7        7.102555   0.000000
    8        9.954303   0.000000
 
 -0.4375000E+00 -0.4375000E+00  0.6250000E-01  0.1171875E-01
    1       -4.076954   1.000000
    2       -3.337419   1.000000
    3        1.035226   1.000000
    4        1.189900   1.000000
    5        4.444295   0.000000
    6        4.737701   0.000000
    7       10.895667   0.000000
    8       10.937329   0.000000
 
 -0.3125000E+00 -0.4375000E+00  0.6250000E-01  0.2343750E-01
    1       -4.689588   1.000000
    2       -2.597927   1.000000
    3        0.866950   1.000000
    4        1.248316   1.000000
    5        4.813210   0.000000
    6        5.552421   0.000000
    7        9.175471   0.000000
    8       10.183556   0.000000
 
 -0.1875000E+00 -0.4375000E+00  0.6250000E-01  0.2343750E-01
    1       -5.081155   1.000000
    2       -2.226999   1.000000
    3        0.830835   1.000000
    4        1.702595   1.000000
    5        5.251900   0.000000
    6        6.993374   0.000000
    7        7.760504   0.000000
    8        8.563272   0.000000
 
 -0.3125000E+00 -0.3125000E+00  0.6250000E-01  0.1171875E-01
    1       -5.339309   1.000000
    2       -1.710273   1.000000
    3        1.356075   1.000000
    4        1.480064   1.000000
    5        4.483789   0.000000
    6        5.474699   0.000000
    7        9.238229   0.000000
    8        9.415261   0.000000
 
 -0.1875000E+00 -0.3125000E+00  0.6250000E-01  0.2343750E-01
    1       -5.757246   1.000000
    2       -1.069782   1.000000
    3        1.392988   1.000000
    4        1.875945   1.000000
    5        5.128300   0.000000
    6        6.167329   0.000000
    7        7.756029   0.000000
    8        8.455289   0.000000
 
 -0.1875000E+00 -0.1875000E+00  0.6250000E-01  0.1171875E-01
    1       -6.257197   1.000000
    2        0.037834   1.000000
    3        2.076537   1.000000
    4        2.123271   1.000000
    5        4.946636   0.000000
    6        6.105822   0.000000
    7        7.694098   0.000000
    8        7.718021   0.000000
 
  0.1875000E+00  0.1875000E+00  0.1875000E+00  0.3906250E-02
    1       -6.574183   1.000000
    2        0.648269   1.000000
    3        2.930389   1.000000
    4        2.930389   1.000000
    5        4.528138   0.000000
    6        6.336002   0.000000
    7        6.336002   0.000000
    8        7.317227   0.000000
 
  0.3125000E+00  0.1875000E+00  0.1875000E+00  0.1171875E-01
    1       -6.268438   1.000000
    2       -0.159052   1.000000
    3        1.785014   1.000000
    4        2.915049   1.000000
    5        5.181893   0.000000
    6        6.455375   0.000000
    7        6.625402   0.000000
    8        7.927199   0.000000
 
  0.4375000E+00  0.1875000E+00  0.1875000E+00  0.1171875E-01
    1       -5.694128   1.000000
    2       -1.320497   1.000000
    3        0.954461   1.000000
    4        2.528838   1.000000
    5        5.373616   0.000000
    6        7.084713   0.000000
    7        7.189827   0.000000
    8        8.281026   0.000000
 
 -0.4375000E+00  0.1875000E+00  0.1875000E+00  0.1171875E-01
    1       -5.039972   1.000000
    2       -2.412955   1.000000
    3        0.753420   1.000000
    4        2.126027   1.000000
    5        5.179103   0.000000
    6        7.106801   0.000000
    7        7.545254   0.000000
    8        9.803421   0.000000
 
 -0.3125000E+00  0.1875000E+00  0.1875000E+00  0.1171875E-01
    1       -5.025157   1.000000
    2       -2.437128   1.000000
    3        0.957751   1.000000
    4        1.890417   1.000000
    5        5.092308   0.000000
    6        6.982047   0.000000
    7        7.848314   0.000000
    8        8.656331   0.000000
 
 -0.1875000E+00  0.1875000E+00  0.1875000E+00  0.1171875E-01
    1       -5.675911   1.000000
    2       -1.327773   1.000000
    3        1.455492   1.000000
    4        1.886989   1.000000
    5        5.134073   0.000000
    6        6.495380   0.000000
    7        7.754030   0.000000
    8        8.029231   0.000000
 
  0.3125000E+00  0.3125000E+00  0.1875000E+00  0.1171875E-01
    1       -6.069183   1.000000
    2       -0.669608   1.000000
    3        2.054731   1.000000
    4        2.214126   1.000000
    5        5.176481   0.000000
    6        6.152593   0.000000
    7        7.391300   0.000000
    8        7.947128   0.000000
 
  0.4375000E+00  0.3125000E+00  0.1875000E+00  0.2343750E-01
    1       -5.585284   1.000000
    2       -1.430239   1.000000
    3        0.999144   1.000000
    4        2.049438   1.000000
    5        5.780664   0.000000
    6        6.273129   0.000000
    7        7.517341   0.000000
    8        8.344372   0.000000
 
 -0.4375000E+00  0.3125000E+00  0.1875000E+00  0.2343750E-01
    1       -4.913943   1.000000
    2       -2.350731   1.000000
    3        0.418241   1.000000
    4        1.645655   1.000000
    5        6.035302   0.000000
    6        6.745740   0.000000
    7        7.756816   0.000000
    8        9.192671   0.000000
 
 -0.3125000E+00  0.3125000E+00  0.1875000E+00  0.2343750E-01
    1       -4.564131   1.000000
    2       -2.795062   1.000000
    3        0.388281   1.000000
    4        1.422067   1.000000
    5        5.813704   0.000000
    6        6.943495   0.000000
    7        8.347319   0.000000
    8        9.148213   0.000000
 
 -0.1875000E+00  0.3125000E+00  0.1875000E+00  0.2343750E-01
    1       -5.117965   1.000000
    2       -2.065763   1.000000
    3        0.733376   1.000000
    4        1.548553   1.000000
    5        5.672969   0.000000
    6        6.511873   0.000000
    7        7.449685   0.000000
    8        9.274853   0.000000
 
  0.4375000E+00  0.4375000E+00  0.1875000E+00  0.1171875E-01
    1       -5.199595   1.000000
    2       -1.988300   1.000000
    3        0.959296   1.000000
    4        1.626107   1.000000
    5        4.924412   0.000000
    6        6.501400   0.000000
    7        8.172810   0.000000
    8        8.717836   0.000000
 
 -0.4375000E+00  0.4375000E+00  0.1875000E+00  0.2343750E-01
    1       -4.583441   1.000000
    2       -2.703371   1.000000
    3        0.570993   1.000000
    4        1.158497   1.000000
    5        5.552028   0.000000
    6        6.376035   0.000000
    7        8.021664   0.000000
    8       10.030684   0.000000
 
 -0.3125000E+00  0.4375000E+00  0.1875000E+00  0.2343750E-01
    1       -3.980091   1.000000
    2       -3.322847   1.000000
    3        0.365379   1.000000
    4        0.801875   1.000000
    5        6.450865   0.000000
    6        7.263857   0.000000
    7        7.660072   0.000000
    8        8.492271   0.000000
 
 -0.1875000E+00  0.4375000E+00  0.1875000E+00  0.2343750E-01
    1       -4.445527   1.000000
    2       -2.851041   1.000000
    3        0.333605   1.000000
    4        1.149862   1.000000
    5        6.442902   0.000000
    6        6.850844   0.000000
    7        7.512631   0.000000
    8        9.363310   0.000000
 
 -0.4375000E+00 -0.4375000E+00  0.1875000E+00  0.1171875E-01
    1       -4.090705   1.000000
    2       -3.275340   1.000000
    3        0.434650   1.000000
    4        1.354203   1.000000
    5        4.647402   0.000000
    6        6.150931   0.000000
    7        9.908959   0.000000
    8       10.029676   0.000000
 
 -0.3125000E+00 -0.4375000E+00  0.1875000E+00  0.2343750E-01
    1       -4.010253   1.000000
    2       -3.325746   1.000000
    3        0.504479   1.000000
    4        0.938042   1.000000
    5        5.490108   0.000000
    6        6.235740   0.000000
    7        8.825375   0.000000
    8        9.673677   0.000000
 
 -0.3125000E+00 -0.3125000E+00  0.1875000E+00  0.1171875E-01
    1       -4.655495   1.000000
    2       -2.651173   1.000000
    3        0.611892   1.000000
    4        1.445946   1.000000
    5        4.745350   0.000000
    6        6.287143   0.000000
    7        9.013023   0.000000
    8        9.429961   0.000000
 
  0.3125000E+00  0.3125000E+00  0.3125000E+00  0.3906250E-02
    1       -5.992550   1.000000
    2       -1.114506   1.000000
    3        2.589892   1.000000
    4        2.589892   1.000000
    5        4.187474   0.000058
    6        6.667493   0.000000
    7        6.667493   0.000000
    8        9.242586   0.000000
 
  0.4375000E+00  0.3125000E+00  0.3125000E+00  0.1171875E-01
    1       -5.627246   1.000000
    2       -1.644225   1.000000
    3        1.411486   1.000000
    4        2.512480   1.000000
    5        4.974276   0.000000
    6        6.866764   0.000000
    7        6.897098   0.000000
    8        9.143659   0.000000
 
 -0.4375000E+00  0.3125000E+00  0.3125000E+00  0.1171875E-01
    1       -5.025519   1.000000
    2       -2.254885   1.000000
    3        0.354135   1.000000
    4        2.080253   1.000000
    5        5.260693   0.000000
    6        7.881423   0.000000
    7        7.920128   0.000000
    8        8.853397   0.000000
 
 -0.3125000E+00  0.3125000E+00  0.3125000E+00  0.1171875E-01
    1       -4.413212   1.000000
    2       -2.927802   1.000000
    3        0.139311   1.000000
    4        1.664769   1.000000
    5        4.946435   0.000000
    6        8.128077   0.000000
    7        8.878542   0.000000
    8        8.930297   0.000000
 
  0.4375000E+00  0.4375000E+00  0.3125000E+00  0.1171875E-01
    1       -5.396773   1.000000
    2       -2.063442   1.000000
    3        1.612284   1.000000
    4        2.097748   1.000000
    5        4.934939   0.000000
    6        6.527560   0.000000
    7        7.340101   0.000000
    8        9.011912   0.000000
 
 -0.4375000E+00  0.4375000E+00  0.3125000E+00  0.2343750E-01
    1       -4.929515   1.000000
    2       -2.471439   1.000000
    3        0.681443   1.000000
    4        1.764884   1.000000
    5        5.691554   0.000000
    6        6.550478   0.000000
    7        8.215175   0.000000
    8        8.882336   0.000000
 
 -0.3125000E+00  0.4375000E+00  0.3125000E+00  0.2343750E-01
    1       -4.300592   1.000000
    2       -3.015547   1.000000
    3        0.210836   1.000000
    4        1.243536   1.000000
    5        5.783038   0.000000
    6        7.649429   0.000000
    7        8.270649   0.000000
    8        8.579917   0.000000
 
 -0.4375000E+00 -0.4375000E+00  0.3125000E+00  0.1171875E-01
    1       -4.663966   1.000000
    2       -2.736156   1.000000
    3        0.434680   1.000000
    4        1.741895   1.000000
    5        5.020060   0.000000
    6        7.740366   0.000000
    7        8.426679   0.000000
    8        8.460772   0.000000
 
  0.4375000E+00  0.4375000E+00  0.4375000E+00  0.3906250E-02
    1       -5.348541   1.000000
    2       -2.368686   1.000000
    3        2.402086   1.000000
    4        2.402086   1.000000
    5        3.969264   0.010368
    6        6.681928   0.000000
    7        6.681928   0.000000
    8       10.488825   0.000000
 
 -0.4375000E+00  0.4375000E+00  0.4375000E+00  0.1171875E-01
    1       -5.090800   1.000000
    2       -2.554513   1.000000
    3        1.377849   1.000000
    4        2.207943   1.000000
    5        4.856046   0.000000
    6        6.680445   0.000000
    7        7.127463   0.000000
    8       10.365483   0.000000
