   2   2   0   0
  0.1529437E+02  0.3691622E-09  0.3691622E-09  0.3691622E-09  0.5000000E-15
  1.000000000000000E-004
  CAR 
 unknown system                          
     22.89302172     -6.52250284  301      9.08463488      1.00000000
     -6.523  0.0000E+00  0.0000E+00
     -6.424  0.0000E+00  0.0000E+00
     -6.326  0.0000E+00  0.0000E+00
     -6.228  0.0000E+00  0.0000E+00
     -6.130  0.0000E+00  0.0000E+00
     -6.032  0.0000E+00  0.0000E+00
     -5.934  0.0000E+00  0.0000E+00
     -5.836  0.0000E+00  0.0000E+00
     -5.738  0.0000E+00  0.0000E+00
     -5.640  0.1474E-16  0.1446E-17
     -5.542  0.2983E-14  0.2939E-15
     -5.444  0.3818E-12  0.3773E-13
     -5.346  0.3047E-10  0.3025E-11
     -5.248  0.1518E-08  0.1518E-09
     -5.150  0.4724E-07  0.4784E-08
     -5.052  0.9203E-06  0.9502E-07
     -4.954  0.1124E-04  0.1197E-05
     -4.856  0.8614E-04  0.9643E-05
     -4.758  0.4157E-03  0.5041E-04
     -4.660  0.1271E-02  0.1751E-03
     -4.561  0.2520E-02  0.4221E-03
     -4.463  0.3530E-02  0.7683E-03
     -4.365  0.4531E-02  0.1213E-02
     -4.267  0.7002E-02  0.1899E-02
     -4.169  0.1102E-01  0.2980E-02
     -4.071  0.1402E-01  0.4354E-02
     -3.973  0.1417E-01  0.5744E-02
     -3.875  0.1249E-01  0.6969E-02
     -3.777  0.1032E-01  0.7981E-02
     -3.679  0.8954E-02  0.8859E-02
     -3.581  0.1058E-01  0.9896E-02
     -3.483  0.1566E-01  0.1143E-01
     -3.385  0.2080E-01  0.1347E-01
     -3.287  0.2197E-01  0.1562E-01
     -3.189  0.1944E-01  0.1753E-01
     -3.091  0.1660E-01  0.1916E-01
     -2.993  0.1520E-01  0.2065E-01
     -2.895  0.1627E-01  0.2224E-01
     -2.797  0.1992E-01  0.2420E-01
     -2.698  0.2259E-01  0.2641E-01
     -2.600  0.2267E-01  0.2864E-01
     -2.502  0.2388E-01  0.3098E-01
     -2.404  0.2695E-01  0.3362E-01
     -2.306  0.2674E-01  0.3624E-01
     -2.208  0.2230E-01  0.3843E-01
     -2.110  0.2031E-01  0.4042E-01
     -2.012  0.2404E-01  0.4278E-01
     -1.914  0.2797E-01  0.4552E-01
     -1.816  0.2690E-01  0.4816E-01
     -1.718  0.2256E-01  0.5037E-01
     -1.620  0.1827E-01  0.5216E-01
     -1.522  0.1532E-01  0.5366E-01
     -1.424  0.1628E-01  0.5526E-01
     -1.326  0.2269E-01  0.5748E-01
     -1.228  0.3096E-01  0.6052E-01
     -1.130  0.3663E-01  0.6411E-01
     -1.032  0.3928E-01  0.6796E-01
     -0.934  0.4014E-01  0.7190E-01
     -0.836  0.3949E-01  0.7577E-01
     -0.737  0.4015E-01  0.7971E-01
     -0.639  0.4403E-01  0.8402E-01
     -0.541  0.4393E-01  0.8833E-01
     -0.443  0.3327E-01  0.9159E-01
     -0.345  0.1872E-01  0.9343E-01
     -0.247  0.1023E-01  0.9443E-01
     -0.149  0.1011E-01  0.9542E-01
     -0.051  0.1731E-01  0.9712E-01
      0.047  0.3036E-01  0.1001E+00
      0.145  0.4338E-01  0.1044E+00
      0.243  0.4879E-01  0.1091E+00
      0.341  0.4666E-01  0.1137E+00
      0.439  0.4215E-01  0.1178E+00
      0.537  0.3651E-01  0.1214E+00
      0.635  0.3102E-01  0.1245E+00
      0.733  0.3295E-01  0.1277E+00
      0.831  0.4367E-01  0.1320E+00
      0.929  0.5082E-01  0.1370E+00
      1.027  0.4645E-01  0.1415E+00
      1.126  0.3885E-01  0.1453E+00
      1.224  0.3695E-01  0.1489E+00
      1.322  0.3920E-01  0.1528E+00
      1.420  0.4080E-01  0.1568E+00
      1.518  0.3965E-01  0.1607E+00
      1.616  0.3506E-01  0.1641E+00
      1.714  0.2805E-01  0.1669E+00
      1.812  0.2335E-01  0.1692E+00
      1.910  0.2582E-01  0.1717E+00
      2.008  0.3370E-01  0.1750E+00
      2.106  0.4113E-01  0.1790E+00
      2.204  0.4596E-01  0.1835E+00
      2.302  0.4753E-01  0.1882E+00
      2.400  0.4392E-01  0.1925E+00
      2.498  0.3832E-01  0.1963E+00
      2.596  0.3628E-01  0.1998E+00
      2.694  0.3740E-01  0.2035E+00
      2.792  0.3895E-01  0.2073E+00
      2.890  0.4094E-01  0.2113E+00
      2.989  0.4296E-01  0.2155E+00
      3.087  0.4253E-01  0.2197E+00
      3.185  0.3805E-01  0.2234E+00
      3.283  0.3235E-01  0.2266E+00
      3.381  0.3274E-01  0.2298E+00
      3.479  0.4181E-01  0.2339E+00
      3.577  0.4970E-01  0.2388E+00
      3.675  0.4527E-01  0.2432E+00
      3.773  0.3146E-01  0.2463E+00
      3.871  0.2073E-01  0.2483E+00
      3.969  0.2113E-01  0.2504E+00
      4.067  0.3202E-01  0.2535E+00
      4.165  0.4793E-01  0.2582E+00
      4.263  0.6139E-01  0.2643E+00
      4.361  0.6516E-01  0.2707E+00
      4.459  0.5796E-01  0.2763E+00
      4.557  0.4782E-01  0.2810E+00
      4.655  0.4677E-01  0.2856E+00
      4.753  0.5917E-01  0.2914E+00
      4.851  0.7258E-01  0.2985E+00
      4.950  0.6958E-01  0.3054E+00
      5.048  0.5115E-01  0.3104E+00
      5.146  0.3301E-01  0.3136E+00
      5.244  0.2624E-01  0.3162E+00
      5.342  0.3492E-01  0.3196E+00
      5.440  0.5508E-01  0.3250E+00
      5.538  0.7071E-01  0.3319E+00
      5.636  0.6874E-01  0.3387E+00
      5.734  0.5452E-01  0.3440E+00
      5.832  0.4149E-01  0.3481E+00
      5.930  0.3749E-01  0.3518E+00
      6.028  0.4455E-01  0.3561E+00
      6.126  0.5773E-01  0.3618E+00
      6.224  0.6534E-01  0.3682E+00
      6.322  0.6322E-01  0.3744E+00
      6.420  0.5890E-01  0.3802E+00
      6.518  0.5711E-01  0.3858E+00
      6.616  0.5875E-01  0.3915E+00
      6.714  0.6498E-01  0.3979E+00
      6.813  0.6952E-01  0.4047E+00
      6.911  0.6434E-01  0.4110E+00
      7.009  0.5347E-01  0.4163E+00
      7.107  0.4674E-01  0.4209E+00
      7.205  0.4568E-01  0.4253E+00
      7.303  0.4377E-01  0.4296E+00
      7.401  0.3995E-01  0.4335E+00
      7.499  0.4482E-01  0.4379E+00
      7.597  0.6448E-01  0.4443E+00
      7.695  0.8779E-01  0.4529E+00
      7.793  0.1002E+00  0.4627E+00
      7.891  0.9956E-01  0.4725E+00
      7.989  0.9035E-01  0.4813E+00
      8.087  0.7290E-01  0.4885E+00
      8.185  0.4859E-01  0.4932E+00
      8.283  0.2687E-01  0.4959E+00
      8.381  0.1631E-01  0.4975E+00
      8.479  0.1644E-01  0.4991E+00
      8.577  0.2491E-01  0.5015E+00
      8.676  0.4122E-01  0.5056E+00
      8.774  0.5904E-01  0.5113E+00
      8.872  0.6870E-01  0.5181E+00
      8.970  0.7074E-01  0.5250E+00
      9.068  0.7221E-01  0.5321E+00
      9.166  0.7188E-01  0.5391E+00
      9.264  0.6550E-01  0.5456E+00
      9.362  0.5766E-01  0.5512E+00
      9.460  0.5467E-01  0.5566E+00
      9.558  0.5522E-01  0.5620E+00
      9.656  0.5370E-01  0.5673E+00
      9.754  0.4761E-01  0.5719E+00
      9.852  0.4070E-01  0.5759E+00
      9.950  0.3622E-01  0.5795E+00
     10.048  0.3189E-01  0.5826E+00
     10.146  0.2675E-01  0.5852E+00
     10.244  0.2442E-01  0.5876E+00
     10.342  0.2546E-01  0.5901E+00
     10.440  0.2609E-01  0.5927E+00
     10.539  0.2693E-01  0.5953E+00
     10.637  0.3287E-01  0.5985E+00
     10.735  0.4468E-01  0.6029E+00
     10.833  0.5888E-01  0.6087E+00
     10.931  0.7114E-01  0.6157E+00
     11.029  0.7762E-01  0.6233E+00
     11.127  0.7474E-01  0.6306E+00
     11.225  0.6165E-01  0.6367E+00
     11.323  0.4519E-01  0.6411E+00
     11.421  0.3405E-01  0.6444E+00
     11.519  0.3035E-01  0.6474E+00
     11.617  0.3338E-01  0.6507E+00
     11.715  0.4394E-01  0.6550E+00
     11.813  0.6223E-01  0.6611E+00
     11.911  0.8497E-01  0.6694E+00
     12.009  0.1038E+00  0.6796E+00
     12.107  0.1096E+00  0.6903E+00
     12.205  0.1042E+00  0.7006E+00
     12.303  0.1003E+00  0.7104E+00
     12.401  0.9990E-01  0.7202E+00
     12.500  0.9278E-01  0.7293E+00
     12.598  0.7907E-01  0.7370E+00
     12.696  0.6616E-01  0.7435E+00
     12.794  0.5432E-01  0.7488E+00
     12.892  0.4575E-01  0.7533E+00
     12.990  0.4538E-01  0.7578E+00
     13.088  0.4783E-01  0.7625E+00
     13.186  0.4511E-01  0.7669E+00
     13.284  0.4001E-01  0.7708E+00
     13.382  0.3845E-01  0.7746E+00
     13.480  0.4243E-01  0.7787E+00
     13.578  0.5326E-01  0.7840E+00
     13.676  0.6708E-01  0.7905E+00
     13.774  0.7591E-01  0.7980E+00
     13.872  0.8007E-01  0.8058E+00
     13.970  0.8556E-01  0.8142E+00
     14.068  0.9292E-01  0.8233E+00
     14.166  0.9414E-01  0.8326E+00
     14.264  0.8277E-01  0.8407E+00
     14.363  0.6679E-01  0.8472E+00
     14.461  0.5763E-01  0.8529E+00
     14.559  0.5486E-01  0.8583E+00
     14.657  0.5397E-01  0.8636E+00
     14.755  0.5636E-01  0.8691E+00
     14.853  0.6615E-01  0.8756E+00
     14.951  0.8261E-01  0.8837E+00
     15.049  0.9689E-01  0.8932E+00
     15.147  0.9731E-01  0.9027E+00
     15.245  0.8277E-01  0.9108E+00
     15.343  0.6504E-01  0.9172E+00
     15.441  0.5215E-01  0.9223E+00
     15.539  0.4278E-01  0.9265E+00
     15.637  0.3650E-01  0.9301E+00
     15.735  0.3455E-01  0.9335E+00
     15.833  0.3575E-01  0.9370E+00
     15.931  0.3729E-01  0.9406E+00
     16.029  0.3795E-01  0.9444E+00
     16.127  0.4135E-01  0.9484E+00
     16.226  0.5166E-01  0.9535E+00
     16.324  0.6419E-01  0.9598E+00
     16.422  0.6922E-01  0.9666E+00
     16.520  0.6619E-01  0.9731E+00
     16.618  0.5998E-01  0.9789E+00
     16.716  0.5162E-01  0.9840E+00
     16.814  0.4277E-01  0.9882E+00
     16.912  0.3635E-01  0.9918E+00
     17.010  0.3143E-01  0.9948E+00
     17.108  0.2536E-01  0.9973E+00
     17.206  0.1864E-01  0.9992E+00
     17.304  0.1445E-01  0.1001E+01
     17.402  0.1485E-01  0.1002E+01
     17.500  0.1772E-01  0.1004E+01
     17.598  0.2116E-01  0.1006E+01
     17.696  0.2852E-01  0.1009E+01
     17.794  0.4052E-01  0.1013E+01
     17.892  0.5045E-01  0.1018E+01
     17.990  0.5424E-01  0.1023E+01
     18.088  0.5310E-01  0.1028E+01
     18.187  0.4729E-01  0.1033E+01
     18.285  0.3719E-01  0.1036E+01
     18.383  0.2612E-01  0.1039E+01
     18.481  0.1830E-01  0.1041E+01
     18.579  0.1523E-01  0.1042E+01
     18.677  0.1565E-01  0.1044E+01
     18.775  0.1829E-01  0.1046E+01
     18.873  0.2180E-01  0.1048E+01
     18.971  0.2395E-01  0.1050E+01
     19.069  0.2378E-01  0.1052E+01
     19.167  0.2135E-01  0.1054E+01
     19.265  0.1690E-01  0.1056E+01
     19.363  0.1233E-01  0.1057E+01
     19.461  0.9644E-02  0.1058E+01
     19.559  0.9333E-02  0.1059E+01
     19.657  0.1112E-01  0.1060E+01
     19.755  0.1261E-01  0.1062E+01
     19.853  0.1123E-01  0.1063E+01
     19.951  0.8034E-02  0.1063E+01
     20.050  0.5292E-02  0.1064E+01
     20.148  0.3442E-02  0.1064E+01
     20.246  0.2040E-02  0.1064E+01
     20.344  0.9890E-03  0.1065E+01
     20.442  0.5037E-03  0.1065E+01
     20.540  0.8182E-03  0.1065E+01
     20.638  0.2046E-02  0.1065E+01
     20.736  0.3768E-02  0.1065E+01
     20.834  0.4898E-02  0.1066E+01
     20.932  0.4580E-02  0.1066E+01
     21.030  0.3060E-02  0.1066E+01
     21.128  0.1415E-02  0.1067E+01
     21.226  0.4369E-03  0.1067E+01
     21.324  0.8762E-04  0.1067E+01
     21.422  0.1123E-04  0.1067E+01
     21.520  0.9100E-06  0.1067E+01
     21.618  0.4641E-07  0.1067E+01
     21.716  0.1484E-08  0.1067E+01
     21.814  0.2968E-10  0.1067E+01
     21.913  0.3706E-12  0.1067E+01
     22.011  0.2886E-14  0.1067E+01
     22.109  0.1415E-16  0.1067E+01
     22.207  0.0000E+00  0.1067E+01
     22.305  0.0000E+00  0.1067E+01
     22.403  0.0000E+00  0.1067E+01
     22.501  0.0000E+00  0.1067E+01
     22.599  0.0000E+00  0.1067E+01
     22.697  0.0000E+00  0.1067E+01
     22.795  0.0000E+00  0.1067E+01
     22.893  0.0000E+00  0.1067E+01
