unknown system                          
   1.00000000000000     
    -2.450000    2.450000    1.274000
     2.450000   -2.450000    1.274000
     2.450000    2.450000   -1.274000
   Si
     2
Direct
  0.250000  0.750000  0.500000
  0.000000  0.000000  0.000000
 
   36   36   36
 -5.2474     -4.3193     -1.7696      1.7782      5.5177      8.7001      10.820      11.702      11.479      10.502    
  9.2096      7.9090      6.7170      5.7009      4.8908      4.2879      3.8778      3.6415      3.5646      3.6415    
  3.8778      4.2880      4.8908      5.7009      6.7170      7.9090      9.2096      10.502      11.479      11.702    
  10.820      8.7001      5.5177      1.7782     -1.7696     -4.3193     -4.3193     -4.8029     -3.4775     -.68017    
  2.9106      6.4946      9.3808      11.148      11.703      11.240      10.142      8.8340      7.5576      6.4107    
  5.4505      4.6984      4.1506      3.7904      3.5992      3.5645      3.6833      3.9636      4.4213      5.0749    
  5.9362      6.9983      8.2233      9.5353      10.794      11.645      11.659      10.528      8.1839      4.8777    
  1.1766     -2.1471     -1.7696     -3.4775     -3.5188     -1.8877     0.99823      4.4418      7.6872      10.129    
  11.446      11.627      10.921      9.7246      8.4205      7.1813      6.0903      5.1937      4.5045      4.0140    
  3.7042      3.5577      3.5642      3.7233      4.0449      4.5460      5.2439      6.1476      7.2444      8.4894    
  9.8006      11.013      11.750      11.608      10.328      7.9059      4.6550      1.1766      1.7782     -.68017    
 -1.8877     -1.5365     0.27514      3.0793      6.1973      8.9506      10.841      11.651      11.449      10.523    
  9.2660      7.9825      6.7928      5.7669      4.9394      4.3153      3.8823      3.6220      3.5185      3.5639    
  3.7602      4.1191      4.6576      5.3918      6.3272      7.4460      8.6978      9.9964      11.159      11.807    
  11.575      10.256      7.9059      4.8777      5.5177      2.9106     0.99823     0.27514     0.92938      2.7793    
  5.3397      7.9849      10.138      11.420      11.714      11.157      10.059      8.7820      7.5338      6.4047    
  5.4509      4.6954      4.1367      3.7597      3.5464      3.4829      3.5637      3.7930      4.1835      4.7521    
  5.5130      6.4682      7.5956      8.8410      10.116      11.231      11.825      11.575      10.328      8.1839    
  8.7001      6.4946      4.4418      3.0793      2.7793      3.6216      5.3685      7.5505      9.6221      11.123    
  11.793      11.608      10.756      9.5518      8.2872      7.0885      6.0293      5.1518      4.4688      3.9735    
  3.6494      3.4794      3.4519      3.5637      3.8207      4.2361      4.8261      5.6029      6.5652      7.6877    
  8.9139      10.157      11.231      11.807      11.608      10.528      10.820      9.3808      7.6871      6.1973    
  5.3397      5.3685      6.2762      7.7984      9.5095      10.962      11.816      11.921      11.332      10.271    
  9.0296      7.7972      6.6603      5.6775      4.8777      4.2655      3.8299      3.5541      3.4228      3.4264    
  3.5639      3.8423      4.2749      4.8769      5.6582      6.6146      7.7187      8.9139      10.116      11.159    
  11.750      11.659      11.702      11.148      10.129      8.9506      7.9849      7.5505      7.7984      8.6587    
  9.8686      11.067      11.910      12.174      11.805      10.917      9.7431      8.5111      7.3277      6.2624    
  5.3591      4.6357      4.0900      3.7089      3.4760      3.3778      3.4070      3.5642      3.8572      4.2988    
  4.9028      5.6769      6.6146      7.6877      8.8410      9.9964      11.013      11.645      11.479      11.703    
  11.446      10.841      10.138      9.6221      9.5095      9.8686      10.594      11.447      12.141      12.435    
  12.209      11.485      10.415      9.2138      8.0151      6.8942      5.9064      5.0824      4.4311      3.9460    
  3.6128      3.4163      3.3452      3.3940      3.5645      3.8648      4.3069      4.9028      5.6582      6.5652    
  7.5956      8.6978      9.8006      10.794      10.502      11.240      11.627      11.651      11.420      11.123    
  10.962      11.067      11.447      11.984      12.479      12.722      12.567      11.976      11.028      9.8902    
  8.7074      7.5601      6.5110      5.6021      4.8538      4.2682      3.8360      3.5432      3.3761      3.3255    
  3.3875      3.5646      3.8648      4.2988      4.8769      5.6029      6.4682      7.4460      8.4894      9.5353    
  9.2096      10.142      10.921      11.449      11.714      11.793      11.816      11.910      12.141      12.479    
  12.812      12.986      12.867      12.385      11.566      10.522      9.3885      8.2466      7.1635      6.1902    
  5.3578      4.6783      4.1499      3.7618      3.5010      3.3559      3.3189      3.3875      3.5645      3.8572    
  4.2749      4.8261      5.5130      6.3272      7.2444      8.2233      7.9090      8.8340      9.7246      10.523    
  11.157      11.608      11.921      12.174      12.435      12.722      12.986      13.133      13.056      12.682    
  12.002      11.085      10.038      8.9371      7.8521      6.8400      5.9415      5.1792      4.5596      4.0781    
  3.7245      3.4869      3.3559      3.3255      3.3940      3.5642      3.8423      4.2361      4.7521      5.3918    
  6.1476      6.9983      6.7170      7.5576      8.4205      9.2660      10.059      10.756      11.332      11.805    
  12.209      12.567      12.867      13.056      13.060      12.816      12.300      11.545      10.626      9.6087    
  8.5601      7.5413      6.6011      5.7720      5.0705      4.4996      4.0541      3.7245      3.5010      3.3761    
  3.3452      3.4070      3.5639      3.8207      4.1835      4.6576      5.2439      5.9362      5.7009      6.4107    
  7.1813      7.9825      8.7820      9.5518      10.271      10.917      11.485      11.976      12.385      12.682    
  12.816      12.738      12.416      11.862      11.116      10.230      9.2629      8.2771      7.3271      6.4546    
  5.6862      5.0340      4.4996      4.0781      3.7618      3.5432      3.4163      3.3778      3.4264      3.5637    
  3.7930      4.1191      4.5460      5.0749      4.8908      5.4505      6.0903      6.7928      7.5338      8.2872    
  9.0296      9.7431      10.415      11.028      11.566      12.002      12.300      12.416      12.319      11.999    
  11.469      10.762      9.9265      9.0209      8.1018      7.2179      6.4053      5.6862      5.0705      4.5596    
  4.1499      3.8360      3.6128      3.4760      3.4228      3.4519      3.5637      3.7602      4.0449      4.4213    
  4.2880      4.6985      5.1937      5.7669      6.4047      7.0885      7.7972      8.5111      9.2138      9.8902    
  10.522      11.085      11.545      11.862      11.999      11.930      11.646      11.162      10.509      9.7363    
  8.8966      8.0425      7.2179      6.4546      5.7720      5.1792      4.6783      4.2682      3.9460      3.7089    
  3.5541      3.4794      3.4829      3.5639      3.7233      3.9636      3.8778      4.1506      4.5045      4.9394    
  5.4509      6.0293      6.6603      7.3277      8.0151      8.7074      9.3885      10.038      10.626      11.116    
  11.469      11.646      11.623      11.393      10.967      10.378      9.6715      8.8966      8.1018      7.3271    
  6.6011      5.9415      5.3578      4.8538      4.4311      4.0900      3.8299      3.6494      3.5464      3.5185    
  3.5642      3.6833      3.6415      3.7904      4.0140      4.3153      4.6954      5.1517      5.6775      6.2624    
  6.8942      7.5601      8.2466      8.9371      9.6087      10.230      10.762      11.162      11.393      11.428    
  11.260      10.900      10.378      9.7363      9.0209      8.2771      7.5413      6.8400      6.1902      5.6021    
  5.0824      4.6357      4.2655      3.9735      3.7597      3.6220      3.5577      3.5645      3.5646      3.5992    
  3.7042      3.8823      4.1367      4.4688      4.8777      5.3591      5.9064      6.5110      7.1635      7.8521    
  8.5601      9.2629      9.9265      10.509      10.967      11.260      11.361      11.260      10.967      10.509    
  9.9265      9.2629      8.5601      7.8521      7.1635      6.5110      5.9064      5.3591      4.8777      4.4688    
  4.1367      3.8823      3.7042      3.5992      3.6415      3.5645      3.5577      3.6220      3.7597      3.9735    
  4.2655      4.6357      5.0824      5.6021      6.1902      6.8400      7.5413      8.2771      9.0209      9.7363    
  10.378      10.900      11.260      11.428      11.393      11.162      10.762      10.230      9.6087      8.9371    
  8.2466      7.5601      6.8942      6.2624      5.6775      5.1518      4.6954      4.3153      4.0140      3.7904    
  3.8778      3.6833      3.5642      3.5185      3.5463      3.6493      3.8299      4.0900      4.4311      4.8538    
  5.3577      5.9415      6.6011      7.3271      8.1018      8.8966      9.6715      10.378      10.967      11.393    
  11.623      11.646      11.469      11.116      10.626      10.038      9.3885      8.7074      8.0151      7.3277    
  6.6603      6.0293      5.4509      4.9394      4.5045      4.1506      4.2879      3.9636      3.7233      3.5639    
  3.4829      3.4794      3.5541      3.7089      3.9460      4.2682      4.6783      5.1792      5.7720      6.4546    
  7.2179      8.0425      8.8966      9.7363      10.509      11.162      11.646      11.930      11.999      11.862    
  11.545      11.085      10.522      9.8902      9.2138      8.5111      7.7972      7.0885      6.4047      5.7669    
  5.1937      4.6984      4.8908      4.4213      4.0449      3.7602      3.5637      3.4519      3.4227      3.4759    
  3.6128      3.8360      4.1499      4.5596      5.0705      5.6862      6.4053      7.2179      8.1018      9.0209    
  9.9265      10.762      11.469      11.999      12.319      12.416      12.300      12.002      11.566      11.028    
  10.415      9.7431      9.0296      8.2872      7.5338      6.7928      6.0903      5.4505      5.7009      5.0748    
  4.5459      4.1190      3.7930      3.5637      3.4264      3.3778      3.4163      3.5432      3.7618      4.0781    
  4.4996      5.0340      5.6862      6.4546      7.3271      8.2771      9.2629      10.230      11.116      11.862    
  12.416      12.738      12.816      12.682      12.385      11.976      11.485      10.917      10.271      9.5518    
  8.7820      7.9825      7.1813      6.4107      6.7170      5.9362      5.2439      4.6575      4.1835      3.8207    
  3.5639      3.4070      3.3452      3.3761      3.5010      3.7245      4.0541      4.4996      5.0705      5.7720    
  6.6011      7.5413      8.5601      9.6087      10.626      11.545      12.300      12.816      13.060      13.056    
  12.867      12.567      12.209      11.805      11.332      10.756      10.059      9.2660      8.4205      7.5576    
  7.9090      6.9983      6.1476      5.3918      4.7520      4.2361      3.8423      3.5642      3.3940      3.3255    
  3.3559      3.4869      3.7245      4.0781      4.5596      5.1792      5.9415      6.8400      7.8521      8.9371    
  10.038      11.085      12.002      12.682      13.056      13.133      12.986      12.722      12.435      12.174    
  11.921      11.608      11.157      10.523      9.7246      8.8340      9.2096      8.2233      7.2444      6.3272    
  5.5130      4.8261      4.2750      3.8572      3.5645      3.3875      3.3189      3.3559      3.5010      3.7618    
  4.1499      4.6783      5.3577      6.1902      7.1635      8.2466      9.3885      10.522      11.566      12.385    
  12.867      12.986      12.812      12.479      12.141      11.910      11.816      11.793      11.714      11.449    
  10.921      10.142      10.502      9.5353      8.4894      7.4460      6.4682      5.6029      4.8769      4.2989    
  3.8648      3.5646      3.3875      3.3255      3.3761      3.5432      3.8360      4.2682      4.8538      5.6021    
  6.5110      7.5601      8.7074      9.8902      11.028      11.976      12.567      12.722      12.479      11.984    
  11.447      11.067      10.962      11.123      11.420      11.651      11.627      11.240      11.479      10.794    
  9.8006      8.6978      7.5956      6.5652      5.6582      4.9028      4.3069      3.8648      3.5645      3.3940    
  3.3452      3.4163      3.6128      3.9460      4.4311      5.0824      5.9064      6.8942      8.0151      9.2138    
  10.415      11.485      12.209      12.435      12.141      11.447      10.594      9.8686      9.5095      9.6221    
  10.138      10.841      11.446      11.703      11.702      11.645      11.013      9.9965      8.8410      7.6877    
  6.6146      5.6769      4.9028      4.2989      3.8572      3.5642      3.4070      3.3778      3.4759      3.7089    
  4.0900      4.6357      5.3591      6.2624      7.3277      8.5111      9.7431      10.917      11.805      12.174    
  11.910      11.067      9.8686      8.6587      7.7984      7.5505      7.9849      8.9506      10.129      11.148    
  10.820      11.659      11.750      11.159      10.116      8.9140      7.7187      6.6146      5.6582      4.8769    
  4.2750      3.8423      3.5639      3.4264      3.4227      3.5541      3.8299      4.2655      4.8777      5.6775    
  6.6603      7.7972      9.0296      10.271      11.332      11.921      11.816      10.962      9.5095      7.7984    
  6.2762      5.3685      5.3397      6.1973      7.6872      9.3808      8.7001      10.528      11.608      11.807    
  11.231      10.157      8.9140      7.6877      6.5652      5.6029      4.8261      4.2361      3.8207      3.5637    
  3.4519      3.4794      3.6493      3.9735      4.4688      5.1517      6.0293      7.0885      8.2872      9.5518    
  10.756      11.608      11.793      11.123      9.6221      7.5505      5.3685      3.6216      2.7793      3.0793    
  4.4418      6.4946      5.5177      8.1839      10.328      11.575      11.825      11.231      10.116      8.8410    
  7.5956      6.4682      5.5130      4.7520      4.1835      3.7930      3.5637      3.4829      3.5463      3.7597    
  4.1367      4.6954      5.4509      6.4047      7.5338      8.7820      10.059      11.157      11.714      11.420    
  10.138      7.9849      5.3397      2.7793     0.92938     0.27514     0.99823      2.9106      1.7782      4.8777    
  7.9059      10.256      11.575      11.807      11.159      9.9965      8.6978      7.4460      6.3272      5.3918    
  4.6575      4.1190      3.7602      3.5639      3.5185      3.6220      3.8823      4.3153      4.9394      5.7669    
  6.7928      7.9825      9.2660      10.523      11.449      11.651      10.841      8.9506      6.1973      3.0793    
 0.27514     -1.5365     -1.8877     -.68017     -1.7696      1.1766      4.6550      7.9059      10.328      11.608    
  11.750      11.013      9.8006      8.4894      7.2444      6.1476      5.2439      4.5459      4.0449      3.7233    
  3.5642      3.5577      3.7042      4.0140      4.5045      5.1937      6.0903      7.1813      8.4205      9.7246    
  10.921      11.627      11.446      10.129      7.6871      4.4418     0.99823     -1.8877     -3.5188     -3.4775    
 -4.3193     -2.1471      1.1766      4.8777      8.1839      10.528      11.659      11.645      10.794      9.5353    
  8.2233      6.9983      5.9362      5.0748      4.4213      3.9636      3.6833      3.5645      3.5992      3.7904    
  4.1506      4.6985      5.4505      6.4107      7.5576      8.8340      10.142      11.240      11.703      11.148    
  9.3808      6.4946      2.9106     -.68017     -3.4775     -4.8029     -4.3193     -3.6309     -1.3661      1.9179    
  5.4633      8.5402      10.634      11.540      11.360      10.417      9.1364      7.8358      6.6366      5.6087    
  4.7843      4.1658      3.7391      3.4848      3.3875      3.4403      3.6473      4.0224      4.5844      5.3498    
  6.3214      7.4751      8.7507      10.046      11.099      11.488      10.853      9.0329      6.1581      2.6761    
 -.71963     -3.2586     -3.6309     -4.3193     -3.2586     -.71964      2.6761      6.1581      9.0329      10.853    
  11.488      11.099      10.046      8.7507      7.4751      6.3214      5.3498      4.5844      4.0224      3.6473    
  3.4403      3.3875      3.4848      3.7391      4.1658      4.7843      5.6087      6.6366      7.8358      9.1364    
  10.417      11.360      11.540      10.634      8.5402      5.4633      1.9179     -1.3661     -1.2959     -3.1836    
 -3.4775     -2.1089     0.56876      3.9002      7.1380      9.6555      11.090      11.392      10.776      9.6250    
  8.3332      7.0946      5.9967      5.0892      4.3878      3.8849      3.5625      3.4027      3.3940      3.5350    
  3.8350      4.3107      4.9810      5.8574      6.9318      8.1645      9.4787      10.731      11.567      11.580    
  10.489      8.2557      5.1458      1.7175      2.1003     -.51662     -1.9669     -1.8878     -.31037      2.3520    
  5.4443      8.2759      10.311      11.284      11.223      10.389      9.1692      7.8966      6.7062      5.6730    
  4.8354      4.2006      3.7573      3.4870      3.3733      3.4070      3.5896      3.9322      4.4524      5.1679    
  6.0871      7.1965      8.4502      9.7663      10.981      11.729      11.632      10.459      8.2269      5.2494    
  5.7639      3.0222     0.88365     -.11593     0.27512      1.9389      4.4308      7.1293      9.4286      10.900    
  11.379      10.963      9.9443      8.6937      7.4534      6.3220      5.3605      4.5958      4.0282      3.6434    
  3.4232      3.3530      3.4264      3.6472      4.0279      4.5863      5.3386      6.2897      7.4212      8.6827    
  9.9893      11.165      11.852      11.711      10.560      8.4639      8.9379      6.6272      4.3766      2.7485    
  2.1677      2.7793      4.3995      6.5825      8.7696      10.459      11.338      11.334      10.606      9.4582    
  8.2113      7.0166      5.9532      5.0680      4.3772      3.8753      3.5463      3.3728      3.3426      3.4519    
  3.7062      4.1191      4.7080      5.4871      6.4577      7.5976      8.8532      10.139      11.279      11.937    
  11.817      10.783      11.097      9.5860      7.7342      6.0089      4.8749      4.6441      5.3685      6.8244    
  8.5931      10.200      11.258      11.565      11.135      10.166      8.9567      7.7353      6.5986      5.6102    
  4.8033      4.1850      3.7455      3.4682      3.3372      3.3426      3.4829      3.7650      4.2030      4.8133    
  5.6078      6.5848      7.7188      8.9550      10.210      11.319      11.978      11.935      12.041      11.451    
  10.320      8.9520      7.7386      7.0419      7.0686      7.7984      8.9940      10.287      11.299      11.757    
  11.561      10.793      9.6733      8.4586      7.2798      6.2115      5.3021      4.5728      4.0235      3.6416    
  3.4108      3.3172      3.3530      3.5185      3.8219      4.2769      4.8986      5.6964      6.6659      7.7797    
  8.9835      10.198      11.279      11.963      11.880      12.101      11.781      11.042      10.139      9.3846    
  9.0410      9.2253      9.8686      10.744      11.547      12.001      11.939      11.344      10.348      9.1704    
  7.9801      6.8588      5.8660      5.0365      4.3815      3.8959      3.5655      3.3752      3.3130      3.3733    
  3.5578      3.8750      4.3382      4.9605      5.7492      6.6975      7.7774      8.9367      10.102      11.156    
  10.946      11.712      12.081      12.027      11.653      11.164      10.790      10.704      10.954      11.447    
  11.982      12.330      12.306      11.834      10.965      9.8572      8.6842      7.5382      6.4854      5.5714    
  4.8194      4.2332      3.8042      3.5183      3.3616      3.3244      3.4027      3.5992      3.9225      4.3846    
  4.9968      5.7640      6.6780      7.7114      8.8154      9.9239      9.6695      10.652      11.451      11.953    
  12.135      12.077      11.928      11.843      11.922      12.168      12.479      12.695      12.658      12.266    
  11.516      10.502      9.3762      8.2357      7.1495      6.1715      5.3355      4.6556      4.1305      3.7500    
  3.5005      3.3701      3.3509      3.4403      3.6416      3.9627      4.4143      5.0057      5.7398      6.6077    
  7.5836      8.6237      8.3684      9.3474      10.281      11.095      11.700      12.073      12.265      12.371    
  12.487      12.658      12.854      12.986      12.938      12.612      11.978      11.081      10.036      8.9340    
  7.8454      6.8287      5.9269      5.1643      4.5485      4.0752      3.7338      3.5121      3.4001      3.3915    
  3.4848      3.6833      3.9942      4.4262      4.9867      5.6773      6.4890      7.3988      7.1640      8.0588    
  8.9687      9.8485      10.654      11.324      11.833      12.203      12.487      12.729      12.937      13.071    
  13.056      12.817      12.313      11.560      10.634      9.6102      8.5556      7.5314      6.5880      5.7591    
  5.0620      4.5002      4.0682      3.7558      3.5527      3.4508      3.4452      3.5350      3.7233      4.0158    
  4.4197      4.9404      5.5787      6.3265      6.1266      6.8884      7.7067      8.5467      9.3711      10.147    
  10.844      11.434      11.917      12.312      12.627      12.846      12.927      12.816      12.474      11.898    
  11.133      10.232      9.2551      8.2621      7.3084      6.4364      5.6732      5.0314      4.5121      4.1097    
  3.8156      3.6216      3.5211      3.5106      3.5896      3.7602      4.0269      4.3948      4.8684      5.4479    
  5.2900      5.8973      6.5827      7.3250      8.0960      8.8652      9.6052      10.296      10.920      11.465    
  11.922      12.278      12.504      12.562      12.416      12.054      11.492      10.761      9.9101      8.9941    
  8.0700      7.1865      6.3800      5.6725      5.0737      4.5842      4.1992      3.9124      3.7174      3.6096    
  3.5864      3.6472      3.7930      4.0269      4.3526      4.7735      4.6593      5.1114      5.6475      6.2584    
  6.9274      7.6321      8.3479      9.0520      9.7262      10.356      10.927      11.419      11.805      12.050    
  12.123      11.999      11.672      11.155      10.479      9.6911      8.8443      7.9901      7.1720      6.4217    
  5.7579      5.1889      4.7157      4.3356      4.0445      3.8385      3.7146      3.6709      3.7062      3.8207    
  4.0158      4.2945      4.2227      4.5304      4.9189      5.3867      5.9271      6.5275      7.1705      7.8366    
  8.5072      9.1662      9.7984      10.386      10.905      11.324      11.607      11.722      11.646      11.374    
  10.918      10.309      9.5920      8.8158      8.0278      7.2671      6.5616      5.9283      5.3751      4.9046    
  4.5165      4.2097      3.9827      3.8340      3.7620      3.7650      3.8423      3.9942      3.9627      4.1400    
  4.3916      4.7197      5.1240      5.5999      6.1384      6.7263      7.3488      7.9912      8.6395      9.2785    
  9.8880      10.441      10.902      11.236      11.407      11.393      11.187      10.802      10.266      9.6212    
  8.9124      8.1834      7.4697      6.7967      6.1801      5.6287      5.1473      4.7387      4.4049      4.1471    
  3.9650      3.8573      3.8219      3.8572      3.8648      3.9225      4.0494      4.2480      4.5206      4.8679    
  5.2871      5.7720      6.3134      6.9008      7.5233      8.1689      8.8223      9.4618      10.057      10.572    
  10.966      11.203      11.260      11.128      10.818      10.355      9.7788      9.1310      8.4518      7.7739    
  7.1206      6.5073      5.9442      5.4387      4.9976      4.6261      4.3279      4.1043      3.9541      3.8750    
  3.9225      3.8648      3.8750      3.9541      4.1043      4.3279      4.6261      4.9976      5.4387      5.9442    
  6.5073      7.1206      7.7739      8.4518      9.1310      9.7788      10.355      10.818      11.128      11.260    
  11.203      10.966      10.572      10.057      9.4618      8.8223      8.1689      7.5233      6.9009      6.3134    
  5.7720      5.2871      4.8679      4.5206      4.2480      4.0494      4.1400      3.9627      3.8572      3.8219    
  3.8573      3.9650      4.1471      4.4049      4.7387      5.1473      5.6287      6.1801      6.7967      7.4697    
  8.1834      8.9124      9.6212      10.266      10.802      11.187      11.393      11.407      11.236      10.902    
  10.441      9.8880      9.2785      8.6395      7.9912      7.3488      6.7263      6.1384      5.5999      5.1240    
  4.7197      4.3916      4.5304      4.2227      3.9942      3.8423      3.7650      3.7620      3.8340      3.9827    
  4.2097      4.5165      4.9046      5.3751      5.9283      6.5616      7.2671      8.0278      8.8158      9.5920    
  10.309      10.917      11.374      11.646      11.722      11.607      11.324      10.905      10.386      9.7984    
  9.1662      8.5072      7.8366      7.1705      6.5275      5.9271      5.3867      4.9189      5.1114      4.6593    
  4.2945      4.0159      3.8207      3.7062      3.6709      3.7147      3.8385      4.0445      4.3356      4.7157    
  5.1889      5.7579      6.4217      7.1720      7.9901      8.8443      9.6911      10.479      11.155      11.672    
  11.999      12.123      12.050      11.805      11.419      10.927      10.356      9.7262      9.0520      8.3479    
  7.6321      6.9274      6.2584      5.6476      5.8973      5.2900      4.7734      4.3526      4.0269      3.7930    
  3.6472      3.5865      3.6096      3.7174      3.9124      4.1992      4.5842      5.0737      5.6725      6.3800    
  7.1865      8.0700      8.9941      9.9101      10.761      11.492      12.054      12.416      12.562      12.504    
  12.278      11.922      11.465      10.920      10.296      9.6052      8.8652      8.0960      7.3250      6.5827    
  6.8884      6.1266      5.4479      4.8684      4.3949      4.0269      3.7602      3.5896      3.5107      3.5211    
  3.6216      3.8156      4.1097      4.5121      5.0314      5.6732      6.4364      7.3084      8.2621      9.2551    
  10.232      11.133      11.898      12.474      12.816      12.927      12.846      12.627      12.312      11.917    
  11.434      10.844      10.147      9.3711      8.5467      7.7067      8.0588      7.1640      6.3265      5.5787    
  4.9404      4.4197      4.0159      3.7233      3.5350      3.4452      3.4508      3.5527      3.7558      4.0682    
  4.5002      5.0620      5.7591      6.5880      7.5314      8.5556      9.6102      10.634      11.560      12.313    
  12.817      13.056      13.071      12.937      12.729      12.487      12.203      11.833      11.324      10.654    
  9.8485      8.9687      9.3474      8.3683      7.3988      6.4890      5.6773      4.9868      4.4262      3.9942    
  3.6834      3.4848      3.3915      3.4001      3.5121      3.7338      4.0752      4.5485      5.1643      5.9269    
  6.8287      7.8454      8.9340      10.036      11.081      11.978      12.612      12.938      12.986      12.854    
  12.658      12.487      12.371      12.265      12.073      11.700      11.095      10.281      10.652      9.6695    
  8.6237      7.5836      6.6077      5.7398      5.0057      4.4143      3.9627      3.6416      3.4403      3.3509    
  3.3701      3.5005      3.7500      4.1305      4.6556      5.3355      6.1715      7.1495      8.2357      9.3762    
  10.502      11.516      12.266      12.658      12.695      12.479      12.168      11.922      11.843      11.928    
  12.077      12.135      11.953      11.451      11.712      10.946      9.9239      8.8154      7.7113      6.6780    
  5.7640      4.9968      4.3846      3.9225      3.5992      3.4027      3.3244      3.3616      3.5183      3.8042    
  4.2332      4.8194      5.5714      6.4854      7.5382      8.6842      9.8572      10.965      11.834      12.306    
  12.330      11.982      11.447      10.954      10.704      10.790      11.164      11.653      12.027      12.081    
  12.101      11.880      11.156      10.102      8.9367      7.7774      6.6975      5.7492      4.9605      4.3382    
  3.8750      3.5577      3.3732      3.3130      3.3752      3.5655      3.8959      4.3815      5.0365      5.8660    
  6.8588      7.9801      9.1704      10.348      11.344      11.939      12.001      11.547      10.744      9.8686    
  9.2252      9.0410      9.3847      10.139      11.042      11.781      11.451      12.041      11.963      11.279    
  10.198      8.9835      7.7797      6.6659      5.6964      4.8986      4.2769      3.8219      3.5185      3.3530    
  3.3171      3.4108      3.6416      4.0235      4.5728      5.3021      6.2115      7.2798      8.4586      9.6733    
  10.793      11.561      11.757      11.299      10.287      8.9940      7.7984      7.0686      7.0419      7.7386    
  8.9520      10.320      9.5860      11.097      11.935      11.978      11.319      10.210      8.9550      7.7188    
  6.5848      5.6078      4.8133      4.2030      3.7650      3.4829      3.3426      3.3372      3.4682      3.7455    
  4.1850      4.8033      5.6102      6.5986      7.7353      8.9567      10.166      11.135      11.565      11.258    
  10.200      8.5931      6.8245      5.3686      4.6442      4.8749      6.0089      7.7342      6.6272      8.9379    