       N       E                     dE             d eps       ncg     rms          rms(c)
DAV:   1    -0.102092395266E+02   -0.10209E+02   -0.31148E-06   512   0.175E-02    0.483E-04
DAV:   2    -0.102092395524E+02   -0.25864E-07   -0.25710E-07   496   0.474E-03
   1 F= -.10209240E+02 E0= -.10198274E+02  d E =-.102092E+02
