unknown system                          
   1.00000000000000     
    -2.450000    2.450000    1.274000
     2.450000   -2.450000    1.274000
     2.450000    2.450000   -1.274000
   Si
     2
Direct
  0.250000  0.750000  0.500000
  0.000000  0.000000  0.000000
 
   28   28   28
 -.54670392986E+01 -.39335931578E+01 0.55257185158E-01 0.49788989041E+01 0.91510166534E+01
 0.11456852129E+02 0.11708637049E+02 0.10515307237E+02 0.88169641147E+01 0.72001330470E+01
 0.58396178995E+01 0.48008683864E+01 0.40858658549E+01 0.36711868659E+01 0.35354912518E+01
 0.36711116018E+01 0.40859134337E+01 0.48010285788E+01 0.58396713500E+01 0.72000587777E+01
 0.88169517447E+01 0.10515373101E+02 0.11708625915E+02 0.11456796735E+02 0.91510836576E+01
 0.49790062338E+01 0.55174402429E-01 -.39337868643E+01 -.39337868643E+01 -.47209602417E+01
 -.25685052825E+01 0.16605769636E+01 0.63709918977E+01 0.10002363329E+02 0.11681780317E+02
 0.11450703175E+02 0.10037655082E+02 0.83404943892E+01 0.67880152788E+01 0.55157172735E+01
 0.45686229778E+01 0.39384386575E+01 0.36001692038E+01 0.35354610057E+01 0.37406322352E+01
 0.42271337386E+01 0.50178984085E+01 0.61329718837E+01 0.75594636161E+01 0.92134488314E+01
 0.10874616110E+02 0.11842893406E+02 0.11213457612E+02 0.85327268752E+01 0.41984859599E+01
 -.51810176312E+00 0.55174402429E-01 -.25686480609E+01 -.26237519371E+01 -.97576445429E-01
 0.39839841923E+01 0.80816619661E+01 0.10871773386E+02 0.11772900177E+02 0.11040317897E+02
 0.94660111748E+01 0.78092407304E+01 0.63458486750E+01 0.51787785577E+01 0.43329572968E+01
 0.37919106508E+01 0.35309546456E+01 0.35353995789E+01 0.38053014988E+01 0.43549549474E+01
 0.52078671560E+01 0.63796856672E+01 0.78467501865E+01 0.95102250960E+01 0.11109534864E+02
 0.11897671654E+02 0.11059502353E+02 0.83069755833E+01 0.41984859599E+01 0.49790062338E+01
 0.16605348678E+01 -.97637134289E-01 0.43677076013E+00 0.30256182652E+01 0.65915858534E+01
 0.97705436129E+01 0.11549279984E+02 0.11645087165E+02 0.10481300236E+02 0.88385914281E+01
 0.72525634069E+01 0.58980152505E+01 0.48466134023E+01 0.41056488699E+01 0.36533420137E+01
 0.34669134767E+01 0.35353998007E+01 0.38619211997E+01 0.44626744658E+01 0.53605877519E+01
 0.65662814423E+01 0.80468204445E+01 0.96935732480E+01 0.11224415710E+02 0.11910982684E+02
 0.11059502353E+02 0.85327268752E+01 0.91510836576E+01 0.63710458583E+01 0.39839903373E+01
 0.30256414054E+01 0.39216320188E+01 0.62641669555E+01 0.90359619640E+01 0.11135019385E+02
 0.11885760648E+02 0.11271468365E+02 0.98173418733E+01 0.81914277785E+01 0.67015463906E+01
 0.54686158947E+01 0.45361129008E+01 0.38977452889E+01 0.35294402546E+01 0.34112757250E+01
 0.35355263880E+01 0.39075115638E+01 0.45443801512E+01 0.54675269165E+01 0.66825083380E+01
 0.81494335148E+01 0.97555510625E+01 0.11224415710E+02 0.11897671654E+02 0.11213457612E+02
 0.11456796735E+02 0.10002353546E+02 0.80816586518E+01 0.65916298606E+01 0.62642503434E+01
 0.72690103266E+01 0.91227664963E+01 0.10958556454E+02 0.11979323010E+02 0.11828532010E+02
 0.10693004285E+02 0.91212456004E+01 0.75613517308E+01 0.61861222954E+01 0.50795088536E+01
 0.42621909813E+01 0.37190589148E+01 0.34262467387E+01 0.33669001582E+01 0.35357546867E+01
 0.39395090883E+01 0.45954070504E+01 0.55225868157E+01 0.67219746027E+01 0.81494335148E+01
 0.96935732480E+01 0.11109534864E+02 0.11842893406E+02 0.11708625915E+02 0.11681746793E+02
 0.10871703818E+02 0.97704955357E+01 0.90360231112E+01 0.91228747527E+01 0.10018569202E+02
 0.11251530032E+02 0.12160128269E+02 0.12249588513E+02 0.11427949933E+02 0.10007758600E+02
 0.84482810647E+01 0.69834758004E+01 0.57324515068E+01 0.47488299934E+01 0.40370753677E+01
 0.35777552290E+01 0.33487902602E+01 0.33360476813E+01 0.35359760492E+01 0.39560146065E+01
 0.46127602575E+01 0.55225868157E+01 0.66825083380E+01 0.80468204445E+01 0.95102250960E+01
 0.10874616110E+02 0.10515373101E+02 0.11450770107E+02 0.11772897253E+02 0.11549184814E+02
 0.11134948541E+02 0.10958613877E+02 0.11251630640E+02 0.11898308125E+02 0.12502538704E+02
 0.12623617561E+02 0.12029114641E+02 0.10816157283E+02 0.93298369222E+01 0.78393472759E+01
 0.64879916142E+01 0.53612147618E+01 0.44902987241E+01 0.38700189296E+01 0.34800736512E+01
 0.33008016298E+01 0.33202435804E+01 0.35360675972E+01 0.39560146065E+01 0.45954070504E+01
 0.54675269165E+01 0.65662814423E+01 0.78467501865E+01 0.92134488314E+01 0.88169517447E+01
 0.10037728401E+02 0.11040432009E+02 0.11645115821E+02 0.11885674132E+02 0.11979251625E+02
 0.12160168149E+02 0.12502611319E+02 0.12854997350E+02 0.12930372724E+02 0.12490149231E+02
 0.11500674111E+02 0.10163294024E+02 0.87216000343E+01 0.73298003314E+01 0.60982773786E+01
 0.50871137750E+01 0.43133065882E+01 0.37673574676E+01 0.34301910776E+01 0.32845523249E+01
 0.33202435804E+01 0.35359760492E+01 0.39395090883E+01 0.45443801512E+01 0.53605877519E+01
 0.63796856672E+01 0.75594636161E+01 0.72000587777E+01 0.83404350824E+01 0.94660646175E+01
 0.10481422954E+02 0.11271520104E+02 0.11828475606E+02 0.12249531801E+02 0.12623635269E+02
 0.12930411370E+02 0.13028861909E+02 0.12745798926E+02 0.12002207139E+02 0.10888890734E+02
 0.95815421142E+01 0.82260703213E+01 0.69471398067E+01 0.58305066735E+01 0.49194134913E+01
 0.42235073969E+01 0.37327412301E+01 0.34301910776E+01 0.33008016298E+01 0.33360476813E+01
 0.35357546867E+01 0.39075115638E+01 0.44626744658E+01 0.52078671560E+01 0.61329718837E+01
 0.58396713500E+01 0.67879448491E+01 0.78091537955E+01 0.88386091817E+01 0.98174412282E+01
 0.10693064678E+02 0.11427928418E+02 0.12029078209E+02 0.12490147785E+02 0.12745808999E+02
 0.12689083877E+02 0.12242857807E+02 0.11430912511E+02 0.10351663784E+02 0.91251865988E+01
 0.78768371524E+01 0.67103257658E+01 0.56943997432E+01 0.48630120109E+01 0.42235073969E+01
 0.37673574676E+01 0.34800736512E+01 0.33487902602E+01 0.33669001582E+01 0.35355263880E+01
 0.38619211997E+01 0.43549549474E+01 0.50178984085E+01 0.48010285788E+01 0.55158039723E+01
 0.63458047897E+01 0.72524739587E+01 0.81914098754E+01 0.91213050465E+01 0.10007813330E+02
 0.10816162625E+02 0.11500655856E+02 0.12002194122E+02 0.12242850645E+02 0.12153119509E+02
 0.11711526050E+02 0.10951529648E+02 0.99559704237E+01 0.88345860135E+01 0.76965575951E+01
 0.66302189544E+01 0.56943997432E+01 0.49194134913E+01 0.43133065882E+01 0.38700189296E+01
 0.35777552290E+01 0.34262467387E+01 0.34112757250E+01 0.35353998007E+01 0.38053014988E+01
 0.42271337386E+01 0.40859134337E+01 0.45687435277E+01 0.51788734231E+01 0.58980073062E+01
 0.67014752710E+01 0.75613101696E+01 0.84483003994E+01 0.93298763597E+01 0.10163312605E+02
 0.10888884948E+02 0.11430896614E+02 0.11711513203E+02 0.11673854766E+02 0.11303220421E+02
 0.10635145251E+02 0.97464801737E+01 0.87348772218E+01 0.76965575951E+01 0.67103257658E+01
 0.58305066735E+01 0.50871137750E+01 0.44902987241E+01 0.40370753677E+01 0.37190589148E+01
 0.35294402546E+01 0.34669134767E+01 0.35353995789E+01 0.37406322352E+01 0.36711116018E+01
 0.39383944506E+01 0.43330035999E+01 0.48466912360E+01 0.54686382023E+01 0.61860795948E+01
 0.69834270069E+01 0.78393372494E+01 0.87216204885E+01 0.95815613678E+01 0.10351664807E+02
 0.10951517289E+02 0.11303209185E+02 0.11351829754E+02 0.11082292980E+02 0.10524746980E+02
 0.97464801737E+01 0.88345860135E+01 0.78768371524E+01 0.69471398067E+01 0.60982773786E+01
 0.53612147618E+01 0.47488299934E+01 0.42621909813E+01 0.38977452889E+01 0.36533420137E+01
 0.35309546456E+01 0.35354610057E+01 0.35354912518E+01 0.36000495503E+01 0.37917866720E+01
 0.41056179048E+01 0.45361582067E+01 0.50795466219E+01 0.57324367291E+01 0.64879497553E+01
 0.73297749096E+01 0.82260729038E+01 0.91251991682E+01 0.99559744210E+01 0.10635138204E+02
 0.11082284672E+02 0.11238555714E+02 0.11082292980E+02 0.10635145251E+02 0.99559704237E+01
 0.91251865988E+01 0.82260703213E+01 0.73298003314E+01 0.64879916142E+01 0.57324515068E+01
 0.50795088536E+01 0.45361129008E+01 0.41056488699E+01 0.37919106508E+01 0.36001692038E+01
 0.36711868659E+01 0.35354493143E+01 0.35308227977E+01 0.36531816263E+01 0.38976640376E+01
 0.42622027955E+01 0.47488683941E+01 0.53612215489E+01 0.60982504681E+01 0.69471099233E+01
 0.78768261433E+01 0.88345910486E+01 0.97464851540E+01 0.10524742359E+02 0.11082284672E+02
 0.11351829754E+02 0.11303220421E+02 0.10951529648E+02 0.10351663784E+02 0.95815421142E+01
 0.87216000343E+01 0.78393472759E+01 0.69834758004E+01 0.61861222954E+01 0.54686158947E+01
 0.48466134023E+01 0.43329572968E+01 0.39384386575E+01 0.40858658549E+01 0.37406487224E+01
 0.35353823600E+01 0.34668089941E+01 0.35293006976E+01 0.37189696052E+01 0.40370643718E+01
 0.44903292491E+01 0.50871347057E+01 0.58304953388E+01 0.67102965857E+01 0.76965392646E+01
 0.87348790843E+01 0.97464851540E+01 0.10635138204E+02 0.11303209185E+02 0.11673854766E+02
 0.11711526050E+02 0.11430912511E+02 0.10888890734E+02 0.10163294024E+02 0.93298369222E+01
 0.84482810647E+01 0.75613517308E+01 0.67015463906E+01 0.58980152505E+01 0.51787785577E+01
 0.45686229778E+01 0.48008683864E+01 0.42270185422E+01 0.38052674185E+01 0.35353889510E+01
 0.34112332392E+01 0.34261763692E+01 0.35776945963E+01 0.38699990168E+01 0.43133280797E+01
 0.49194422364E+01 0.56943981122E+01 0.66301906488E+01 0.76965392646E+01 0.88345910486E+01
 0.99559744210E+01 0.10951517289E+02 0.11711513203E+02 0.12153119509E+02 0.12242857807E+02
 0.12002207139E+02 0.11500674111E+02 0.10816157283E+02 0.10007758600E+02 0.91212456004E+01
 0.81914277785E+01 0.72525634069E+01 0.63458486750E+01 0.55157172735E+01 0.58396178995E+01
 0.50177522800E+01 0.43548218713E+01 0.38618627600E+01 0.35355361389E+01 0.33669379713E+01
 0.33488094334E+01 0.34800562084E+01 0.37673375162E+01 0.42235234550E+01 0.48630432548E+01
 0.56943981122E+01 0.67102965857E+01 0.78768261433E+01 0.91251991682E+01 0.10351664807E+02
 0.11430896614E+02 0.12242850645E+02 0.12689083877E+02 0.12745798926E+02 0.12490149231E+02
 0.12029114641E+02 0.11427949933E+02 0.10693004285E+02 0.98173418733E+01 0.88385914281E+01
 0.78092407304E+01 0.67880152788E+01 0.72001330470E+01 0.61329674251E+01 0.52077870021E+01
 0.44625764558E+01 0.39074590804E+01 0.35357943450E+01 0.33361602059E+01 0.33008946615E+01
 0.34302042694E+01 0.37327224502E+01 0.42235234550E+01 0.49194422364E+01 0.58304953388E+01
 0.69471099233E+01 0.82260729038E+01 0.95815613678E+01 0.10888884948E+02 0.12002194122E+02
 0.12745808999E+02 0.13028861909E+02 0.12930372724E+02 0.12623617561E+02 0.12249588513E+02
 0.11828532010E+02 0.11271468365E+02 0.10481300236E+02 0.94660111748E+01 0.83404943892E+01
 0.88169641147E+01 0.75595151311E+01 0.63797325591E+01 0.53606034134E+01 0.45443489075E+01
 0.39394803780E+01 0.35360427518E+01 0.33204011085E+01 0.32846737969E+01 0.34302042694E+01
 0.37673375162E+01 0.43133280797E+01 0.50871347057E+01 0.60982504681E+01 0.73297749096E+01
 0.87216204885E+01 0.10163312605E+02 0.11500655856E+02 0.12490147785E+02 0.12930411370E+02
 0.12854997350E+02 0.12502538704E+02 0.12160128269E+02 0.11979323010E+02 0.11885760648E+02
 0.11645087165E+02 0.11040317897E+02 0.10037655082E+02 0.10515307237E+02 0.92134081657E+01
 0.78467605638E+01 0.65663705640E+01 0.54676346264E+01 0.45954383248E+01 0.39560059650E+01
 0.35361452334E+01 0.33204011085E+01 0.33008946615E+01 0.34800562084E+01 0.38699990168E+01
 0.44903292491E+01 0.53612215489E+01 0.64879497553E+01 0.78393372494E+01 0.93298763597E+01
 0.10816162625E+02 0.12029078209E+02 0.12623635269E+02 0.12502611319E+02 0.11898308125E+02
 0.11251530032E+02 0.10958556454E+02 0.11135019385E+02 0.11549279984E+02 0.11772900177E+02
 0.11450703175E+02 0.11708637049E+02 0.10874583792E+02 0.95101390043E+01 0.80467879775E+01
 0.66826241207E+01 0.55227503626E+01 0.46128168012E+01 0.39560059650E+01 0.35360427518E+01
 0.33361602059E+01 0.33488094334E+01 0.35776945963E+01 0.40370643718E+01 0.47488683941E+01
 0.57324367291E+01 0.69834270069E+01 0.84483003994E+01 0.10007813330E+02 0.11427928418E+02
 0.12249531801E+02 0.12160168149E+02 0.11251630640E+02 0.10018569202E+02 0.91227664963E+01
 0.90359619640E+01 0.97705436129E+01 0.10871773386E+02 0.11681780317E+02 0.11456852129E+02
 0.11842991943E+02 0.11109546093E+02 0.96934579904E+01 0.81493741122E+01 0.67220993644E+01
 0.55227503626E+01 0.45954383248E+01 0.39394803780E+01 0.35357943450E+01 0.33669379713E+01
 0.34261763692E+01 0.37189696052E+01 0.42622027955E+01 0.50795466219E+01 0.61860795948E+01
 0.75613101696E+01 0.91213050465E+01 0.10693064678E+02 0.11828475606E+02 0.11979251625E+02
 0.10958613877E+02 0.91228747527E+01 0.72690103266E+01 0.62641669555E+01 0.65915858534E+01
 0.80816619661E+01 0.10002363329E+02 0.91510166534E+01 0.11213524172E+02 0.11897838720E+02
 0.11224457184E+02 0.97554259470E+01 0.81493741122E+01 0.66826241207E+01 0.54676346264E+01
 0.45443489075E+01 0.39074590804E+01 0.35355361389E+01 0.34112332392E+01 0.35293006976E+01
 0.38976640376E+01 0.45361582067E+01 0.54686382023E+01 0.67014752710E+01 0.81914098754E+01
 0.98174412282E+01 0.11271520104E+02 0.11885674132E+02 0.11134948541E+02 0.90360231112E+01
 0.62642503434E+01 0.39216320188E+01 0.30256182652E+01 0.39839841923E+01 0.63709918977E+01
 0.49788989041E+01 0.85325951495E+01 0.11059572602E+02 0.11911175674E+02 0.11224457184E+02
 0.96934579904E+01 0.80467879775E+01 0.65663705640E+01 0.53606034134E+01 0.44625764558E+01
 0.38618627600E+01 0.35353889510E+01 0.34668089941E+01 0.36531816263E+01 0.41056179048E+01
 0.48466912360E+01 0.58980073062E+01 0.72524739587E+01 0.88386091817E+01 0.10481422954E+02
 0.11645115821E+02 0.11549184814E+02 0.97704955357E+01 0.65916298606E+01 0.30256414054E+01
 0.43677076013E+00 -.97576445429E-01 0.16605769636E+01 0.55257185158E-01 0.41983464443E+01
 0.83068185580E+01 0.11059572602E+02 0.11897838720E+02 0.11109546093E+02 0.95101390043E+01
 0.78467605638E+01 0.63797325591E+01 0.52077870021E+01 0.43548218713E+01 0.38052674185E+01
 0.35353823600E+01 0.35308227977E+01 0.37917866720E+01 0.43330035999E+01 0.51788734231E+01
 0.63458047897E+01 0.78091537955E+01 0.94660646175E+01 0.11040432009E+02 0.11772897253E+02
 0.10871703818E+02 0.80816586518E+01 0.39839903373E+01 -.97637134289E-01 -.26237519371E+01
 -.25685052825E+01 -.39335931578E+01 -.51800305064E+00 0.41983464443E+01 0.85325951495E+01
 0.11213524172E+02 0.11842991943E+02 0.10874583792E+02 0.92134081657E+01 0.75595151311E+01
 0.61329674251E+01 0.50177522800E+01 0.42270185422E+01 0.37406487224E+01 0.35354493143E+01
 0.36000495503E+01 0.39383944506E+01 0.45687435277E+01 0.55158039723E+01 0.67879448491E+01
 0.83404350824E+01 0.10037728401E+02 0.11450770107E+02 0.11681746793E+02 0.10002353546E+02
 0.63710458583E+01 0.16605348678E+01 -.25686480609E+01 -.47209602417E+01 -.39333262048E+01
 -.28244925125E+01 0.65328851844E+00 0.51510571364E+01 0.90769334423E+01 0.11309237198E+02
 0.11585826833E+02 0.10431946742E+02 0.87417368336E+01 0.71146693030E+01 0.57344495165E+01
 0.46720129433E+01 0.39318558107E+01 0.34894029767E+01 0.33200487062E+01 0.34129986085E+01
 0.37744952548E+01 0.44261133942E+01 0.53945561731E+01 0.66861075428E+01 0.82491574486E+01
 0.99373935116E+01 0.11284634325E+02 0.11404804213E+02 0.96442812699E+01 0.60601333470E+01
 0.15896484244E+01 -.22316558003E+01 -.28246652054E+01 -.39333881733E+01 -.22316028714E+01
 0.15896435957E+01 0.60600779030E+01 0.96443339349E+01 0.11404949852E+02 0.11284716336E+02
 0.99374196957E+01 0.82492587583E+01 0.66862455149E+01 0.53945787988E+01 0.44260491237E+01
 0.37744957552E+01 0.34130493099E+01 0.33200240039E+01 0.34893366969E+01 0.39318673526E+01
 0.46720427461E+01 0.57343568118E+01 0.71145085469E+01 0.87416517808E+01 0.10431890555E+02
 0.11585682634E+02 0.11309103271E+02 0.90769703288E+01 0.51511571400E+01 0.65322810965E+00
 0.76664519624E+00 -.21074726841E+01 -.25683599972E+01 -.44630289999E+00 0.33807074537E+01
 0.74366212802E+01 0.10356064834E+02 0.11451739975E+02 0.10875110972E+02 0.93653276571E+01
 0.77145995240E+01 0.62393307256E+01 0.50537732070E+01 0.41896872639E+01 0.36318332827E+01
 0.33531026369E+01 0.33359001403E+01 0.35789329609E+01 0.40969597852E+01 0.49157810739E+01
 0.60560116206E+01 0.75024123005E+01 0.91677521719E+01 0.10829699342E+02 0.11807807420E+02
 0.11264801458E+02 0.88248597990E+01 0.49206251997E+01 0.54314318374E+01 0.19129878455E+01
 -.21649326078E+00 -.97481497587E-01 0.21891054702E+01 0.56696384048E+01 0.89787582059E+01
 0.11009643880E+02 0.11354740246E+02 0.10346760015E+02 0.87484344549E+01 0.71641851031E+01
 0.57964036443E+01 0.47284928173E+01 0.39735062873E+01 0.35097558120E+01 0.33118817137E+01
 0.33668944704E+01 0.36777065629E+01 0.42617878101E+01 0.51448156280E+01 0.63424269577E+01
 0.78292769710E+01 0.95060687845E+01 0.11122393750E+02 0.11980612921E+02 0.11341777391E+02
 0.89766433328E+01 0.95120025352E+01 0.65812601586E+01 0.38679209128E+01 0.24923900008E+01
 0.30256613751E+01 0.51934547007E+01 0.80286090182E+01 0.10373380347E+02 0.11429216568E+02
 0.11058346042E+02 0.97219845911E+01 0.81186674898E+01 0.66253995103E+01 0.53790886801E+01
 0.44336168071E+01 0.37866178202E+01 0.34130986880E+01 0.32909091477E+01 0.34114283419E+01
 0.37807323278E+01 0.44177099136E+01 0.53466146184E+01 0.65776190143E+01 0.80770054261E+01
 0.97384645135E+01 0.11304164316E+02 0.12116098480E+02 0.11553930859E+02 0.11852612150E+02
 0.10306764825E+02 0.81300719158E+01 0.62574361741E+01 0.55325945135E+01 0.62641485599E+01
 0.80635315291E+01 0.10063131790E+02 0.11374555820E+02 0.11513218423E+02 0.10566799514E+02
 0.90569573330E+01 0.75072445906E+01 0.61248115882E+01 0.50068357435E+01 0.41818346050E+01
 0.36365732064E+01 0.33457084587E+01 0.32909391907E+01 0.34671907790E+01 0.38825187384E+01
 0.45560284110E+01 0.55095253737E+01 0.67477530381E+01 0.82308699731E+01 0.98506247842E+01
 0.11365722807E+02 0.12199554653E+02 0.12192632911E+02 0.12141205674E+02 0.11168094906E+02
 0.97634869472E+01 0.86513797926E+01 0.84037059369E+01 0.91226851902E+01 0.10388182207E+02
 0.11499704026E+02 0.11857754494E+02 0.11257680108E+02 0.99453646492E+01 0.84091081959E+01
 0.69452645009E+01 0.56862423074E+01 0.46958545366E+01 0.39833200823E+01 0.35293630643E+01
 0.33104482007E+01 0.33119552227E+01 0.35312951638E+01 0.39774483920E+01 0.46687221950E+01
 0.56237245789E+01 0.68421755166E+01 0.82804975721E+01 0.98330624657E+01 0.11293357362E+02
 0.11073923464E+02 0.12047576181E+02 0.12305858208E+02 0.11888452095E+02 0.11172880818E+02
 0.10665471908E+02 0.10703066156E+02 0.11251404054E+02 0.11928390089E+02 0.12233707006E+02
 0.11836722071E+02 0.10750411867E+02 0.92994700408E+01 0.78161888877E+01 0.64609957416E+01
 0.53292207948E+01 0.44585717786E+01 0.38457059968E+01 0.34694422087E+01 0.33091370862E+01
 0.33531722346E+01 0.36005049778E+01 0.40602607435E+01 0.47491445908E+01 0.56820630891E+01
 0.68543264881E+01 0.82208728683E+01 0.96825287167E+01 0.94034955208E+01 0.10703842078E+02
 0.11727400323E+02 0.12252101550E+02 0.12301676384E+02 0.12128876986E+02 0.12043349249E+02
 0.12202230765E+02 0.12502401135E+02 0.12645337927E+02 0.12329310478E+02 0.11442947161E+02
 0.10140778928E+02 0.87058279549E+01 0.73123278844E+01 0.60777083300E+01 0.50682457914E+01
 0.43036794651E+01 0.37742605862E+01 0.34597179153E+01 0.33424430074E+01 0.34130494451E+01
 0.36714545156E+01 0.41264524964E+01 0.47925542595E+01 0.56806736853E+01 0.67824048702E+01
 0.80532117581E+01 0.77855020270E+01 0.90091756660E+01 0.10198225395E+02 0.11224604940E+02
 0.11935516771E+02 0.12324755884E+02 0.12528368786E+02 0.12698336500E+02 0.12871866994E+02
 0.12930255273E+02 0.12676690103E+02 0.11978794058E+02 0.10878711837E+02 0.95681514427E+01
 0.82080620885E+01 0.69261645952E+01 0.58125927230E+01 0.49129265188E+01 0.42365909409E+01
 0.37720858475E+01 0.35014469471E+01 0.34097312933E+01 0.34892785074E+01 0.37407950407E+01
 0.41725330227E+01 0.47964224907E+01 0.56192734583E+01 0.66296951268E+01 0.64045136952E+01
 0.74324901646E+01 0.85215223657E+01 0.95929708526E+01 0.10571527984E+02 0.11377043551E+02
 0.11974357778E+02 0.12404924520E+02 0.12708932546E+02 0.12856246552E+02 0.12745717952E+02
 0.12276276891E+02 0.11438663575E+02 0.10337815545E+02 0.90973773748E+01 0.78425382667E+01
 0.66790813074E+01 0.56768147639E+01 0.48687109621E+01 0.42599688812E+01 0.38401654540E+01
 0.35940140963E+01 0.35088653440E+01 0.35787240884E+01 0.38052571359E+01 0.41961461660E+01
 0.47605255280E+01 0.55011617145E+01 0.53329628129E+01 0.61197601879E+01 0.70149199231E+01
 0.79698474891E+01 0.89281084462E+01 0.98377029206E+01 0.10658973085E+02 0.11355810985E+02
 0.11904412666E+02 0.12276291990E+02 0.12412600324E+02 0.12242811578E+02 0.11737943920E+02
 0.10933810290E+02 0.99096298508E+01 0.87738847027E+01 0.76362492222E+01 0.65848122391E+01
 0.56762855170E+01 0.49376924401E+01 0.43740019203E+01 0.39771789812E+01 0.37346206892E+01
 0.36359980101E+01 0.36773624888E+01 0.38616878771E+01 0.41961087970E+01 0.46868666653E+01
 0.45794874580E+01 0.51241756635E+01 0.57920628535E+01 0.65579402507E+01 0.73880970743E+01
 0.82452627236E+01 0.90937352365E+01 0.99005531382E+01 0.10630365704E+02 0.11237122001E+02
 0.11660689788E+02 0.11835624002E+02 0.11711501550E+02 0.11275040373E+02 0.10561249573E+02
 0.96468815544E+01 0.86298837954E+01 0.76056085392E+01 0.66498555458E+01 0.58124626346E+01
 0.51189919783E+01 0.45762445913E+01 0.41791141473E+01 0.39179822684E+01 0.37854628724E+01
 0.37803255264E+01 0.39071420772E+01 0.41724163877E+01 0.41262458079E+01 0.44442213335E+01
 0.48865708000E+01 0.54405342251E+01 0.60888189480E+01 0.68112916598E+01 0.75859037065E+01
 0.83881002836E+01 0.91877032917E+01 0.99435931122E+01 0.10599617960E+02 0.11087216710E+02
 0.11337990040E+02 0.11303202929E+02 0.10971453107E+02 0.10375315057E+02 0.95834221967E+01
 0.86822243286E+01 0.77561875952E+01 0.68739142773E+01 0.60825487113E+01 0.54084241111E+01
 0.48610234221E+01 0.44388046344E+01 0.41361819249E+01 0.39498985374E+01 0.38821411360E+01
 0.39390674488E+01 0.39555552882E+01 0.40599574160E+01 0.42884099648E+01 0.46334467363E+01
 0.50852338373E+01 0.56343557547E+01 0.62719626933E+01 0.69871048235E+01 0.77623828987E+01
 0.85689811765E+01 0.93623060846E+01 0.10080788333E+02 0.10651258780E+02 0.11002292944E+02
 0.11082272990E+02 0.10874912566E+02 0.10404984176E+02 0.97314691693E+01 0.89315459770E+01
 0.80827299071E+01 0.72497675678E+01 0.64788027199E+01 0.57974863295E+01 0.52185974125E+01
 0.47455808306E+01 0.43788134445E+01 0.41206697129E+01 0.39771647275E+01 0.40600871207E+01
 0.39555788247E+01 0.39770642667E+01 0.41205520113E+01 0.43787530876E+01 0.47455472043E+01
 0.52185449059E+01 0.57974230885E+01 0.64787475365E+01 0.72497157280E+01 0.80826865342E+01
 0.89315328068E+01 0.97314812160E+01 0.10404990254E+02 0.10874904834E+02 0.11082268671E+02
 0.11002291669E+02 0.10651248770E+02 0.10080785848E+02 0.93623377234E+01 0.85690399298E+01
 0.77624491460E+01 0.69871852155E+01 0.62720552442E+01 0.56344148732E+01 0.50852398113E+01
 0.46334698635E+01 0.42885176171E+01 0.44442733553E+01 0.41263696676E+01 0.39391358758E+01
 0.38821064404E+01 0.39498263560E+01 0.41361278740E+01 0.44387598013E+01 0.48609770867E+01
 0.54083895660E+01 0.60825222628E+01 0.68738795543E+01 0.77561588007E+01 0.86822257103E+01
 0.95834365746E+01 0.10375308754E+02 0.10971432858E+02 0.11303194843E+02 0.11337989517E+02
 0.11087213055E+02 0.10599634765E+02 0.99436491458E+01 0.91877727884E+01 0.83881657268E+01
 0.75859948797E+01 0.68114092629E+01 0.60888841623E+01 0.54404994925E+01 0.48865228214E+01
 0.51240567558E+01 0.45794732764E+01 0.41725146548E+01 0.39072463051E+01 0.37803736364E+01
 0.37854686959E+01 0.39179594934E+01 0.41790679600E+01 0.45762069425E+01 0.51189857710E+01
 0.58124606045E+01 0.66498334543E+01 0.76055949615E+01 0.86299022299E+01 0.96468972521E+01
 0.10561230459E+02 0.11275014112E+02 0.11711499067E+02 0.11835629132E+02 0.11660695387E+02
 0.11237163654E+02 0.10630447140E+02 0.99006188887E+01 0.90937729576E+01 0.82453393249E+01
 0.73882243031E+01 0.65580056188E+01 0.57919880242E+01 0.61196619818E+01 0.53328106059E+01
 0.46868114936E+01 0.41961763719E+01 0.38618075888E+01 0.36774775511E+01 0.36360720499E+01
 0.37346227125E+01 0.39771328289E+01 0.43739802349E+01 0.49377149770E+01 0.56762987819E+01
 0.65847978186E+01 0.76362569502E+01 0.87739276422E+01 0.99096501036E+01 0.10933784978E+02
 0.11737922655E+02 0.12242817455E+02 0.12412601264E+02 0.12276296790E+02 0.11904475418E+02
 0.11355909607E+02 0.10659013775E+02 0.98376840416E+01 0.89281405260E+01 0.79699562368E+01
 0.70149718446E+01 0.74325099930E+01 0.64044175535E+01 0.55010313794E+01 0.47604684390E+01
 0.41961818331E+01 0.38053614764E+01 0.35788620698E+01 0.35089625095E+01 0.35940128488E+01
 0.38401191132E+01 0.42599740437E+01 0.48687603754E+01 0.56768323525E+01 0.66790741030E+01
 0.78425772393E+01 0.90974501209E+01 0.10337841457E+02 0.11438639447E+02 0.12276267101E+02
 0.12745721339E+02 0.12856219236E+02 0.12708917066E+02 0.12404995490E+02 0.11974457342E+02
 0.11377040949E+02 0.10571437329E+02 0.95929365492E+01 0.85215792772E+01 0.90091561847E+01
 0.77854738656E+01 0.66296238952E+01 0.56192085014E+01 0.47963889685E+01 0.41725306591E+01
 0.37408526257E+01 0.34893888233E+01 0.34097984903E+01 0.35014162131E+01 0.37720463440E+01
 0.42366336486E+01 0.49129957595E+01 0.58126053585E+01 0.69261701899E+01 0.82081398801E+01
 0.95682487147E+01 0.10878736401E+02 0.11978773512E+02 0.12676689811E+02 0.12930237243E+02
 0.12871787729E+02 0.12698284361E+02 0.12528431156E+02 0.12324837188E+02 0.11935466386E+02
 0.11224454127E+02 0.10198124095E+02 0.10703699207E+02 0.94033968906E+01 0.80531324704E+01
 0.67823717118E+01 0.56806865022E+01 0.47925427436E+01 0.41264035205E+01 0.36714493693E+01
 0.34131004483E+01 0.33424482593E+01 0.34596532858E+01 0.37742448692E+01 0.43037646074E+01
 0.50683222399E+01 0.60777119859E+01 0.73123556952E+01 0.87059423247E+01 0.10140880336E+02
 0.11442954723E+02 0.12329291297E+02 0.12645342559E+02 0.12502351751E+02 0.12202097894E+02
 0.12043261742E+02 0.12128916709E+02 0.12301722422E+02 0.12252016461E+02 0.11727228787E+02
 0.12047437421E+02 0.11073782030E+02 0.96823738149E+01 0.82207586312E+01 0.68543355751E+01
 0.56821355567E+01 0.47491342461E+01 0.40601659475E+01 0.36004482971E+01 0.33531649036E+01
 0.33090829052E+01 0.34693646853E+01 0.38457338894E+01 0.44586930007E+01 0.53292887330E+01
 0.64609931729E+01 0.78162465019E+01 0.92996040677E+01 0.10750485342E+02 0.11836695535E+02
 0.12233688876E+02 0.11928402999E+02 0.11251338804E+02 0.10702914168E+02 0.10665374544E+02
 0.11172890388E+02 0.11888450539E+02 0.12305763266E+02 0.12141126798E+02 0.12192572592E+02
 0.11293259531E+02 0.98328917929E+01 0.82803821708E+01 0.68422269545E+01 0.56238239084E+01
 0.46686929187E+01 0.39773280290E+01 0.35312229980E+01 0.33119168256E+01 0.33103634835E+01
 0.35293059438E+01 0.39834017822E+01 0.46959918573E+01 0.56862865524E+01 0.69452628846E+01
 0.84091945325E+01 0.99454881985E+01 0.11257693711E+02 0.11857686761E+02 0.11499694521E+02
 0.10388218621E+02 0.91226455220E+01 0.84035983414E+01 0.86513135373E+01 0.97634643670E+01
 0.11168039263E+02 0.10306657258E+02 0.11852568208E+02 0.12199592386E+02 0.11365691748E+02
 0.98504811555E+01 0.82307939273E+01 0.67478453734E+01 0.55096217432E+01 0.45559766339E+01
 0.38824095998E+01 0.34671456870E+01 0.32909019404E+01 0.33456276055E+01 0.36365625626E+01
 0.41819607565E+01 0.50069582763E+01 0.61248208327E+01 0.75072503039E+01 0.90570584995E+01
 0.10566878097E+02 0.11513156008E+02 0.11374458288E+02 0.10063144391E+02 0.80636080050E+01
 0.62641800210E+01 0.55325938967E+01 0.62574358848E+01 0.81300175389E+01 0.65811756363E+01
 0.95118586358E+01 0.11553932141E+02 0.12116222325E+02 0.11304196304E+02 0.97383785458E+01
 0.80770002776E+01 0.65777461893E+01 0.53466895485E+01 0.44176492716E+01 0.37806707055E+01
 0.34114348846E+01 0.32908886745E+01 0.34130427953E+01 0.37866588563E+01 0.44337577863E+01
 0.53791629476E+01 0.66253688127E+01 0.81186808631E+01 0.97220754330E+01 0.11058354348E+02
 0.11429089613E+02 0.10373281884E+02 0.80286516392E+01 0.51935686162E+01 0.30257805529E+01
 0.24925207448E+01 0.38679933989E+01 0.19131044651E+01 0.54313233675E+01 0.89764946673E+01
 0.11341827912E+02 0.11980787104E+02 0.11122463720E+02 0.95060515314E+01 0.78293519505E+01
 0.63425726805E+01 0.51448599816E+01 0.42617370610E+01 0.36777080323E+01 0.33669442176E+01
 0.33118696355E+01 0.35097269115E+01 0.39735825135E+01 0.47286084283E+01 0.57964049602E+01
 0.71641173008E+01 0.87484477173E+01 0.10346811561E+02 0.11354673662E+02 0.11009491554E+02
 0.89786935005E+01 0.56697007188E+01 0.21892212362E+01 -.97307882198E-01 -.21626562449E+00
 -.21072290858E+01 0.76675581476E+00 0.49205083068E+01 0.88247483273E+01 0.11264899352E+02
 0.11807986884E+02 0.10829775041E+02 0.91677960545E+01 0.75025496086E+01 0.60561477041E+01
 0.49157896810E+01 0.40969294579E+01 0.35789836051E+01 0.33359572053E+01 0.33530777592E+01
 0.36318222684E+01 0.41897706024E+01 0.50538280787E+01 0.62392534151E+01 0.77145057018E+01
 0.93653274857E+01 0.10875100224E+02 0.11451617094E+02 0.10355940053E+02 0.74366149047E+01
 0.33807590633E+01 -.44624520244E+00 -.25682051518E+01 0.56025805776E-01 0.76723958199E+00
 0.34446506994E+01 0.70029498643E+01 0.10098971061E+02 0.11757089409E+02 0.11735263239E+02
 0.10487714105E+02 0.88022582699E+01 0.71877053864E+01 0.58104868055E+01 0.47395512206E+01
 0.39803898246E+01 0.35092153938E+01 0.33008667120E+01 0.33425589088E+01 0.36374410466E+01
 0.42042133235E+01 0.50699110179E+01 0.62482518104E+01 0.77053000076E+01 0.93270736022E+01
 0.10819221116E+02 0.11457635744E+02 0.10586332694E+02 0.81107955210E+01 0.46984675613E+01
 0.15900728405E+01 0.65373934002E+00 -.51716320944E+00 0.65383455136E+00 0.36736851090E+01
 0.73197532437E+01 0.10250085394E+02 0.11608983223E+02 0.11314610530E+02 0.99368507097E+01
 0.82687299962E+01 0.67212473500E+01 0.54343160731E+01 0.44602343382E+01 0.37943069809E+01
 0.34099877304E+01 0.32845605509E+01 0.34099049790E+01 0.37942715720E+01 0.44602540309E+01
 0.54342739188E+01 0.67211512749E+01 0.82687127276E+01 0.99369165685E+01 0.11314629520E+02
 0.11608939078E+02 0.10250083751E+02 0.73197864107E+01 0.36736408801E+01 0.34446028198E+01
 0.76716468349E+00 0.56055473317E-01 0.15901567687E+01 0.46984821377E+01 0.81107769841E+01