    2    2   15    1
  0.1529437E+02  0.3691622E-09  0.3691622E-09  0.3691622E-09  0.5000000E-15
  1.000000000000000E-004
  CAR 
 unknown system                          
      8     75      8
 
  0.0000000E+00  0.0000000E+00  0.0000000E+00  0.1371742E-02
    1       -4.613646   1.000000
    2        6.199934   1.000000
    3        6.304145   1.000000
    4        6.304156   1.000000
    5       10.602279   0.000000
    6       16.952388   0.000000
    7       17.377835   0.000000
    8       17.377851   0.000000
 
  0.1111111E+00 -0.9377698E-17  0.9377698E-17  0.1097394E-01
    1       -4.265212   1.000000
    2        5.315011   1.000000
    3        6.250174   1.000000
    4        7.795946   1.000000
    5       11.307310   0.000000
    6       15.242515   0.000000
    7       16.034348   0.000000
    8       17.343742   0.000000
 
  0.2222222E+00  0.6918512E-17 -0.6918512E-17  0.1097394E-01
    1       -3.223644   1.000000
    2        5.025393   1.000000
    3        6.330478   1.000000
    4        9.631645   0.000144
    5       12.164560   0.000000
    6       12.957931   0.000000
    7       13.095369   0.000000
    8       15.188108   0.000000
 
  0.3333333E+00 -0.3591853E-16  0.3591853E-16  0.1097394E-01
    1       -1.502302   1.000000
    2        5.363254   1.000000
    3        6.801742   1.000000
    4        7.477891   1.000000
    5       10.288540   0.000000
    6       12.703390   0.000000
    7       13.049551   0.000000
    8       14.035471   0.000000
 
  0.4444444E+00  0.1383702E-16 -0.1383702E-16  0.1097394E-01
    1        0.864131   1.000000
    2        3.903804   1.000000
    3        6.383215   1.000000
    4        7.578919   1.000000
    5        8.202319   1.000000
    6       10.774383   0.000000
    7       13.558178   0.000000
    8       14.574421   0.000000
 
  0.1111111E+00  0.1111111E+00  0.1875540E-16  0.1097394E-01
    1       -3.369684   1.000000
    2        5.343110   1.000000
    3        7.357732   1.000000
    4        8.556656   0.999965
    5       12.359214   0.000000
    6       12.620227   0.000000
    7       13.044196   0.000000
    8       15.688692   0.000000
 
  0.2222222E+00  0.1111111E+00 -0.2719765E-16  0.2194787E-01
    1       -1.791808   1.000000
    2        5.619376   1.000000
    3        7.901743   1.000000
    4        8.311603   1.000000
    5        9.762902   0.000003
    6       11.414071   0.000000
    7       13.060519   0.000000
    8       14.068387   0.000000
 
  0.3333333E+00  0.1111111E+00  0.2951719E-16  0.2194787E-01
    1        0.443716   1.000000
    2        4.711960   1.000000
    3        6.491194   1.000000
    4        6.936562   1.000000
    5        9.056580   0.670045
    6       11.144026   0.000000
    7       12.659049   0.000000
    8       14.559605   0.000000
 
  0.4444444E+00  0.1111111E+00  0.7517205E-17  0.2194787E-01
    1        1.553869   1.000000
    2        3.358268   1.000000
    3        5.236082   1.000000
    4        7.471638   1.000000
    5        8.696374   0.998592
    6       11.515554   0.000000
    7       12.437638   0.000000
    8       15.868275   0.000000
 
 -0.4444444E+00  0.1111111E+00  0.4279628E-16  0.2194787E-01
    1       -0.926997   1.000000
    2        4.000387   1.000000
    3        6.703065   1.000000
    4        7.013019   1.000000
    5       10.120771   0.000000
    6       12.418720   0.000000
    7       13.605980   0.000000
    8       14.507893   0.000000
 
 -0.3333333E+00  0.1111111E+00 -0.1456430E-16  0.2194787E-01
    1       -2.786564   1.000000
    2        3.479421   1.000000
    3        6.344987   1.000000
    4       10.165520   0.000000
    5       11.952816   0.000000
    6       12.069803   0.000000
    7       13.979111   0.000000
    8       15.185854   0.000000
 
 -0.2222222E+00  0.1111111E+00  0.1629621E-16  0.2194787E-01
    1       -3.971763   1.000000
    2        3.594278   1.000000
    3        6.307680   1.000000
    4        8.928234   0.911103
    5       12.820300   0.000000
    6       13.478060   0.000000
    7       15.372834   0.000000
    8       16.684890   0.000000
 
 -0.1111111E+00  0.1111111E+00  0.7914115E-18  0.5486968E-02
    1       -4.466641   1.000000
    2        4.327019   1.000000
    3        6.440884   1.000000
    4        7.664726   1.000000
    5       11.500588   0.000000
    6       14.953055   0.000000
    7       16.367646   0.000000
    8       19.528094   0.000000
 
  0.2222222E+00  0.2222222E+00 -0.4159260E-16  0.1097394E-01
    1        0.302447   1.000000
    2        5.723293   1.000000
    3        5.779769   1.000000
    4        6.439967   1.000000
    5        9.981397   0.000000
    6       11.629792   0.000000
    7       12.585388   0.000000
    8       12.850222   0.000000
 
  0.3333333E+00  0.2222222E+00  0.4287781E-16  0.2194787E-01
    1        2.445883   1.000000
    2        3.107868   1.000000
    3        3.889497   1.000000
    4        7.521083   1.000000
    5        9.271371   0.140347
    6       10.813435   0.000000
    7       13.615288   0.000000
    8       15.678914   0.000000
 
  0.4444444E+00  0.2222222E+00  0.2087783E-16  0.2194787E-01
    1       -0.070078   1.000000
    2        2.436141   1.000000
    3        6.408283   1.000000
    4        7.583818   1.000000
    5        9.493872   0.004000
    6       11.335385   0.000000
    7       14.801094   0.000000
    8       15.824099   0.000000
 
 -0.4444444E+00  0.2222222E+00  0.6918512E-17  0.2194787E-01
    1       -2.061447   1.000000
    2        1.756407   1.000000
    3        6.964033   1.000000
    4        9.957639   0.000000
    5       10.651304   0.000000
    6       12.530399   0.000000
    7       13.425362   0.000000
    8       15.858232   0.000000
 
 -0.3333333E+00  0.2222222E+00 -0.1251408E-16  0.2194787E-01
    1       -3.386565   1.000000
    2        1.733745   1.000000
    3        6.836432   1.000000
    4        9.765157   0.000002
    5       11.680659   0.000000
    6       14.243275   0.000000
    7       15.192425   0.000000
    8       15.881738   0.000000
 
 -0.2222222E+00  0.2222222E+00  0.1582823E-17  0.5486968E-02
    1       -4.026323   1.000000
    2        2.364387   1.000000
    3        6.851505   1.000000
    4        8.541171   0.999978
    5       12.962551   0.000000
    6       13.725869   0.000000
    7       14.725228   0.000000
    8       19.216913   0.000000
 
  0.3333333E+00  0.3333333E+00  0.7183707E-16  0.1097394E-01
    1        1.048653   1.000000
    2        1.067265   1.000000
    3        6.283069   1.000000
    4        8.247870   1.000000
    5        8.819229   0.982928
    6       10.967914   0.000000
    7       15.510595   0.000000
    8       16.536502   0.000000
 
  0.4444444E+00  0.3333333E+00  0.4983708E-16  0.2194787E-01
    1       -1.053757   1.000000
    2        0.225991   1.000000
    3        7.876724   1.000000
    4        9.013153   0.772503
    5       10.080598   0.000000
    6       13.062931   0.000000
    7       13.411194   0.000000
    8       14.727353   0.000000
 
 -0.4444444E+00  0.3333333E+00  0.6553460E-16  0.2194787E-01
    1       -2.513793   1.000000
    2        0.063160   1.000000
    3        7.651386   1.000000
    4       10.082502   0.000000
    5       10.676047   0.000000
    6       13.008054   0.000000
    7       15.188095   0.000000
    8       16.019933   0.000000
 
 -0.3333333E+00  0.3333333E+00  0.1438931E-16  0.5486968E-02
    1       -3.295045   1.000000
    2        0.571865   1.000000
    3        7.536503   1.000000
    4        9.386874   0.029014
    5       11.219398   0.000000
    6       13.112395   0.000000
    7       16.525434   0.000000
    8       18.938150   0.000000
 
  0.4444444E+00  0.4444444E+00 -0.8318520E-16  0.1097394E-01
    1       -1.360627   1.000000
    2       -1.359657   1.000000
    3        8.725563   0.997288
    4        8.755704   0.994879
    5       11.649557   0.000000
    6       11.865241   0.000000
    7       15.037727   0.000000
    8       15.952090   0.000000
 
 -0.4444444E+00  0.4444444E+00  0.3165646E-17  0.5486968E-02
    1       -2.278578   1.000000
    2       -0.984907   1.000000
    3        8.491770   0.999995
    4        9.719856   0.000011
    5       10.411704   0.000000
    6       11.655936   0.000000
    7       18.799823   0.000000
    8       18.844473   0.000000
 
  0.1111111E+00  0.1111111E+00  0.1111111E+00  0.1097394E-01
    1       -2.931685   1.000000
    2        3.410374   1.000000
    3        7.741521   1.000000
    4        9.364120   0.041406
    5       11.939609   0.000000
    6       12.105924   0.000000
    7       14.517390   0.000000
    8       15.151473   0.000000
 
  0.2222222E+00  0.1111111E+00  0.1111111E+00  0.2194787E-01
    1       -1.213104   1.000000
    2        3.821455   1.000000
    3        7.623050   1.000000
    4        8.226391   1.000000
    5        9.704321   0.000017
    6       12.064732   0.000000
    7       13.852085   0.000000
    8       14.704398   0.000000
 
  0.3333333E+00  0.1111111E+00  0.1111111E+00  0.2194787E-01
    1        1.148464   1.000000
    2        4.133765   1.000000
    3        4.943788   1.000000
    4        6.525249   1.000000
    5       10.014973   0.000000
    6       12.345390   0.000000
    7       13.877605   0.000000
    8       14.375744   0.000000
 
 -0.1111111E+00  0.1111111E+00  0.1111111E+00  0.5486968E-02
    1       -4.319918   1.000000
    2        3.999610   1.000000
    3        5.350828   1.000000
    4        8.986627   0.825024
    5       12.107328   0.000000
    6       13.387462   0.000000
    7       17.620593   0.000000
    8       18.210794   0.000000
 
  0.2222222E+00  0.2222222E+00  0.1111111E+00  0.1097394E-01
    1        1.011172   1.000000
    2        4.653475   1.000000
    3        5.278697   1.000000
    4        5.371787   1.000000
    5       11.126466   0.000000
    6       13.294644   0.000000
    7       13.561275   0.000000
    8       13.714103   0.000000
 
  0.3333333E+00  0.2222222E+00  0.1111111E+00  0.2194787E-01
    1        2.119339   1.000000
    2        3.308645   1.000000
    3        4.039036   1.000000
    4        6.304629   1.000000
    5       10.964130   0.000000
    6       12.458959   0.000000
    7       14.286877   0.000000
    8       15.227070   0.000000
 
  0.4444444E+00  0.2222222E+00  0.1111111E+00  0.2194787E-01
    1       -0.351166   1.000000
    2        2.186463   1.000000
    3        7.297683   1.000000
    4        8.199872   1.000000
    5       10.149653   0.000000
    6       12.452062   0.000000
    7       12.961242   0.000000
    8       14.933282   0.000000
 
 -0.4444444E+00  0.2222222E+00  0.1111111E+00  0.1097394E-01
    1       -2.204917   1.000000
    2        1.636127   1.000000
    3        8.362472   1.000000
    4        9.998594   0.000000
    5       11.305929   0.000000
    6       11.682386   0.000000
    7       13.285968   0.000000
    8       14.243154   0.000000
 
 -0.2222222E+00  0.2222222E+00  0.1111111E+00  0.1097394E-01
    1       -3.880223   1.000000
    2        2.432476   1.000000
    3        5.364160   1.000000
    4       10.170091   0.000000
    5       11.450726   0.000000
    6       14.040274   0.000000
    7       16.306501   0.000000
    8       18.955633   0.000000
 
 -0.1111111E+00  0.2222222E+00  0.1111111E+00  0.1097394E-01
    1       -3.679389   1.000000
    2        3.334240   1.000000
    3        4.874014   1.000000
    4       10.658902   0.000000
    5       11.615411   0.000000
    6       13.791584   0.000000
    7       14.902982   0.000000
    8       17.601971   0.000000
 
  0.3333333E+00  0.3333333E+00  0.1111111E+00  0.1097394E-01
    1        0.783712   1.000000
    2        0.789645   1.000000
    3        7.181750   1.000000
    4        8.158795   1.000000
    5       10.797719   0.000000
    6       11.539119   0.000000
    7       13.606930   0.000000
    8       14.295307   0.000000
 
  0.4444444E+00  0.3333333E+00  0.1111111E+00  0.1097394E-01
    1       -1.193891   1.000000
    2        0.091367   1.000000
    3        9.173755   0.348818
    4        9.985625   0.000000
    5       11.169492   0.000000
    6       11.424774   0.000000
    7       12.652393   0.000000
    8       13.126205   0.000000
 
 -0.3333333E+00  0.3333333E+00  0.1111111E+00  0.1097394E-01
    1       -3.150890   1.000000
    2        0.692429   1.000000
    3        6.001310   1.000000
    4        9.697317   0.000022
    5       11.098481   0.000000
    6       14.759709   0.000000
    7       16.712694   0.000000
    8       18.579414   0.000000
 
 -0.2222222E+00  0.3333333E+00  0.1111111E+00  0.2194787E-01
    1       -3.096843   1.000000
    2        1.919522   1.000000
    3        4.940277   1.000000
    4        9.764821   0.000002
    5       11.812830   0.000000
    6       14.338565   0.000000
    7       15.945270   0.000000
    8       17.245695   0.000000
 
 -0.1111111E+00  0.3333333E+00  0.1111111E+00  0.1097394E-01
    1       -2.352319   1.000000
    2        3.330666   1.000000
    3        4.954555   1.000000
    4        9.818155   0.000000
    5       10.492084   0.000000
    6       13.480339   0.000000
    7       14.828301   0.000000
    8       15.537682   0.000000
 
 -0.4444444E+00  0.4444444E+00  0.1111111E+00  0.1097394E-01
    1       -2.137438   1.000000
    2       -0.849758   1.000000
    3        6.957957   1.000000
    4        8.196434   1.000000
    5       12.128075   0.000000
    6       13.354463   0.000000
    7       18.263345   0.000000
    8       18.369716   0.000000
 
 -0.3333333E+00  0.4444444E+00  0.1111111E+00  0.2194787E-01
    1       -2.228843   1.000000
    2        0.318147   1.000000
    3        5.695464   1.000000
    4        8.147785   1.000000
    5       12.544871   0.000000
    6       14.139332   0.000000
    7       16.077720   0.000000
    8       17.231446   0.000000
 
 -0.2222222E+00  0.4444444E+00  0.1111111E+00  0.2194787E-01
    1       -1.632502   1.000000
    2        2.073250   1.000000
    3        5.119595   1.000000
    4        8.615430   0.999814
    5        9.593608   0.000394
    6       14.473286   0.000000
    7       14.973638   0.000000
    8       17.084820   0.000000
 
 -0.1111111E+00  0.4444444E+00  0.1111111E+00  0.1097394E-01
    1       -0.357968   1.000000
    2        3.969850   1.000000
    3        5.629788   1.000000
    4        6.205143   1.000000
    5        9.561405   0.000875
    6       12.301241   0.000000
    7       13.675935   0.000000
    8       16.200056   0.000000
 
 -0.4444444E+00 -0.4444444E+00  0.1111111E+00  0.1097394E-01
    1       -1.085818   1.000000
    2       -1.082970   1.000000
    3        6.776600   1.000000
    4        6.784021   1.000000
    5       12.834438   0.000000
    6       14.260224   0.000000
    7       15.396298   0.000000
    8       17.216552   0.000000
 
 -0.3333333E+00 -0.4444444E+00  0.1111111E+00  0.2194787E-01
    1       -0.635747   1.000000
    2        0.619622   1.000000
    3        5.990094   1.000000
    4        7.184767   1.000000
    5        9.321374   0.076024
    6       14.463585   0.000000
    7       15.817711   0.000000
    8       17.138050   0.000000
 
 -0.2222222E+00 -0.4444444E+00  0.1111111E+00  0.2194787E-01
    1        0.486476   1.000000
    2        2.881262   1.000000
    3        5.683435   1.000000
    4        6.017968   1.000000
    5        8.192259   1.000000
    6       12.260513   0.000000
    7       14.956109   0.000000
    8       17.288343   0.000000
 
 -0.1111111E+00 -0.4444444E+00  0.1111111E+00  0.1097394E-01
    1        2.163830   1.000000
    2        2.889077   1.000000
    3        5.368047   1.000000
    4        6.838211   1.000000
    5        8.841520   0.975046
    6       11.127926   0.000000
    7       11.731996   0.000000
    8       16.616199   0.000000
 
 -0.3333333E+00 -0.3333333E+00  0.1111111E+00  0.1097394E-01
    1        1.569835   1.000000
    2        1.604388   1.000000
    3        5.604726   1.000000
    4        6.850913   1.000000
    5        7.006275   1.000000
    6       12.176910   0.000000
    7       16.526175   0.000000
    8       16.783271   0.000000
 
 -0.2222222E+00 -0.3333333E+00  0.1111111E+00  0.2194787E-01
    1        2.380553   1.000000
    2        3.330461   1.000000
    3        4.434206   1.000000
    4        7.210134   1.000000
    5        8.182403   1.000000
    6       10.679041   0.000000
    7       13.082676   0.000000
    8       15.214566   0.000000
 
 -0.1111111E+00 -0.3333333E+00  0.1111111E+00  0.1097394E-01
    1        0.017040   1.000000
    2        5.504310   1.000000
    3        7.126810   1.000000
    4        8.069001   1.000000
    5        8.104946   1.000000
    6       10.917665   0.000000
    7       11.281009   0.000000
    8       13.584379   0.000000
 
 -0.2222222E+00 -0.2222222E+00  0.1111111E+00  0.1097394E-01
    1       -0.125607   1.000000
    2        6.451591   1.000000
    3        6.490227   1.000000
    4        7.816133   1.000000
    5        8.854030   0.969417
    6       10.510919   0.000000
    7       11.858714   0.000000
    8       12.218691   0.000000
 
 -0.1111111E+00 -0.2222222E+00  0.1111111E+00  0.1097394E-01
    1       -2.081783   1.000000
    2        7.212107   1.000000
    3        7.972644   1.000000
    4        8.659935   0.999412
    5        9.796114   0.000001
    6       10.725868   0.000000
    7       12.433557   0.000000
    8       13.095703   0.000000
 
 -0.1111111E+00 -0.1111111E+00  0.1111111E+00  0.2743484E-02
    1       -3.516042   1.000000
    2        7.191559   1.000000
    3        7.228655   1.000000
    4        7.228666   1.000000
    5       11.690692   0.000000
    6       12.908527   0.000000
    7       13.266409   0.000000
    8       15.472372   0.000000
 
  0.2222222E+00  0.2222222E+00  0.2222222E+00  0.1097394E-01
    1        1.992043   1.000000
    2        3.226904   1.000000
    3        5.030356   1.000000
    4        5.050451   1.000000
    5       12.313535   0.000000
    6       13.472064   0.000000
    7       14.609695   0.000000
    8       14.642653   0.000000
 
 -0.2222222E+00  0.2222222E+00  0.2222222E+00  0.5486968E-02
    1       -3.443510   1.000000
    2        2.277923   1.000000
    3        3.938632   1.000000
    4        9.490144   0.004323
    5       12.117887   0.000000
    6       15.210351   0.000000
    7       17.559889   0.000000
    8       18.497639   0.000000
 
 -0.3333333E+00  0.3333333E+00  0.2222222E+00  0.1097394E-01
    1       -2.719878   1.000000
    2        1.010162   1.000000
    3        4.102617   1.000000
    4        7.728276   1.000000
    5       13.449274   0.000000
    6       16.695527   0.000000
    7       17.370409   0.000000
    8       18.308440   0.000000
 
 -0.2222222E+00  0.3333333E+00  0.2222222E+00  0.1097394E-01
    1       -2.520273   1.000000
    2        1.892424   1.000000
    3        3.615067   1.000000
    4        7.907089   1.000000
    5       12.802463   0.000000
    6       14.953386   0.000000
    7       17.212402   0.000000
    8       18.466221   0.000000
 
 -0.4444444E+00  0.4444444E+00  0.2222222E+00  0.1097394E-01
    1       -1.717494   1.000000
    2       -0.454319   1.000000
    3        4.989405   1.000000
    4        6.217052   1.000000
    5       14.530528   0.000000
    6       15.618470   0.000000
    7       17.868337   0.000000
    8       18.009159   0.000000
 
 -0.3333333E+00  0.4444444E+00  0.2222222E+00  0.2194787E-01
    1       -1.664171   1.000000
    2        0.773681   1.000000
    3        3.893996   1.000000
    4        6.273758   1.000000
    5       12.744648   0.000000
    6       16.063953   0.000000
    7       18.367984   0.000000
    8       18.619040   0.000000
 
 -0.2222222E+00  0.4444444E+00  0.2222222E+00  0.1097394E-01
    1       -0.924820   1.000000
    2        2.182886   1.000000
    3        3.925644   1.000000
    4        6.936840   1.000000
    5        9.067356   0.642012
    6       15.684975   0.000000
    7       17.086022   0.000000
    8       17.294856   0.000000
 
 -0.4444444E+00 -0.4444444E+00  0.2222222E+00  0.1097394E-01
    1       -0.548433   1.000000
    2       -0.543354   1.000000
    3        4.911454   1.000000
    4        4.913502   1.000000
    5       12.672866   0.000000
    6       16.862591   0.000000
    7       17.616917   0.000000
    8       18.619674   0.000000
 
 -0.3333333E+00 -0.4444444E+00  0.2222222E+00  0.2194787E-01
    1        0.044276   1.000000
    2        1.214690   1.000000
    3        4.329012   1.000000
    4        5.467869   1.000000
    5        8.806163   0.986474
    6       16.040671   0.000000
    7       18.035350   0.000000
    8       18.671273   0.000000
 
 -0.2222222E+00 -0.4444444E+00  0.2222222E+00  0.1097394E-01
    1        1.301537   1.000000
    2        3.117961   1.000000
    3        4.866992   1.000000
    4        5.392625   1.000000
    5        6.684996   1.000000
    6       13.540237   0.000000
    7       15.063567   0.000000
    8       17.717733   0.000000
 
 -0.3333333E+00 -0.3333333E+00  0.2222222E+00  0.1097394E-01
    1        2.282316   1.000000
    2        2.343131   1.000000
    3        5.112604   1.000000
    4        5.394602   1.000000
    5        5.579403   1.000000
    6       13.858820   0.000000
    7       16.138335   0.000000
    8       16.696241   0.000000
 
 -0.2222222E+00 -0.3333333E+00  0.2222222E+00  0.1097394E-01
    1        2.150178   1.000000
    2        4.155933   1.000000
    3        4.832345   1.000000
    4        6.387188   1.000000
    5        7.025179   1.000000
    6       11.918053   0.000000
    7       13.053983   0.000000
    8       14.264810   0.000000
 
 -0.2222222E+00 -0.2222222E+00  0.2222222E+00  0.2743484E-02
    1       -0.267648   1.000000
    2        6.923931   1.000000
    3        7.070638   1.000000
    4        8.123182   1.000000
    5        8.123190   1.000000
    6       10.642723   0.000000
    7       11.623226   0.000000
    8       11.623248   0.000000
 
 -0.3333333E+00  0.3333333E+00  0.3333333E+00  0.5486968E-02
    1       -2.008487   1.000000
    2        1.115658   1.000000
    3        2.894048   1.000000
    4        5.958163   1.000000
    5       15.245211   0.000000
    6       16.832857   0.000000
    7       18.092040   0.000000
    8       19.039309   0.000000
 
 -0.4444444E+00  0.4444444E+00  0.3333333E+00  0.1097394E-01
    1       -1.033963   1.000000
    2        0.142648   1.000000
    3        3.298342   1.000000
    4        4.453933   1.000000
    5       16.091161   0.000000
    6       16.494400   0.000000
    7       18.500227   0.000000
    8       19.234564   0.000000
 
 -0.3333333E+00  0.4444444E+00  0.3333333E+00  0.1097394E-01
    1       -0.836202   1.000000
    2        1.019077   1.000000
    3        2.818387   1.000000
    4        4.642914   1.000000
    5       12.482436   0.000000
    6       18.130685   0.000000
    7       19.599700   0.000000
    8       19.993590   0.000000
 
 -0.4444444E+00 -0.4444444E+00  0.3333333E+00  0.1097394E-01
    1        0.190625   1.000000
    2        0.198390   1.000000
    3        3.352800   1.000000
    4        3.354829   1.000000
    5       12.375930   0.000000
    6       19.249091   0.000000
    7       19.841217   0.000000
    8       19.969049   0.000000
 
 -0.3333333E+00 -0.4444444E+00  0.3333333E+00  0.1097394E-01
    1        0.926134   1.000000
    2        1.602916   1.000000
    3        3.392731   1.000000
    4        4.060335   1.000000
    5        8.544174   0.999976
    6       17.348529   0.000000
    7       18.742488   0.000000
    8       19.302873   0.000000
 
 -0.3333333E+00 -0.3333333E+00  0.3333333E+00  0.2743484E-02
    1        2.782079   1.000000
    2        2.881521   1.000000
    3        4.606411   1.000000
    4        4.606412   1.000000
    5        5.182875   1.000000
    6       15.160718   0.000000
    7       16.003204   0.000000
    8       16.003226   0.000000
 
 -0.4444444E+00  0.4444444E+00  0.4444444E+00  0.5486968E-02
    1       -0.148290   1.000000
    2        0.529661   1.000000
    3        2.356071   1.000000
    4        3.026441   1.000000
    5       16.334133   0.000000
    6       16.411047   0.000000
    7       20.132341   0.000000
    8       20.807616   0.000000
 
 -0.4444444E+00 -0.4444444E+00  0.4444444E+00  0.2743484E-02
    1        0.720837   1.000000
    2        0.731703   1.000000
    3        2.548588   1.000000
    4        2.548588   1.000000
    5       12.265448   0.000000
    6       20.230809   0.000000
    7       20.856945   0.000000
    8       20.980133   0.000000
