<?xml version="1.0" encoding="ISO-8859-1"?>
<modeling>
 <generator>
  <i name="program" type="string">vasp </i>
  <i name="version" type="string">5.4.4.18Apr17-6-g9f103f2a35  </i>
  <i name="subversion" type="string">(build Dec 09 2018 21:25:21) complex            parallel </i>
  <i name="platform" type="string">IFC18.0.1.163_CrayMPICH7.7.0_MKL18.0.1.163 </i>
  <i name="date" type="string">2019 03 19 </i>
  <i name="time" type="string">13:09:57 </i>
 </generator>
 <incar>
  <i type="string" name="PREC">normal</i>
  <i type="int" name="IBRION">     2</i>
  <i name="EDIFF">      0.00040000</i>
  <i name="EDIFFG">     -0.01000000</i>
  <i type="int" name="NSW">    15</i>
  <i type="int" name="ISIF">     2</i>
  <i name="ENCUT">    200.00000000</i>
  <i type="int" name="NBANDS">     8</i>
  <i type="logical" name="LREAL"> F  </i>
  <i type="int" name="ISMEAR">     0</i>
  <i name="SIGMA">      0.20000000</i>
  <v type="int" name="KPOINT_BSE">    -1     0     0     0</v>
 </incar>
 <structure name="primitive_cell" >
  <crystal>
   <varray name="basis" >
    <v>      -2.45000000       2.45000000       1.27400000 </v>
    <v>       2.45000000      -2.45000000       1.27400000 </v>
    <v>       2.45000000       2.45000000      -1.27400000 </v>
   </varray>
   <i name="volume">     30.58874000 </i>
   <varray name="rec_basis" >
    <v>       0.00000000       0.20408163       0.39246468 </v>
    <v>       0.20408163       0.00000000       0.39246468 </v>
    <v>       0.20408163       0.20408163      -0.00000000 </v>
   </varray>
  </crystal>
  <varray name="positions" >
   <v>       0.25000000      -0.25000000      -0.50000000 </v>
   <v>       0.00000000       0.00000000       0.00000000 </v>
  </varray>
 </structure>
 <varray name="primitive_index" >
  <v type="int" >        1 </v>
  <v type="int" >        2 </v>
 </varray>
 <kpoints>
  <generation param="Monkhorst-Pack">
   <v type="int" name="divisions">       9        9        9 </v>
   <v name="usershift">      0.00000000       0.00000000       0.00000000 </v>
   <v name="genvec1">      0.11111111       0.00000000      -0.00000000 </v>
   <v name="genvec2">      0.00000000       0.11111111      -0.00000000 </v>
   <v name="genvec3">      0.00000000      -0.00000000       0.11111111 </v>
   <v name="shift">      0.00000000       0.00000000       0.00000000 </v>
  </generation>
  <varray name="kpointlist" >
   <v>       0.00000000       0.00000000       0.00000000 </v>
   <v>       0.11111111      -0.00000000       0.00000000 </v>
   <v>       0.22222222       0.00000000      -0.00000000 </v>
   <v>       0.33333333      -0.00000000       0.00000000 </v>
   <v>       0.44444444       0.00000000      -0.00000000 </v>
   <v>       0.11111111       0.11111111       0.00000000 </v>
   <v>       0.22222222       0.11111111      -0.00000000 </v>
   <v>       0.33333333       0.11111111       0.00000000 </v>
   <v>       0.44444444       0.11111111       0.00000000 </v>
   <v>      -0.44444444       0.11111111       0.00000000 </v>
   <v>      -0.33333333       0.11111111      -0.00000000 </v>
   <v>      -0.22222222       0.11111111       0.00000000 </v>
   <v>      -0.11111111       0.11111111       0.00000000 </v>
   <v>       0.22222222       0.22222222      -0.00000000 </v>
   <v>       0.33333333       0.22222222       0.00000000 </v>
   <v>       0.44444444       0.22222222       0.00000000 </v>
   <v>      -0.44444444       0.22222222       0.00000000 </v>
   <v>      -0.33333333       0.22222222      -0.00000000 </v>
   <v>      -0.22222222       0.22222222       0.00000000 </v>
   <v>       0.33333333       0.33333333       0.00000000 </v>
   <v>       0.44444444       0.33333333       0.00000000 </v>
   <v>      -0.44444444       0.33333333       0.00000000 </v>
   <v>      -0.33333333       0.33333333       0.00000000 </v>
   <v>       0.44444444       0.44444444      -0.00000000 </v>
   <v>      -0.44444444       0.44444444       0.00000000 </v>
   <v>       0.11111111       0.11111111       0.11111111 </v>
   <v>       0.22222222       0.11111111       0.11111111 </v>
   <v>       0.33333333       0.11111111       0.11111111 </v>
   <v>      -0.11111111       0.11111111       0.11111111 </v>
   <v>       0.22222222       0.22222222       0.11111111 </v>
   <v>       0.33333333       0.22222222       0.11111111 </v>
   <v>       0.44444444       0.22222222       0.11111111 </v>
   <v>      -0.44444444       0.22222222       0.11111111 </v>
   <v>      -0.22222222       0.22222222       0.11111111 </v>
   <v>      -0.11111111       0.22222222       0.11111111 </v>
   <v>       0.33333333       0.33333333       0.11111111 </v>
   <v>       0.44444444       0.33333333       0.11111111 </v>
   <v>      -0.33333333       0.33333333       0.11111111 </v>
   <v>      -0.22222222       0.33333333       0.11111111 </v>
   <v>      -0.11111111       0.33333333       0.11111111 </v>
   <v>      -0.44444444       0.44444444       0.11111111 </v>
   <v>      -0.33333333       0.44444444       0.11111111 </v>
   <v>      -0.22222222       0.44444444       0.11111111 </v>
   <v>      -0.11111111       0.44444444       0.11111111 </v>
   <v>      -0.44444444      -0.44444444       0.11111111 </v>
   <v>      -0.33333333      -0.44444444       0.11111111 </v>
   <v>      -0.22222222      -0.44444444       0.11111111 </v>
   <v>      -0.11111111      -0.44444444       0.11111111 </v>
   <v>      -0.33333333      -0.33333333       0.11111111 </v>
   <v>      -0.22222222      -0.33333333       0.11111111 </v>
   <v>      -0.11111111      -0.33333333       0.11111111 </v>
   <v>      -0.22222222      -0.22222222       0.11111111 </v>
   <v>      -0.11111111      -0.22222222       0.11111111 </v>
   <v>      -0.11111111      -0.11111111       0.11111111 </v>
   <v>       0.22222222       0.22222222       0.22222222 </v>
   <v>      -0.22222222       0.22222222       0.22222222 </v>
   <v>      -0.33333333       0.33333333       0.22222222 </v>
   <v>      -0.22222222       0.33333333       0.22222222 </v>
   <v>      -0.44444444       0.44444444       0.22222222 </v>
   <v>      -0.33333333       0.44444444       0.22222222 </v>
   <v>      -0.22222222       0.44444444       0.22222222 </v>
   <v>      -0.44444444      -0.44444444       0.22222222 </v>
   <v>      -0.33333333      -0.44444444       0.22222222 </v>
   <v>      -0.22222222      -0.44444444       0.22222222 </v>
   <v>      -0.33333333      -0.33333333       0.22222222 </v>
   <v>      -0.22222222      -0.33333333       0.22222222 </v>
   <v>      -0.22222222      -0.22222222       0.22222222 </v>
   <v>      -0.33333333       0.33333333       0.33333333 </v>
   <v>      -0.44444444       0.44444444       0.33333333 </v>
   <v>      -0.33333333       0.44444444       0.33333333 </v>
   <v>      -0.44444444      -0.44444444       0.33333333 </v>
   <v>      -0.33333333      -0.44444444       0.33333333 </v>
   <v>      -0.33333333      -0.33333333       0.33333333 </v>
   <v>      -0.44444444       0.44444444       0.44444444 </v>
   <v>      -0.44444444      -0.44444444       0.44444444 </v>
  </varray>
  <varray name="weights" >
   <v>       0.00137174 </v>
   <v>       0.01097394 </v>
   <v>       0.01097394 </v>
   <v>       0.01097394 </v>
   <v>       0.01097394 </v>
   <v>       0.01097394 </v>
   <v>       0.02194787 </v>
   <v>       0.02194787 </v>
   <v>       0.02194787 </v>
   <v>       0.02194787 </v>
   <v>       0.02194787 </v>
   <v>       0.02194787 </v>
   <v>       0.00548697 </v>
   <v>       0.01097394 </v>
   <v>       0.02194787 </v>
   <v>       0.02194787 </v>
   <v>       0.02194787 </v>
   <v>       0.02194787 </v>
   <v>       0.00548697 </v>
   <v>       0.01097394 </v>
   <v>       0.02194787 </v>
   <v>       0.02194787 </v>
   <v>       0.00548697 </v>
   <v>       0.01097394 </v>
   <v>       0.00548697 </v>
   <v>       0.01097394 </v>
   <v>       0.02194787 </v>
   <v>       0.02194787 </v>
   <v>       0.00548697 </v>
   <v>       0.01097394 </v>
   <v>       0.02194787 </v>
   <v>       0.02194787 </v>
   <v>       0.01097394 </v>
   <v>       0.01097394 </v>
   <v>       0.01097394 </v>
   <v>       0.01097394 </v>
   <v>       0.01097394 </v>
   <v>       0.01097394 </v>
   <v>       0.02194787 </v>
   <v>       0.01097394 </v>
   <v>       0.01097394 </v>
   <v>       0.02194787 </v>
   <v>       0.02194787 </v>
   <v>       0.01097394 </v>
   <v>       0.01097394 </v>
   <v>       0.02194787 </v>
   <v>       0.02194787 </v>
   <v>       0.01097394 </v>
   <v>       0.01097394 </v>
   <v>       0.02194787 </v>
   <v>       0.01097394 </v>
   <v>       0.01097394 </v>
   <v>       0.01097394 </v>
   <v>       0.00274348 </v>
   <v>       0.01097394 </v>
   <v>       0.00548697 </v>
   <v>       0.01097394 </v>
   <v>       0.01097394 </v>
   <v>       0.01097394 </v>
   <v>       0.02194787 </v>
   <v>       0.01097394 </v>
   <v>       0.01097394 </v>
   <v>       0.02194787 </v>
   <v>       0.01097394 </v>
   <v>       0.01097394 </v>
   <v>       0.01097394 </v>
   <v>       0.00274348 </v>
   <v>       0.00548697 </v>
   <v>       0.01097394 </v>
   <v>       0.01097394 </v>
   <v>       0.01097394 </v>
   <v>       0.01097394 </v>
   <v>       0.00274348 </v>
   <v>       0.00548697 </v>
   <v>       0.00274348 </v>
  </varray>
 </kpoints>
 <parameters>
  <separator name="general" >
   <i type="string" name="SYSTEM">unknown system</i>
   <i type="logical" name="LCOMPAT"> F  </i>
  </separator>
  <separator name="electronic" >
   <i type="string" name="PREC">normal</i>
   <i name="ENMAX">    200.00000000</i>
   <i name="ENAUG">    322.06900000</i>
   <i name="EDIFF">      0.00040000</i>
   <i type="int" name="IALGO">    38</i>
   <i type="int" name="IWAVPR">    11</i>
   <i type="int" name="NBANDS">     8</i>
   <i name="NELECT">      8.00000000</i>
   <i type="int" name="TURBO">     0</i>
   <i type="int" name="IRESTART">     0</i>
   <i type="int" name="NREBOOT">     0</i>
   <i type="int" name="NMIN">     0</i>
   <i name="EREF">      0.00000000</i>
   <separator name="electronic smearing" >
    <i type="int" name="ISMEAR">     0</i>
    <i name="SIGMA">      0.20000000</i>
    <i name="KSPACING">      0.50000000</i>
    <i type="logical" name="KGAMMA"> T  </i>
   </separator>
   <separator name="electronic projectors" >
    <i type="logical" name="LREAL"> F  </i>
    <v name="ROPT">      0.00000000</v>
    <i type="int" name="LMAXPAW">  -100</i>
    <i type="int" name="LMAXMIX">     2</i>
    <i type="logical" name="NLSPLINE"> F  </i>
   </separator>
   <separator name="electronic startup" >
    <i type="int" name="ISTART">     1</i>
    <i type="int" name="ICHARG">     0</i>
    <i type="int" name="INIWAV">     1</i>
   </separator>
   <separator name="electronic spin" >
    <i type="int" name="ISPIN">     1</i>
    <i type="logical" name="LNONCOLLINEAR"> F  </i>
    <v name="MAGMOM">      1.00000000      1.00000000</v>
    <i name="NUPDOWN">     -1.00000000</i>
    <i type="logical" name="LSORBIT"> F  </i>
    <v name="SAXIS">      0.00000000      0.00000000      1.00000000</v>
    <i type="logical" name="LSPIRAL"> F  </i>
    <v name="QSPIRAL">      0.00000000      0.00000000      0.00000000</v>
    <i type="logical" name="LZEROZ"> F  </i>
   </separator>
   <separator name="electronic exchange-correlation" >
    <i type="logical" name="LASPH"> F  </i>
    <i type="logical" name="LMETAGGA"> F  </i>
   </separator>
   <separator name="electronic convergence" >
    <i type="int" name="NELM">    60</i>
    <i type="int" name="NELMDL">     0</i>
    <i type="int" name="NELMIN">     2</i>
    <i name="ENINI">    200.00000000</i>
    <separator name="electronic convergence detail" >
     <i type="logical" name="LDIAG"> T  </i>
     <i type="logical" name="LSUBROT"> F  </i>
     <i name="WEIMIN">      0.00100000</i>
     <i name="EBREAK">      0.00001250</i>
     <i name="DEPER">      0.30000000</i>
     <i type="int" name="NRMM">     4</i>
     <i name="TIME">      0.40000000</i>
    </separator>
   </separator>
   <separator name="electronic mixer" >
    <i name="AMIX">      0.40000000</i>
    <i name="BMIX">      1.00000000</i>
    <i name="AMIN">      0.10000000</i>
    <i name="AMIX_MAG">      1.60000000</i>
    <i name="BMIX_MAG">      1.00000000</i>
    <separator name="electronic mixer details" >
     <i type="int" name="IMIX">     4</i>
     <i type="logical" name="MIXFIRST"> F  </i>
     <i type="int" name="MAXMIX">   -45</i>
     <i name="WC">    100.00000000</i>
     <i type="int" name="INIMIX">     1</i>
     <i type="int" name="MIXPRE">     1</i>
     <i type="int" name="MREMOVE">     5</i>
    </separator>
   </separator>
   <separator name="electronic dipolcorrection" >
    <i type="logical" name="LDIPOL"> F  </i>
    <i type="logical" name="LMONO"> F  </i>
    <i type="int" name="IDIPOL">     0</i>
    <i name="EPSILON">      1.00000000</i>
    <v name="DIPOL">   -100.00000000   -100.00000000   -100.00000000</v>
    <i name="EFIELD">      0.00000000</i>
   </separator>
  </separator>
  <separator name="grids" >
   <i type="int" name="NGX">    14</i>
   <i type="int" name="NGY">    14</i>
   <i type="int" name="NGZ">    14</i>
   <i type="int" name="NGXF">    28</i>
   <i type="int" name="NGYF">    28</i>
   <i type="int" name="NGZF">    28</i>
   <i type="logical" name="ADDGRID"> F  </i>
  </separator>
  <separator name="ionic" >
   <i type="int" name="NSW">    15</i>
   <i type="int" name="IBRION">     2</i>
   <i type="int" name="MDALGO">     0</i>
   <i type="int" name="ISIF">     2</i>
   <i name="PSTRESS">      0.00000000</i>
   <i name="EDIFFG">     -0.01000000</i>
   <i type="int" name="NFREE">     1</i>
   <i name="POTIM">      0.50000000</i>
   <i name="SMASS">     -3.00000000</i>
   <i name="SCALEE">      1.00000000</i>
  </separator>
  <separator name="ionic md" >
   <i name="TEBEG">      0.00010000</i>
   <i name="TEEND">      0.00010000</i>
   <i type="int" name="NBLOCK">     1</i>
   <i type="int" name="KBLOCK">    15</i>
   <i type="int" name="NPACO">   256</i>
   <i name="APACO">     16.00000000</i>
  </separator>
  <separator name="symmetry" >
   <i type="int" name="ISYM">     2</i>
   <i name="SYMPREC">      0.00001000</i>
  </separator>
  <separator name="dos" >
   <i type="int" name="LORBIT">     0</i>
   <v name="RWIGS">     -1.00000000</v>
   <i type="int" name="NEDOS">   301</i>
   <i name="EMIN">     10.00000000</i>
   <i name="EMAX">    -10.00000000</i>
   <i name="EFERMI">      0.00000000</i>
  </separator>
  <separator name="writing" >
   <i type="int" name="NWRITE">     2</i>
   <i type="logical" name="LWAVE"> T  </i>
   <i type="logical" name="LDOWNSAMPLE"> F  </i>
   <i type="logical" name="LCHARG"> T  </i>
   <i type="logical" name="LPARD"> F  </i>
   <i type="logical" name="LVTOT"> F  </i>
   <i type="logical" name="LVHAR"> F  </i>
   <i type="logical" name="LELF"> F  </i>
   <i type="logical" name="LOPTICS"> F  </i>
   <v name="STM">      0.00000000      0.00000000      0.00000000      0.00000000      0.00000000      0.00000000      0.00000000</v>
  </separator>
  <separator name="performance" >
   <i type="int" name="NPAR">     8</i>
   <i type="int" name="NSIM">     4</i>
   <i type="int" name="NBLK">    -1</i>
   <i type="logical" name="LPLANE"> T  </i>
   <i type="logical" name="LSCALAPACK"> T  </i>
   <i type="logical" name="LSCAAWARE"> F  </i>
   <i type="logical" name="LSCALU"> F  </i>
   <i type="logical" name="LASYNC"> F  </i>
   <i type="logical" name="LORBITALREAL"> F  </i>
  </separator>
  <separator name="miscellaneous" >
   <i type="int" name="IDIOT">     3</i>
   <i type="int" name="ISPECIAL">     0</i>
   <i type="logical" name="LMUSIC"> F  </i>
   <v name="POMASS">     28.08500000</v>
   <v name="DARWINR">      0.00000000</v>
   <v name="DARWINV">      1.00000000</v>
   <i type="logical" name="LCORR"> T  </i>
  </separator>
  <i type="logical" name="GGA_COMPAT"> T  </i>
  <i type="logical" name="LBERRY"> F  </i>
  <i type="int" name="ICORELEVEL">     0</i>
  <i type="logical" name="LDAU"> F  </i>
  <i type="int" name="I_CONSTRAINED_M">     0</i>
  <separator name="electronic exchange-correlation" >
   <i type="string" name="GGA">--</i>
   <i type="int" name="VOSKOWN">     0</i>
   <i type="logical" name="LHFCALC"> F  </i>
   <i type="string" name="PRECFOCK"></i>
   <i type="logical" name="LSYMGRAD"> F  </i>
   <i type="logical" name="LHFONE"> F  </i>
   <i type="logical" name="LRHFCALC"> F  </i>
   <i type="logical" name="LTHOMAS"> F  </i>
   <i type="logical" name="LMODELHF"> F  </i>
   <i name="ENCUT4O">     -1.00000000</i>
   <i type="int" name="EXXOEP">     0</i>
   <i type="int" name="FOURORBIT">     0</i>
   <i name="AEXX">      0.00000000</i>
   <i name="HFALPHA">      0.00000000</i>
   <i name="MCALPHA">      0.00000000</i>
   <i name="ALDAX">      1.00000000</i>
   <i name="AGGAX">      1.00000000</i>
   <i name="ALDAC">      1.00000000</i>
   <i name="AGGAC">      1.00000000</i>
   <i type="int" name="NKREDX">     1</i>
   <i type="int" name="NKREDY">     1</i>
   <i type="int" name="NKREDZ">     1</i>
   <i type="logical" name="SHIFTRED"> F  </i>
   <i type="logical" name="ODDONLY"> F  </i>
   <i type="logical" name="EVENONLY"> F  </i>
   <i type="int" name="LMAXFOCK">     0</i>
   <i type="int" name="NMAXFOCKAE">     0</i>
   <i type="logical" name="LFOCKAEDFT"> F  </i>
   <i name="HFSCREEN">      0.00000000</i>
   <i name="HFSCREENC">      0.00000000</i>
   <i type="int" name="NBANDSGWLOW">     0</i>
  </separator>
  <separator name="vdW DFT" >
   <i type="logical" name="LUSE_VDW"> F  </i>
   <i name="Zab_VDW">     -0.84910000</i>
   <i name="PARAM1">      0.12340000</i>
   <i name="PARAM2">      1.00000000</i>
   <i name="PARAM3">      0.00000000</i>
  </separator>
  <separator name="model GW" >
   <i type="int" name="MODEL_GW">     0</i>
   <i name="MODEL_EPS0">      9.17662200</i>
   <i name="MODEL_ALPHA">      1.00000000</i>
  </separator>
  <separator name="linear response parameters" >
   <i type="logical" name="LEPSILON"> F  </i>
   <i type="logical" name="LRPA"> F  </i>
   <i type="logical" name="LNABLA"> F  </i>
   <i type="logical" name="LVEL"> F  </i>
   <i type="int" name="KINTER">     0</i>
   <i name="CSHIFT">      0.10000000</i>
   <i name="OMEGAMAX">     -1.00000000</i>
   <i name="DEG_THRESHOLD">      0.00200000</i>
   <i name="RTIME">     -0.10000000</i>
   <i name="WPLASMAI">      0.00000000</i>
   <v name="DFIELD">      0.00000000      0.00000000      0.00000000</v>
   <v name="WPLASMA">      0.00000000      0.00000000      0.00000000      0.00000000      0.00000000      0.00000000      0.00000000      0.00000000      0.00000000</v>
  </separator>
  <separator name="orbital magnetization" >
   <i type="logical" name="NUCIND"> F  </i>
   <v name="MAGPOS">      0.00000000      0.00000000      0.00000000</v>
   <i type="logical" name="LNICSALL"> T  </i>
   <i type="logical" name="ORBITALMAG"> F  </i>
   <i type="logical" name="LMAGBLOCH"> F  </i>
   <i type="logical" name="LCHIMAG"> F  </i>
   <i type="logical" name="LGAUGE"> T  </i>
   <i type="int" name="MAGATOM">     0</i>
   <v name="MAGDIPOL">      0.00000000      0.00000000      0.00000000</v>
   <v name="AVECCONST">      0.00000000      0.00000000      0.00000000</v>
  </separator>
  <separator name="response functions" >
   <i type="logical" name="LADDER"> F  </i>
   <i type="logical" name="LRPAFORCE"> F  </i>
   <i type="logical" name="LFXC"> F  </i>
   <i type="logical" name="LHARTREE"> T  </i>
   <i type="int" name="IBSE">     0</i>
   <v type="int" name="KPOINT">    -1     0     0     0</v>
   <i type="logical" name="LTCTE"> F  </i>
   <i type="logical" name="LTETE"> F  </i>
   <i type="logical" name="LTRIPLET"> F  </i>
   <i type="logical" name="LFXCEPS"> F  </i>
   <i type="logical" name="LFXHEG"> F  </i>
   <i type="int" name="NATURALO">     2</i>
   <i type="logical" name="L2ORDER"> F  </i>
   <i type="logical" name="LMP2LT"> F  </i>
   <i type="logical" name="LUSEW"> F  </i>
   <i name="ENCUTGW">     -2.00000000</i>
   <i name="ENCUTGWSOFT">     -2.00000000</i>
   <i name="ENCUTLF">     -1.00000000</i>
   <i type="int" name="LMAXMP2">    -1</i>
   <i name="SCISSOR">      0.00000000</i>
   <i type="int" name="NOMEGA">     0</i>
   <i type="int" name="NOMEGAR">     0</i>
   <i type="int" name="NBANDSGW">    -1</i>
   <i type="int" name="NBANDSO">    -1</i>
   <i type="int" name="NBANDSV">    -1</i>
   <i type="int" name="NELM">     1</i>
   <i type="int" name="NELMHF">     1</i>
   <i type="int" name="DIM">     3</i>
   <i type="int" name="ANTIRES">     0</i>
   <i name="OMEGAMAX">    -30.00000000</i>
   <i name="OMEGAMIN">    -30.00000000</i>
   <i name="OMEGATL">   -200.00000000</i>
   <i type="int" name="OMEGAGRID">   140</i>
   <i name="CSHIFT">     -0.10000000</i>
   <i type="logical" name="SELFENERGY"> F  </i>
   <i type="logical" name="LSPECTRAL"> F  </i>
   <i type="logical" name="LSPECTRALGW"> F  </i>
   <i type="logical" name="LSINGLES"> F  </i>
   <i type="logical" name="LFERMIGW"> F  </i>
   <i type="logical" name="ODDONLYGW"> F  </i>
   <i type="logical" name="EVENONLYGW"> F  </i>
   <i type="int" name="NKREDLFX">     1</i>
   <i type="int" name="NKREDLFY">     1</i>
   <i type="int" name="NKREDLFZ">     1</i>
   <i type="int" name="MAXMEM">  2800</i>
   <i type="int" name="TELESCOPE">     0</i>
   <i type="int" name="TAUPAR">     1</i>
   <i type="int" name="OMEGAPAR">    -1</i>
   <i name="LAMBDA">      1.00000000</i>
  </separator>
  <separator name="External order field" >
   <i name="OFIELD_KAPPA">      0.00000000</i>
   <v name="OFIELD_K">      0.00000000      0.00000000      0.00000000</v>
   <i name="OFIELD_Q6_NEAR">      0.00000000</i>
   <i name="OFIELD_Q6_FAR">      0.00000000</i>
   <i name="OFIELD_A">      0.00000000</i>
  </separator>
 </parameters>
 <atominfo>
  <atoms>       2 </atoms>
  <types>       1 </types>
  <array name="atoms" >
   <dimension dim="1">ion</dimension>
   <field type="string">element</field>
   <field type="int">atomtype</field>
   <set>
    <rc><c>Si</c><c>   1</c></rc>
    <rc><c>Si</c><c>   1</c></rc>
   </set>
  </array>
  <array name="atomtypes" >
   <dimension dim="1">type</dimension>
   <field type="int">atomspertype</field>
   <field type="string">element</field>
   <field>mass</field>
   <field>valence</field>
   <field type="string">pseudopotential</field>
   <set>
    <rc><c>   2</c><c>Si</c><c>     28.08500000</c><c>      4.00000000</c><c> PAW_PBE Si 05Jan2001                   </c></rc>
   </set>
  </array>
 </atominfo>
 <structure name="initialpos" >
  <crystal>
   <varray name="basis" >
    <v>      -2.45000000       2.45000000       1.27400000 </v>
    <v>       2.45000000      -2.45000000       1.27400000 </v>
    <v>       2.45000000       2.45000000      -1.27400000 </v>
   </varray>
   <i name="volume">     30.58874000 </i>
   <varray name="rec_basis" >
    <v>       0.00000000       0.20408163       0.39246468 </v>
    <v>       0.20408163       0.00000000       0.39246468 </v>
    <v>       0.20408163       0.20408163      -0.00000000 </v>
   </varray>
  </crystal>
  <varray name="positions" >
   <v>       0.25000000       0.75000000       0.50000000 </v>
   <v>       0.00000000       0.00000000       0.00000000 </v>
  </varray>
 </structure>
 <calculation>
  <scstep>
   <time name="dav">    0.39    0.41</time>
   <time name="total">    0.45    0.49</time>
   <energy>
    <i name="alphaZ">      4.40202223 </i>
    <i name="ewald">   -265.18101312 </i>
    <i name="hartreedc">     -2.50694128 </i>
    <i name="XCdc">    -17.56105466 </i>
    <i name="pawpsdc">     71.44827452 </i>
    <i name="pawaedc">    -36.37214618 </i>
    <i name="eentropy">     -0.01144617 </i>
    <i name="bandstr">     29.47811217 </i>
    <i name="atom">    206.11247263 </i>
    <i name="e_fr_energy">    -10.19171986 </i>
    <i name="e_wo_entrp">    -10.18027369 </i>
    <i name="e_0_energy">    -10.18599677 </i>
   </energy>
  </scstep>
  <scstep>
   <time name="dav">    0.35    0.35</time>
   <time name="total">    0.38    0.39</time>
   <energy>
    <i name="alphaZ">      4.40202223 </i>
    <i name="ewald">   -265.18101312 </i>
    <i name="hartreedc">     -2.50719511 </i>
    <i name="XCdc">    -17.56103502 </i>
    <i name="pawpsdc">     71.44791048 </i>
    <i name="pawaedc">    -36.37177038 </i>
    <i name="eentropy">     -0.01144567 </i>
    <i name="bandstr">     29.47833500 </i>
    <i name="atom">    206.11247263 </i>
    <i name="e_fr_energy">    -10.19171896 </i>
    <i name="e_wo_entrp">    -10.18027329 </i>
    <i name="e_0_energy">    -10.18599613 </i>
   </energy>
  </scstep>
  <structure>
   <crystal>
    <varray name="basis" >
     <v>      -2.45000000       2.45000000       1.27400000 </v>
     <v>       2.45000000      -2.45000000       1.27400000 </v>
     <v>       2.45000000       2.45000000      -1.27400000 </v>
    </varray>
    <i name="volume">     30.58874000 </i>
    <varray name="rec_basis" >
     <v>       0.00000000       0.20408163       0.39246468 </v>
     <v>       0.20408163       0.00000000       0.39246468 </v>
     <v>       0.20408163       0.20408163      -0.00000000 </v>
    </varray>
   </crystal>
   <varray name="positions" >
    <v>       0.25000000       0.75000000       0.50000000 </v>
    <v>       0.00000000       0.00000000       0.00000000 </v>
   </varray>
  </structure>
  <varray name="forces" >
   <v>       0.00000000      -0.00000000      -0.00000000 </v>
   <v>      -0.00000000       0.00000000       0.00000000 </v>
  </varray>
  <varray name="stress" >
   <v>     -12.52228091       0.00000000       0.00000000 </v>
   <v>      -0.00000000     -12.52228091       0.00000000 </v>
   <v>       0.00000000       0.00000000      37.75481802 </v>
  </varray>
  <energy>
   <i name="e_fr_energy">    -10.19171896 </i>
   <i name="e_wo_entrp">    -10.18599613 </i>
   <i name="e_0_energy">     -0.01144567 </i>
  </energy>
  <time name="totalsc">    1.75    2.42</time>
  <eigenvalues>
   <array>
    <dimension dim="1">band</dimension>
    <dimension dim="2">kpoint</dimension>
    <dimension dim="3">spin</dimension>
    <field>eigene</field>
    <field>occ</field>
    <set>
     <set comment="spin 1">
      <set comment="kpoint 1">
       <r>   -4.6136    1.0000 </r>
       <r>    6.1999    1.0000 </r>
       <r>    6.3041    1.0000 </r>
       <r>    6.3042    1.0000 </r>
       <r>   10.6023    0.0000 </r>
       <r>   16.9524    0.0000 </r>
       <r>   17.3778    0.0000 </r>
       <r>   17.3779    0.0000 </r>
      </set>
      <set comment="kpoint 2">
       <r>   -4.2652    1.0000 </r>
       <r>    5.3150    1.0000 </r>
       <r>    6.2502    1.0000 </r>
       <r>    7.7959    1.0000 </r>
       <r>   11.3073    0.0000 </r>
       <r>   15.2425    0.0000 </r>
       <r>   16.0343    0.0000 </r>
       <r>   17.3437    0.0000 </r>
      </set>
      <set comment="kpoint 3">
       <r>   -3.2236    1.0000 </r>
       <r>    5.0254    1.0000 </r>
       <r>    6.3305    1.0000 </r>
       <r>    9.6316    0.0001 </r>
       <r>   12.1646    0.0000 </r>
       <r>   12.9579    0.0000 </r>
       <r>   13.0954    0.0000 </r>
       <r>   15.1881    0.0000 </r>
      </set>
      <set comment="kpoint 4">
       <r>   -1.5023    1.0000 </r>
       <r>    5.3633    1.0000 </r>
       <r>    6.8017    1.0000 </r>
       <r>    7.4779    1.0000 </r>
       <r>   10.2885    0.0000 </r>
       <r>   12.7034    0.0000 </r>
       <r>   13.0496    0.0000 </r>
       <r>   14.0355    0.0000 </r>
      </set>
      <set comment="kpoint 5">
       <r>    0.8641    1.0000 </r>
       <r>    3.9038    1.0000 </r>
       <r>    6.3832    1.0000 </r>
       <r>    7.5789    1.0000 </r>
       <r>    8.2023    1.0000 </r>
       <r>   10.7744    0.0000 </r>
       <r>   13.5582    0.0000 </r>
       <r>   14.5744    0.0000 </r>
      </set>
      <set comment="kpoint 6">
       <r>   -3.3697    1.0000 </r>
       <r>    5.3431    1.0000 </r>
       <r>    7.3577    1.0000 </r>
       <r>    8.5567    1.0000 </r>
       <r>   12.3592    0.0000 </r>
       <r>   12.6202    0.0000 </r>
       <r>   13.0442    0.0000 </r>
       <r>   15.6887    0.0000 </r>
      </set>
      <set comment="kpoint 7">
       <r>   -1.7918    1.0000 </r>
       <r>    5.6194    1.0000 </r>
       <r>    7.9017    1.0000 </r>
       <r>    8.3116    1.0000 </r>
       <r>    9.7629    0.0000 </r>
       <r>   11.4141    0.0000 </r>
       <r>   13.0605    0.0000 </r>
       <r>   14.0684    0.0000 </r>
      </set>
      <set comment="kpoint 8">
       <r>    0.4437    1.0000 </r>
       <r>    4.7120    1.0000 </r>
       <r>    6.4912    1.0000 </r>
       <r>    6.9366    1.0000 </r>
       <r>    9.0566    0.6700 </r>
       <r>   11.1440    0.0000 </r>
       <r>   12.6590    0.0000 </r>
       <r>   14.5596    0.0000 </r>
      </set>
      <set comment="kpoint 9">
       <r>    1.5539    1.0000 </r>
       <r>    3.3583    1.0000 </r>
       <r>    5.2361    1.0000 </r>
       <r>    7.4716    1.0000 </r>
       <r>    8.6964    0.9986 </r>
       <r>   11.5156    0.0000 </r>
       <r>   12.4376    0.0000 </r>
       <r>   15.8683    0.0000 </r>
      </set>
      <set comment="kpoint 10">
       <r>   -0.9270    1.0000 </r>
       <r>    4.0004    1.0000 </r>
       <r>    6.7031    1.0000 </r>
       <r>    7.0130    1.0000 </r>
       <r>   10.1208    0.0000 </r>
       <r>   12.4187    0.0000 </r>
       <r>   13.6060    0.0000 </r>
       <r>   14.5079    0.0000 </r>
      </set>
      <set comment="kpoint 11">
       <r>   -2.7866    1.0000 </r>
       <r>    3.4794    1.0000 </r>
       <r>    6.3450    1.0000 </r>
       <r>   10.1655    0.0000 </r>
       <r>   11.9528    0.0000 </r>
       <r>   12.0698    0.0000 </r>
       <r>   13.9791    0.0000 </r>
       <r>   15.1859    0.0000 </r>
      </set>
      <set comment="kpoint 12">
       <r>   -3.9718    1.0000 </r>
       <r>    3.5943    1.0000 </r>
       <r>    6.3077    1.0000 </r>
       <r>    8.9282    0.9111 </r>
       <r>   12.8203    0.0000 </r>
       <r>   13.4781    0.0000 </r>
       <r>   15.3728    0.0000 </r>
       <r>   16.6849    0.0000 </r>
      </set>
      <set comment="kpoint 13">
       <r>   -4.4666    1.0000 </r>
       <r>    4.3270    1.0000 </r>
       <r>    6.4409    1.0000 </r>
       <r>    7.6647    1.0000 </r>
       <r>   11.5006    0.0000 </r>
       <r>   14.9531    0.0000 </r>
       <r>   16.3676    0.0000 </r>
       <r>   19.5281    0.0000 </r>
      </set>
      <set comment="kpoint 14">
       <r>    0.3024    1.0000 </r>
       <r>    5.7233    1.0000 </r>
       <r>    5.7798    1.0000 </r>
       <r>    6.4400    1.0000 </r>
       <r>    9.9814    0.0000 </r>
       <r>   11.6298    0.0000 </r>
       <r>   12.5854    0.0000 </r>
       <r>   12.8502    0.0000 </r>
      </set>
      <set comment="kpoint 15">
       <r>    2.4459    1.0000 </r>
       <r>    3.1079    1.0000 </r>
       <r>    3.8895    1.0000 </r>
       <r>    7.5211    1.0000 </r>
       <r>    9.2714    0.1403 </r>
       <r>   10.8134    0.0000 </r>
       <r>   13.6153    0.0000 </r>
       <r>   15.6789    0.0000 </r>
      </set>
      <set comment="kpoint 16">
       <r>   -0.0701    1.0000 </r>
       <r>    2.4361    1.0000 </r>
       <r>    6.4083    1.0000 </r>
       <r>    7.5838    1.0000 </r>
       <r>    9.4939    0.0040 </r>
       <r>   11.3354    0.0000 </r>
       <r>   14.8011    0.0000 </r>
       <r>   15.8241    0.0000 </r>
      </set>
      <set comment="kpoint 17">
       <r>   -2.0614    1.0000 </r>
       <r>    1.7564    1.0000 </r>
       <r>    6.9640    1.0000 </r>
       <r>    9.9576    0.0000 </r>
       <r>   10.6513    0.0000 </r>
       <r>   12.5304    0.0000 </r>
       <r>   13.4254    0.0000 </r>
       <r>   15.8582    0.0000 </r>
      </set>
      <set comment="kpoint 18">
       <r>   -3.3866    1.0000 </r>
       <r>    1.7337    1.0000 </r>
       <r>    6.8364    1.0000 </r>
       <r>    9.7652    0.0000 </r>
       <r>   11.6807    0.0000 </r>
       <r>   14.2433    0.0000 </r>
       <r>   15.1924    0.0000 </r>
       <r>   15.8817    0.0000 </r>
      </set>
      <set comment="kpoint 19">
       <r>   -4.0263    1.0000 </r>
       <r>    2.3644    1.0000 </r>
       <r>    6.8515    1.0000 </r>
       <r>    8.5412    1.0000 </r>
       <r>   12.9626    0.0000 </r>
       <r>   13.7259    0.0000 </r>
       <r>   14.7252    0.0000 </r>
       <r>   19.2169    0.0000 </r>
      </set>
      <set comment="kpoint 20">
       <r>    1.0487    1.0000 </r>
       <r>    1.0673    1.0000 </r>
       <r>    6.2831    1.0000 </r>
       <r>    8.2479    1.0000 </r>
       <r>    8.8192    0.9829 </r>
       <r>   10.9679    0.0000 </r>
       <r>   15.5106    0.0000 </r>
       <r>   16.5365    0.0000 </r>
      </set>
      <set comment="kpoint 21">
       <r>   -1.0538    1.0000 </r>
       <r>    0.2260    1.0000 </r>
       <r>    7.8767    1.0000 </r>
       <r>    9.0132    0.7725 </r>
       <r>   10.0806    0.0000 </r>
       <r>   13.0629    0.0000 </r>
       <r>   13.4112    0.0000 </r>
       <r>   14.7274    0.0000 </r>
      </set>
      <set comment="kpoint 22">
       <r>   -2.5138    1.0000 </r>
       <r>    0.0632    1.0000 </r>
       <r>    7.6514    1.0000 </r>
       <r>   10.0825    0.0000 </r>
       <r>   10.6760    0.0000 </r>
       <r>   13.0081    0.0000 </r>
       <r>   15.1881    0.0000 </r>
       <r>   16.0199    0.0000 </r>
      </set>
      <set comment="kpoint 23">
       <r>   -3.2950    1.0000 </r>
       <r>    0.5719    1.0000 </r>
       <r>    7.5365    1.0000 </r>
       <r>    9.3869    0.0290 </r>
       <r>   11.2194    0.0000 </r>
       <r>   13.1124    0.0000 </r>
       <r>   16.5254    0.0000 </r>
       <r>   18.9381    0.0000 </r>
      </set>
      <set comment="kpoint 24">
       <r>   -1.3606    1.0000 </r>
       <r>   -1.3597    1.0000 </r>
       <r>    8.7256    0.9973 </r>
       <r>    8.7557    0.9949 </r>
       <r>   11.6496    0.0000 </r>
       <r>   11.8652    0.0000 </r>
       <r>   15.0377    0.0000 </r>
       <r>   15.9521    0.0000 </r>
      </set>
      <set comment="kpoint 25">
       <r>   -2.2786    1.0000 </r>
       <r>   -0.9849    1.0000 </r>
       <r>    8.4918    1.0000 </r>
       <r>    9.7199    0.0000 </r>
       <r>   10.4117    0.0000 </r>
       <r>   11.6559    0.0000 </r>
       <r>   18.7998    0.0000 </r>
       <r>   18.8445    0.0000 </r>
      </set>
      <set comment="kpoint 26">
       <r>   -2.9317    1.0000 </r>
       <r>    3.4104    1.0000 </r>
       <r>    7.7415    1.0000 </r>
       <r>    9.3641    0.0414 </r>
       <r>   11.9396    0.0000 </r>
       <r>   12.1059    0.0000 </r>
       <r>   14.5174    0.0000 </r>
       <r>   15.1515    0.0000 </r>
      </set>
      <set comment="kpoint 27">
       <r>   -1.2131    1.0000 </r>
       <r>    3.8215    1.0000 </r>
       <r>    7.6230    1.0000 </r>
       <r>    8.2264    1.0000 </r>
       <r>    9.7043    0.0000 </r>
       <r>   12.0647    0.0000 </r>
       <r>   13.8521    0.0000 </r>
       <r>   14.7044    0.0000 </r>
      </set>
      <set comment="kpoint 28">
       <r>    1.1485    1.0000 </r>
       <r>    4.1338    1.0000 </r>
       <r>    4.9438    1.0000 </r>
       <r>    6.5252    1.0000 </r>
       <r>   10.0150    0.0000 </r>
       <r>   12.3454    0.0000 </r>
       <r>   13.8776    0.0000 </r>
       <r>   14.3757    0.0000 </r>
      </set>
      <set comment="kpoint 29">
       <r>   -4.3199    1.0000 </r>
       <r>    3.9996    1.0000 </r>
       <r>    5.3508    1.0000 </r>
       <r>    8.9866    0.8250 </r>
       <r>   12.1073    0.0000 </r>
       <r>   13.3875    0.0000 </r>
       <r>   17.6206    0.0000 </r>
       <r>   18.2108    0.0000 </r>
      </set>
      <set comment="kpoint 30">
       <r>    1.0112    1.0000 </r>
       <r>    4.6535    1.0000 </r>
       <r>    5.2787    1.0000 </r>
       <r>    5.3718    1.0000 </r>
       <r>   11.1265    0.0000 </r>
       <r>   13.2946    0.0000 </r>
       <r>   13.5613    0.0000 </r>
       <r>   13.7141    0.0000 </r>
      </set>
      <set comment="kpoint 31">
       <r>    2.1193    1.0000 </r>
       <r>    3.3086    1.0000 </r>
       <r>    4.0390    1.0000 </r>
       <r>    6.3046    1.0000 </r>
       <r>   10.9641    0.0000 </r>
       <r>   12.4590    0.0000 </r>
       <r>   14.2869    0.0000 </r>
       <r>   15.2271    0.0000 </r>
      </set>
      <set comment="kpoint 32">
       <r>   -0.3512    1.0000 </r>
       <r>    2.1865    1.0000 </r>
       <r>    7.2977    1.0000 </r>
       <r>    8.1999    1.0000 </r>
       <r>   10.1497    0.0000 </r>
       <r>   12.4521    0.0000 </r>
       <r>   12.9612    0.0000 </r>
       <r>   14.9333    0.0000 </r>
      </set>
      <set comment="kpoint 33">
       <r>   -2.2049    1.0000 </r>
       <r>    1.6361    1.0000 </r>
       <r>    8.3625    1.0000 </r>
       <r>    9.9986    0.0000 </r>
       <r>   11.3059    0.0000 </r>
       <r>   11.6824    0.0000 </r>
       <r>   13.2860    0.0000 </r>
       <r>   14.2432    0.0000 </r>
      </set>
      <set comment="kpoint 34">
       <r>   -3.8802    1.0000 </r>
       <r>    2.4325    1.0000 </r>
       <r>    5.3642    1.0000 </r>
       <r>   10.1701    0.0000 </r>
       <r>   11.4507    0.0000 </r>
       <r>   14.0403    0.0000 </r>
       <r>   16.3065    0.0000 </r>
       <r>   18.9556    0.0000 </r>
      </set>
      <set comment="kpoint 35">
       <r>   -3.6794    1.0000 </r>
       <r>    3.3342    1.0000 </r>
       <r>    4.8740    1.0000 </r>
       <r>   10.6589    0.0000 </r>
       <r>   11.6154    0.0000 </r>
       <r>   13.7916    0.0000 </r>
       <r>   14.9030    0.0000 </r>
       <r>   17.6020    0.0000 </r>
      </set>
      <set comment="kpoint 36">
       <r>    0.7837    1.0000 </r>
       <r>    0.7896    1.0000 </r>
       <r>    7.1818    1.0000 </r>
       <r>    8.1588    1.0000 </r>
       <r>   10.7977    0.0000 </r>
       <r>   11.5391    0.0000 </r>
       <r>   13.6069    0.0000 </r>
       <r>   14.2953    0.0000 </r>
      </set>
      <set comment="kpoint 37">
       <r>   -1.1939    1.0000 </r>
       <r>    0.0914    1.0000 </r>
       <r>    9.1738    0.3488 </r>
       <r>    9.9856    0.0000 </r>
       <r>   11.1695    0.0000 </r>
       <r>   11.4248    0.0000 </r>
       <r>   12.6524    0.0000 </r>
       <r>   13.1262    0.0000 </r>
      </set>
      <set comment="kpoint 38">
       <r>   -3.1509    1.0000 </r>
       <r>    0.6924    1.0000 </r>
       <r>    6.0013    1.0000 </r>
       <r>    9.6973    0.0000 </r>
       <r>   11.0985    0.0000 </r>
       <r>   14.7597    0.0000 </r>
       <r>   16.7127    0.0000 </r>
       <r>   18.5794    0.0000 </r>
      </set>
      <set comment="kpoint 39">
       <r>   -3.0968    1.0000 </r>
       <r>    1.9195    1.0000 </r>
       <r>    4.9403    1.0000 </r>
       <r>    9.7648    0.0000 </r>
       <r>   11.8128    0.0000 </r>
       <r>   14.3386    0.0000 </r>
       <r>   15.9453    0.0000 </r>
       <r>   17.2457    0.0000 </r>
      </set>
      <set comment="kpoint 40">
       <r>   -2.3523    1.0000 </r>
       <r>    3.3307    1.0000 </r>
       <r>    4.9546    1.0000 </r>
       <r>    9.8182    0.0000 </r>
       <r>   10.4921    0.0000 </r>
       <r>   13.4803    0.0000 </r>
       <r>   14.8283    0.0000 </r>
       <r>   15.5377    0.0000 </r>
      </set>
      <set comment="kpoint 41">
       <r>   -2.1374    1.0000 </r>
       <r>   -0.8498    1.0000 </r>
       <r>    6.9580    1.0000 </r>
       <r>    8.1964    1.0000 </r>
       <r>   12.1281    0.0000 </r>
       <r>   13.3545    0.0000 </r>
       <r>   18.2633    0.0000 </r>
       <r>   18.3697    0.0000 </r>
      </set>
      <set comment="kpoint 42">
       <r>   -2.2288    1.0000 </r>
       <r>    0.3181    1.0000 </r>
       <r>    5.6955    1.0000 </r>
       <r>    8.1478    1.0000 </r>
       <r>   12.5449    0.0000 </r>
       <r>   14.1393    0.0000 </r>
       <r>   16.0777    0.0000 </r>
       <r>   17.2314    0.0000 </r>
      </set>
      <set comment="kpoint 43">
       <r>   -1.6325    1.0000 </r>
       <r>    2.0733    1.0000 </r>
       <r>    5.1196    1.0000 </r>
       <r>    8.6154    0.9998 </r>
       <r>    9.5936    0.0004 </r>
       <r>   14.4733    0.0000 </r>
       <r>   14.9736    0.0000 </r>
       <r>   17.0848    0.0000 </r>
      </set>
      <set comment="kpoint 44">
       <r>   -0.3580    1.0000 </r>
       <r>    3.9699    1.0000 </r>
       <r>    5.6298    1.0000 </r>
       <r>    6.2051    1.0000 </r>
       <r>    9.5614    0.0009 </r>
       <r>   12.3012    0.0000 </r>
       <r>   13.6759    0.0000 </r>
       <r>   16.2001    0.0000 </r>
      </set>
      <set comment="kpoint 45">
       <r>   -1.0858    1.0000 </r>
       <r>   -1.0830    1.0000 </r>
       <r>    6.7766    1.0000 </r>
       <r>    6.7840    1.0000 </r>
       <r>   12.8344    0.0000 </r>
       <r>   14.2602    0.0000 </r>
       <r>   15.3963    0.0000 </r>
       <r>   17.2166    0.0000 </r>
      </set>
      <set comment="kpoint 46">
       <r>   -0.6357    1.0000 </r>
       <r>    0.6196    1.0000 </r>
       <r>    5.9901    1.0000 </r>
       <r>    7.1848    1.0000 </r>
       <r>    9.3214    0.0760 </r>
       <r>   14.4636    0.0000 </r>
       <r>   15.8177    0.0000 </r>
       <r>   17.1380    0.0000 </r>
      </set>
      <set comment="kpoint 47">
       <r>    0.4865    1.0000 </r>
       <r>    2.8813    1.0000 </r>
       <r>    5.6834    1.0000 </r>
       <r>    6.0180    1.0000 </r>
       <r>    8.1923    1.0000 </r>
       <r>   12.2605    0.0000 </r>
       <r>   14.9561    0.0000 </r>
       <r>   17.2883    0.0000 </r>
      </set>
      <set comment="kpoint 48">
       <r>    2.1638    1.0000 </r>
       <r>    2.8891    1.0000 </r>
       <r>    5.3680    1.0000 </r>
       <r>    6.8382    1.0000 </r>
       <r>    8.8415    0.9750 </r>
       <r>   11.1279    0.0000 </r>
       <r>   11.7320    0.0000 </r>
       <r>   16.6162    0.0000 </r>
      </set>
      <set comment="kpoint 49">
       <r>    1.5698    1.0000 </r>
       <r>    1.6044    1.0000 </r>
       <r>    5.6047    1.0000 </r>
       <r>    6.8509    1.0000 </r>
       <r>    7.0063    1.0000 </r>
       <r>   12.1769    0.0000 </r>
       <r>   16.5262    0.0000 </r>
       <r>   16.7833    0.0000 </r>
      </set>
      <set comment="kpoint 50">
       <r>    2.3806    1.0000 </r>
       <r>    3.3305    1.0000 </r>
       <r>    4.4342    1.0000 </r>
       <r>    7.2101    1.0000 </r>
       <r>    8.1824    1.0000 </r>
       <r>   10.6790    0.0000 </r>
       <r>   13.0827    0.0000 </r>
       <r>   15.2146    0.0000 </r>
      </set>
      <set comment="kpoint 51">
       <r>    0.0170    1.0000 </r>
       <r>    5.5043    1.0000 </r>
       <r>    7.1268    1.0000 </r>
       <r>    8.0690    1.0000 </r>
       <r>    8.1049    1.0000 </r>
       <r>   10.9177    0.0000 </r>
       <r>   11.2810    0.0000 </r>
       <r>   13.5844    0.0000 </r>
      </set>
      <set comment="kpoint 52">
       <r>   -0.1256    1.0000 </r>
       <r>    6.4516    1.0000 </r>
       <r>    6.4902    1.0000 </r>
       <r>    7.8161    1.0000 </r>
       <r>    8.8540    0.9694 </r>
       <r>   10.5109    0.0000 </r>
       <r>   11.8587    0.0000 </r>
       <r>   12.2187    0.0000 </r>
      </set>
      <set comment="kpoint 53">
       <r>   -2.0818    1.0000 </r>
       <r>    7.2121    1.0000 </r>
       <r>    7.9726    1.0000 </r>
       <r>    8.6599    0.9994 </r>
       <r>    9.7961    0.0000 </r>
       <r>   10.7259    0.0000 </r>
       <r>   12.4336    0.0000 </r>
       <r>   13.0957    0.0000 </r>
      </set>
      <set comment="kpoint 54">
       <r>   -3.5160    1.0000 </r>
       <r>    7.1916    1.0000 </r>
       <r>    7.2287    1.0000 </r>
       <r>    7.2287    1.0000 </r>
       <r>   11.6907    0.0000 </r>
       <r>   12.9085    0.0000 </r>
       <r>   13.2664    0.0000 </r>
       <r>   15.4724    0.0000 </r>
      </set>
      <set comment="kpoint 55">
       <r>    1.9920    1.0000 </r>
       <r>    3.2269    1.0000 </r>
       <r>    5.0304    1.0000 </r>
       <r>    5.0505    1.0000 </r>
       <r>   12.3135    0.0000 </r>
       <r>   13.4721    0.0000 </r>
       <r>   14.6097    0.0000 </r>
       <r>   14.6427    0.0000 </r>
      </set>
      <set comment="kpoint 56">
       <r>   -3.4435    1.0000 </r>
       <r>    2.2779    1.0000 </r>
       <r>    3.9386    1.0000 </r>
       <r>    9.4901    0.0043 </r>
       <r>   12.1179    0.0000 </r>
       <r>   15.2104    0.0000 </r>
       <r>   17.5599    0.0000 </r>
       <r>   18.4976    0.0000 </r>
      </set>
      <set comment="kpoint 57">
       <r>   -2.7199    1.0000 </r>
       <r>    1.0102    1.0000 </r>
       <r>    4.1026    1.0000 </r>
       <r>    7.7283    1.0000 </r>
       <r>   13.4493    0.0000 </r>
       <r>   16.6955    0.0000 </r>
       <r>   17.3704    0.0000 </r>
       <r>   18.3084    0.0000 </r>
      </set>
      <set comment="kpoint 58">
       <r>   -2.5203    1.0000 </r>
       <r>    1.8924    1.0000 </r>
       <r>    3.6151    1.0000 </r>
       <r>    7.9071    1.0000 </r>
       <r>   12.8025    0.0000 </r>
       <r>   14.9534    0.0000 </r>
       <r>   17.2124    0.0000 </r>
       <r>   18.4662    0.0000 </r>
      </set>
      <set comment="kpoint 59">
       <r>   -1.7175    1.0000 </r>
       <r>   -0.4543    1.0000 </r>
       <r>    4.9894    1.0000 </r>
       <r>    6.2171    1.0000 </r>
       <r>   14.5305    0.0000 </r>
       <r>   15.6185    0.0000 </r>
       <r>   17.8683    0.0000 </r>
       <r>   18.0092    0.0000 </r>
      </set>
      <set comment="kpoint 60">
       <r>   -1.6642    1.0000 </r>
       <r>    0.7737    1.0000 </r>
       <r>    3.8940    1.0000 </r>
       <r>    6.2738    1.0000 </r>
       <r>   12.7446    0.0000 </r>
       <r>   16.0640    0.0000 </r>
       <r>   18.3680    0.0000 </r>
       <r>   18.6190    0.0000 </r>
      </set>
      <set comment="kpoint 61">
       <r>   -0.9248    1.0000 </r>
       <r>    2.1829    1.0000 </r>
       <r>    3.9256    1.0000 </r>
       <r>    6.9368    1.0000 </r>
       <r>    9.0674    0.6420 </r>
       <r>   15.6850    0.0000 </r>
       <r>   17.0860    0.0000 </r>
       <r>   17.2949    0.0000 </r>
      </set>
      <set comment="kpoint 62">
       <r>   -0.5484    1.0000 </r>
       <r>   -0.5434    1.0000 </r>
       <r>    4.9115    1.0000 </r>
       <r>    4.9135    1.0000 </r>
       <r>   12.6729    0.0000 </r>
       <r>   16.8626    0.0000 </r>
       <r>   17.6169    0.0000 </r>
       <r>   18.6197    0.0000 </r>
      </set>
      <set comment="kpoint 63">
       <r>    0.0443    1.0000 </r>
       <r>    1.2147    1.0000 </r>
       <r>    4.3290    1.0000 </r>
       <r>    5.4679    1.0000 </r>
       <r>    8.8062    0.9865 </r>
       <r>   16.0407    0.0000 </r>
       <r>   18.0354    0.0000 </r>
       <r>   18.6713    0.0000 </r>
      </set>
      <set comment="kpoint 64">
       <r>    1.3015    1.0000 </r>
       <r>    3.1180    1.0000 </r>
       <r>    4.8670    1.0000 </r>
       <r>    5.3926    1.0000 </r>
       <r>    6.6850    1.0000 </r>
       <r>   13.5402    0.0000 </r>
       <r>   15.0636    0.0000 </r>
       <r>   17.7177    0.0000 </r>
      </set>
      <set comment="kpoint 65">
       <r>    2.2823    1.0000 </r>
       <r>    2.3431    1.0000 </r>
       <r>    5.1126    1.0000 </r>
       <r>    5.3946    1.0000 </r>
       <r>    5.5794    1.0000 </r>
       <r>   13.8588    0.0000 </r>
       <r>   16.1383    0.0000 </r>
       <r>   16.6962    0.0000 </r>
      </set>
      <set comment="kpoint 66">
       <r>    2.1502    1.0000 </r>
       <r>    4.1559    1.0000 </r>
       <r>    4.8323    1.0000 </r>
       <r>    6.3872    1.0000 </r>
       <r>    7.0252    1.0000 </r>
       <r>   11.9181    0.0000 </r>
       <r>   13.0540    0.0000 </r>
       <r>   14.2648    0.0000 </r>
      </set>
      <set comment="kpoint 67">
       <r>   -0.2676    1.0000 </r>
       <r>    6.9239    1.0000 </r>
       <r>    7.0706    1.0000 </r>
       <r>    8.1232    1.0000 </r>
       <r>    8.1232    1.0000 </r>
       <r>   10.6427    0.0000 </r>
       <r>   11.6232    0.0000 </r>
       <r>   11.6232    0.0000 </r>
      </set>
      <set comment="kpoint 68">
       <r>   -2.0085    1.0000 </r>
       <r>    1.1157    1.0000 </r>
       <r>    2.8940    1.0000 </r>
       <r>    5.9582    1.0000 </r>
       <r>   15.2452    0.0000 </r>
       <r>   16.8329    0.0000 </r>
       <r>   18.0920    0.0000 </r>
       <r>   19.0393    0.0000 </r>
      </set>
      <set comment="kpoint 69">
       <r>   -1.0340    1.0000 </r>
       <r>    0.1426    1.0000 </r>
       <r>    3.2983    1.0000 </r>
       <r>    4.4539    1.0000 </r>
       <r>   16.0912    0.0000 </r>
       <r>   16.4944    0.0000 </r>
       <r>   18.5002    0.0000 </r>
       <r>   19.2346    0.0000 </r>
      </set>
      <set comment="kpoint 70">
       <r>   -0.8362    1.0000 </r>
       <r>    1.0191    1.0000 </r>
       <r>    2.8184    1.0000 </r>
       <r>    4.6429    1.0000 </r>
       <r>   12.4824    0.0000 </r>
       <r>   18.1307    0.0000 </r>
       <r>   19.5997    0.0000 </r>
       <r>   19.9936    0.0000 </r>
      </set>
      <set comment="kpoint 71">
       <r>    0.1906    1.0000 </r>
       <r>    0.1984    1.0000 </r>
       <r>    3.3528    1.0000 </r>
       <r>    3.3548    1.0000 </r>
       <r>   12.3759    0.0000 </r>
       <r>   19.2491    0.0000 </r>
       <r>   19.8412    0.0000 </r>
       <r>   19.9690    0.0000 </r>
      </set>
      <set comment="kpoint 72">
       <r>    0.9261    1.0000 </r>
       <r>    1.6029    1.0000 </r>
       <r>    3.3927    1.0000 </r>
       <r>    4.0603    1.0000 </r>
       <r>    8.5442    1.0000 </r>
       <r>   17.3485    0.0000 </r>
       <r>   18.7425    0.0000 </r>
       <r>   19.3029    0.0000 </r>
      </set>
      <set comment="kpoint 73">
       <r>    2.7821    1.0000 </r>
       <r>    2.8815    1.0000 </r>
       <r>    4.6064    1.0000 </r>
       <r>    4.6064    1.0000 </r>
       <r>    5.1829    1.0000 </r>
       <r>   15.1607    0.0000 </r>
       <r>   16.0032    0.0000 </r>
       <r>   16.0032    0.0000 </r>
      </set>
      <set comment="kpoint 74">
       <r>   -0.1483    1.0000 </r>
       <r>    0.5297    1.0000 </r>
       <r>    2.3561    1.0000 </r>
       <r>    3.0264    1.0000 </r>
       <r>   16.3341    0.0000 </r>
       <r>   16.4110    0.0000 </r>
       <r>   20.1323    0.0000 </r>
       <r>   20.8076    0.0000 </r>
      </set>
      <set comment="kpoint 75">
       <r>    0.7208    1.0000 </r>
       <r>    0.7317    1.0000 </r>
       <r>    2.5486    1.0000 </r>
       <r>    2.5486    1.0000 </r>
       <r>   12.2654    0.0000 </r>
       <r>   20.2308    0.0000 </r>
       <r>   20.8569    0.0000 </r>
       <r>   20.9801    0.0000 </r>
      </set>
     </set>
    </set>
   </array>
  </eigenvalues>
  <separator name="orbital magnetization" >
   <v name="MAGDIPOLOUT">      0.00000000      0.00000000      0.00000000</v>
  </separator>
  <dos>
   <i name="efermi">      9.11881122 </i>
   <total>
    <array>
     <dimension dim="1">gridpoints</dimension>
     <dimension dim="2">spin</dimension>
     <field>energy</field>
     <field>total</field>
     <field>integrated</field>
     <set>
      <set comment="spin 1">
       <r>    -6.6136     0.0000     0.0000 </r>
       <r>    -6.5150     0.0000     0.0000 </r>
       <r>    -6.4164     0.0000     0.0000 </r>
       <r>    -6.3177     0.0000     0.0000 </r>
       <r>    -6.2191     0.0000     0.0000 </r>
       <r>    -6.1204     0.0000     0.0000 </r>
       <r>    -6.0218     0.0000     0.0000 </r>
       <r>    -5.9231     0.0000     0.0000 </r>
       <r>    -5.8245     0.0000     0.0000 </r>
       <r>    -5.7258     0.0000     0.0000 </r>
       <r>    -5.6272     0.0000     0.0000 </r>
       <r>    -5.5285     0.0000     0.0000 </r>
       <r>    -5.4299     0.0000     0.0000 </r>
       <r>    -5.3312     0.0000     0.0000 </r>
       <r>    -5.2326     0.0000     0.0000 </r>
       <r>    -5.1340     0.0000     0.0000 </r>
       <r>    -5.0353     0.0000     0.0000 </r>
       <r>    -4.9367     0.0003     0.0000 </r>
       <r>    -4.8380     0.0017     0.0002 </r>
       <r>    -4.7394     0.0064     0.0008 </r>
       <r>    -4.6407     0.0177     0.0026 </r>
       <r>    -4.5421     0.0383     0.0064 </r>
       <r>    -4.4434     0.0678     0.0130 </r>
       <r>    -4.3448     0.0994     0.0228 </r>
       <r>    -4.2461     0.1210     0.0348 </r>
       <r>    -4.1475     0.1373     0.0483 </r>
       <r>    -4.0489     0.1713     0.0652 </r>
       <r>    -3.9502     0.2112     0.0861 </r>
       <r>    -3.8516     0.2110     0.1069 </r>
       <r>    -3.7529     0.1712     0.1238 </r>
       <r>    -3.6543     0.1410     0.1377 </r>
       <r>    -3.5556     0.1572     0.1532 </r>
       <r>    -3.4570     0.2243     0.1753 </r>
       <r>    -3.3583     0.3041     0.2053 </r>
       <r>    -3.2597     0.3457     0.2394 </r>
       <r>    -3.1610     0.3427     0.2732 </r>
       <r>    -3.0624     0.3112     0.3039 </r>
       <r>    -2.9637     0.2693     0.3305 </r>
       <r>    -2.8651     0.2492     0.3551 </r>
       <r>    -2.7665     0.2566     0.3804 </r>
       <r>    -2.6678     0.2657     0.4066 </r>
       <r>    -2.5692     0.2742     0.4336 </r>
       <r>    -2.4705     0.2914     0.4624 </r>
       <r>    -2.3719     0.3198     0.4939 </r>
       <r>    -2.2732     0.3748     0.5309 </r>
       <r>    -2.1746     0.4383     0.5741 </r>
       <r>    -2.0759     0.4464     0.6182 </r>
       <r>    -1.9773     0.3818     0.6558 </r>
       <r>    -1.8786     0.3238     0.6878 </r>
       <r>    -1.7800     0.3501     0.7223 </r>
       <r>    -1.6813     0.4173     0.7635 </r>
       <r>    -1.5827     0.4231     0.8052 </r>
       <r>    -1.4841     0.3621     0.8409 </r>
       <r>    -1.3854     0.3213     0.8726 </r>
       <r>    -1.2868     0.3555     0.9077 </r>
       <r>    -1.1881     0.4510     0.9522 </r>
       <r>    -1.0895     0.5588     1.0073 </r>
       <r>    -0.9908     0.6136     1.0678 </r>
       <r>    -0.8922     0.5711     1.1242 </r>
       <r>    -0.7935     0.4588     1.1694 </r>
       <r>    -0.6949     0.3660     1.2055 </r>
       <r>    -0.5962     0.3482     1.2399 </r>
       <r>    -0.4976     0.3711     1.2765 </r>
       <r>    -0.3990     0.3800     1.3140 </r>
       <r>    -0.3003     0.3635     1.3498 </r>
       <r>    -0.2017     0.3619     1.3855 </r>
       <r>    -0.1030     0.4353     1.4285 </r>
       <r>    -0.0044     0.5787     1.4856 </r>
       <r>     0.0943     0.7065     1.5553 </r>
       <r>     0.1929     0.7460     1.6288 </r>
       <r>     0.2916     0.7020     1.6981 </r>
       <r>     0.3902     0.6314     1.7604 </r>
       <r>     0.4889     0.5822     1.8178 </r>
       <r>     0.5875     0.5649     1.8735 </r>
       <r>     0.6862     0.5727     1.9300 </r>
       <r>     0.7848     0.5884     1.9881 </r>
       <r>     0.8834     0.5954     2.0468 </r>
       <r>     0.9821     0.6071     2.1067 </r>
       <r>     1.0807     0.6180     2.1676 </r>
       <r>     1.1794     0.5717     2.2240 </r>
       <r>     1.2780     0.4510     2.2685 </r>
       <r>     1.3767     0.3356     2.3016 </r>
       <r>     1.4753     0.3322     2.3344 </r>
       <r>     1.5740     0.4438     2.3782 </r>
       <r>     1.6726     0.5524     2.4327 </r>
       <r>     1.7713     0.5737     2.4893 </r>
       <r>     1.8699     0.5490     2.5434 </r>
       <r>     1.9686     0.5660     2.5993 </r>
       <r>     2.0672     0.6553     2.6639 </r>
       <r>     2.1658     0.7616     2.7390 </r>
       <r>     2.2645     0.8172     2.8197 </r>
       <r>     2.3631     0.8088     2.8994 </r>
       <r>     2.4618     0.7121     2.9697 </r>
       <r>     2.5604     0.5108     3.0201 </r>
       <r>     2.6591     0.3150     3.0511 </r>
       <r>     2.7577     0.2591     3.0767 </r>
       <r>     2.8564     0.3236     3.1086 </r>
       <r>     2.9550     0.3913     3.1472 </r>
       <r>     3.0537     0.4350     3.1901 </r>
       <r>     3.1523     0.5413     3.2435 </r>
       <r>     3.2509     0.7555     3.3181 </r>
       <r>     3.3496     0.9556     3.4123 </r>
       <r>     3.4482     0.9495     3.5060 </r>
       <r>     3.5469     0.7424     3.5792 </r>
       <r>     3.6455     0.5356     3.6321 </r>
       <r>     3.7442     0.4952     3.6809 </r>
       <r>     3.8428     0.6481     3.7449 </r>
       <r>     3.9415     0.8596     3.8297 </r>
       <r>     4.0401     0.9339     3.9218 </r>
       <r>     4.1388     0.8140     4.0021 </r>
       <r>     4.2374     0.6164     4.0629 </r>
       <r>     4.3361     0.4789     4.1101 </r>
       <r>     4.4347     0.4234     4.1519 </r>
       <r>     4.5333     0.4039     4.1917 </r>
       <r>     4.6320     0.4221     4.2334 </r>
       <r>     4.7306     0.5117     4.2839 </r>
       <r>     4.8293     0.6832     4.3513 </r>
       <r>     4.9279     0.8766     4.4377 </r>
       <r>     5.0266     0.9613     4.5326 </r>
       <r>     5.1252     0.9073     4.6221 </r>
       <r>     5.2239     0.8530     4.7062 </r>
       <r>     5.3225     0.8902     4.7940 </r>
       <r>     5.4212     0.9403     4.8868 </r>
       <r>     5.5198     0.9269     4.9782 </r>
       <r>     5.6184     0.8773     5.0648 </r>
       <r>     5.7171     0.7844     5.1421 </r>
       <r>     5.8157     0.6298     5.2043 </r>
       <r>     5.9144     0.5079     5.2544 </r>
       <r>     6.0130     0.5008     5.3038 </r>
       <r>     6.1117     0.6029     5.3632 </r>
       <r>     6.2103     0.8307     5.4452 </r>
       <r>     6.3090     1.1265     5.5563 </r>
       <r>     6.4076     1.2717     5.6817 </r>
       <r>     6.5063     1.1449     5.7947 </r>
       <r>     6.6049     0.9011     5.8836 </r>
       <r>     6.7036     0.7896     5.9615 </r>
       <r>     6.8022     0.8807     6.0484 </r>
       <r>     6.9008     1.0314     6.1501 </r>
       <r>     6.9995     1.0827     6.2569 </r>
       <r>     7.0981     1.0175     6.3573 </r>
       <r>     7.1968     0.9131     6.4473 </r>
       <r>     7.2954     0.8109     6.5273 </r>
       <r>     7.3941     0.7489     6.6012 </r>
       <r>     7.4927     0.7870     6.6789 </r>
       <r>     7.5914     0.8760     6.7653 </r>
       <r>     7.6900     0.8957     6.8536 </r>
       <r>     7.7887     0.8363     6.9361 </r>
       <r>     7.8873     0.7778     7.0128 </r>
       <r>     7.9860     0.7908     7.0909 </r>
       <r>     8.0846     0.9301     7.1826 </r>
       <r>     8.1832     1.1135     7.2924 </r>
       <r>     8.2819     1.1035     7.4013 </r>
       <r>     8.3805     0.8572     7.4859 </r>
       <r>     8.4792     0.6283     7.5478 </r>
       <r>     8.5778     0.5989     7.6069 </r>
       <r>     8.6765     0.7002     7.6760 </r>
       <r>     8.7751     0.7885     7.7538 </r>
       <r>     8.8738     0.8002     7.8327 </r>
       <r>     8.9724     0.7479     7.9065 </r>
       <r>     9.0711     0.6612     7.9717 </r>
       <r>     9.1697     0.5731     8.0283 </r>
       <r>     9.2683     0.5286     8.0804 </r>
       <r>     9.3670     0.5362     8.1333 </r>
       <r>     9.4656     0.5818     8.1907 </r>
       <r>     9.5643     0.6851     8.2583 </r>
       <r>     9.6629     0.8426     8.3414 </r>
       <r>     9.7616     0.9672     8.4368 </r>
       <r>     9.8602     0.9968     8.5351 </r>
       <r>     9.9589     1.0121     8.6350 </r>
       <r>    10.0575     1.0643     8.7399 </r>
       <r>    10.1562     1.0178     8.8404 </r>
       <r>    10.2548     0.7827     8.9176 </r>
       <r>    10.3535     0.5055     8.9674 </r>
       <r>    10.4521     0.3875     9.0057 </r>
       <r>    10.5507     0.4774     9.0528 </r>
       <r>    10.6494     0.6691     9.1188 </r>
       <r>    10.7480     0.7924     9.1969 </r>
       <r>    10.8467     0.7664     9.2725 </r>
       <r>    10.9453     0.6770     9.3393 </r>
       <r>    11.0440     0.6403     9.4025 </r>
       <r>    11.1426     0.6743     9.4690 </r>
       <r>    11.2413     0.7315     9.5412 </r>
       <r>    11.3399     0.7823     9.6183 </r>
       <r>    11.4386     0.8231     9.6995 </r>
       <r>    11.5372     0.8539     9.7838 </r>
       <r>    11.6359     0.8696     9.8695 </r>
       <r>    11.7345     0.8532     9.9537 </r>
       <r>    11.8331     0.8167    10.0343 </r>
       <r>    11.9318     0.8123    10.1144 </r>
       <r>    12.0304     0.8625    10.1995 </r>
       <r>    12.1291     0.9426    10.2924 </r>
       <r>    12.2277     1.0421    10.3952 </r>
       <r>    12.3264     1.1869    10.5123 </r>
       <r>    12.4250     1.3377    10.6443 </r>
       <r>    12.5237     1.3731    10.7797 </r>
       <r>    12.6223     1.2622    10.9042 </r>
       <r>    12.7210     1.1123    11.0140 </r>
       <r>    12.8196     1.0352    11.1161 </r>
       <r>    12.9182     1.0842    11.2230 </r>
       <r>    13.0169     1.2017    11.3416 </r>
       <r>    13.1155     1.1971    11.4597 </r>
       <r>    13.2142     1.0115    11.5594 </r>
       <r>    13.3128     0.8755    11.6458 </r>
       <r>    13.4115     0.9567    11.7402 </r>
       <r>    13.5101     1.1152    11.8502 </r>
       <r>    13.6088     1.1381    11.9625 </r>
       <r>    13.7074     1.0003    12.0612 </r>
       <r>    13.8061     0.8407    12.1441 </r>
       <r>    13.9047     0.7636    12.2194 </r>
       <r>    14.0034     0.7583    12.2942 </r>
       <r>    14.1020     0.8000    12.3731 </r>
       <r>    14.2006     0.8966    12.4616 </r>
       <r>    14.2993     1.0228    12.5625 </r>
       <r>    14.3979     1.1151    12.6725 </r>
       <r>    14.4966     1.1455    12.7855 </r>
       <r>    14.5952     1.1151    12.8955 </r>
       <r>    14.6939     1.0451    12.9986 </r>
       <r>    14.7925     0.9915    13.0964 </r>
       <r>    14.8912     0.9896    13.1940 </r>
       <r>    14.9898     1.0297    13.2956 </r>
       <r>    15.0885     1.1022    13.4043 </r>
       <r>    15.1871     1.1662    13.5193 </r>
       <r>    15.2858     1.0920    13.6271 </r>
       <r>    15.3844     0.8512    13.7110 </r>
       <r>    15.4830     0.6229    13.7725 </r>
       <r>    15.5817     0.5584    13.8276 </r>
       <r>    15.6803     0.6628    13.8929 </r>
       <r>    15.7790     0.8769    13.9794 </r>
       <r>    15.8776     1.1106    14.0890 </r>
       <r>    15.9763     1.2413    14.2115 </r>
       <r>    16.0749     1.1723    14.3271 </r>
       <r>    16.1736     0.9131    14.4172 </r>
       <r>    16.2722     0.6128    14.4776 </r>
       <r>    16.3709     0.4393    14.5210 </r>
       <r>    16.4695     0.4280    14.5632 </r>
       <r>    16.5681     0.5070    14.6132 </r>
       <r>    16.6668     0.5784    14.6702 </r>
       <r>    16.7654     0.5628    14.7258 </r>
       <r>    16.8641     0.4659    14.7717 </r>
       <r>    16.9627     0.4067    14.8118 </r>
       <r>    17.0614     0.5025    14.8614 </r>
       <r>    17.1600     0.7197    14.9324 </r>
       <r>    17.2587     0.8771    15.0189 </r>
       <r>    17.3573     0.8224    15.1001 </r>
       <r>    17.4560     0.6055    15.1598 </r>
       <r>    17.5546     0.4103    15.2003 </r>
       <r>    17.6533     0.3154    15.2314 </r>
       <r>    17.7519     0.2673    15.2577 </r>
       <r>    17.8505     0.2432    15.2817 </r>
       <r>    17.9492     0.2701    15.3084 </r>
       <r>    18.0478     0.3315    15.3411 </r>
       <r>    18.1465     0.3803    15.3786 </r>
       <r>    18.2451     0.4183    15.4198 </r>
       <r>    18.3438     0.4724    15.4665 </r>
       <r>    18.4424     0.5326    15.5190 </r>
       <r>    18.5411     0.5787    15.5761 </r>
       <r>    18.6397     0.5864    15.6339 </r>
       <r>    18.7384     0.5187    15.6851 </r>
       <r>    18.8370     0.3941    15.7240 </r>
       <r>    18.9357     0.2830    15.7519 </r>
       <r>    19.0343     0.2225    15.7738 </r>
       <r>    19.1329     0.2130    15.7949 </r>
       <r>    19.2316     0.2335    15.8179 </r>
       <r>    19.3302     0.2312    15.8407 </r>
       <r>    19.4289     0.1859    15.8590 </r>
       <r>    19.5275     0.1411    15.8730 </r>
       <r>    19.6262     0.1220    15.8850 </r>
       <r>    19.7248     0.1192    15.8968 </r>
       <r>    19.8235     0.1362    15.9102 </r>
       <r>    19.9221     0.1692    15.9269 </r>
       <r>    20.0208     0.1828    15.9449 </r>
       <r>    20.1194     0.1536    15.9601 </r>
       <r>    20.2180     0.1002    15.9699 </r>
       <r>    20.3167     0.0523    15.9751 </r>
       <r>    20.4153     0.0219    15.9773 </r>
       <r>    20.5140     0.0089    15.9781 </r>
       <r>    20.6126     0.0108    15.9792 </r>
       <r>    20.7113     0.0259    15.9818 </r>
       <r>    20.8099     0.0457    15.9863 </r>
       <r>    20.9086     0.0543    15.9916 </r>
       <r>    21.0072     0.0445    15.9960 </r>
       <r>    21.1059     0.0259    15.9986 </r>
       <r>    21.2045     0.0107    15.9996 </r>
       <r>    21.3032     0.0031    15.9999 </r>
       <r>    21.4018     0.0006    16.0000 </r>
       <r>    21.5004     0.0001    16.0000 </r>
       <r>    21.5991     0.0000    16.0000 </r>
       <r>    21.6977     0.0000    16.0000 </r>
       <r>    21.7964     0.0000    16.0000 </r>
       <r>    21.8950     0.0000    16.0000 </r>
       <r>    21.9937     0.0000    16.0000 </r>
       <r>    22.0923     0.0000    16.0000 </r>
       <r>    22.1910     0.0000    16.0000 </r>
       <r>    22.2896     0.0000    16.0000 </r>
       <r>    22.3883     0.0000    16.0000 </r>
       <r>    22.4869     0.0000    16.0000 </r>
       <r>    22.5855     0.0000    16.0000 </r>
       <r>    22.6842     0.0000    16.0000 </r>
       <r>    22.7828     0.0000    16.0000 </r>
       <r>    22.8815     0.0000    16.0000 </r>
       <r>    22.9801     0.0000    16.0000 </r>
      </set>
     </set>
    </array>
   </total>
  </dos>
 </calculation>
 <structure name="finalpos" >
  <crystal>
   <varray name="basis" >
    <v>      -2.45000000       2.45000000       1.27400000 </v>
    <v>       2.45000000      -2.45000000       1.27400000 </v>
    <v>       2.45000000       2.45000000      -1.27400000 </v>
   </varray>
   <i name="volume">     30.58874000 </i>
   <varray name="rec_basis" >
    <v>       0.00000000       0.20408163       0.39246468 </v>
    <v>       0.20408163       0.00000000       0.39246468 </v>
    <v>       0.20408163       0.20408163      -0.00000000 </v>
   </varray>
  </crystal>
  <varray name="positions" >
   <v>       0.25000000       0.75000000       0.50000000 </v>
   <v>       0.00000000       0.00000000       0.00000000 </v>
  </varray>
 </structure>
</modeling>
