    2    2   15    1
  0.1529437E+02  0.3691622E-09  0.3691622E-09  0.3691622E-09  0.5000000E-15
  1.000000000000000E-004
  CAR 
 unknown system                          
      8      6      8
 
  0.0000000E+00  0.0000000E+00  0.0000000E+00  0.3703704E-01
    1       -4.615621   1.000000
    2        6.172599   1.000000
    3        6.298703   1.000000
    4        6.298703   1.000000
    5       10.524787   0.000000
    6       16.755287   0.000000
    7       17.365915   0.000000
    8       17.365918   0.000000
 
  0.3333333E+00 -0.7127914E-16  0.7127914E-16  0.2962963E+00
    1       -1.505339   1.000000
    2        5.353428   1.000000
    3        6.790060   1.000000
    4        7.459776   1.000000
    5       10.257216   0.000000
    6       12.648547   0.000000
    7       13.022928   0.000000
    8       14.005669   0.000000
 
  0.3333333E+00  0.3333333E+00  0.1273482E-15  0.2962963E+00
    1        1.043621   1.000000
    2        1.061969   1.000000
    3        6.269907   1.000000
    4        8.231349   0.999577
    5        8.798497   0.250422
    6       10.935429   0.000000
    7       15.461409   0.000000
    8       16.502215   0.000000
 
 -0.3333333E+00  0.3333333E+00  0.6449678E-17  0.1481481E+00
    1       -3.297547   1.000000
    2        0.567508   1.000000
    3        7.522284   1.000000
    4        9.351222   0.000002
    5       11.167874   0.000000
    6       13.063502   0.000000
    7       16.420212   0.000000
    8       18.927300   0.000000
 
 -0.3333333E+00  0.3333333E+00  0.3333333E+00  0.1481481E+00
    1       -2.012006   1.000000
    2        1.106971   1.000000
    3        2.892886   1.000000
    4        5.941066   1.000000
    5       15.146578   0.000000
    6       16.725459   0.000000
    7       18.069786   0.000000
    8       18.917686   0.000000
 
 -0.3333333E+00 -0.3333333E+00  0.3333333E+00  0.7407407E-01
    1        2.774570   1.000000
    2        2.869819   1.000000
    3        4.597839   1.000000
    4        4.597839   1.000000
    5        5.168315   1.000000
    6       15.141030   0.000000
    7       15.922677   0.000000
    8       15.922683   0.000000
