unknown system                          
   1.00000000000000     
    -2.450000    2.450000    1.274000
     2.450000   -2.450000    1.274000
     2.450000    2.450000   -1.274000
   Si
     2
Direct
  0.250000  0.750000  0.500000
  0.000000  0.000000  0.000000
 
   32   32   32
 -.53477660234E+01 -.41715204855E+01 -.10130850497E+01 0.31724422609E+01 0.72267878731E+01
 0.10201988463E+02 0.11629680871E+02 0.11574263911E+02 0.10500175544E+02 0.90311383586E+01
 0.75831408446E+01 0.63010449901E+01 0.52578233599E+01 0.44748342350E+01 0.39411075834E+01
 0.36339214069E+01 0.35339785182E+01 0.36339253926E+01 0.39410873765E+01 0.44747944248E+01
 0.52578001929E+01 0.63010437621E+01 0.75831340370E+01 0.90311237082E+01 0.10500175705E+02
 0.11574273282E+02 0.11629674821E+02 0.10201978675E+02 0.72268040110E+01 0.31724669969E+01
 -.10130939106E+01 -.41715506104E+01 -.41715506104E+01 -.47809387754E+01 -.31129662968E+01
 0.30486748307E+00 0.44486459776E+01 0.81997379998E+01 0.10728784112E+02 0.11709914538E+02
 0.11322620859E+02 0.10088205633E+02 0.86083286887E+01 0.72000448589E+01 0.59815479957E+01
 0.50106623562E+01 0.42983916098E+01 0.38291970626E+01 0.35801599239E+01 0.35342421643E+01
 0.36874302412E+01 0.40503292084E+01 0.46441000239E+01 0.54902600505E+01 0.65940666012E+01
 0.79237981625E+01 0.93934343867E+01 0.10826192044E+02 0.11734457777E+02 0.11512014716E+02
 0.97723936226E+01 0.65674842227E+01 0.24811435879E+01 -.14748647285E+01 -.10130939106E+01
 -.31129907352E+01 -.31603460199E+01 -.11460482333E+01 0.22877841374E+01 0.61156335912E+01
 0.93228520029E+01 0.11239528391E+02 0.11693376503E+02 0.10965456457E+02 0.96057949608E+01
 0.81422030000E+01 0.67909485912E+01 0.56491960104E+01 0.47591245522E+01 0.41222366024E+01
 0.37194129473E+01 0.35282967357E+01 0.35347233896E+01 0.37382688039E+01 0.41523594254E+01
 0.47989825830E+01 0.56974979887E+01 0.68472354366E+01 0.82070333388E+01 0.96803783456E+01
 0.11059484533E+02 0.11823979299E+02 0.11413955225E+02 0.95321033820E+01 0.63344730423E+01
 0.24811435879E+01 0.31724669969E+01 0.30486244105E+00 -.11460633484E+01 -.71278815141E+00
 0.14547561463E+01 0.46556114846E+01 0.79283189200E+01 0.10413219507E+02 0.11622918389E+02
 0.11533829246E+02 0.10504066788E+02 0.90769364222E+01 0.76511246729E+01 0.63724568415E+01
 0.53176146091E+01 0.45134534366E+01 0.39532232896E+01 0.36156576447E+01 0.34800004992E+01
 0.35352614710E+01 0.37842342056E+01 0.42425085360E+01 0.49322212044E+01 0.58699407462E+01
 0.70488968411E+01 0.84197967709E+01 0.98792247018E+01 0.11198725468E+02 0.11862885688E+02
 0.11376448111E+02 0.95321033820E+01 0.65674842227E+01 0.72268040110E+01 0.44486616680E+01
 0.22877824721E+01 0.14547507828E+01 0.22289151428E+01 0.43405856989E+01 0.70898501050E+01
 0.96350657950E+01 0.11303861095E+02 0.11794436300E+02 0.11211879087E+02 0.99593969578E+01
 0.85230105584E+01 0.71545266819E+01 0.59613701528E+01 0.49996583431E+01 0.42825936205E+01
 0.37972555729E+01 0.35215791216E+01 0.34368988180E+01 0.35354590431E+01 0.38230580894E+01
 0.43167849908E+01 0.50378951227E+01 0.59994521012E+01 0.71891143068E+01 0.85517655276E+01
 0.99810060234E+01 0.11245014597E+02 0.11862885688E+02 0.11413955225E+02 0.97723936226E+01
 0.10201978675E+02 0.81997400607E+01 0.61156380248E+01 0.46556135593E+01 0.43405889382E+01
 0.52850313650E+01 0.71495318880E+01 0.92905186455E+01 0.11024336667E+02 0.11876003619E+02
 0.11714072745E+02 0.10741770513E+02 0.93717061265E+01 0.79660300604E+01 0.66721558952E+01
 0.55732553088E+01 0.47067165157E+01 0.40745621525E+01 0.36595934172E+01 0.34400917776E+01
 0.34001205309E+01 0.35351777489E+01 0.38533312740E+01 0.43720827840E+01 0.51110360651E+01
 0.60796940151E+01 0.72610649971E+01 0.85965704177E+01 0.99810060234E+01 0.11198725468E+02
 0.11823979299E+02 0.11512014716E+02 0.11629674821E+02 0.10728771265E+02 0.93228435344E+01
 0.79283163307E+01 0.70898540108E+01 0.71495389837E+01 0.80957036378E+01 0.95703607836E+01
 0.11028005169E+02 0.11960025504E+02 0.12078943729E+02 0.11394636704E+02 0.10171568362E+02
 0.87794875989E+01 0.74289197629E+01 0.62228305799E+01 0.52223184055E+01 0.44487833967E+01
 0.38958890264E+01 0.35442775356E+01 0.33736944311E+01 0.33710742024E+01 0.35346273189E+01
 0.38739038638E+01 0.44060664364E+01 0.51484582414E+01 0.61069341988E+01 0.72610649971E+01
 0.85517655276E+01 0.98792247018E+01 0.11059484533E+02 0.11734457777E+02 0.11574273282E+02
 0.11709913962E+02 0.11239518641E+02 0.10413205544E+02 0.96350561644E+01 0.92905209355E+01
 0.95703691355E+01 0.10381579235E+02 0.11391212929E+02 0.12176125002E+02 0.12399704652E+02
 0.11935902451E+02 0.10898048633E+02 0.95717108318E+01 0.82104407646E+01 0.69344254211E+01
 0.58237615575E+01 0.49204591227E+01 0.42336793856E+01 0.37517593602E+01 0.34548110851E+01
 0.33245828504E+01 0.33508381026E+01 0.35340271524E+01 0.38843139805E+01 0.44175792833E+01
 0.51484582414E+01 0.60796940151E+01 0.71891143068E+01 0.84197967709E+01 0.96803783456E+01
 0.10826192044E+02 0.10500175705E+02 0.11322629960E+02 0.11693380228E+02 0.11622909366E+02
 0.11303844369E+02 0.11024325577E+02 0.11028007770E+02 0.11391221075E+02 0.11982581079E+02
 0.12524845253E+02 0.12722938207E+02 0.12392544092E+02 0.11532997610E+02 0.10320538168E+02
 0.89951048940E+01 0.76919021207E+01 0.65030280532E+01 0.54890517506E+01 0.46770224610E+01
 0.40675752753E+01 0.36461586187E+01 0.33936662012E+01 0.32943352607E+01 0.33404536035E+01
 0.35338213887E+01 0.38843139805E+01 0.44060664364E+01 0.51110360651E+01 0.59994521012E+01
 0.70488968411E+01 0.82070333388E+01 0.93934343867E+01 0.90311237082E+01 0.10088199952E+02
 0.10965457431E+02 0.11533830736E+02 0.11794432919E+02 0.11875993850E+02 0.11960016369E+02
 0.12176125628E+02 0.12524852111E+02 0.12870595759E+02 0.13006930919E+02 0.12757142488E+02
 0.12059070518E+02 0.10997236040E+02 0.97569217890E+01 0.84749497028E+01 0.72482579881E+01
 0.61515543357E+01 0.52296698834E+01 0.44988545444E+01 0.39546292341E+01 0.35817042713E+01
 0.33626572225E+01 0.32841593245E+01 0.33404536035E+01 0.35340271524E+01 0.38739038638E+01
 0.43720827840E+01 0.50378951227E+01 0.58699407462E+01 0.68472354366E+01 0.79237981625E+01
 0.75831340370E+01 0.86083133724E+01 0.96057802057E+01 0.10504062146E+02 0.11211884821E+02
 0.11714077176E+02 0.12078937278E+02 0.12399694959E+02 0.12722939209E+02 0.13006939327E+02
 0.13134352759E+02 0.12971105284E+02 0.12438314807E+02 0.11560511054E+02 0.10460079402E+02
 0.92549338431E+01 0.80403032268E+01 0.68994161156E+01 0.58925484506E+01 0.50530190395E+01
 0.43903004448E+01 0.38975408999E+01 0.35600790220E+01 0.33626572225E+01 0.32943352607E+01
 0.33508381026E+01 0.35346273189E+01 0.38533312740E+01 0.43167849908E+01 0.49322212044E+01
 0.56974979887E+01 0.65940666012E+01 0.63010437621E+01 0.72000416465E+01 0.81421939068E+01
 0.90769246345E+01 0.99593907436E+01 0.10741774265E+02 0.11394642266E+02 0.11935899779E+02
 0.12392538481E+02 0.12757146208E+02 0.12971114709E+02 0.12946059629E+02 0.12610983391E+02
 0.11958297146E+02 0.11056655678E+02 0.99911765226E+01 0.88485386654E+01 0.77141761661E+01
 0.66595439245E+01 0.57341341028E+01 0.49636684884E+01 0.43538909142E+01 0.38975408999E+01
 0.35817042713E+01 0.33936662012E+01 0.33245828504E+01 0.33710742024E+01 0.35351777489E+01
 0.38230580894E+01 0.42425085360E+01 0.47989825830E+01 0.54902600505E+01 0.52578001929E+01
 0.59815476755E+01 0.67909598525E+01 0.76511271560E+01 0.85229975524E+01 0.93716944839E+01
 0.10171573431E+02 0.10898060298E+02 0.11532998240E+02 0.12059064634E+02 0.12438318402E+02
 0.12610993361E+02 0.12518476476E+02 0.12137077216E+02 0.11491223463E+02 0.10631344301E+02
 0.96286560171E+01 0.85635166185E+01 0.75124169649E+01 0.65375492016E+01 0.56808909984E+01
 0.49636684884E+01 0.43903004448E+01 0.39546292341E+01 0.36461586187E+01 0.34548110851E+01
 0.33736944311E+01 0.34001205309E+01 0.35354590431E+01 0.37842342056E+01 0.41523594254E+01
 0.46441000239E+01 0.44747944248E+01 0.50106443052E+01 0.56492036176E+01 0.63724741922E+01
 0.71545315402E+01 0.79660204378E+01 0.87794827093E+01 0.95717203733E+01 0.10320547676E+02
 0.10997232701E+02 0.11560505158E+02 0.11958302318E+02 0.12137086426E+02 0.12058667293E+02
 0.11712040573E+02 0.11117948912E+02 0.10324990509E+02 0.94001109075E+01 0.84168844275E+01
 0.74442180343E+01 0.65375492016E+01 0.57341341028E+01 0.50530190395E+01 0.44988545444E+01
 0.40675752753E+01 0.37517593602E+01 0.35442775356E+01 0.34400917776E+01 0.34368988180E+01
 0.35352614710E+01 0.37382688039E+01 0.40503292084E+01 0.39410873765E+01 0.42983719631E+01
 0.47591126688E+01 0.53176226919E+01 0.59613919196E+01 0.66721695010E+01 0.74289172113E+01
 0.82104367532E+01 0.89951107500E+01 0.97569289789E+01 0.10460078009E+02 0.11056651822E+02
 0.11491226123E+02 0.11712045549E+02 0.11684255290E+02 0.11399397170E+02 0.10877906962E+02
 0.10164980397E+02 0.93221408797E+01 0.84168844275E+01 0.75124169649E+01 0.66595439245E+01
 0.58925484506E+01 0.52296698834E+01 0.46770224610E+01 0.42336793856E+01 0.38958890264E+01
 0.36595934172E+01 0.35215791216E+01 0.34800004992E+01 0.35347233896E+01 0.36874302412E+01
 0.36339253926E+01 0.38292052219E+01 0.41222347054E+01 0.45134537400E+01 0.49996754348E+01
 0.55732793205E+01 0.62228405804E+01 0.69344205335E+01 0.76919002201E+01 0.84749583740E+01
 0.92549416632E+01 0.99911745814E+01 0.10631338903E+02 0.11117947944E+02 0.11399398468E+02
 0.11441339017E+02 0.11234223097E+02 0.10795237826E+02 0.10164980397E+02 0.94001109075E+01
 0.85635166185E+01 0.77141761661E+01 0.68994161156E+01 0.61515543357E+01 0.54890517506E+01
 0.49204591227E+01 0.44487833967E+01 0.40745621525E+01 0.37972555729E+01 0.36156576447E+01
 0.35282967357E+01 0.35342421643E+01 0.35339785182E+01 0.35801877274E+01 0.37194477750E+01
 0.39532477512E+01 0.42826084363E+01 0.47067297300E+01 0.52223306167E+01 0.58237681850E+01
 0.65030294280E+01 0.72482593528E+01 0.80403069166E+01 0.88485419133E+01 0.96286559760E+01
 0.10324987697E+02 0.10877903723E+02 0.11234221162E+02 0.11357334442E+02 0.11234223097E+02
 0.10877906962E+02 0.10324990509E+02 0.96286560171E+01 0.88485386654E+01 0.80403032268E+01
 0.72482579881E+01 0.65030280532E+01 0.58237615575E+01 0.52223184055E+01 0.47067165157E+01
 0.42825936205E+01 0.39532232896E+01 0.37194129473E+01 0.35801599239E+01 0.36339214069E+01
 0.35342659811E+01 0.35283484199E+01 0.36157116524E+01 0.37972892335E+01 0.40745756200E+01
 0.44487908072E+01 0.49204685120E+01 0.54890587236E+01 0.61515530204E+01 0.68994103825E+01
 0.77141755281E+01 0.85635227485E+01 0.94001152350E+01 0.10164977167E+02 0.10795232079E+02
 0.11234221162E+02 0.11441339017E+02 0.11399397170E+02 0.11117948912E+02 0.10631344301E+02
 0.99911765226E+01 0.92549338431E+01 0.84749497028E+01 0.76919021207E+01 0.69344254211E+01
 0.62228305799E+01 0.55732553088E+01 0.49996583431E+01 0.45134534366E+01 0.41222366024E+01
 0.38291970626E+01 0.39411075834E+01 0.36874582559E+01 0.35347659314E+01 0.34800520260E+01
 0.35216269644E+01 0.36596268162E+01 0.38959039480E+01 0.42336809885E+01 0.46770209785E+01
 0.52296698152E+01 0.58925462137E+01 0.66595388422E+01 0.75124156201E+01 0.84168890716E+01
 0.93221438902E+01 0.10164977167E+02 0.10877903723E+02 0.11399398468E+02 0.11684255290E+02
 0.11712040573E+02 0.11491223463E+02 0.11056655678E+02 0.10460079402E+02 0.97569217890E+01
 0.89951048940E+01 0.82104407646E+01 0.74289197629E+01 0.66721558952E+01 0.59613701528E+01
 0.53176146091E+01 0.47591245522E+01 0.42983916098E+01 0.44748342350E+01 0.40503760203E+01
 0.37383108578E+01 0.35352977429E+01 0.34369361291E+01 0.34401303061E+01 0.35443026610E+01
 0.37517588117E+01 0.40675604260E+01 0.44988482888E+01 0.50530244119E+01 0.57341343898E+01
 0.65375390835E+01 0.74442117455E+01 0.84168890716E+01 0.94001152350E+01 0.10324987697E+02
 0.11117947944E+02 0.11712045549E+02 0.12058667293E+02 0.12137077216E+02 0.11958297146E+02
 0.11560511054E+02 0.10997236040E+02 0.10320538168E+02 0.95717108318E+01 0.87794875989E+01
 0.79660300604E+01 0.71545266819E+01 0.63724568415E+01 0.56491960104E+01 0.50106623562E+01
 0.52578233599E+01 0.46441424679E+01 0.41524085931E+01 0.37842752093E+01 0.35354846513E+01
 0.34001360592E+01 0.33737053820E+01 0.34548115668E+01 0.36461440101E+01 0.39546119858E+01
 0.43902957811E+01 0.49636712300E+01 0.56808861562E+01 0.65375390835E+01 0.75124156201E+01
 0.85635227485E+01 0.96286559760E+01 0.10631338903E+02 0.11491226123E+02 0.12137086426E+02
 0.12518476476E+02 0.12610983391E+02 0.12438314807E+02 0.12059070518E+02 0.11532997610E+02
 0.10898048633E+02 0.10171568362E+02 0.93717061265E+01 0.85230105584E+01 0.76511246729E+01
 0.67909485912E+01 0.59815479957E+01 0.63010449901E+01 0.54902712014E+01 0.47990148965E+01
 0.42425532071E+01 0.38230866333E+01 0.35351743569E+01 0.33710552544E+01 0.33245699565E+01
 0.33936555171E+01 0.35816822118E+01 0.38975150357E+01 0.43538798995E+01 0.49636712300E+01
 0.57341343898E+01 0.66595388422E+01 0.77141755281E+01 0.88485419133E+01 0.99911745814E+01
 0.11056651822E+02 0.11958302318E+02 0.12610993361E+02 0.12946059629E+02 0.12971105284E+02
 0.12757142488E+02 0.12392544092E+02 0.11935902451E+02 0.11394636704E+02 0.10741770513E+02
 0.99593969578E+01 0.90769364222E+01 0.81422030000E+01 0.72000448589E+01 0.75831408446E+01
 0.65940653223E+01 0.56975009542E+01 0.49322384561E+01 0.43168050554E+01 0.38533294030E+01
 0.35345979373E+01 0.33508023478E+01 0.32943088857E+01 0.33626315696E+01 0.35600461103E+01
 0.38975150357E+01 0.43902957811E+01 0.50530244119E+01 0.58925462137E+01 0.68994103825E+01
 0.80403069166E+01 0.92549416632E+01 0.10460078009E+02 0.11560505158E+02 0.12438318402E+02
 0.12971114709E+02 0.13134352759E+02 0.13006930919E+02 0.12722938207E+02 0.12399704652E+02
 0.12078943729E+02 0.11714072745E+02 0.11211879087E+02 0.10504066788E+02 0.96057949608E+01
 0.86083286887E+01 0.90311383586E+01 0.79238128391E+01 0.68472364401E+01 0.58699288422E+01
 0.50378850561E+01 0.43720770858E+01 0.38738841744E+01 0.35339825754E+01 0.33404006999E+01
 0.32841198584E+01 0.33626315696E+01 0.35816822118E+01 0.39546119858E+01 0.44988482888E+01
 0.52296698152E+01 0.61515530204E+01 0.72482593528E+01 0.84749583740E+01 0.97569289789E+01
 0.10997232701E+02 0.12059064634E+02 0.12757146208E+02 0.13006939327E+02 0.12870595759E+02
 0.12524845253E+02 0.12176125002E+02 0.11960025504E+02 0.11876003619E+02 0.11794436300E+02
 0.11533829246E+02 0.10965456457E+02 0.10088205633E+02 0.10500175544E+02 0.93934491570E+01
 0.82070489660E+01 0.70488930433E+01 0.59994291414E+01 0.51110117971E+01 0.44060442436E+01
 0.38842761579E+01 0.35337634174E+01 0.33404006999E+01 0.32943088857E+01 0.33936555171E+01
 0.36461440101E+01 0.40675604260E+01 0.46770209785E+01 0.54890587236E+01 0.65030294280E+01
 0.76919002201E+01 0.89951107500E+01 0.10320547676E+02 0.11532998240E+02 0.12392538481E+02
 0.12722939209E+02 0.12524852111E+02 0.11982581079E+02 0.11391212929E+02 0.11028005169E+02
 0.11024336667E+02 0.11303861095E+02 0.11622918389E+02 0.11693376503E+02 0.11322620859E+02
 0.11574263911E+02 0.10826182565E+02 0.96803829503E+01 0.84198113146E+01 0.71891147649E+01
 0.60796678800E+01 0.51484200040E+01 0.44175438506E+01 0.38842761579E+01 0.35339825754E+01
 0.33508023478E+01 0.33245699565E+01 0.34548115668E+01 0.37517588117E+01 0.42336809885E+01
 0.49204685120E+01 0.58237681850E+01 0.69344205335E+01 0.82104367532E+01 0.95717203733E+01
 0.10898060298E+02 0.11935899779E+02 0.12399694959E+02 0.12176125628E+02 0.11391221075E+02
 0.10381579235E+02 0.95703607836E+01 0.92905186455E+01 0.96350657950E+01 0.10413219507E+02
 0.11239528391E+02 0.11709914538E+02 0.11629680871E+02 0.11734445012E+02 0.11059464989E+02
 0.98792245982E+01 0.85517821861E+01 0.72610641117E+01 0.61069014325E+01 0.51484200040E+01
 0.44060442436E+01 0.38738841744E+01 0.35345979373E+01 0.33710552544E+01 0.33737053820E+01
 0.35443026610E+01 0.38959039480E+01 0.44487908072E+01 0.52223306167E+01 0.62228405804E+01
 0.74289172113E+01 0.87794827093E+01 0.10171573431E+02 0.11394642266E+02 0.12078937278E+02
 0.11960016369E+02 0.11028007770E+02 0.95703691355E+01 0.80957036378E+01 0.71495318880E+01
 0.70898501050E+01 0.79283189200E+01 0.93228520029E+01 0.10728784112E+02 0.10201988463E+02
 0.11512025109E+02 0.11823968678E+02 0.11198701940E+02 0.99810002863E+01 0.85965835295E+01
 0.72610641117E+01 0.60796678800E+01 0.51110117971E+01 0.43720770858E+01 0.38533294030E+01
 0.35351743569E+01 0.34001360592E+01 0.34401303061E+01 0.36596268162E+01 0.40745756200E+01
 0.47067297300E+01 0.55732793205E+01 0.66721695010E+01 0.79660204378E+01 0.93716944839E+01
 0.10741774265E+02 0.11714077176E+02 0.11875993850E+02 0.11024325577E+02 0.92905209355E+01
 0.71495389837E+01 0.52850313650E+01 0.43405856989E+01 0.46556114846E+01 0.61156335912E+01
 0.81997379998E+01 0.72267878731E+01 0.97724019811E+01 0.11413971903E+02 0.11862875649E+02
 0.11244986814E+02 0.99810002863E+01 0.85517821861E+01 0.71891147649E+01 0.59994291414E+01
 0.50378850561E+01 0.43168050554E+01 0.38230866333E+01 0.35354846513E+01 0.34369361291E+01
 0.35216269644E+01 0.37972892335E+01 0.42826084363E+01 0.49996754348E+01 0.59613919196E+01
 0.71545315402E+01 0.85229975524E+01 0.99593907436E+01 0.11211884821E+02 0.11794432919E+02
 0.11303844369E+02 0.96350561644E+01 0.70898540108E+01 0.43405889382E+01 0.22289151428E+01
 0.14547561463E+01 0.22877841374E+01 0.44486459776E+01 0.31724422609E+01 0.65674589264E+01
 0.95321104321E+01 0.11376465517E+02 0.11862875649E+02 0.11198701940E+02 0.98792245982E+01
 0.84198113146E+01 0.70488930433E+01 0.58699288422E+01 0.49322384561E+01 0.42425532071E+01
 0.37842752093E+01 0.35352977429E+01 0.34800520260E+01 0.36157116524E+01 0.39532477512E+01
 0.45134537400E+01 0.53176226919E+01 0.63724741922E+01 0.76511271560E+01 0.90769246345E+01
 0.10504062146E+02 0.11533830736E+02 0.11622909366E+02 0.10413205544E+02 0.79283163307E+01
 0.46556135593E+01 0.14547507828E+01 -.71278815141E+00 -.11460482333E+01 0.30486748307E+00
 -.10130850497E+01 0.24811136223E+01 0.63344434254E+01 0.95321104321E+01 0.11413971903E+02
 0.11823968678E+02 0.11059464989E+02 0.96803829503E+01 0.82070489660E+01 0.68472364401E+01
 0.56975009542E+01 0.47990148965E+01 0.41524085931E+01 0.37383108578E+01 0.35347659314E+01
 0.35283484199E+01 0.37194477750E+01 0.41222347054E+01 0.47591126688E+01 0.56492036176E+01
 0.67909598525E+01 0.81421939068E+01 0.96057802057E+01 0.10965457431E+02 0.11693380228E+02
 0.11239518641E+02 0.93228435344E+01 0.61156380248E+01 0.22877824721E+01 -.11460633484E+01
 -.31603460199E+01 -.31129662968E+01 -.41715204855E+01 -.14748547309E+01 0.24811136223E+01
 0.65674589264E+01 0.97724019811E+01 0.11512025109E+02 0.11734445012E+02 0.10826182565E+02
 0.93934491570E+01 0.79238128391E+01 0.65940653223E+01 0.54902712014E+01 0.46441424679E+01
 0.40503760203E+01 0.36874582559E+01 0.35342659811E+01 0.35801877274E+01 0.38292052219E+01
 0.42983719631E+01 0.50106443052E+01 0.59815476755E+01 0.72000416465E+01 0.86083133724E+01
 0.10088199952E+02 0.11322629960E+02 0.11709913962E+02 0.10728771265E+02 0.81997400607E+01
 0.44486616680E+01 0.30486244105E+00 -.31129907352E+01 -.47809387754E+01 -.41714102490E+01
 -.33077606907E+01 -.52611546858E+00 0.33237807777E+01 0.71535177050E+01 0.10030905906E+02
 0.11457364479E+02 0.11445460846E+02 0.10412069282E+02 0.89561908047E+01 0.75055003070E+01
 0.62117022504E+01 0.51517619417E+01 0.43498600215E+01 0.37958785542E+01 0.34663925873E+01
 0.33405468019E+01 0.34090860560E+01 0.36775785841E+01 0.41645113766E+01 0.48937833799E+01
 0.58804752137E+01 0.71106113732E+01 0.85210522071E+01 0.99861265600E+01 0.11162695362E+02
 0.11455353073E+02 0.10383428921E+02 0.78261921864E+01 0.41633618007E+01 0.24431608346E+00
 -.28467111676E+01 -.33077872583E+01 -.41715201549E+01 -.28467748533E+01 0.24434330985E+00
 0.41633923356E+01 0.78261571768E+01 0.10383383773E+02 0.11455380421E+02 0.11162767438E+02
 0.99861440626E+01 0.85209966678E+01 0.71105723148E+01 0.58805105446E+01 0.48938323703E+01
 0.41644959545E+01 0.36775293166E+01 0.34090890895E+01 0.33405982107E+01 0.34664014912E+01
 0.37958188805E+01 0.43498206526E+01 0.51518060224E+01 0.62117639285E+01 0.75054912024E+01
 0.89561413978E+01 0.10412070267E+02 0.11445504142E+02 0.11457354828E+02 0.10030828975E+02
 0.71534818642E+01 0.33238502204E+01 -.52603327138E+00 -.43207506229E+00 -.27447377636E+01
 -.31128814549E+01 -.14290441609E+01 0.17626533204E+01 0.54930120101E+01 0.87444448626E+01
 0.10796587937E+02 0.11408342460E+02 0.10802975400E+02 0.95018349818E+01 0.80512713727E+01
 0.66969665787E+01 0.55435570067E+01 0.46389382852E+01 0.39872737452E+01 0.35696519725E+01
 0.33627116807E+01 0.33509063359E+01 0.35324811591E+01 0.39200733522E+01 0.45361516704E+01
 0.54026064462E+01 0.65237941361E+01 0.78657387309E+01 0.93400616429E+01 0.10766724016E+02
 0.11665271825E+02 0.11466635128E+02 0.98325085206E+01 0.68520932693E+01 0.31104352514E+01
 0.35615211468E+01 0.51510902071E+00 -.12373297352E+01 -.11460973867E+01 0.74200314930E+00
 0.38050194507E+01 0.71040785513E+01 0.97430434614E+01 0.11162713805E+02 0.11265655075E+02
 0.10360570843E+02 0.89794377458E+01 0.75638231812E+01 0.62802570090E+01 0.52137812772E+01
 0.43967529639E+01 0.38245403375E+01 0.34757779530E+01 0.33286957631E+01 0.33711028280E+01
 0.36048407770E+01 0.40452975186E+01 0.47157281249E+01 0.56356457731E+01 0.68032547328E+01
 0.81757609442E+01 0.96564944379E+01 0.11042035354E+02 0.11836408302E+02 0.11523025960E+02
 0.98472296056E+01 0.69830255600E+01 0.75319272550E+01 0.46113863937E+01 0.21786156409E+01
 0.10014319645E+01 0.14547588207E+01 0.33637139884E+01 0.60807493768E+01 0.87542068906E+01
 0.10650135519E+02 0.11384774112E+02 0.10993870848E+02 0.98451174668E+01 0.84388420235E+01
 0.70759061123E+01 0.58758163089E+01 0.49030132669E+01 0.41754328957E+01 0.36815749877E+01
 0.33989932738E+01 0.33080678564E+01 0.34001151688E+01 0.36804344423E+01 0.41664809480E+01
 0.48811282860E+01 0.58405734611E+01 0.70370872904E+01 0.84209623439E+01 0.98907831285E+01
 0.11231982391E+02 0.11966124841E+02 0.11642679538E+02 0.10086765627E+02 0.10513293041E+02
 0.84112425148E+01 0.61023634020E+01 0.43213883829E+01 0.36640022549E+01 0.43405452353E+01
 0.60878773014E+01 0.82857720913E+01 0.10214136911E+02 0.11322468784E+02 0.11398324567E+02
 0.10587656223E+02 0.92850691206E+01 0.78983093686E+01 0.66048763817E+01 0.54977257988E+01
 0.46216220453E+01 0.39821464768E+01 0.35628188214E+01 0.33413821674E+01 0.33010825587E+01
 0.34367918046E+01 0.37565467344E+01 0.42787491000E+01 0.50249718861E+01 0.60077577133E+01
 0.72139942672E+01 0.85890406040E+01 0.10030473675E+02 0.11329797010E+02 0.12050900391E+02
 0.11814394463E+02 0.12000894478E+02 0.11046816818E+02 0.94778200704E+01 0.78145440598E+01
 0.66484329163E+01 0.64023340643E+01 0.71494557561E+01 0.85840581114E+01 0.10157979796E+02
 0.11309327171E+02 0.11672560078E+02 0.11186513349E+02 0.10075080112E+02 0.87180976312E+01
 0.73772974548E+01 0.61676030192E+01 0.51589805411E+01 0.43786283530E+01 0.38225114571E+01
 0.34714253987E+01 0.33045025021E+01 0.33080269168E+01 0.34799382475E+01 0.38302450726E+01
 0.43774303865E+01 0.51409168275E+01 0.61292139398E+01 0.73247290247E+01 0.86705326409E+01
 0.10067112382E+02 0.11328129727E+02 0.12076077391E+02 0.12019014142E+02 0.12147815139E+02
 0.11582028293E+02 0.10559709154E+02 0.95051750944E+01 0.88596803230E+01 0.88901813880E+01
 0.95703263128E+01 0.10595315615E+02 0.11520268497E+02 0.11948807688E+02 0.11683781981E+02
 0.10783382271E+02 0.95130377514E+01 0.81699441675E+01 0.68961888762E+01 0.57800203072E+01
 0.48705967927E+01 0.41810617645E+01 0.37009092428E+01 0.34099935690E+01 0.32894631851E+01
 0.33286598610E+01 0.35281451468E+01 0.38989601621E+01 0.44585532611E+01 0.52235192723E+01
 0.61986031011E+01 0.73631519245E+01 0.86604500048E+01 0.99970858871E+01 0.11219432581E+02
 0.10999259974E+02 0.11855952160E+02 0.12195835150E+02 0.12009079733E+02 0.11488915809E+02
 0.10953513338E+02 0.10702704481E+02 0.10877001136E+02 0.11391131284E+02 0.11975981123E+02
 0.12304175333E+02 0.12134263551E+02 0.11407999299E+02 0.10265073810E+02 0.89614778002E+01
 0.76653982919E+01 0.64743763614E+01 0.54557071509E+01 0.46414571489E+01 0.40345091539E+01
 0.36205865668E+01 0.33800906868E+01 0.32967341285E+01 0.33626331962E+01 0.35800619887E+01
 0.39600813200E+01 0.45184430105E+01 0.52687136114E+01 0.62122659814E+01 0.73267718988E+01
 0.85582169806E+01 0.98221062366E+01 0.95495244628E+01 0.10669263960E+02 0.11569080051E+02
 0.12095191951E+02 0.12237281347E+02 0.12133449646E+02 0.11998620442E+02 0.12012346575E+02
 0.12223833646E+02 0.12524830964E+02 0.12703460761E+02 0.12548242199E+02 0.11949100101E+02
 0.10949801976E+02 0.97287133004E+01 0.84546667165E+01 0.72282934739E+01 0.61287750670E+01
 0.52056938319E+01 0.44782123407E+01 0.39426981668E+01 0.35835351962E+01 0.33826877392E+01
 0.33264133394E+01 0.34090374755E+01 0.36338092057E+01 0.40110870853E+01 0.45543600301E+01
 0.52740713983E+01 0.61690058960E+01 0.72168624624E+01 0.83683724997E+01 0.80998002497E+01
 0.91910850694E+01 0.10240646768E+02 0.11154900669E+02 0.11819216661E+02 0.12213711136E+02
 0.12420442305E+02 0.12564139868E+02 0.12731362516E+02 0.12913730393E+02 0.13006901217E+02
 0.12864516916E+02 0.12376750838E+02 0.11533184253E+02 0.10439647658E+02 0.92369451926E+01
 0.80220333788E+01 0.68794796968E+01 0.58727193503E+01 0.50377528436E+01 0.43851902336E+01
 0.39080193241E+01 0.35908783852E+01 0.34178447382E+01 0.33776732889E+01 0.34663784517E+01
 0.36873728839E+01 0.40496364881E+01 0.45642320923E+01 0.52389081026E+01 0.60707718593E+01
 0.70388022680E+01 0.68011497849E+01 0.77651935924E+01 0.87628219644E+01 0.97358972340E+01
 0.10628975164E+02 0.11372587706E+02 0.11934685347E+02 0.12347516299E+02 0.12664351137E+02
 0.12906956999E+02 0.13037371610E+02 0.12971124435E+02 0.12623857649E+02 0.11964912916E+02
 0.11048529842E+02 0.99737573610E+01 0.88257507064E+01 0.76886414337E+01 0.66348423766E+01
 0.57154018060E+01 0.49569111083E+01 0.43649519221E+01 0.39314422655E+01 0.36425126017E+01
 0.34847366753E+01 0.34490628743E+01 0.35325603696E+01 0.37382922832E+01 0.40736561213E+01
 0.45473407406E+01 0.51647700510E+01 0.59222324261E+01 0.57306907218E+01 0.65156241506E+01
 0.73802724811E+01 0.82835448394E+01 0.91797262832E+01 0.10027654024E+02 0.10793965740E+02
 0.11446261130E+02 0.11978014295E+02 0.12391669987E+02 0.12668894943E+02 0.12761623732E+02
 0.12610991771E+02 0.12183048030E+02 0.11498547175E+02 0.10613761550E+02 0.95963872203E+01
 0.85243073770E+01 0.74731508798E+01 0.65051699776E+01 0.56624153791E+01 0.49656390609E+01
 0.44182181108E+01 0.40127068129E+01 0.37374441073E+01 0.35816001420E+01 0.35381420955E+01
 0.36049075989E+01 0.37842793041E+01 0.40818663945E+01 0.45041796830E+01 0.50550088136E+01
 0.49151487472E+01 0.55055656152E+01 0.61956362985E+01 0.69624158659E+01 0.77743425548E+01
 0.85964504586E+01 0.93966800749E+01 0.10149541933E+02 0.10833794652E+02 0.11424233375E+02
 0.11891188775E+02 0.12195016205E+02 0.12288807840E+02 0.12137102027E+02 0.11733258522E+02
 0.11098200902E+02 0.10278806032E+02 0.93399912205E+01 0.83536803452E+01 0.73876221271E+01
 0.64963262581E+01 0.57160008418E+01 0.50643278599E+01 0.45443283023E+01 0.41502758981E+01
 0.38733607528E+01 0.37056262995E+01 0.36419438236E+01 0.36806095136E+01 0.38231761455E+01
 0.40736505132E+01 0.44367730511E+01 0.43485053300E+01 0.47518548681E+01 0.52573715390E+01
 0.58558485119E+01 0.65302500378E+01 0.72574035093E+01 0.80117247067E+01 0.87688116132E+01
 0.95062503934E+01 0.10200380145E+02 0.10820797140E+02 0.11327050680E+02 0.11671678069E+02
 0.11809929625E+02 0.11712054663E+02 0.11372507661E+02 0.10812688455E+02 0.10077323852E+02
 0.92265908798E+01 0.83262403711E+01 0.74376779598E+01 0.66099934748E+01 0.58757587694E+01
 0.52513379560E+01 0.47407698275E+01 0.43410713345E+01 0.40468501633E+01 0.38531759109E+01
 0.37568333666E+01 0.37566446765E+01 0.38534239791E+01 0.40496510906E+01 0.40111020874E+01
 0.42435814410E+01 0.45728755534E+01 0.49974775982E+01 0.55110539720E+01 0.61019841577E+01
 0.67546309525E+01 0.74514534878E+01 0.81742527898E+01 0.89029535179E+01 0.96118184731E+01
 0.10265391269E+02 0.10817923378E+02 0.11218736420E+02 0.11422376642E+02 0.11399402353E+02
 0.11143581852E+02 0.10673618255E+02 0.10029838319E+02 0.92672080947E+01 0.84461936852E+01
 0.76233471689E+01 0.68438968093E+01 0.61382146201E+01 0.55226031865E+01 0.50031427433E+01
 0.45803902479E+01 0.42530032198E+01 0.40195369292E+01 0.38788871721E+01 0.38303678403E+01
 0.38740411986E+01 0.38843942712E+01 0.39601164344E+01 0.41270619790E+01 0.43861500374E+01
 0.47367448167E+01 0.51752775961E+01 0.56949743567E+01 0.62866671615E+01 0.69395852188E+01
 0.76406620952E+01 0.83716789515E+01 0.91052303860E+01 0.98020854781E+01 0.10412697404E+02
 0.10883785688E+02 0.11168150292E+02 0.11234235186E+02 0.11072465925E+02 0.10697093653E+02
 0.10143616107E+02 0.94624189878E+01 0.87098321521E+01 0.79387238443E+01 0.71913578425E+01
 0.64965512446E+01 0.58712251651E+01 0.53244473012E+01 0.48613876868E+01 0.44855599034E+01
 0.41993459092E+01 0.40038390120E+01 0.38989976982E+01 0.39600839569E+01 0.38844321869E+01
 0.38990437996E+01 0.40038216835E+01 0.41992961392E+01 0.44855592102E+01 0.48614383730E+01
 0.53244767230E+01 0.58712063800E+01 0.64965353735E+01 0.71913780578E+01 0.79387443948E+01
 0.87098189446E+01 0.94623977027E+01 0.10143623160E+02 0.10697114998E+02 0.11072464694E+02
 0.11234211429E+02 0.11168135873E+02 0.10883793941E+02 0.10412708717E+02 0.98020811146E+01
 0.91052193796E+01 0.83716824475E+01 0.76406781408E+01 0.69395848211E+01 0.62866365353E+01
 0.56949459241E+01 0.51752886970E+01 0.47367723953E+01 0.43861334248E+01 0.41269999263E+01
 0.42436095988E+01 0.40110786072E+01 0.38739821198E+01 0.38303290888E+01 0.38788901404E+01
 0.40195541441E+01 0.42530046518E+01 0.45803798356E+01 0.50031448571E+01 0.55226231783E+01
 0.61382277705E+01 0.68438850538E+01 0.76233312476E+01 0.84462036201E+01 0.92672316924E+01
 0.10029836626E+02 0.10673590538E+02 0.11143568165E+02 0.11399412728E+02 0.11422371832E+02
 0.11218701371E+02 0.10817903309E+02 0.10265417156E+02 0.96118492850E+01 0.89029429168E+01
 0.81742278358E+01 0.74514651300E+01 0.67546603992E+01 0.61019702114E+01 0.55109976864E+01