unknown system                          
   1.00000000000000     
    -2.430801    2.430801    1.338809
     2.430801   -2.430801    1.338809
     2.430801    2.430801   -1.338809
   Si
     2
Direct
  0.750000  0.250000  0.500000
  0.500000  0.500000  0.000000
 
   36   36   36
  9.7162      9.6466      9.4441      9.1260      8.7173      8.2456      7.7367      7.2117      6.6870      6.1752    
  5.6874      5.2345      4.8272      4.4744      4.1828      3.9560      3.7949      3.6990      3.6671      3.6990    
  3.7949      3.9560      4.1828      4.4744      4.8272      5.2345      5.6874      6.1752      6.6870      7.2117    
  7.7367      8.2456      8.7173      9.1260      9.4441      9.6466      9.6466      9.8013      9.8148      9.6901    
  9.4416      9.0914      8.6648      8.1855      7.6734      7.1448      6.6133      6.0925      5.5966      5.1395    
  4.7334      4.3874      4.1069      3.8936      3.7474      3.6670      3.6514      3.7007      3.8156      3.9966    
  4.2434      4.5536      4.9227      5.3445      5.8118      6.3169      6.8511      7.4026      7.9549      8.4847    
  8.9635      9.3603      9.4441      9.8148      10.051      10.140      10.082      9.8907      9.5857      9.1910    
  8.7290      8.2186      7.6754      7.1140      6.5499      6.0003      5.4829      5.0137      4.6048      4.2637    
  3.9938      3.7952      3.6666      3.6064      3.6140      3.6895      3.8334      4.0454      4.3242      4.6674    
  5.0714      5.5323      6.0455      6.6041      7.1970      7.8062      8.4058      8.9635      9.1260      9.6901    
  10.140      10.448      10.599      10.593      10.443      10.170      9.7954      9.3416      8.8253      8.2607    
  7.6622      7.0467      6.4346      5.8479      5.3071      4.8281      4.4216      4.0923      3.8410      3.6661    
  3.5654      3.5372      3.5809      3.6965      3.8840      4.1430      4.4729      4.8732      5.3429      5.8799    
  6.4787      7.1276      7.8062      8.4847      8.7173      9.4416      10.082      10.599      10.962      11.156    
  11.184      11.059      10.805      10.443      9.9931      9.4683      8.8797      8.2402      7.5679      6.8865    
  6.2232      5.6041      5.0501      4.5750      4.1858      3.8834      3.6658      3.5297      3.4723      3.4920    
  3.5883      3.7614      4.0121      4.3420      4.7531      5.2473      5.8243      6.4787      7.1970      7.9549    
  8.2456      9.0914      9.8907      10.593      11.156      11.550      11.758      11.786      11.663      11.420    
  11.079      10.646      10.121      9.5102      8.8290      8.0965      7.3410      6.5961      5.8944      5.2627    
  4.7188      4.2712      3.9213      3.6658      3.5004      3.4208      3.4244      3.5103      3.6791      3.9332    
  4.2762      4.7129      5.2473      5.8799      6.6041      7.4026      7.7367      8.6648      9.5857      10.443    
  11.184      11.758      12.122      12.276      12.256      12.115      11.894      11.606      11.232      10.744    
  10.130      9.4086      8.6147      7.7824      6.9531      6.1674      5.4584      4.8479      4.3458      3.9533    
  3.6661      3.4781      3.3835      3.3789      3.4632      3.6379      3.9068      4.2762      4.7531      5.3429    
  6.0455      6.8511      7.2117      8.1855      9.1910      10.170      11.059      11.786      12.276      12.511    
  12.535      12.429      12.272      12.108      11.928      11.676      11.284      10.707      9.9598      9.1045    
  8.1947      7.2810      6.4128      5.6298      4.9574      4.4069      3.9786      3.6666      3.4631      3.3610    
  3.3561      3.4475      3.6379      3.9332      4.3420      4.8732      5.5323      6.3169      6.6870      7.6734    
  8.7290      9.7954      10.805      11.663      12.256      12.535      12.537      12.369      12.161      12.018    
  11.975      11.982      11.931      11.698      11.208      10.463      9.5491      8.5630      7.5675      6.6213    
  5.7704      5.0434      4.4522      3.9960      3.6670      3.4556      3.3535      3.3561      3.4632      3.6791    
  4.0121      4.4729      5.0714      5.8118      6.1752      7.1448      8.2186      9.3416      10.443      11.420    
  12.115      12.429      12.369      12.049      11.649      11.356      11.289      11.455      11.745      11.978    
  11.971      11.611      10.895      9.9335      8.8740      7.8019      6.7849      5.8748      5.1027      4.4802    
  4.0049      3.6672      3.4556      3.3610      3.3789      3.5103      3.7614      4.1430      4.6674      5.3445    
  5.6874      6.6133      7.6754      8.8253      9.9931      11.079      11.894      12.272      12.161      11.649    
  10.945      10.313      9.9883      10.088      10.570      11.243      11.839      12.109      11.910      11.243    
  10.245      9.1169      7.9756      6.8975      5.9391      5.1329      4.4896      4.0049      3.6670      3.4631    
  3.3835      3.4244      3.5883      3.8840      4.3242      4.9227      5.2345      6.0925      7.1140      8.2607    
  9.4683      10.647      11.606      12.108      12.018      11.356      10.313      9.2058      8.3833      8.1157    
  8.4960      9.4040      10.547      11.563      12.141      12.115      11.501      10.474      9.2833      8.0823    
  6.9549      5.9608      5.1329      4.4802      3.9960      3.6666      3.4781      3.4208      3.4920      3.6965    
  4.0454      4.5536      4.8272      5.5966      6.5499      7.6622      8.8797      10.121      11.232      11.928    
  11.975      11.289      9.9883      8.3833      6.9043      5.9770      5.8841      6.6642      8.0943      9.7665    
  11.225      12.107      12.241      11.670      10.614      9.3679      8.1183      6.9549      5.9391      5.1027    
  4.4522      3.9786      3.6661      3.5004      3.4723      3.5809      3.8334      4.2434      4.4744      5.1395    
  6.0003      7.0467      8.2402      9.5102      10.744      11.676      11.982      11.455      10.088      8.1157    
  5.9770      4.2119      3.3022      3.5133      4.7983      6.8120      9.0275      10.906      12.053      12.308    
  11.754      10.660      9.3679      8.0823      6.8975      5.8748      5.0434      4.4069      3.9533      3.6658    
  3.5297      3.5372      3.6895      3.9966      4.1828      4.7334      5.4829      6.4346      7.5679      8.8290    
  10.130      11.284      11.931      11.745      10.570      8.4960      5.8842      3.3023      1.3830     0.63417    
  1.2686      3.1279      5.7349      8.4527      10.681      12.016      12.328      11.754      10.614      9.2833    
  7.9756      6.7849      5.7704      4.9574      4.3458      3.9213      3.6658      3.5654      3.6140      3.8156    
  3.9560      4.3874      5.0137      5.8479      6.8865      8.0965      9.4086      10.707      11.698      11.978    
  11.243      9.4040      6.6642      3.5133     0.63417     -1.2765     -1.7230     -.57810      1.8707      5.0181    
  8.1386      10.600      12.016      12.308      11.670      10.474      9.1169      7.8019      6.6213      5.6298    
  4.8479      4.2712      3.8834      3.6661      3.6064      3.7007      3.7949      4.1069      4.6048      5.3071    
  6.2232      7.3411      8.6147      9.9598      11.208      11.971      11.839      10.547      8.0943      4.7983    
  1.2686     -1.7231     -3.4550     -3.4830     -1.7924      1.1958      4.7667      8.1386      10.681      12.053    
  12.241      11.501      10.245      8.8740      7.5675      6.4128      5.4584      4.7188      4.1858      3.8410    
  3.6666      3.6514      3.6990      3.8936      4.2638      4.8281      5.6041      6.5961      7.7824      9.1045    
  10.463      11.611      12.109      11.563      9.7665      6.8120      3.1279     -.57812     -3.4830     -4.8836    
 -4.4235     -2.2158      1.1958      5.0181      8.4527      10.906      12.107      12.115      11.243      9.9335    
  8.5630      7.2810      6.1674      5.2627      4.5750      4.0923      3.7952      3.6670      3.6671      3.7474    
  3.9939      4.4216      5.0501      5.8944      6.9531      8.1947      9.5491      10.895      11.910      12.141    
  11.225      9.0275      5.7349      1.8706     -1.7924     -4.4236     -5.3811     -4.4235     -1.7924      1.8707    
  5.7349      9.0275      11.225      12.141      11.910      10.895      9.5491      8.1947      6.9531      5.8944    
  5.0501      4.4216      3.9938      3.7474      3.6990      3.6670      3.7952      4.0923      4.5751      5.2628    
  6.1674      7.2810      8.5630      9.9335      11.243      12.115      12.107      10.906      8.4526      5.0181    
  1.1957     -2.2158     -4.4236     -4.8836     -3.4830     -.57810      3.1279      6.8120      9.7665      11.563    
  12.109      11.611      10.463      9.1045      7.7824      6.5961      5.6041      4.8281      4.2637      3.8936    
  3.7949      3.6514      3.6666      3.8410      4.1858      4.7189      5.4584      6.4128      7.5675      8.8740    
  10.245      11.501      12.241      12.053      10.681      8.1386      4.7667      1.1957     -1.7924     -3.4830    
 -3.4550     -1.7230      1.2686      4.7983      8.0943      10.547      11.839      11.971      11.208      9.9598    
  8.6147      7.3410      6.2232      5.3071      4.6048      4.1069      3.9560      3.7007      3.6064      3.6661    
  3.8835      4.2713      4.8479      5.6298      6.6213      7.8019      9.1168      10.474      11.670      12.308    
  12.016      10.600      8.1386      5.0181      1.8706     -.57812     -1.7231     -1.2765     0.63417      3.5133    
  6.6642      9.4040      11.243      11.978      11.698      10.707      9.4086      8.0965      6.8865      5.8479    
  5.0137      4.3874      4.1828      3.8156      3.6140      3.5654      3.6659      3.9213      4.3458      4.9574    
  5.7704      6.7849      7.9756      9.2833      10.613      11.754      12.328      12.016      10.681      8.4526    
  5.7349      3.1279      1.2686     0.63417      1.3830      3.3022      5.8841      8.4960      10.570      11.745    
  11.931      11.284      10.130      8.8290      7.5679      6.4346      5.4829      4.7334      4.4744      3.9966    
  3.6896      3.5372      3.5297      3.6659      3.9534      4.4069      5.0434      5.8748      6.8975      8.0823    
  9.3678      10.660      11.754      12.308      12.053      10.906      9.0275      6.8120      4.7983      3.5133    
  3.3023      4.2119      5.9770      8.1157      10.088      11.455      11.982      11.676      10.744      9.5102    
  8.2402      7.0467      6.0003      5.1395      4.8272      4.2434      3.8334      3.5810      3.4724      3.5004    
  3.6662      3.9786      4.4522      5.1027      5.9391      6.9548      8.1183      9.3678      10.613      11.670    
  12.241      12.107      11.225      9.7665      8.0943      6.6642      5.8842      5.9770      6.9043      8.3833    
  9.9883      11.289      11.975      11.928      11.232      10.121      8.8797      7.6622      6.5499      5.5966    
  5.2345      4.5536      4.0454      3.6965      3.4921      3.4208      3.4781      3.6666      3.9960      4.4802    
  5.1329      5.9608      6.9548      8.0823      9.2833      10.474      11.501      12.115      12.141      11.563    
  10.547      9.4040      8.4960      8.1157      8.3833      9.2058      10.313      11.356      12.018      12.108    
  11.606      10.646      9.4683      8.2607      7.1140      6.0925      5.6874      4.9227      4.3242      3.8840    
  3.5883      3.4244      3.3835      3.4631      3.6670      4.0049      4.4896      5.1329      5.9391      6.8975    
  7.9756      9.1168      10.245      11.243      11.910      12.109      11.839      11.243      10.570      10.088    
  9.9883      10.313      10.945      11.649      12.161      12.272      11.894      11.079      9.9931      8.8253    
  7.6754      6.6133      6.1752      5.3445      4.6674      4.1429      3.7614      3.5103      3.3789      3.3610    
  3.4556      3.6672      4.0049      4.4802      5.1027      5.8748      6.7849      7.8019      8.8740      9.9335    
  10.895      11.611      11.971      11.978      11.745      11.455      11.289      11.356      11.649      12.049    
  12.369      12.429      12.115      11.420      10.443      9.3416      8.2186      7.1448      6.6870      5.8118    
  5.0714      4.4729      4.0121      3.6791      3.4632      3.3561      3.3535      3.4556      3.6670      3.9960    
  4.4522      5.0434      5.7704      6.6213      7.5675      8.5630      9.5491      10.463      11.208      11.698    
  11.931      11.982      11.975      12.018      12.161      12.369      12.537      12.535      12.256      11.663    
  10.805      9.7954      8.7290      7.6734      7.2117      6.3169      5.5323      4.8732      4.3420      3.9332    
  3.6378      3.4475      3.3561      3.3610      3.4631      3.6666      3.9786      4.4069      4.9574      5.6298    
  6.4128      7.2810      8.1947      9.1045      9.9598      10.707      11.284      11.676      11.928      12.108    
  12.272      12.429      12.535      12.511      12.276      11.786      11.059      10.170      9.1910      8.1855    
  7.7367      6.8511      6.0455      5.3429      4.7531      4.2762      3.9068      3.6378      3.4632      3.3789    
  3.3835      3.4781      3.6662      3.9534      4.3458      4.8479      5.4584      6.1674      6.9531      7.7824    
  8.6147      9.4086      10.130      10.744      11.232      11.606      11.894      12.115      12.256      12.276    
  12.122      11.758      11.184      10.443      9.5857      8.6648      8.2456      7.4026      6.6041      5.8799    
  5.2473      4.7129      4.2762      3.9332      3.6791      3.5103      3.4244      3.4208      3.5004      3.6659    
  3.9213      4.2713      4.7189      5.2628      5.8944      6.5961      7.3411      8.0965      8.8290      9.5102    
  10.121      10.647      11.079      11.420      11.663      11.786      11.758      11.550      11.156      10.593    
  9.8907      9.0914      8.7173      7.9549      7.1970      6.4787      5.8243      5.2473      4.7531      4.3420    
  4.0121      3.7614      3.5883      3.4921      3.4724      3.5297      3.6659      3.8835      4.1858      4.5751    
  5.0501      5.6041      6.2232      6.8865      7.5679      8.2402      8.8797      9.4683      9.9931      10.443    
  10.805      11.059      11.184      11.156      10.962      10.599      10.082      9.4416      9.1260      8.4847    
  7.8062      7.1276      6.4787      5.8799      5.3429      4.8732      4.4729      4.1429      3.8840      3.6965    
  3.5810      3.5372      3.5654      3.6661      3.8410      4.0923      4.4216      4.8281      5.3071      5.8479    
  6.4346      7.0467      7.6622      8.2607      8.8253      9.3416      9.7954      10.170      10.443      10.593    
  10.599      10.448      10.140      9.6901      9.4441      8.9635      8.4058      7.8062      7.1970      6.6041    
  6.0455      5.5323      5.0714      4.6674      4.3242      4.0454      3.8334      3.6896      3.6140      3.6064    
  3.6666      3.7952      3.9939      4.2638      4.6048      5.0137      5.4829      6.0003      6.5499      7.1140    
  7.6754      8.2186      8.7290      9.1910      9.5857      9.8907      10.082      10.140      10.051      9.8148    
  9.6466      9.3603      8.9635      8.4847      7.9549      7.4026      6.8511      6.3169      5.8118      5.3445    
  4.9227      4.5536      4.2434      3.9966      3.8156      3.7007      3.6514      3.6670      3.7474      3.8936    
  4.1069      4.3874      4.7334      5.1395      5.5966      6.0925      6.6133      7.1448      7.6734      8.1855    
  8.6648      9.0914      9.4416      9.6901      9.8148      9.8013      9.6466      9.5366      9.3067      8.9746    
  8.5646      8.1033      7.6153      7.1204      6.6333      6.1645      5.7228      5.3167      4.9548      4.6449    
  4.3928      4.2020      4.0740      4.0084      4.0049      4.0632      4.1838      4.3675      4.6141      4.9214    
  5.2843      5.6943      6.1405      6.6106      7.0929      7.5759      8.0481      8.4953      8.8993      9.2382    
  9.4885      9.6293      9.5366      9.6466      9.6293      9.4885      9.2382      8.8993      8.4953      8.0481    
  7.5759      7.0929      6.6107      6.1405      5.6943      5.2843      4.9214      4.6141      4.3675      4.1838    
  4.0632      4.0049      4.0084      4.0740      4.2020      4.3928      4.6449      4.9548      5.3167      5.7228    
  6.1645      6.6333      7.1204      7.6153      8.1033      8.5646      8.9746      9.3067      9.2906      9.6128    
  9.8148      9.8857      9.8260      9.6469      9.3670      9.0072      8.5876      8.1249      7.6328      7.1242    
  6.6127      6.1136      5.6432      5.2160      4.8435      4.5331      4.2881      4.1094      3.9960      3.9471    
  3.9624      4.0420      4.1860      4.3937      4.6629      4.9898      5.3697      5.7974      6.2676      6.7736    
  7.3056      7.8481      8.3788      8.8698      8.9279      9.4399      9.8523      10.140      10.289      10.298    
  10.177      9.9427      9.6147      9.2112      8.7472      8.2356      7.6900      7.1261      6.5631      6.0213    
  5.5198      5.0737      4.6932      4.3833      4.1454      3.9786      3.8813      3.8526      3.8919      3.9991    
  4.1737      4.4146      4.7201      5.0884      5.5176      6.0049      6.5454      7.1292      7.7390      8.3493    
  8.4757      9.1441      9.7439      10.238      10.599      10.811      10.873      10.795      10.593      10.286    
  9.8906      9.4182      8.8802      8.2898      7.6650      7.0286      6.4063      5.8224      5.2965      4.8420    
  4.4659      4.1701      3.9533      3.8133      3.7479      3.7557      3.8361      3.9888      4.2140      4.5121    
  4.8839      5.3302      5.8508      6.4413      7.0907      7.7788      7.9638      8.7497      9.5039      10.181    
  10.742      11.156      11.411      11.505      11.452      11.273      10.984      10.594      10.111      9.5430    
  8.9031      8.2110      7.4944      6.7848      6.1128      5.5034      4.9738      4.5328      4.1826      3.9213    
  3.7453      3.6511      3.6363      3.7000      3.8421      4.0640      4.3683      4.7586      5.2380      5.8075    
  6.4625      7.1895      7.4203      8.2838      9.1545      9.9826      10.719      11.322      11.758      12.011    
  12.096      12.045      11.886      11.631      11.272      10.795      10.200      9.5080      8.7449      7.9434    
  7.1423      6.3797      5.6866      5.0837      4.5816      4.1826      3.8835      3.6791      3.5644      3.5362    
  3.5928      3.7352      3.9661      4.2902      4.7136      5.2414      5.8746      6.6069      6.8685      7.7723    
  8.7213      9.6643      10.545      11.311      11.899      12.276      12.455      12.487      12.427      12.309    
  12.128      11.846      11.419      10.823      10.083      9.2466      8.3582      7.4649      6.6125      5.8385    
  5.1672      4.6106      4.1701      3.8410      3.6165      3.4899      3.4570      3.5163      3.6694      3.9210    
  4.2782      4.7490      5.3394      6.0494      6.3262      7.2374      8.2291      9.2516      10.245      11.144    
  11.857      12.319      12.535      12.572      12.524      12.469      12.436      12.391      12.252      11.931    
  11.377      10.606      9.6974      8.7229      7.7395      6.8018      5.9531      5.2212      4.6185      4.1454    
  3.7953      3.5591      3.4291      3.4001      3.4712      3.6453      3.9292      4.3321      4.8635      5.5293    
  5.8065      6.6967      7.6991      8.7684      9.8433      10.851      11.673      12.199      12.408      12.369    
  12.213      12.083      12.075      12.198      12.370      12.450      12.296      11.828      11.055      10.080    
  9.0232      7.9554      6.9399      6.0259      5.2436      4.6051      4.1094      3.7474      3.5084      3.3832    
  3.3666      3.4585      3.6634      3.9905      4.4510      5.0551      5.3202      6.1644      7.1488      8.2349    
  9.3632      10.459      11.387      11.987      12.183      12.020      11.649      11.279      11.098      11.208    
  11.578      12.059      12.435      12.506      12.160      11.410      10.382      9.2481      8.1043      7.0217    
  6.0542      5.2335      4.5710      4.0632      3.6990      3.4657      3.3535      3.3574      3.4785      3.7238    
  4.1044      4.6334      4.8767      5.6536      6.5936      7.6677      8.8225      9.9838      11.024      11.731    
  11.958      11.688      11.057      10.313      9.7449      9.5794      9.9022      10.621      11.499      12.235    
  12.573      12.374      11.660      10.592      9.3899      8.1811      7.0444      6.0372      5.1917      4.5174    
  4.0084      3.6514      3.4323      3.3408      3.3729      3.5316      3.8261      4.2699      4.4847      5.1767    
  6.0481      7.0821      8.2353      9.4380      10.583      11.442      11.782      11.496      10.654      9.4974    
  8.3834      7.6745      7.6194      8.2630      9.4272      10.772      11.909      12.529      12.481      11.807    
  10.705      9.4446      8.1838      7.0078      5.9760      5.1199      4.4464      3.9471      3.6064      3.4093    
  3.3458      3.4134      3.6172      3.9692      4.1514      4.7454      5.5277      6.4940      7.6154      8.8323    
  10.055      11.089      11.635      11.476      10.572      9.0951      7.4091      5.9770      5.2229      5.3913    
  6.4592      8.1419      9.9892      11.531      12.417      12.500      11.853      10.720      9.4116      8.1132    
  6.9138      5.8733      5.0209      4.3608      3.8813      3.5654      3.3976      3.3688      3.4785      3.7346    
  3.8816      4.3694      5.0469      5.9214      6.9794      8.1774      9.4386      10.629      11.442      11.562    
  10.809      9.2301      7.1155      4.9532      3.3023      2.6242      3.1292      4.7009      6.9351      9.2744    
  11.181      12.283      12.453      11.807      10.638      9.2937      7.9729      6.7665      5.7332      4.8988    
  4.2636      3.8134      3.5297      3.3976      3.4094      3.5672      3.6776      4.0555      4.6187      5.3822    
  6.3476      7.4902      8.7507      10.033      11.112      11.613      11.227      9.8366      7.5881      4.8974    
  2.3686     0.63420     0.16160      1.0958      3.2082      5.9733      8.7403      10.926      12.161      12.355    
  11.676      10.464      9.0961      7.7685      6.5719      5.5612      4.7579      4.1581      3.7453      3.5004    
  3.4093      3.4668      3.5393      3.8072      4.2521      4.8930      5.7423      6.7939      8.0107      9.3178    
  10.584      11.480      11.605      10.683      8.6710      5.8261      2.6829     -.58163E-01 -1.7230     -1.8740    
 -.45748      2.1764      5.3920      8.4697      10.810      12.070      12.213      11.463      10.205      8.8264    
  7.5081      6.3373      5.3638      4.6032      4.0478      3.6791      3.4781      3.4323      3.4657      3.6252    
  3.9526      4.4663      5.1848      6.1165      7.2466      8.5247      9.8618      11.064      11.728      11.456    
  10.021      7.4680      4.1611     0.73797     -2.0358     -3.4830     -3.2295     -1.3315      1.7437      5.2729    
  8.5006      10.843      12.009      12.024      11.172      9.8695      8.4943      7.2011      6.0715      5.1480    
  4.4401      3.9362      3.6165      3.4631      3.4555      3.5084      3.7218      4.1097      4.6917      5.4850    
  6.4929      7.6907      9.0160      10.363      11.462      11.875      11.230      9.3596      6.4003      2.8129    
 -.68981     -3.3155     -4.4235     -3.7316     -1.4121      1.9671      5.6285      8.8186      11.001      11.955    
  11.779      10.803      9.4690      8.1113      6.8586      5.7840      4.9214      4.2739      3.8265      3.5591    
  3.5084      3.4555      3.5591      3.8265      4.2739      4.9214      5.7840      6.8586      8.1113      9.4690    
  10.803      11.779      11.955      11.001      8.8186      5.6285      1.9671     -1.4121     -3.7317     -4.4236    
 -3.3155     -.68981      2.8129      6.4003      9.3596      11.230      11.875      11.462      10.363      9.0160    
  7.6907      6.4929      5.4850      4.6917      4.1097      3.7218      3.6252      3.4657      3.4631      3.6165    
  3.9362      4.4401      5.1480      6.0714      7.2011      8.4942      9.8695      11.172      12.024      12.009    
  10.843      8.5006      5.2728      1.7436     -1.3315     -3.2295     -3.4830     -2.0359     0.73795      4.1611    
  7.4680      10.021      11.456      11.728      11.064      9.8618      8.5248      7.2466      6.1165      5.1848    
  4.4663      3.9526      3.8072      3.5393      3.4323      3.4781      3.6791      4.0478      4.6032      5.3638    
  6.3373      7.5080      8.8263      10.205      11.463      12.213      12.070      10.810      8.4697      5.3920    
  2.1764     -.45752     -1.8740     -1.7231     -.58214E-01  2.6829      5.8260      8.6710      10.683      11.605    
  11.480      10.584      9.3178      8.0107      6.7939      5.7423      4.8930      4.2521      4.0555      3.6776    
  3.4667      3.4093      3.5004      3.7453      4.1581      4.7579      5.5612      6.5718      7.7685      9.0960    
  10.464      11.676      12.355      12.161      10.926      8.7403      5.9733      3.2082      1.0958     0.16154    
 0.63414      2.3685      4.8974      7.5881      9.8366      11.227      11.613      11.112      10.033      8.7507    
  7.4901      6.3476      5.3822      4.6187      4.3694      3.8816      3.5672      3.4094      3.3976      3.5298    
  3.8134      4.2636      4.8988      5.7332      6.7665      7.9728      9.2937      10.638      11.807      12.453    
  12.283      11.181      9.2744      6.9351      4.7009      3.1292      2.6242      3.3022      4.9531      7.1154    
  9.2301      10.809      11.562      11.442      10.629      9.4386      8.1774      6.9794      5.9214      5.0469    
  4.7454      4.1514      3.7346      3.4785      3.3688      3.3976      3.5655      3.8814      4.3608      5.0209    
  5.8732      6.9138      8.1132      9.4116      10.720      11.853      12.500      12.417      11.531      9.9892    
  8.1419      6.4592      5.3912      5.2229      5.9769      7.4091      9.0951      10.572      11.476      11.635    
  11.089      10.055      8.8323      7.6154      6.4940      5.5276      5.1767      4.4847      3.9692      3.6172    
  3.4134      3.3459      3.4094      3.6065      3.9472      4.4465      5.1198      5.9760      7.0078      8.1838    
  9.4445      10.705      11.807      12.481      12.529      11.909      10.772      9.4272      8.2630      7.6193    
  7.6744      8.3833      9.4973      10.654      11.496      11.782      11.442      10.583      9.4380      8.2353    
  7.0820      6.0481      5.6536      4.8766      4.2699      3.8260      3.5316      3.3729      3.3408      3.4324    
  3.6515      4.0085      4.5174      5.1917      6.0372      7.0444      8.1811      9.3899      10.592      11.661    
  12.374      12.573      12.235      11.499      10.621      9.9022      9.5794      9.7449      10.313      11.057    
  11.688      11.958      11.731      11.024      9.9838      8.8225      7.6677      6.5936      6.1644      5.3202    
  4.6334      4.1044      3.7238      3.4786      3.3574      3.3535      3.4658      3.6990      4.0632      4.5710    
  5.2335      6.0542      7.0217      8.1043      9.2481      10.382      11.410      12.160      12.506      12.435    
  12.059      11.578      11.208      11.098      11.279      11.649      12.020      12.183      11.987      11.387    
  10.459      9.3632      8.2349      7.1488      6.6966      5.8065      5.0551      4.4510      3.9905      3.6634    
  3.4585      3.3667      3.3833      3.5085      3.7474      4.1094      4.6051      5.2436      6.0259      6.9399    
  7.9554      9.0233      10.080      11.055      11.828      12.296      12.450      12.370      12.198      12.075    
  12.083      12.213      12.369      12.408      12.199      11.673      10.851      9.8433      8.7684      7.6991    
  7.2374      6.3262      5.5293      4.8635      4.3320      3.9292      3.6453      3.4712      3.4001      3.4291    
  3.5592      3.7953      4.1454      4.6185      5.2212      5.9531      6.8018      7.7395      8.7230      9.6974    
  10.606      11.377      11.931      12.252      12.391      12.436      12.469      12.524      12.572      12.535    
  12.319      11.857      11.144      10.245      9.2516      8.2291      7.7723      6.8685      6.0494      5.3394    
  4.7490      4.2782      3.9210      3.6694      3.5163      3.4570      3.4899      3.6165      3.8410      4.1701    
  4.6106      5.1672      5.8385      6.6125      7.4649      8.3583      9.2467      10.083      10.823      11.419    
  11.846      12.128      12.309      12.427      12.487      12.455      12.276      11.899      11.311      10.545    
  9.6643      8.7213      8.2838      7.4203      6.6069      5.8746      5.2414      4.7136      4.2902      3.9661    
  3.7352      3.5928      3.5362      3.5644      3.6791      3.8834      4.1826      4.5816      5.0837      5.6866    
  6.3797      7.1424      7.9434      8.7449      9.5080      10.200      10.795      11.272      11.631      11.886    
  12.045      12.096      12.011      11.758      11.322      10.719      9.9826      9.1545      8.7497      7.9638    