unknown system                          
   1.00000000000000     
    -2.430801    2.430801    1.338809
     2.430801   -2.430801    1.338809
     2.430801    2.430801   -1.338809
   Si
     2
Direct
  0.750000  0.250000  0.500000
  0.500000  0.500000  0.000000
 
   36   36   36
 0.97162084908E+01 0.96466089901E+01 0.94440743886E+01 0.91260176989E+01 0.87173466643E+01
 0.82456429861E+01 0.77366934385E+01 0.72117293357E+01 0.66869888043E+01 0.61751521660E+01
 0.56873705408E+01 0.52345352147E+01 0.48271806958E+01 0.44744168130E+01 0.41828171828E+01
 0.39559759294E+01 0.37948960053E+01 0.36989641578E+01 0.36671438648E+01 0.36989633889E+01
 0.37948960102E+01 0.39559786943E+01 0.41828225587E+01 0.44744214412E+01 0.48271820602E+01
 0.52345360924E+01 0.56873755734E+01 0.61751607996E+01 0.66869956761E+01 0.72117310657E+01
 0.77366914318E+01 0.82456401771E+01 0.87173450718E+01 0.91260189920E+01 0.94440788380E+01
 0.96466133533E+01 0.96466133533E+01 0.98013442854E+01 0.98148248681E+01 0.96900920470E+01
 0.94415764229E+01 0.90914426722E+01 0.86648159998E+01 0.81854827428E+01 0.76734316608E+01
 0.71447529214E+01 0.66132767824E+01 0.60925244445E+01 0.55965885383E+01 0.51394572738E+01
 0.47333885359E+01 0.43874346092E+01 0.41068732816E+01 0.38936383802E+01 0.37474144124E+01
 0.36669865776E+01 0.36514320612E+01 0.37007270470E+01 0.38155781736E+01 0.39966221110E+01
 0.42434059674E+01 0.45535922057E+01 0.49227011808E+01 0.53445054053E+01 0.58118081214E+01
 0.63169181757E+01 0.68510675101E+01 0.74026198233E+01 0.79548550290E+01 0.84846946723E+01
 0.89635158609E+01 0.93603323656E+01 0.94440788380E+01 0.98148279044E+01 0.10051050329E+02
 0.10139997066E+02 0.10082338401E+02 0.98906854531E+01 0.95856827835E+01 0.91910084975E+01
 0.87290376831E+01 0.82186223028E+01 0.76754282172E+01 0.71139973676E+01 0.65498711849E+01
 0.60002679199E+01 0.54828897443E+01 0.50136695610E+01 0.46047756874E+01 0.42637450406E+01
 0.39938412661E+01 0.37952427878E+01 0.36665846851E+01 0.36064031009E+01 0.36140062374E+01
 0.36895391426E+01 0.38333931312E+01 0.40453971836E+01 0.43242433484E+01 0.46673888450E+01
 0.50713952922E+01 0.55323127680E+01 0.60454600370E+01 0.66040756404E+01 0.71969738641E+01
 0.78061660940E+01 0.84058118065E+01 0.89635158609E+01 0.91260189920E+01 0.96900943107E+01
 0.10139998205E+02 0.10447841638E+02 0.10598966071E+02 0.10593270673E+02 0.10443288241E+02
 0.10169628544E+02 0.97953856058E+01 0.93415829268E+01 0.88252872120E+01 0.82607206261E+01
 0.76621801154E+01 0.70466874615E+01 0.64346196193E+01 0.58479336090E+01 0.53070633975E+01
 0.48281307584E+01 0.44215643640E+01 0.40922852384E+01 0.38410190831E+01 0.36661281266E+01
 0.35653943984E+01 0.35372147519E+01 0.35809383483E+01 0.36965206796E+01 0.38839596540E+01
 0.41429528584E+01 0.44729206125E+01 0.48731958169E+01 0.53428915357E+01 0.58798894090E+01
 0.64786943927E+01 0.71275838402E+01 0.78061660940E+01 0.84846946723E+01 0.87173450718E+01
 0.94415762858E+01 0.10082338658E+02 0.10598965600E+02 0.10961755672E+02 0.11156207035E+02
 0.11183860094E+02 0.11059232158E+02 0.10804654196E+02 0.10443158842E+02 0.99930943804E+01
 0.94682587051E+01 0.88797130759E+01 0.82402367418E+01 0.75678710620E+01 0.68864983859E+01
 0.62232296770E+01 0.56040815948E+01 0.50500551019E+01 0.45750364577E+01 0.41857770615E+01
 0.38834329324E+01 0.36658338956E+01 0.35297214056E+01 0.34723316619E+01 0.34920485912E+01
 0.35883336128E+01 0.37614156520E+01 0.40121423651E+01 0.43420254488E+01 0.47531350638E+01
 0.52473085021E+01 0.58242677421E+01 0.64786943927E+01 0.71969738641E+01 0.79548550290E+01
 0.82456401771E+01 0.90914408769E+01 0.98906850709E+01 0.10593269942E+02 0.11156205636E+02
 0.11549980072E+02 0.11757908974E+02 0.11786333411E+02 0.11663192705E+02 0.11420450778E+02
 0.11079430906E+02 0.10646496388E+02 0.10121019087E+02 0.95102005575E+01 0.88289613483E+01
 0.80965049476E+01 0.73410411407E+01 0.65960682726E+01 0.58943893993E+01 0.52627392131E+01
 0.47188407436E+01 0.42712448082E+01 0.39212607968E+01 0.36658410641E+01 0.35003892612E+01
 0.34207885543E+01 0.34244026236E+01 0.35102941469E+01 0.36791423321E+01 0.39332045018E+01
 0.42762403722E+01 0.47129364170E+01 0.52473085021E+01 0.58798894090E+01 0.66040756404E+01
 0.74026198233E+01 0.77366914318E+01 0.86648134555E+01 0.95856822199E+01 0.10443288843E+02
 0.11183859332E+02 0.11757907291E+02 0.12122147446E+02 0.12275694357E+02 0.12255969491E+02
 0.12115272831E+02 0.11894471451E+02 0.11605611040E+02 0.11231770753E+02 0.10744435925E+02
 0.10129791669E+02 0.94085698085E+01 0.86146871698E+01 0.77824133944E+01 0.69530718128E+01
 0.61673793391E+01 0.54584211936E+01 0.48478639755E+01 0.43458120145E+01 0.39533371595E+01
 0.36661465734E+01 0.34780555121E+01 0.33835047529E+01 0.33789233269E+01 0.34632189296E+01
 0.36378591480E+01 0.39068248471E+01 0.42762403722E+01 0.47531350638E+01 0.53428915357E+01
 0.60454600370E+01 0.68510675101E+01 0.72117310657E+01 0.81854811892E+01 0.91910071882E+01
 0.10169630039E+02 0.11059234273E+02 0.11786333226E+02 0.12275693057E+02 0.12510523137E+02
 0.12534785684E+02 0.12428782978E+02 0.12272074200E+02 0.12108430343E+02 0.11928110756E+02
 0.11676160503E+02 0.11283605751E+02 0.10707296518E+02 0.99597877076E+01 0.91045238852E+01
 0.81947328358E+01 0.72809954740E+01 0.64127876572E+01 0.56297933474E+01 0.49574168350E+01
 0.44068806922E+01 0.39785696338E+01 0.36666091539E+01 0.34630686942E+01 0.33609873569E+01
 0.33560888655E+01 0.34474910347E+01 0.36378591480E+01 0.39332045018E+01 0.43420254488E+01
 0.48731958169E+01 0.55323127680E+01 0.63169181757E+01 0.66869956761E+01 0.76734340837E+01
 0.87290366923E+01 0.97953859639E+01 0.10804657895E+02 0.11663196365E+02 0.12255970471E+02
 0.12534785677E+02 0.12537200166E+02 0.12368833190E+02 0.12161011191E+02 0.12018081453E+02
 0.11974752449E+02 0.11982215190E+02 0.11930532426E+02 0.11698281967E+02 0.11207836084E+02
 0.10462587735E+02 0.95491380036E+01 0.85630207248E+01 0.75675220251E+01 0.66212740080E+01
 0.57703706864E+01 0.50434381207E+01 0.44522383574E+01 0.39960032824E+01 0.36670149916E+01
 0.34555610740E+01 0.33534619390E+01 0.33560888655E+01 0.34632189296E+01 0.36791423321E+01
 0.40121423651E+01 0.44729206125E+01 0.50713952922E+01 0.58118081214E+01 0.61751607996E+01
 0.71447598032E+01 0.82186246693E+01 0.93415826292E+01 0.10443161366E+02 0.11420456750E+02
 0.12115278105E+02 0.12428786070E+02 0.12368835638E+02 0.12048695909E+02 0.11649477867E+02
 0.11356228186E+02 0.11288814406E+02 0.11454715073E+02 0.11745193533E+02 0.11978343072E+02
 0.11971173677E+02 0.11610514225E+02 0.10894954837E+02 0.99335387256E+01 0.88740337877E+01
 0.78019391389E+01 0.67849053855E+01 0.58747995050E+01 0.51026845751E+01 0.44801778629E+01
 0.40049166205E+01 0.36671751568E+01 0.34555610740E+01 0.33609873569E+01 0.33789233269E+01
 0.35102941469E+01 0.37614156520E+01 0.41429528584E+01 0.46673888450E+01 0.53445054053E+01
 0.56873755734E+01 0.66132835396E+01 0.76754344605E+01 0.88252893395E+01 0.99930957085E+01
 0.11079436546E+02 0.11894479861E+02 0.12272081339E+02 0.12161017584E+02 0.11649483869E+02
 0.10945256606E+02 0.10313474393E+02 0.99882508233E+01 0.10088116040E+02 0.10569858210E+02
 0.11242737919E+02 0.11838745199E+02 0.12109386855E+02 0.11910155064E+02 0.11242895444E+02
 0.10245216367E+02 0.91168667938E+01 0.79756294113E+01 0.68975046123E+01 0.59390953556E+01
 0.51328906659E+01 0.44896152418E+01 0.40049166205E+01 0.36670149916E+01 0.34630686942E+01
 0.33835047529E+01 0.34244026236E+01 0.35883336128E+01 0.38839596540E+01 0.43242433484E+01
 0.49227011808E+01 0.52345360924E+01 0.60925262489E+01 0.71140034629E+01 0.82607264225E+01
 0.94682613699E+01 0.10646500992E+02 0.11605620812E+02 0.12108441115E+02 0.12018090620E+02
 0.11356238694E+02 0.10313484351E+02 0.92058368002E+01 0.83833348935E+01 0.81156837855E+01
 0.84960069654E+01 0.94039998021E+01 0.10547097894E+02 0.11563058593E+02 0.12140997325E+02
 0.12114933046E+02 0.11501130562E+02 0.10474090323E+02 0.92832899965E+01 0.80823488463E+01
 0.69548663576E+01 0.59608036673E+01 0.51328906659E+01 0.44801778629E+01 0.39960032824E+01
 0.36666091539E+01 0.34780555121E+01 0.34207885543E+01 0.34920485912E+01 0.36965206796E+01
 0.40453971836E+01 0.45535922057E+01 0.48271820602E+01 0.55965867362E+01 0.65498734255E+01
 0.76621872339E+01 0.88797187891E+01 0.10121023403E+02 0.11231780099E+02 0.11928124890E+02
 0.11974764872E+02 0.11288825281E+02 0.99882650833E+01 0.83833478221E+01 0.69042572102E+01
 0.59769793847E+01 0.58841422394E+01 0.66642221369E+01 0.80943325180E+01 0.97665466648E+01
 0.11225000187E+02 0.12107438900E+02 0.12241332082E+02 0.11670345327E+02 0.10613505600E+02
 0.93678522489E+01 0.81183392794E+01 0.69548663576E+01 0.59390953556E+01 0.51026845751E+01
 0.44522383574E+01 0.39785696338E+01 0.36661465734E+01 0.35003892612E+01 0.34723316619E+01
 0.35809383483E+01 0.38333931312E+01 0.42434059674E+01 0.44744214412E+01 0.51394581227E+01
 0.60002677285E+01 0.70466933246E+01 0.82402454010E+01 0.95102060192E+01 0.10744442600E+02
 0.11676174916E+02 0.11982232486E+02 0.11454727682E+02 0.10088127486E+02 0.81156996659E+01
 0.59769925604E+01 0.42118518702E+01 0.33022456827E+01 0.35132892355E+01 0.47982937955E+01
 0.68119888025E+01 0.90275397226E+01 0.10906358479E+02 0.12053301157E+02 0.12307714783E+02
 0.11753701765E+02 0.10660278050E+02 0.93678522489E+01 0.80823488463E+01 0.68975046123E+01
 0.58747995050E+01 0.50434381207E+01 0.44068806922E+01 0.39533371595E+01 0.36658410641E+01
 0.35297214056E+01 0.35372147519E+01 0.36895391426E+01 0.39966221110E+01 0.41828225587E+01
 0.47333955975E+01 0.54828921261E+01 0.64346239438E+01 0.75678813792E+01 0.88289702561E+01
 0.10129795967E+02 0.11283614575E+02 0.11930550448E+02 0.11745211360E+02 0.10569868973E+02
 0.84960169042E+01 0.58841557478E+01 0.33022550099E+01 0.13830407628E+01 0.63417163455E+00
 0.12686219628E+01 0.31279314913E+01 0.57349232588E+01 0.84526620839E+01 0.10680882043E+02
 0.12015727665E+02 0.12328104081E+02 0.11753701765E+02 0.10613505600E+02 0.92832899965E+01
 0.79756294113E+01 0.67849053855E+01 0.57703706864E+01 0.49574168350E+01 0.43458120145E+01
 0.39212607968E+01 0.36658338956E+01 0.35653943984E+01 0.36140062374E+01 0.38155781736E+01
 0.39559786943E+01 0.43874454340E+01 0.50136778934E+01 0.58479384040E+01 0.68865080936E+01
 0.80965180426E+01 0.94085763569E+01 0.10707298293E+02 0.11698291541E+02 0.11978361418E+02
 0.11242752715E+02 0.94040064462E+01 0.66642276419E+01 0.35132951829E+01 0.63417276000E+00
 -.12765358318E+01 -.17230480600E+01 -.57809693034E+00 0.18706598092E+01 0.50180812690E+01
 0.81386149212E+01 0.10599644840E+02 0.12015727665E+02 0.12307714783E+02 0.11670345327E+02
 0.10474090323E+02 0.91168667938E+01 0.78019391389E+01 0.66212740080E+01 0.56297933474E+01
 0.48478639755E+01 0.42712448082E+01 0.38834329324E+01 0.36661281266E+01 0.36064031009E+01
 0.37007270470E+01 0.37948960102E+01 0.41068826370E+01 0.46047890454E+01 0.53070716886E+01
 0.62232373074E+01 0.73410548551E+01 0.86146993110E+01 0.99597888851E+01 0.11207834144E+02
 0.11971181674E+02 0.11838759455E+02 0.10547105820E+02 0.80943326979E+01 0.47982914797E+01
 0.12686155687E+01 -.17230580731E+01 -.34549678398E+01 -.34829961315E+01 -.17923778671E+01
 0.11957767453E+01 0.47667170504E+01 0.81386149212E+01 0.10680882043E+02 0.12053301157E+02
 0.12241332082E+02 0.11501130562E+02 0.10245216367E+02 0.88740337877E+01 0.75675220251E+01
 0.64127876572E+01 0.54584211936E+01 0.47188407436E+01 0.41857770615E+01 0.38410190831E+01
 0.36665846851E+01 0.36514320612E+01 0.36989633889E+01 0.38936425042E+01 0.42637590305E+01
 0.48281451140E+01 0.56040900852E+01 0.65960782085E+01 0.77824272708E+01 0.91045301211E+01
 0.10462581463E+02 0.11610508241E+02 0.12109390767E+02 0.11563064171E+02 0.97665441914E+01
 0.68119802624E+01 0.31279186434E+01 -.57811775421E+00 -.34830170472E+01 -.48836085687E+01
 -.44235312308E+01 -.22157815607E+01 0.11957767453E+01 0.50180812690E+01 0.84526620839E+01
 0.10906358479E+02 0.12107438900E+02 0.12114933046E+02 0.11242895444E+02 0.99335387256E+01
 0.85630207248E+01 0.72809954740E+01 0.61673793391E+01 0.52627392131E+01 0.45750364577E+01
 0.40922852384E+01 0.37952427878E+01 0.36669865776E+01 0.36671438648E+01 0.37474133082E+01
 0.39938502615E+01 0.44215830768E+01 0.50500704577E+01 0.58943978981E+01 0.69530811131E+01
 0.81947410012E+01 0.95491342195E+01 0.10894941331E+02 0.11910145940E+02 0.12140994937E+02
 0.11224993344E+02 0.90275244792E+01 0.57349048387E+01 0.18706362600E+01 -.17924105593E+01
 -.44235589450E+01 -.53811449357E+01 -.44235312308E+01 -.17923778671E+01 0.18706598092E+01
 0.57349232588E+01 0.90275397226E+01 0.11225000187E+02 0.12140997325E+02 0.11910155064E+02
 0.10894954837E+02 0.95491380036E+01 0.81947328358E+01 0.69530718128E+01 0.58943893993E+01
 0.50500551019E+01 0.44215643640E+01 0.39938412661E+01 0.37474144124E+01 0.36989641578E+01
 0.36669844370E+01 0.37952452482E+01 0.40923023501E+01 0.45750599657E+01 0.52627540612E+01
 0.61673851324E+01 0.72809987682E+01 0.85630176138E+01 0.99335236589E+01 0.11242877331E+02
 0.12114922180E+02 0.12107428659E+02 0.10906337712E+02 0.84526344708E+01 0.50180545745E+01
 0.11957462872E+01 -.22158188797E+01 -.44235589450E+01 -.48836085687E+01 -.34829961315E+01
 -.57809693034E+00 0.31279314913E+01 0.68119888025E+01 0.97665466648E+01 0.11563058593E+02
 0.12109386855E+02 0.11610514225E+02 0.10462587735E+02 0.91045238852E+01 0.77824133944E+01
 0.65960682726E+01 0.56040815948E+01 0.48281307584E+01 0.42637450406E+01 0.38936383802E+01
 0.37948960053E+01 0.36514339894E+01 0.36665863846E+01 0.38410315233E+01 0.41858034486E+01
 0.47188658044E+01 0.54584316064E+01 0.64127864578E+01 0.75675144884E+01 0.88740167769E+01
 0.10245191883E+02 0.11501111074E+02 0.12241320362E+02 0.12053283083E+02 0.10680849872E+02
 0.81385794549E+01 0.47666870780E+01 0.11957462872E+01 -.17924105593E+01 -.34830170472E+01
 -.34549678398E+01 -.17230480600E+01 0.12686219628E+01 0.47982937955E+01 0.80943325180E+01
 0.10547097894E+02 0.11838745199E+02 0.11971173677E+02 0.11207836084E+02 0.99597877076E+01
 0.86146871698E+01 0.73410411407E+01 0.62232296770E+01 0.53070633975E+01 0.46047756874E+01
 0.41068732816E+01 0.39559759294E+01 0.37007335760E+01 0.36064115088E+01 0.36661399929E+01
 0.38834568454E+01 0.42712757545E+01 0.48478840814E+01 0.56297947837E+01 0.66212629654E+01
 0.78019190556E+01 0.91168369976E+01 0.10474059677E+02 0.11670326412E+02 0.12307702458E+02
 0.12015704512E+02 0.10599608199E+02 0.81385794549E+01 0.50180545745E+01 0.18706362600E+01
 -.57811775421E+00 -.17230580731E+01 -.12765358318E+01 0.63417163455E+00 0.35132892355E+01
 0.66642221369E+01 0.94039998021E+01 0.11242737919E+02 0.11978343072E+02 0.11698281967E+02
 0.10707296518E+02 0.94085698085E+01 0.80965049476E+01 0.68864983859E+01 0.58479336090E+01
 0.50136695610E+01 0.43874346092E+01 0.41828171828E+01 0.38155841525E+01 0.36140213013E+01
 0.35654116692E+01 0.36658562775E+01 0.39212914429E+01 0.43458395098E+01 0.49574261013E+01
 0.57703612183E+01 0.67848845790E+01 0.79755984496E+01 0.92832509219E+01 0.10613471772E+02
 0.11753683610E+02 0.12328091476E+02 0.12015704512E+02 0.10680849872E+02 0.84526344708E+01
 0.57349048387E+01 0.31279186434E+01 0.12686155687E+01 0.63417276000E+00 0.13830407628E+01
 0.33022456827E+01 0.58841422394E+01 0.84960069654E+01 0.10569858210E+02 0.11745193533E+02
 0.11930532426E+02 0.11283605751E+02 0.10129791669E+02 0.88289613483E+01 0.75678710620E+01
 0.64346196193E+01 0.54828897443E+01 0.47333885359E+01 0.44744168130E+01 0.39966231321E+01
 0.36895529062E+01 0.35372362501E+01 0.35297453775E+01 0.36658698414E+01 0.39533676710E+01
 0.44068988845E+01 0.50434350128E+01 0.58747807078E+01 0.68974765389E+01 0.80823107382E+01
 0.93678083732E+01 0.10660243268E+02 0.11753683610E+02 0.12307702458E+02 0.12053283083E+02
 0.10906337712E+02 0.90275244792E+01 0.68119802624E+01 0.47982914797E+01 0.35132951829E+01
 0.33022550099E+01 0.42118518702E+01 0.59769793847E+01 0.81156837855E+01 0.10088116040E+02
 0.11454715073E+02 0.11982215190E+02 0.11676160503E+02 0.10744435925E+02 0.95102005575E+01
 0.82402367418E+01 0.70466874615E+01 0.60002679199E+01 0.51394572738E+01 0.48271806958E+01
 0.42434027767E+01 0.38333983521E+01 0.35809555230E+01 0.34723550731E+01 0.35004161895E+01
 0.36661772777E+01 0.39785957075E+01 0.44522461784E+01 0.51026717296E+01 0.59390707807E+01
 0.69548345550E+01 0.81182986925E+01 0.93678083732E+01 0.10613471772E+02 0.11670326412E+02
 0.12241320362E+02 0.12107428659E+02 0.11224993344E+02 0.97665441914E+01 0.80943326979E+01
 0.66642276419E+01 0.58841557478E+01 0.59769925604E+01 0.69042572102E+01 0.83833348935E+01
 0.99882508233E+01 0.11288814406E+02 0.11974752449E+02 0.11928110756E+02 0.11231770753E+02
 0.10121019087E+02 0.88797130759E+01 0.76621801154E+01 0.65498711849E+01 0.55965885383E+01
 0.52345352147E+01 0.45535871978E+01 0.40453929791E+01 0.36965263394E+01 0.34920646637E+01
 0.34208108694E+01 0.34780833003E+01 0.36666396034E+01 0.39960243308E+01 0.44801781678E+01
 0.51328727058E+01 0.59607771982E+01 0.69548345550E+01 0.80823107382E+01 0.92832509219E+01
 0.10474059677E+02 0.11501111074E+02 0.12114922180E+02 0.12140994937E+02 0.11563064171E+02
 0.10547105820E+02 0.94040064462E+01 0.84960169042E+01 0.81156996659E+01 0.83833478221E+01
 0.92058368002E+01 0.10313474393E+02 0.11356228186E+02 0.12018081453E+02 0.12108430343E+02
 0.11605611040E+02 0.10646496388E+02 0.94682587051E+01 0.82607206261E+01 0.71139973676E+01
 0.60925244445E+01 0.56873705408E+01 0.49226940918E+01 0.43242327936E+01 0.38839529911E+01
 0.35883374565E+01 0.34244160267E+01 0.33835256573E+01 0.34630969490E+01 0.36670448522E+01
 0.40049346107E+01 0.44896128622E+01 0.51328727058E+01 0.59390707807E+01 0.68974765389E+01
 0.79755984496E+01 0.91168369976E+01 0.10245191883E+02 0.11242877331E+02 0.11910145940E+02
 0.12109390767E+02 0.11838759455E+02 0.11242752715E+02 0.10569868973E+02 0.10088127486E+02
 0.99882650833E+01 0.10313484351E+02 0.10945256606E+02 0.11649477867E+02 0.12161011191E+02
 0.12272074200E+02 0.11894471451E+02 0.11079430906E+02 0.99930943804E+01 0.88252872120E+01
 0.76754282172E+01 0.66132767824E+01 0.61751521660E+01 0.53444952986E+01 0.46673747829E+01
 0.41429374164E+01 0.37614069289E+01 0.35102962603E+01 0.33789348905E+01 0.33610076937E+01
 0.34555897344E+01 0.36672047808E+01 0.40049346107E+01 0.44801781678E+01 0.51026717296E+01
 0.58747807078E+01 0.67848845790E+01 0.78019190556E+01 0.88740167769E+01 0.99335236589E+01
 0.10894941331E+02 0.11610508241E+02 0.11971181674E+02 0.11978361418E+02 0.11745211360E+02
 0.11454727682E+02 0.11288825281E+02 0.11356238694E+02 0.11649483869E+02 0.12048695909E+02
 0.12368833190E+02 0.12428782978E+02 0.12115272831E+02 0.11420450778E+02 0.10443158842E+02
 0.93415829268E+01 0.82186223028E+01 0.71447529214E+01 0.66869888043E+01 0.58117979592E+01
 0.50713808229E+01 0.44729015091E+01 0.40121242801E+01 0.36791328159E+01 0.34632203245E+01
 0.33560997597E+01 0.33534822079E+01 0.34555897344E+01 0.36670448522E+01 0.39960243308E+01
 0.44522461784E+01 0.50434350128E+01 0.57703612183E+01 0.66212629654E+01 0.75675144884E+01
 0.85630176138E+01 0.95491342195E+01 0.10462581463E+02 0.11207834144E+02 0.11698291541E+02
 0.11930550448E+02 0.11982232486E+02 0.11974764872E+02 0.12018090620E+02 0.12161017584E+02
 0.12368835638E+02 0.12537200166E+02 0.12534785684E+02 0.12255969491E+02 0.11663192705E+02
 0.10804654196E+02 0.97953856058E+01 0.87290376831E+01 0.76734316608E+01 0.72117293357E+01
 0.63169123339E+01 0.55323022460E+01 0.48731788670E+01 0.43420038753E+01 0.39331856342E+01
 0.36378496169E+01 0.34474923120E+01 0.33560997597E+01 0.33610076937E+01 0.34630969490E+01
 0.36666396034E+01 0.39785957075E+01 0.44068988845E+01 0.49574261013E+01 0.56297947837E+01
 0.64127864578E+01 0.72809987682E+01 0.81947410012E+01 0.91045301211E+01 0.99597888851E+01
 0.10707298293E+02 0.11283614575E+02 0.11676174916E+02 0.11928124890E+02 0.12108441115E+02
 0.12272081339E+02 0.12428786070E+02 0.12534785677E+02 0.12510523137E+02 0.12275694357E+02
 0.11786333411E+02 0.11059232158E+02 0.10169628544E+02 0.91910084975E+01 0.81854827428E+01
 0.77366934385E+01 0.68510667703E+01 0.60454556374E+01 0.53428814150E+01 0.47531171678E+01
 0.42762180047E+01 0.39068058969E+01 0.36378496169E+01 0.34632203245E+01 0.33789348905E+01
 0.33835256573E+01 0.34780833003E+01 0.36661772777E+01 0.39533676710E+01 0.43458395098E+01
 0.48478840814E+01 0.54584316064E+01 0.61673851324E+01 0.69530811131E+01 0.77824272708E+01
 0.86146993110E+01 0.94085763569E+01 0.10129795967E+02 0.10744442600E+02 0.11231780099E+02
 0.11605620812E+02 0.11894479861E+02 0.12115278105E+02 0.12255970471E+02 0.12275693057E+02
 0.12122147446E+02 0.11757908974E+02 0.11183860094E+02 0.10443288241E+02 0.95856827835E+01
 0.86648159998E+01 0.82456429861E+01 0.74026216013E+01 0.66040753909E+01 0.58798859900E+01
 0.52472987558E+01 0.47129183195E+01 0.42762180047E+01 0.39331856342E+01 0.36791328159E+01
 0.35102962603E+01 0.34244160267E+01 0.34208108694E+01 0.35004161895E+01 0.36658698414E+01
 0.39212914429E+01 0.42712757545E+01 0.47188658044E+01 0.52627540612E+01 0.58943978981E+01
 0.65960782085E+01 0.73410548551E+01 0.80965180426E+01 0.88289702561E+01 0.95102060192E+01
 0.10121023403E+02 0.10646500992E+02 0.11079436546E+02 0.11420456750E+02 0.11663196365E+02
 0.11786333226E+02 0.11757907291E+02 0.11549980072E+02 0.11156207035E+02 0.10593270673E+02
 0.98906854531E+01 0.90914426722E+01 0.87173466643E+01 0.79548569693E+01 0.71969748035E+01
 0.64786941362E+01 0.58242646195E+01 0.52472987558E+01 0.47531171678E+01 0.43420038753E+01
 0.40121242801E+01 0.37614069289E+01 0.35883374565E+01 0.34920646637E+01 0.34723550731E+01
 0.35297453775E+01 0.36658562775E+01 0.38834568454E+01 0.41858034486E+01 0.45750599657E+01
 0.50500704577E+01 0.56040900852E+01 0.62232373074E+01 0.68865080936E+01 0.75678813792E+01
 0.82402454010E+01 0.88797187891E+01 0.94682613699E+01 0.99930957085E+01 0.10443161366E+02
 0.10804657895E+02 0.11059234273E+02 0.11183859332E+02 0.11156205636E+02 0.10961755672E+02
 0.10598966071E+02 0.10082338401E+02 0.94415764229E+01 0.91260176989E+01 0.84846951329E+01
 0.78061669689E+01 0.71275842915E+01 0.64786941362E+01 0.58798859900E+01 0.53428814150E+01
 0.48731788670E+01 0.44729015091E+01 0.41429374164E+01 0.38839529911E+01 0.36965263394E+01
 0.35809555230E+01 0.35372362501E+01 0.35654116692E+01 0.36661399929E+01 0.38410315233E+01
 0.40923023501E+01 0.44215830768E+01 0.48281451140E+01 0.53070716886E+01 0.58479384040E+01
 0.64346239438E+01 0.70466933246E+01 0.76621872339E+01 0.82607264225E+01 0.88252893395E+01
 0.93415826292E+01 0.97953859639E+01 0.10169630039E+02 0.10443288843E+02 0.10593269942E+02
 0.10598965600E+02 0.10447841638E+02 0.10139997066E+02 0.96900920470E+01 0.94440743886E+01
 0.89635131855E+01 0.84058116310E+01 0.78061669689E+01 0.71969748035E+01 0.66040753909E+01
 0.60454556374E+01 0.55323022460E+01 0.50713808229E+01 0.46673747829E+01 0.43242327936E+01
 0.40453929791E+01 0.38333983521E+01 0.36895529062E+01 0.36140213013E+01 0.36064115088E+01
 0.36665863846E+01 0.37952452482E+01 0.39938502615E+01 0.42637590305E+01 0.46047890454E+01
 0.50136778934E+01 0.54828921261E+01 0.60002677285E+01 0.65498734255E+01 0.71140034629E+01
 0.76754344605E+01 0.82186246693E+01 0.87290366923E+01 0.91910071882E+01 0.95856822199E+01
 0.98906850709E+01 0.10082338658E+02 0.10139998205E+02 0.10051050329E+02 0.98148248681E+01
 0.96466089901E+01 0.93603269480E+01 0.89635131855E+01 0.84846951329E+01 0.79548569693E+01
 0.74026216013E+01 0.68510667703E+01 0.63169123339E+01 0.58117979592E+01 0.53444952986E+01
 0.49226940918E+01 0.45535871978E+01 0.42434027767E+01 0.39966231321E+01 0.38155841525E+01
 0.37007335760E+01 0.36514339894E+01 0.36669844370E+01 0.37474133082E+01 0.38936425042E+01
 0.41068826370E+01 0.43874454340E+01 0.47333955975E+01 0.51394581227E+01 0.55965867362E+01
 0.60925262489E+01 0.66132835396E+01 0.71447598032E+01 0.76734340837E+01 0.81854811892E+01
 0.86648134555E+01 0.90914408769E+01 0.94415762858E+01 0.96900943107E+01 0.98148279044E+01
 0.98013442854E+01 0.96466136845E+01 0.95365705362E+01 0.93066958017E+01 0.89745879802E+01
 0.85645843300E+01 0.81032843905E+01 0.76152887979E+01 0.71204481174E+01 0.66333123836E+01
 0.61644916514E+01 0.57227807942E+01 0.53167140061E+01 0.49548300812E+01 0.46448773297E+01
 0.43927723917E+01 0.42020366868E+01 0.40739743517E+01 0.40084453661E+01 0.40048915655E+01
 0.40631706493E+01 0.41838020526E+01 0.43674893494E+01 0.46140860043E+01 0.49214037189E+01
 0.52842818928E+01 0.56943108810E+01 0.61404883203E+01 0.66106451188E+01 0.70928694273E+01
 0.75759097958E+01 0.80480830534E+01 0.84952613037E+01 0.88992988138E+01 0.92382008147E+01
 0.94885080874E+01 0.96293141379E+01 0.95365739318E+01 0.96466131894E+01 0.96293102246E+01
 0.94885043790E+01 0.92381998104E+01 0.88992998623E+01 0.84952623510E+01 0.80480831102E+01
 0.75759094022E+01 0.70928703096E+01 0.66106503503E+01 0.61405009453E+01 0.56943298344E+01
 0.52842996226E+01 0.49214107576E+01 0.46140808083E+01 0.43674812006E+01 0.41838010595E+01
 0.40631768070E+01 0.40048971909E+01 0.40084468421E+01 0.40739756402E+01 0.42020407704E+01
 0.43927743483E+01 0.46448704132E+01 0.49548156093E+01 0.53167001132E+01 0.57227730553E+01
 0.61644892710E+01 0.66333121816E+01 0.71204483423E+01 0.76152886232E+01 0.81032831176E+01
 0.85645829515E+01 0.89745889809E+01 0.93066996341E+01 0.92905697864E+01 0.96127648172E+01
 0.98148276690E+01 0.98856677951E+01 0.98259628487E+01 0.96469377713E+01 0.93669800249E+01
 0.90072177845E+01 0.85876090026E+01 0.81248872943E+01 0.76328361466E+01 0.71241910957E+01
 0.66126593266E+01 0.61136382637E+01 0.56431943988E+01 0.52160138359E+01 0.48435345016E+01
 0.45330832022E+01 0.42881351293E+01 0.41093571068E+01 0.39959890369E+01 0.39471163838E+01
 0.39623882388E+01 0.40419908385E+01 0.41860323347E+01 0.43937407644E+01 0.46629002191E+01
 0.49897916852E+01 0.53696659344E+01 0.57973906172E+01 0.62675837725E+01 0.67736287930E+01
 0.73056103390E+01 0.78480502412E+01 0.83787531791E+01 0.88697635988E+01 0.89279242364E+01
 0.94398517059E+01 0.98522854573E+01 0.10139998694E+02 0.10289066494E+02 0.10298161002E+02
 0.10177035361E+02 0.99427082181E+01 0.96147082951E+01 0.92111629408E+01 0.87471528337E+01
 0.82356442386E+01 0.76899786644E+01 0.71261114027E+01 0.65630633273E+01 0.60212640605E+01
 0.55197544519E+01 0.50737030219E+01 0.46931767716E+01 0.43832962199E+01 0.41453814684E+01
 0.39785611218E+01 0.38813392884E+01 0.38526163133E+01 0.38919342685E+01 0.39991122140E+01
 0.41736883166E+01 0.44145780723E+01 0.47201278462E+01 0.50884486647E+01 0.55175862831E+01
 0.60049225341E+01 0.65454496532E+01 0.71292183655E+01 0.77389744301E+01 0.83492686565E+01
 0.84756915448E+01 0.91441292796E+01 0.97439454336E+01 0.10238220820E+02 0.10598968846E+02
 0.10810995411E+02 0.10872840762E+02 0.10794536565E+02 0.10592930610E+02 0.10286329614E+02
 0.98905948894E+01 0.94181887580E+01 0.88801951266E+01 0.82897944230E+01 0.76649511214E+01
 0.70286249637E+01 0.64063350873E+01 0.58223758452E+01 0.52964639708E+01 0.48419605806E+01
 0.44658525737E+01 0.41700500960E+01 0.39533386959E+01 0.38133404245E+01 0.37479093509E+01
 0.37556995629E+01 0.38360837784E+01 0.39888488088E+01 0.42140483244E+01 0.45120963068E+01
 0.48838572137E+01 0.53302369650E+01 0.58507958832E+01 0.64412885866E+01 0.70906787582E+01
 0.77787649606E+01 0.79637742826E+01 0.87496926559E+01 0.95039209129E+01 0.10181260731E+02
 0.10741631936E+02 0.11156213218E+02 0.11410969858E+02 0.11505318835E+02 0.11452385366E+02
 0.11272853800E+02 0.10983692023E+02 0.10594115497E+02 0.10110777213E+02 0.95429813604E+01
 0.89030833637E+01 0.82110446306E+01 0.74944099073E+01 0.67847957158E+01 0.61127889867E+01
 0.55034474608E+01 0.49738261569E+01 0.45327886909E+01 0.41825795323E+01 0.39212756993E+01
 0.37452626055E+01 0.36510758864E+01 0.36363334831E+01 0.36999510178E+01 0.38420656683E+01
 0.40640125348E+01 0.43683458168E+01 0.47585541974E+01 0.52379611399E+01 0.58074977256E+01
 0.64625271528E+01 0.71895095233E+01 0.74202938362E+01 0.82837612678E+01 0.91544921362E+01
 0.99826347482E+01 0.10718716832E+02 0.11321513960E+02 0.11757917723E+02 0.12011065651E+02
 0.12096008454E+02 0.12044841028E+02 0.11886226621E+02 0.11631141493E+02 0.11271845058E+02
 0.10794608633E+02 0.10199511049E+02 0.95079854804E+01 0.87448716330E+01 0.79433502262E+01
 0.71423384786E+01 0.63797347180E+01 0.56865504838E+01 0.50836789193E+01 0.45816355889E+01
 0.41825837745E+01 0.38834571955E+01 0.36790677399E+01 0.35644495606E+01 0.35361747054E+01
 0.35928459728E+01 0.37351904322E+01 0.39660574729E+01 0.42902326426E+01 0.47136268502E+01
 0.52413626700E+01 0.58746495629E+01 0.66069225395E+01 0.68685499814E+01 0.77723221880E+01
 0.87213194338E+01 0.96643437816E+01 0.10545335160E+02 0.11310717074E+02 0.11899394898E+02
 0.12275702903E+02 0.12454953260E+02 0.12487006932E+02 0.12427462032E+02 0.12309321590E+02
 0.12127875899E+02 0.11846162825E+02 0.11418852156E+02 0.10823326380E+02 0.10082529399E+02
 0.92466145049E+01 0.83582475453E+01 0.74648774790E+01 0.66125242793E+01 0.58384501512E+01
 0.51672239438E+01 0.46105714954E+01 0.41700580550E+01 0.38410427796E+01 0.36165064151E+01
 0.34899317791E+01 0.34569885564E+01 0.35162519548E+01 0.36693776703E+01 0.39210048192E+01
 0.42782061181E+01 0.47489783030E+01 0.53393687290E+01 0.60493930079E+01 0.63262302224E+01
 0.72374215972E+01 0.82291178130E+01 0.92516373655E+01 0.10244981278E+02 0.11144051294E+02
 0.11856865844E+02 0.12318530531E+02 0.12534791854E+02 0.12571833754E+02 0.12523532675E+02
 0.12468781983E+02 0.12436032636E+02 0.12390662571E+02 0.12251645145E+02 0.11930704453E+02
 0.11376699881E+02 0.10605699452E+02 0.96973800013E+01 0.87229121762E+01 0.77395089320E+01
 0.68017530458E+01 0.59530582078E+01 0.52212007874E+01 0.46185044704E+01 0.41453847241E+01
 0.37952583958E+01 0.35591457021E+01 0.34290821108E+01 0.34001247254E+01 0.34712138233E+01
 0.36453311405E+01 0.39291725829E+01 0.43320575321E+01 0.48635122770E+01 0.55292799040E+01
 0.58065485524E+01 0.66966570076E+01 0.76991219196E+01 0.87684340196E+01 0.98433432528E+01
 0.10851250153E+02 0.11672539139E+02 0.12198937616E+02 0.12408109636E+02 0.12368838250E+02