    2    2   15    1
  0.1582149E+02  0.3689173E-09  0.3689173E-09  0.3689173E-09  0.5000000E-15
  1.000000000000000E-004
  CAR 
 unknown system                          
      8     56      8
 
  0.6250000E-01  0.6250000E-01  0.6250000E-01  0.1562500E-01
    1       -4.229620   1.000000
    2        4.418980   1.000000
    3        6.684314   1.000000
    4        8.204973   0.999444
    5       11.840203   0.000000
    6       13.694509   0.000000
    7       14.261443   0.000000
    8       16.126824   0.000000
 
  0.1875000E+00  0.6250000E-01  0.6250000E-01  0.3125000E-01
    1       -3.013649   1.000000
    2        4.173810   1.000000
    3        6.982988   1.000000
    4        9.145286   0.000352
    5       10.799839   0.000000
    6       10.905611   0.000000
    7       13.666789   0.000000
    8       14.419513   0.000000
 
  0.3125000E+00  0.6250000E-01  0.6250000E-01  0.3125000E-01
    1       -1.017304   1.000000
    2        4.469078   1.000000
    3        5.547751   1.000000
    4        7.253090   1.000000
    5        8.601374   0.676418
    6       11.729474   0.000000
    7       13.173531   0.000000
    8       13.568207   0.000000
 
  0.4375000E+00  0.6250000E-01  0.6250000E-01  0.1562500E-01
    1        1.314392   1.000000
    2        2.232714   1.000000
    3        5.769476   1.000000
    4        6.162245   1.000000
    5        8.484219   0.900798
    6       10.566942   0.000000
    7       13.084752   0.000000
    8       14.029525   0.000000
 
 -0.6250000E-01  0.6250000E-01  0.6250000E-01  0.7812500E-02
    1       -4.637344   1.000000
    2        5.023942   1.000000
    3        5.879386   1.000000
    4        7.873248   1.000000
    5       10.973717   0.000000
    6       14.846087   0.000000
    7       17.316181   0.000000
    8       17.413863   0.000000
 
  0.1875000E+00  0.1875000E+00  0.6250000E-01  0.1562500E-01
    1       -1.200149   1.000000
    2        4.460141   1.000000
    3        6.428900   1.000000
    4        6.623508   1.000000
    5        9.571203   0.000000
    6       11.560548   0.000000
    7       12.862391   0.000000
    8       13.054470   0.000000
 
  0.3125000E+00  0.1875000E+00  0.6250000E-01  0.3125000E-01
    1        1.261606   1.000000
    2        2.960282   1.000000
    3        4.306362   1.000000
    4        5.781733   1.000000
    5        9.826149   0.000000
    6       11.562206   0.000000
    7       12.584391   0.000000
    8       14.620901   0.000000
 
  0.4375000E+00  0.1875000E+00  0.6250000E-01  0.3125000E-01
    1       -0.103435   1.000000
    2        2.728895   1.000000
    3        4.907588   1.000000
    4        7.256112   1.000000
    5        9.072513   0.002028
    6       11.730611   0.000000
    7       13.649222   0.000000
    8       14.528964   0.000000
 
 -0.4375000E+00  0.1875000E+00  0.6250000E-01  0.3125000E-01
    1       -2.265882   1.000000
    2        2.109868   1.000000
    3        7.526811   1.000000
    4        8.805325   0.162448
    5       10.331967   0.000000
    6       11.454834   0.000000
    7       12.664812   0.000000
    8       15.003106   0.000000
 
 -0.3125000E+00  0.1875000E+00  0.6250000E-01  0.1562500E-01
    1       -3.663795   1.000000
    2        2.199077   1.000000
    3        7.190963   1.000000
    4        9.129115   0.000530
    5       12.119915   0.000000
    6       13.632211   0.000000
    7       14.184427   0.000000
    8       14.806054   0.000000
 
 -0.1875000E+00  0.1875000E+00  0.6250000E-01  0.1562500E-01
    1       -4.259074   1.000000
    2        3.011401   1.000000
    3        5.995634   1.000000
    4        9.108906   0.000871
    5       12.774402   0.000000
    6       12.937067   0.000000
    7       15.853536   0.000000
    8       17.200693   0.000000
 
 -0.6250000E-01  0.1875000E+00  0.6250000E-01  0.1562500E-01
    1       -4.040962   1.000000
    2        4.136422   1.000000
    3        5.363294   1.000000
    4        9.689254   0.000000
    5       12.564459   0.000000
    6       12.684177   0.000000
    7       13.725017   0.000000
    8       15.700341   0.000000
 
  0.3125000E+00  0.3125000E+00  0.6250000E-01  0.1562500E-01
    1        1.123937   1.000000
    2        1.191241   1.000000
    3        4.715416   1.000000
    4        7.198683   1.000000
    5        9.812021   0.000000
    6       10.637326   0.000000
    7       14.674552   0.000000
    8       15.524912   0.000000
 
  0.4375000E+00  0.3125000E+00  0.6250000E-01  0.3125000E-01
    1       -1.152540   1.000000
    2        0.314089   1.000000
    3        8.052346   0.999993
    4        8.662696   0.509610
    5        9.983633   0.000000
    6       11.374506   0.000000
    7       12.471910   0.000000
    8       13.862736   0.000000
 
 -0.4375000E+00  0.3125000E+00  0.6250000E-01  0.1562500E-01
    1       -2.725683   1.000000
    2        0.227514   1.000000
    3        8.026850   0.999997
    4       10.093703   0.000000
    5       10.611553   0.000000
    6       12.696339   0.000000
    7       13.735929   0.000000
    8       13.825874   0.000000
 
 -0.3125000E+00  0.3125000E+00  0.6250000E-01  0.1562500E-01
    1       -3.505458   1.000000
    2        0.913723   1.000000
    3        6.679370   1.000000
    4       10.047476   0.000000
    5       10.801943   0.000000
    6       14.134400   0.000000
    7       15.837133   0.000000
    8       16.894003   0.000000
 
 -0.1875000E+00  0.3125000E+00  0.6250000E-01  0.3125000E-01
    1       -3.476493   1.000000
    2        2.323163   1.000000
    3        5.483003   1.000000
    4       10.643499   0.000000
    5       11.038016   0.000000
    6       12.944202   0.000000
    7       14.717502   0.000000
    8       15.618250   0.000000
 
 -0.6250000E-01  0.3125000E+00  0.6250000E-01  0.1562500E-01
    1       -2.640114   1.000000
    2        3.998332   1.000000
    3        5.370278   1.000000
    4        8.447843   0.938625
    5       11.077188   0.000000
    6       12.621053   0.000000
    7       13.280639   0.000000
    8       13.650850   0.000000
 
  0.4375000E+00  0.4375000E+00  0.6250000E-01  0.7812500E-02
    1       -1.423694   1.000000
    2       -1.423694   1.000000
    3        9.170944   0.000179
    4        9.170945   0.000179
    5       11.344113   0.000000
    6       11.344114   0.000000
    7       13.540916   0.000000
    8       13.540918   0.000000
 
 -0.4375000E+00  0.4375000E+00  0.6250000E-01  0.1562500E-01
    1       -2.382842   1.000000
    2       -0.902572   1.000000
    3        7.722190   1.000000
    4        9.103452   0.000992
    5       11.159158   0.000000
    6       12.531202   0.000000
    7       16.599582   0.000000
    8       16.697582   0.000000
 
 -0.3125000E+00  0.4375000E+00  0.6250000E-01  0.3125000E-01
    1       -2.541093   1.000000
    2        0.394739   1.000000
    3        6.315901   1.000000
    4        9.045001   0.003690
    5       11.394089   0.000000
    6       12.867464   0.000000
    7       14.805802   0.000000
    8       15.328582   0.000000
 
 -0.1875000E+00  0.4375000E+00  0.6250000E-01  0.3125000E-01
    1       -1.896632   1.000000
    2        2.393666   1.000000
    3        5.575577   1.000000
    4        7.809307   1.000000
    5        9.668360   0.000000
    6       12.480993   0.000000
    7       13.974626   0.000000
    8       15.313022   0.000000
 
 -0.6250000E-01  0.4375000E+00  0.6250000E-01  0.1562500E-01
    1       -0.471745   1.000000
    2        4.044536   1.000000
    3        5.197524   1.000000
    4        5.986915   1.000000
    5        9.132420   0.000488
    6       11.547990   0.000000
    7       11.859805   0.000000
    8       15.145380   0.000000
 
 -0.4375000E+00 -0.4375000E+00  0.6250000E-01  0.1562500E-01
    1       -1.247649   1.000000
    2       -1.241008   1.000000
    3        7.513684   1.000000
    4        7.527699   1.000000
    5       11.485238   0.000000
    6       13.374389   0.000000
    7       14.213235   0.000000
    8       14.814713   0.000000
 
 -0.3125000E+00 -0.4375000E+00  0.6250000E-01  0.3125000E-01
    1       -0.791734   1.000000
    2        0.656790   1.000000
    3        6.472867   1.000000
    4        7.388679   1.000000
    5        8.250924   0.998336
    6       12.133483   0.000000
    7       15.068389   0.000000
    8       16.371661   0.000000
 
 -0.1875000E+00 -0.4375000E+00  0.6250000E-01  0.3125000E-01
    1        0.424965   1.000000
    2        3.041329   1.000000
    3        4.209172   1.000000
    4        6.419249   1.000000
    5        8.645227   0.558677
    6       10.578410   0.000000
    7       13.081440   0.000000
    8       16.455978   0.000000
 
 -0.6250000E-01 -0.4375000E+00  0.6250000E-01  0.1562500E-01
    1        0.910305   1.000000
    2        2.637895   1.000000
    3        6.222320   1.000000
    4        6.954629   1.000000
    5        7.570205   1.000000
    6       10.183464   0.000000
    7       11.619299   0.000000
    8       15.362186   0.000000
 
 -0.3125000E+00 -0.3125000E+00  0.6250000E-01  0.1562500E-01
    1        1.557617   1.000000
    2        1.734015   1.000000
    3        3.909905   1.000000
    4        7.289993   1.000000
    5        7.697469   1.000000
    6       10.201483   0.000000
    7       14.931541   0.000000
    8       15.595640   0.000000
 
 -0.1875000E+00 -0.3125000E+00  0.6250000E-01  0.3125000E-01
    1        0.597689   1.000000
    2        3.635063   1.000000
    3        4.975278   1.000000
    4        7.149559   1.000000
    5        8.257621   0.998064
    6       10.065647   0.000000
    7       11.656485   0.000000
    8       14.055412   0.000000
 
 -0.6250000E-01 -0.3125000E+00  0.6250000E-01  0.1562500E-01
    1       -1.570099   1.000000
    2        5.814467   1.000000
    3        6.825005   1.000000
    4        7.195528   1.000000
    5        8.430075   0.952439
    6       10.912400   0.000000
    7       11.633444   0.000000
    8       13.309043   0.000000
 
 -0.1875000E+00 -0.1875000E+00  0.6250000E-01  0.1562500E-01
    1       -1.755038   1.000000
    2        6.444482   1.000000
    3        7.112220   1.000000
    4        7.409599   1.000000
    5        8.767535   0.236615
    6       10.418546   0.000000
    7       11.609283   0.000000
    8       11.832299   0.000000
 
 -0.6250000E-01 -0.1875000E+00  0.6250000E-01  0.1562500E-01
    1       -3.389034   1.000000
    2        6.132324   1.000000
    3        6.879228   1.000000
    4        8.728307   0.330023
    5       10.855748   0.000000
    6       11.285337   0.000000
    7       12.083005   0.000000
    8       13.821797   0.000000
 
 -0.6250000E-01 -0.6250000E-01  0.6250000E-01  0.3906250E-02
    1       -4.418715   1.000000
    2        6.514681   1.000000
    3        6.514682   1.000000
    4        6.783708   1.000000
    5       10.728844   0.000000
    6       14.488719   0.000000
    7       14.604779   0.000000
    8       16.483051   0.000000
 
  0.1875000E+00  0.1875000E+00  0.1875000E+00  0.1562500E-01
    1       -0.281762   1.000000
    2        2.587239   1.000000
    3        5.998367   1.000000
    4        6.088327   1.000000
    5       10.563602   0.000000
    6       12.403621   0.000000
    7       13.630583   0.000000
    8       14.070243   0.000000
 
  0.3125000E+00  0.1875000E+00  0.1875000E+00  0.1562500E-01
    1        2.020438   1.000000
    2        2.768255   1.000000
    3        3.797639   1.000000
    4        4.447494   1.000000
    5       11.486983   0.000000
    6       13.406206   0.000000
    7       13.712734   0.000000
    8       13.895577   0.000000
 
 -0.1875000E+00  0.1875000E+00  0.1875000E+00  0.7812500E-02
    1       -3.882604   1.000000
    2        2.832919   1.000000
    3        4.258972   1.000000
    4       10.653752   0.000000
    5       11.230423   0.000000
    6       14.010767   0.000000
    7       16.248448   0.000000
    8       16.763515   0.000000
 
  0.3125000E+00  0.3125000E+00  0.1875000E+00  0.7812500E-02
    1        0.988545   1.000000
    2        0.988545   1.000000
    3        5.878342   1.000000
    4        5.878343   1.000000
    5       11.813379   0.000000
    6       11.813381   0.000000
    7       13.615477   0.000000
    8       13.615482   0.000000
 
 -0.3125000E+00  0.3125000E+00  0.1875000E+00  0.1562500E-01
    1       -3.133062   1.000000
    2        1.202599   1.000000
    3        4.478100   1.000000
    4        8.625881   0.611954
    5       12.569210   0.000000
    6       15.480063   0.000000
    7       16.080045   0.000000
    8       16.859062   0.000000
 
 -0.1875000E+00  0.3125000E+00  0.1875000E+00  0.1562500E-01
    1       -2.916560   1.000000
    2        2.297612   1.000000
    3        3.813981   1.000000
    4        8.781220   0.207823
    5       11.378547   0.000000
    6       14.005879   0.000000
    7       16.025665   0.000000
    8       16.332592   0.000000
 
 -0.4375000E+00  0.4375000E+00  0.1875000E+00  0.1562500E-01
    1       -2.018427   1.000000
    2       -0.555834   1.000000
    3        5.486037   1.000000
    4        6.886312   1.000000
    5       13.616098   0.000000
    6       14.616696   0.000000
    7       16.172078   0.000000
    8       16.554577   0.000000
 
 -0.3125000E+00  0.4375000E+00  0.1875000E+00  0.3125000E-01
    1       -1.990589   1.000000
    2        0.859386   1.000000
    3        4.174182   1.000000
    4        6.910375   1.000000
    5       11.017264   0.000000
    6       15.320639   0.000000
    7       16.384911   0.000000
    8       17.832273   0.000000
 
 -0.1875000E+00  0.4375000E+00  0.1875000E+00  0.1562500E-01
    1       -1.163500   1.000000
    2        2.530095   1.000000
    3        4.088821   1.000000
    4        7.003223   1.000000
    5        7.913220   1.000000
    6       13.721953   0.000000
    7       15.137568   0.000000
    8       16.467319   0.000000
 
 -0.4375000E+00 -0.4375000E+00  0.1875000E+00  0.1562500E-01
    1       -0.721525   1.000000
    2       -0.707449   1.000000
    3        5.337115   1.000000
    4        5.359598   1.000000
    5       10.872597   0.000000
    6       15.988645   0.000000
    7       16.656912   0.000000
    8       16.968520   0.000000
 
 -0.3125000E+00 -0.4375000E+00  0.1875000E+00  0.3125000E-01
    1       -0.082044   1.000000
    2        1.296012   1.000000
    3        4.586609   1.000000
    4        5.849627   1.000000
    5        7.039328   1.000000
    6       13.906682   0.000000
    7       16.665730   0.000000
    8       17.704128   0.000000
 
 -0.1875000E+00 -0.4375000E+00  0.1875000E+00  0.1562500E-01
    1        1.269760   1.000000
    2        2.995283   1.000000
    3        4.162483   1.000000
    4        5.074074   1.000000
    5        7.261291   1.000000
    6       11.689499   0.000000
    7       13.021806   0.000000
    8       16.627998   0.000000
 
 -0.3125000E+00 -0.3125000E+00  0.1875000E+00  0.1562500E-01
    1        2.105182   1.000000
    2        2.576479   1.000000
    3        3.645227   1.000000
    4        5.763607   1.000000
    5        5.879856   1.000000
    6       11.937785   0.000000
    7       14.397594   0.000000
    8       15.202166   0.000000
 
 -0.1875000E+00 -0.3125000E+00  0.1875000E+00  0.1562500E-01
    1        0.250821   1.000000
    2        4.629228   1.000000
    3        5.556623   1.000000
    4        6.628876   1.000000
    5        7.426905   1.000000
    6       10.443193   0.000000
    7       11.510397   0.000000
    8       12.995208   0.000000
 
 -0.1875000E+00 -0.1875000E+00  0.1875000E+00  0.3906250E-02
    1       -1.940600   1.000000
    2        7.796019   1.000000
    3        7.796019   1.000000
    4        7.891994   1.000000
    5        8.108324   0.999960
    6        9.390595   0.000000
    7       11.329830   0.000000
    8       11.329833   0.000000
 
 -0.3125000E+00  0.3125000E+00  0.3125000E+00  0.7812500E-02
    1       -2.393360   1.000000
    2        1.343162   1.000000
    3        2.935708   1.000000
    4        6.562925   1.000000
    5       14.228603   0.000000
    6       15.109880   0.000000
    7       16.669397   0.000000
    8       18.097667   0.000000
 
 -0.4375000E+00  0.4375000E+00  0.3125000E+00  0.1562500E-01
    1       -1.301037   1.000000
    2        0.091652   1.000000
    3        3.455543   1.000000
    4        4.812183   1.000000
    5       14.559913   0.000000
    6       14.747373   0.000000
    7       17.649691   0.000000
    8       18.718748   0.000000
 
 -0.3125000E+00  0.4375000E+00  0.3125000E+00  0.1562500E-01
    1       -1.087442   1.000000
    2        1.176538   1.000000
    3        2.799051   1.000000
    4        5.009554   1.000000
    5       10.563412   0.000000
    6       17.478246   0.000000
    7       17.839443   0.000000
    8       18.853421   0.000000
 
 -0.4375000E+00 -0.4375000E+00  0.3125000E+00  0.1562500E-01
    1        0.104326   1.000000
    2        0.128763   1.000000
    3        3.477704   1.000000
    4        3.492671   1.000000
    5       10.402831   0.000000
    6       17.720425   0.000000
    7       19.004789   0.000000
    8       19.574194   0.000000
 
 -0.3125000E+00 -0.4375000E+00  0.3125000E+00  0.1562500E-01
    1        0.923426   1.000000
    2        1.788386   1.000000
    3        3.413762   1.000000
    4        4.248458   1.000000
    5        6.608256   1.000000
    6       15.573421   0.000000
    7       16.806231   0.000000
    8       17.980464   0.000000
 
 -0.3125000E+00 -0.3125000E+00  0.3125000E+00  0.3906250E-02
    1        2.320098   1.000000
    2        3.289495   1.000000
    3        4.041466   1.000000
    4        4.752176   1.000000
    5        4.752176   1.000000
    6       13.653959   0.000000
    7       14.216359   0.000000
    8       14.216365   0.000000
 
 -0.4375000E+00  0.4375000E+00  0.4375000E+00  0.7812500E-02
    1       -0.281904   1.000000
    2        0.590046   1.000000
    3        2.246414   1.000000
    4        3.106577   1.000000
    5       14.460780   0.000000
    6       14.498558   0.000000
    7       19.889328   0.000000
    8       20.655188   0.000000
 
 -0.4375000E+00 -0.4375000E+00  0.4375000E+00  0.3906250E-02
    1        0.780190   1.000000
    2        0.819769   1.000000
    3        2.453299   1.000000
    4        2.453299   1.000000
    5       10.239379   0.000000
    6       18.233215   0.000000
    7       20.170967   0.000000
    8       20.227985   0.000000
