 running on    8 total cores
 distrk:  each k-point on    8 cores,    1 groups
 distr:  one band on    1 cores,    8 groups
 using from now: INCAR     
 vasp.5.4.4.18Apr17-6-g9f103f2a35 (build Dec 09 2018 21:25:21) complex          
  
 POSCAR found type information on POSCAR  Si
 POSCAR found :  1 types and       2 ions
 scaLAPACK will be used

 ----------------------------------------------------------------------------- 
|                                                                             |
|           W    W    AA    RRRRR   N    N  II  N    N   GGGG   !!!           |
|           W    W   A  A   R    R  NN   N  II  NN   N  G    G  !!!           |
|           W    W  A    A  R    R  N N  N  II  N N  N  G       !!!           |
|           W WW W  AAAAAA  RRRRR   N  N N  II  N  N N  G  GGG   !            |
|           WW  WW  A    A  R   R   N   NN  II  N   NN  G    G                |
|           W    W  A    A  R    R  N    N  II  N    N   GGGG   !!!           |
|                                                                             |
|      For optimal performance we recommend to set                            |
|        NCORE= 4 - approx SQRT( number of cores)                             |
|      NCORE specifies how many cores store one orbital (NPAR=cpu/NCORE).     |
|      This setting can  greatly improve the performance of VASP for DFT.     |
|      The default,   NCORE=1            might be grossly inefficient         |
|      on modern multi-core architectures or massively parallel machines.     |
|      Do your own testing !!!!                                               |
|      Unfortunately you need to use the default for GW and RPA calculations. |
|      (for HF NCORE is supported but not extensively tested yet)             |
|                                                                             |
 ----------------------------------------------------------------------------- 

 LDA part: xc-table for Pade appr. of Perdew
 POSCAR, INCAR and KPOINTS ok, starting setup
 FFT: planning ...
 WAVECAR not read
 entering main loop
       N       E                     dE             d eps       ncg     rms          rms(c)
DAV:   1     0.143270668359E+01    0.14327E+01   -0.27297E+03   904   0.604E+02
DAV:   2    -0.101414738304E+02   -0.11574E+02   -0.11173E+02  1384   0.643E+01
DAV:   3    -0.102671678593E+02   -0.12569E+00   -0.12459E+00  1176   0.822E+00
DAV:   4    -0.102674891943E+02   -0.32134E-03   -0.32133E-03  1384   0.432E-01
DAV:   5    -0.102674895872E+02   -0.39290E-06   -0.39240E-06  1216   0.892E-03    0.154E+00
DAV:   6    -0.102612002713E+02    0.62893E-02   -0.36367E-03  1104   0.403E-01    0.955E-01
DAV:   7    -0.102567737529E+02    0.44265E-02   -0.95031E-03  1152   0.676E-01    0.503E-02
DAV:   8    -0.102567222632E+02    0.51490E-04   -0.37547E-04   600   0.141E-01
   1 F= -.10256722E+02 E0= -.10246546E+02  d E =-.102567E+02
 curvature:   0.00 expect dE= 0.000E+00 dE for cont linesearch  0.000E+00
 trial: gam= 0.00000 g(F)=  0.572E-47 g(S)=  0.000E+00 ort = 0.000E+00 (trialstep = 0.100E+01)
 search vector abs. value=  0.100E-09
 reached required accuracy - stopping structural energy minimisation
 writing wavefunctions
