<?xml version="1.0" encoding="ISO-8859-1"?>
<modeling>
 <generator>
  <i name="program" type="string">vasp </i>
  <i name="version" type="string">5.4.4.18Apr17-6-g9f103f2a35  </i>
  <i name="subversion" type="string">(build Dec 09 2018 21:25:21) complex            parallel </i>
  <i name="platform" type="string">IFC18.0.1.163_CrayMPICH7.7.0_MKL18.0.1.163 </i>
  <i name="date" type="string">2019 03 23 </i>
  <i name="time" type="string">21:14:41 </i>
 </generator>
 <incar>
  <i type="string" name="PREC">normal</i>
  <i type="int" name="IBRION">     2</i>
  <i name="EDIFF">      0.00040000</i>
  <i name="EDIFFG">     -0.01000000</i>
  <i type="int" name="NSW">    15</i>
  <i type="int" name="ISIF">     2</i>
  <i name="ENCUT">    350.00000000</i>
  <i type="int" name="NBANDS">     8</i>
  <i type="logical" name="LREAL"> F  </i>
  <i type="int" name="ISMEAR">     0</i>
  <i name="SIGMA">      0.20000000</i>
  <v type="int" name="KPOINT_BSE">    -1     0     0     0</v>
 </incar>
 <structure name="primitive_cell" >
  <crystal>
   <varray name="basis" >
    <v>      -2.43080100       2.43080100       1.33880900 </v>
    <v>       2.43080100      -2.43080100       1.33880900 </v>
    <v>       2.43080100       2.43080100      -1.33880900 </v>
   </varray>
   <i name="volume">     31.64298368 </i>
   <varray name="rec_basis" >
    <v>      -0.00000000       0.20569351       0.37346627 </v>
    <v>       0.20569351      -0.00000000       0.37346627 </v>
    <v>       0.20569351       0.20569351       0.00000000 </v>
   </varray>
  </crystal>
  <varray name="positions" >
   <v>      -0.25000000       0.25000000      -0.50000000 </v>
   <v>      -0.50000000      -0.50000000       0.00000000 </v>
  </varray>
 </structure>
 <varray name="primitive_index" >
  <v type="int" >        1 </v>
  <v type="int" >        2 </v>
 </varray>
 <kpoints>
  <generation param="Monkhorst-Pack">
   <v type="int" name="divisions">       8        8        8 </v>
   <v name="usershift">      0.00000000       0.00000000       0.00000000 </v>
   <v name="genvec1">      0.12500000      -0.00000000       0.00000000 </v>
   <v name="genvec2">     -0.00000000       0.12500000       0.00000000 </v>
   <v name="genvec3">      0.00000000       0.00000000       0.12500000 </v>
   <v name="shift">      0.50000000       0.50000000       0.50000000 </v>
  </generation>
  <varray name="kpointlist" >
   <v>       0.06250000       0.06250000       0.06250000 </v>
   <v>       0.18750000       0.06250000       0.06250000 </v>
   <v>       0.31250000       0.06250000       0.06250000 </v>
   <v>       0.43750000       0.06250000       0.06250000 </v>
   <v>      -0.06250000       0.06250000       0.06250000 </v>
   <v>       0.18750000       0.18750000       0.06250000 </v>
   <v>       0.31250000       0.18750000       0.06250000 </v>
   <v>       0.43750000       0.18750000       0.06250000 </v>
   <v>      -0.43750000       0.18750000       0.06250000 </v>
   <v>      -0.31250000       0.18750000       0.06250000 </v>
   <v>      -0.18750000       0.18750000       0.06250000 </v>
   <v>      -0.06250000       0.18750000       0.06250000 </v>
   <v>       0.31250000       0.31250000       0.06250000 </v>
   <v>       0.43750000       0.31250000       0.06250000 </v>
   <v>      -0.43750000       0.31250000       0.06250000 </v>
   <v>      -0.31250000       0.31250000       0.06250000 </v>
   <v>      -0.18750000       0.31250000       0.06250000 </v>
   <v>      -0.06250000       0.31250000       0.06250000 </v>
   <v>       0.43750000       0.43750000       0.06250000 </v>
   <v>      -0.43750000       0.43750000       0.06250000 </v>
   <v>      -0.31250000       0.43750000       0.06250000 </v>
   <v>      -0.18750000       0.43750000       0.06250000 </v>
   <v>      -0.06250000       0.43750000       0.06250000 </v>
   <v>      -0.43750000      -0.43750000       0.06250000 </v>
   <v>      -0.31250000      -0.43750000       0.06250000 </v>
   <v>      -0.18750000      -0.43750000       0.06250000 </v>
   <v>      -0.06250000      -0.43750000       0.06250000 </v>
   <v>      -0.31250000      -0.31250000       0.06250000 </v>
   <v>      -0.18750000      -0.31250000       0.06250000 </v>
   <v>      -0.06250000      -0.31250000       0.06250000 </v>
   <v>      -0.18750000      -0.18750000       0.06250000 </v>
   <v>      -0.06250000      -0.18750000       0.06250000 </v>
   <v>      -0.06250000      -0.06250000       0.06250000 </v>
   <v>       0.18750000       0.18750000       0.18750000 </v>
   <v>       0.31250000       0.18750000       0.18750000 </v>
   <v>      -0.18750000       0.18750000       0.18750000 </v>
   <v>       0.31250000       0.31250000       0.18750000 </v>
   <v>      -0.31250000       0.31250000       0.18750000 </v>
   <v>      -0.18750000       0.31250000       0.18750000 </v>
   <v>      -0.43750000       0.43750000       0.18750000 </v>
   <v>      -0.31250000       0.43750000       0.18750000 </v>
   <v>      -0.18750000       0.43750000       0.18750000 </v>
   <v>      -0.43750000      -0.43750000       0.18750000 </v>
   <v>      -0.31250000      -0.43750000       0.18750000 </v>
   <v>      -0.18750000      -0.43750000       0.18750000 </v>
   <v>      -0.31250000      -0.31250000       0.18750000 </v>
   <v>      -0.18750000      -0.31250000       0.18750000 </v>
   <v>      -0.18750000      -0.18750000       0.18750000 </v>
   <v>      -0.31250000       0.31250000       0.31250000 </v>
   <v>      -0.43750000       0.43750000       0.31250000 </v>
   <v>      -0.31250000       0.43750000       0.31250000 </v>
   <v>      -0.43750000      -0.43750000       0.31250000 </v>
   <v>      -0.31250000      -0.43750000       0.31250000 </v>
   <v>      -0.31250000      -0.31250000       0.31250000 </v>
   <v>      -0.43750000       0.43750000       0.43750000 </v>
   <v>      -0.43750000      -0.43750000       0.43750000 </v>
  </varray>
  <varray name="weights" >
   <v>       0.01562500 </v>
   <v>       0.03125000 </v>
   <v>       0.03125000 </v>
   <v>       0.01562500 </v>
   <v>       0.00781250 </v>
   <v>       0.01562500 </v>
   <v>       0.03125000 </v>
   <v>       0.03125000 </v>
   <v>       0.03125000 </v>
   <v>       0.01562500 </v>
   <v>       0.01562500 </v>
   <v>       0.01562500 </v>
   <v>       0.01562500 </v>
   <v>       0.03125000 </v>
   <v>       0.01562500 </v>
   <v>       0.01562500 </v>
   <v>       0.03125000 </v>
   <v>       0.01562500 </v>
   <v>       0.00781250 </v>
   <v>       0.01562500 </v>
   <v>       0.03125000 </v>
   <v>       0.03125000 </v>
   <v>       0.01562500 </v>
   <v>       0.01562500 </v>
   <v>       0.03125000 </v>
   <v>       0.03125000 </v>
   <v>       0.01562500 </v>
   <v>       0.01562500 </v>
   <v>       0.03125000 </v>
   <v>       0.01562500 </v>
   <v>       0.01562500 </v>
   <v>       0.01562500 </v>
   <v>       0.00390625 </v>
   <v>       0.01562500 </v>
   <v>       0.01562500 </v>
   <v>       0.00781250 </v>
   <v>       0.00781250 </v>
   <v>       0.01562500 </v>
   <v>       0.01562500 </v>
   <v>       0.01562500 </v>
   <v>       0.03125000 </v>
   <v>       0.01562500 </v>
   <v>       0.01562500 </v>
   <v>       0.03125000 </v>
   <v>       0.01562500 </v>
   <v>       0.01562500 </v>
   <v>       0.01562500 </v>
   <v>       0.00390625 </v>
   <v>       0.00781250 </v>
   <v>       0.01562500 </v>
   <v>       0.01562500 </v>
   <v>       0.01562500 </v>
   <v>       0.01562500 </v>
   <v>       0.00390625 </v>
   <v>       0.00781250 </v>
   <v>       0.00390625 </v>
  </varray>
 </kpoints>
 <parameters>
  <separator name="general" >
   <i type="string" name="SYSTEM">unknown system</i>
   <i type="logical" name="LCOMPAT"> F  </i>
  </separator>
  <separator name="electronic" >
   <i type="string" name="PREC">normal</i>
   <i name="ENMAX">    350.00000000</i>
   <i name="ENAUG">    322.06900000</i>
   <i name="EDIFF">      0.00040000</i>
   <i type="int" name="IALGO">    38</i>
   <i type="int" name="IWAVPR">    11</i>
   <i type="int" name="NBANDS">     8</i>
   <i name="NELECT">      8.00000000</i>
   <i type="int" name="TURBO">     0</i>
   <i type="int" name="IRESTART">     0</i>
   <i type="int" name="NREBOOT">     0</i>
   <i type="int" name="NMIN">     0</i>
   <i name="EREF">      0.00000000</i>
   <separator name="electronic smearing" >
    <i type="int" name="ISMEAR">     0</i>
    <i name="SIGMA">      0.20000000</i>
    <i name="KSPACING">      0.50000000</i>
    <i type="logical" name="KGAMMA"> T  </i>
   </separator>
   <separator name="electronic projectors" >
    <i type="logical" name="LREAL"> F  </i>
    <v name="ROPT">      0.00000000</v>
    <i type="int" name="LMAXPAW">  -100</i>
    <i type="int" name="LMAXMIX">     2</i>
    <i type="logical" name="NLSPLINE"> F  </i>
   </separator>
   <separator name="electronic startup" >
    <i type="int" name="ISTART">     0</i>
    <i type="int" name="ICHARG">     2</i>
    <i type="int" name="INIWAV">     1</i>
   </separator>
   <separator name="electronic spin" >
    <i type="int" name="ISPIN">     1</i>
    <i type="logical" name="LNONCOLLINEAR"> F  </i>
    <v name="MAGMOM">      1.00000000      1.00000000</v>
    <i name="NUPDOWN">     -1.00000000</i>
    <i type="logical" name="LSORBIT"> F  </i>
    <v name="SAXIS">      0.00000000      0.00000000      1.00000000</v>
    <i type="logical" name="LSPIRAL"> F  </i>
    <v name="QSPIRAL">      0.00000000      0.00000000      0.00000000</v>
    <i type="logical" name="LZEROZ"> F  </i>
   </separator>
   <separator name="electronic exchange-correlation" >
    <i type="logical" name="LASPH"> F  </i>
    <i type="logical" name="LMETAGGA"> F  </i>
   </separator>
   <separator name="electronic convergence" >
    <i type="int" name="NELM">    60</i>
    <i type="int" name="NELMDL">    -5</i>
    <i type="int" name="NELMIN">     2</i>
    <i name="ENINI">    350.00000000</i>
    <separator name="electronic convergence detail" >
     <i type="logical" name="LDIAG"> T  </i>
     <i type="logical" name="LSUBROT"> F  </i>
     <i name="WEIMIN">      0.00100000</i>
     <i name="EBREAK">      0.00001250</i>
     <i name="DEPER">      0.30000000</i>
     <i type="int" name="NRMM">     4</i>
     <i name="TIME">      0.40000000</i>
    </separator>
   </separator>
   <separator name="electronic mixer" >
    <i name="AMIX">      0.40000000</i>
    <i name="BMIX">      1.00000000</i>
    <i name="AMIN">      0.10000000</i>
    <i name="AMIX_MAG">      1.60000000</i>
    <i name="BMIX_MAG">      1.00000000</i>
    <separator name="electronic mixer details" >
     <i type="int" name="IMIX">     4</i>
     <i type="logical" name="MIXFIRST"> F  </i>
     <i type="int" name="MAXMIX">   -45</i>
     <i name="WC">    100.00000000</i>
     <i type="int" name="INIMIX">     1</i>
     <i type="int" name="MIXPRE">     1</i>
     <i type="int" name="MREMOVE">     5</i>
    </separator>
   </separator>
   <separator name="electronic dipolcorrection" >
    <i type="logical" name="LDIPOL"> F  </i>
    <i type="logical" name="LMONO"> F  </i>
    <i type="int" name="IDIPOL">     0</i>
    <i name="EPSILON">      1.00000000</i>
    <v name="DIPOL">   -100.00000000   -100.00000000   -100.00000000</v>
    <i name="EFIELD">      0.00000000</i>
   </separator>
  </separator>
  <separator name="grids" >
   <i type="int" name="NGX">    18</i>
   <i type="int" name="NGY">    18</i>
   <i type="int" name="NGZ">    18</i>
   <i type="int" name="NGXF">    36</i>
   <i type="int" name="NGYF">    36</i>
   <i type="int" name="NGZF">    36</i>
   <i type="logical" name="ADDGRID"> F  </i>
  </separator>
  <separator name="ionic" >
   <i type="int" name="NSW">    15</i>
   <i type="int" name="IBRION">     2</i>
   <i type="int" name="MDALGO">     0</i>
   <i type="int" name="ISIF">     2</i>
   <i name="PSTRESS">      0.00000000</i>
   <i name="EDIFFG">     -0.01000000</i>
   <i type="int" name="NFREE">     1</i>
   <i name="POTIM">      0.50000000</i>
   <i name="SMASS">     -3.00000000</i>
   <i name="SCALEE">      1.00000000</i>
  </separator>
  <separator name="ionic md" >
   <i name="TEBEG">      0.00010000</i>
   <i name="TEEND">      0.00010000</i>
   <i type="int" name="NBLOCK">     1</i>
   <i type="int" name="KBLOCK">    15</i>
   <i type="int" name="NPACO">   256</i>
   <i name="APACO">     16.00000000</i>
  </separator>
  <separator name="symmetry" >
   <i type="int" name="ISYM">     2</i>
   <i name="SYMPREC">      0.00001000</i>
  </separator>
  <separator name="dos" >
   <i type="int" name="LORBIT">     0</i>
   <v name="RWIGS">     -1.00000000</v>
   <i type="int" name="NEDOS">   301</i>
   <i name="EMIN">     10.00000000</i>
   <i name="EMAX">    -10.00000000</i>
   <i name="EFERMI">      0.00000000</i>
  </separator>
  <separator name="writing" >
   <i type="int" name="NWRITE">     2</i>
   <i type="logical" name="LWAVE"> T  </i>
   <i type="logical" name="LDOWNSAMPLE"> F  </i>
   <i type="logical" name="LCHARG"> T  </i>
   <i type="logical" name="LPARD"> F  </i>
   <i type="logical" name="LVTOT"> F  </i>
   <i type="logical" name="LVHAR"> F  </i>
   <i type="logical" name="LELF"> F  </i>
   <i type="logical" name="LOPTICS"> F  </i>
   <v name="STM">      0.00000000      0.00000000      0.00000000      0.00000000      0.00000000      0.00000000      0.00000000</v>
  </separator>
  <separator name="performance" >
   <i type="int" name="NPAR">     8</i>
   <i type="int" name="NSIM">     4</i>
   <i type="int" name="NBLK">    -1</i>
   <i type="logical" name="LPLANE"> T  </i>
   <i type="logical" name="LSCALAPACK"> T  </i>
   <i type="logical" name="LSCAAWARE"> F  </i>
   <i type="logical" name="LSCALU"> F  </i>
   <i type="logical" name="LASYNC"> F  </i>
   <i type="logical" name="LORBITALREAL"> F  </i>
  </separator>
  <separator name="miscellaneous" >
   <i type="int" name="IDIOT">     3</i>
   <i type="int" name="ISPECIAL">     0</i>
   <i type="logical" name="LMUSIC"> F  </i>
   <v name="POMASS">     28.08500000</v>
   <v name="DARWINR">      0.00000000</v>
   <v name="DARWINV">      1.00000000</v>
   <i type="logical" name="LCORR"> T  </i>
  </separator>
  <i type="logical" name="GGA_COMPAT"> T  </i>
  <i type="logical" name="LBERRY"> F  </i>
  <i type="int" name="ICORELEVEL">     0</i>
  <i type="logical" name="LDAU"> F  </i>
  <i type="int" name="I_CONSTRAINED_M">     0</i>
  <separator name="electronic exchange-correlation" >
   <i type="string" name="GGA">--</i>
   <i type="int" name="VOSKOWN">     0</i>
   <i type="logical" name="LHFCALC"> F  </i>
   <i type="string" name="PRECFOCK"></i>
   <i type="logical" name="LSYMGRAD"> F  </i>
   <i type="logical" name="LHFONE"> F  </i>
   <i type="logical" name="LRHFCALC"> F  </i>
   <i type="logical" name="LTHOMAS"> F  </i>
   <i type="logical" name="LMODELHF"> F  </i>
   <i name="ENCUT4O">     -1.00000000</i>
   <i type="int" name="EXXOEP">     0</i>
   <i type="int" name="FOURORBIT">     0</i>
   <i name="AEXX">      0.00000000</i>
   <i name="HFALPHA">      0.00000000</i>
   <i name="MCALPHA">      0.00000000</i>
   <i name="ALDAX">      1.00000000</i>
   <i name="AGGAX">      1.00000000</i>
   <i name="ALDAC">      1.00000000</i>
   <i name="AGGAC">      1.00000000</i>
   <i type="int" name="NKREDX">     1</i>
   <i type="int" name="NKREDY">     1</i>
   <i type="int" name="NKREDZ">     1</i>
   <i type="logical" name="SHIFTRED"> F  </i>
   <i type="logical" name="ODDONLY"> F  </i>
   <i type="logical" name="EVENONLY"> F  </i>
   <i type="int" name="LMAXFOCK">     0</i>
   <i type="int" name="NMAXFOCKAE">     0</i>
   <i type="logical" name="LFOCKAEDFT"> F  </i>
   <i name="HFSCREEN">      0.00000000</i>
   <i name="HFSCREENC">      0.00000000</i>
   <i type="int" name="NBANDSGWLOW">     0</i>
  </separator>
  <separator name="vdW DFT" >
   <i type="logical" name="LUSE_VDW"> F  </i>
   <i name="Zab_VDW">     -0.84910000</i>
   <i name="PARAM1">      0.12340000</i>
   <i name="PARAM2">      1.00000000</i>
   <i name="PARAM3">      0.00000000</i>
  </separator>
  <separator name="model GW" >
   <i type="int" name="MODEL_GW">     0</i>
   <i name="MODEL_EPS0">      9.49289510</i>
   <i name="MODEL_ALPHA">      1.00000000</i>
  </separator>
  <separator name="linear response parameters" >
   <i type="logical" name="LEPSILON"> F  </i>
   <i type="logical" name="LRPA"> F  </i>
   <i type="logical" name="LNABLA"> F  </i>
   <i type="logical" name="LVEL"> F  </i>
   <i type="int" name="KINTER">     0</i>
   <i name="CSHIFT">      0.10000000</i>
   <i name="OMEGAMAX">     -1.00000000</i>
   <i name="DEG_THRESHOLD">      0.00200000</i>
   <i name="RTIME">     -0.10000000</i>
   <i name="WPLASMAI">      0.00000000</i>
   <v name="DFIELD">      0.00000000      0.00000000      0.00000000</v>
   <v name="WPLASMA">      0.00000000      0.00000000      0.00000000      0.00000000      0.00000000      0.00000000      0.00000000      0.00000000      0.00000000</v>
  </separator>
  <separator name="orbital magnetization" >
   <i type="logical" name="NUCIND"> F  </i>
   <v name="MAGPOS">      0.00000000      0.00000000      0.00000000</v>
   <i type="logical" name="LNICSALL"> T  </i>
   <i type="logical" name="ORBITALMAG"> F  </i>
   <i type="logical" name="LMAGBLOCH"> F  </i>
   <i type="logical" name="LCHIMAG"> F  </i>
   <i type="logical" name="LGAUGE"> T  </i>
   <i type="int" name="MAGATOM">     0</i>
   <v name="MAGDIPOL">      0.00000000      0.00000000      0.00000000</v>
   <v name="AVECCONST">      0.00000000      0.00000000      0.00000000</v>
  </separator>
  <separator name="response functions" >
   <i type="logical" name="LADDER"> F  </i>
   <i type="logical" name="LRPAFORCE"> F  </i>
   <i type="logical" name="LFXC"> F  </i>
   <i type="logical" name="LHARTREE"> T  </i>
   <i type="int" name="IBSE">     0</i>
   <v type="int" name="KPOINT">    -1     0     0     0</v>
   <i type="logical" name="LTCTE"> F  </i>
   <i type="logical" name="LTETE"> F  </i>
   <i type="logical" name="LTRIPLET"> F  </i>
   <i type="logical" name="LFXCEPS"> F  </i>
   <i type="logical" name="LFXHEG"> F  </i>
   <i type="int" name="NATURALO">     2</i>
   <i type="logical" name="L2ORDER"> F  </i>
   <i type="logical" name="LMP2LT"> F  </i>
   <i type="logical" name="LUSEW"> F  </i>
   <i name="ENCUTGW">     -2.00000000</i>
   <i name="ENCUTGWSOFT">     -2.00000000</i>
   <i name="ENCUTLF">     -1.00000000</i>
   <i type="int" name="LMAXMP2">    -1</i>
   <i name="SCISSOR">      0.00000000</i>
   <i type="int" name="NOMEGA">     0</i>
   <i type="int" name="NOMEGAR">     0</i>
   <i type="int" name="NBANDSGW">    -1</i>
   <i type="int" name="NBANDSO">    -1</i>
   <i type="int" name="NBANDSV">    -1</i>
   <i type="int" name="NELM">     1</i>
   <i type="int" name="NELMHF">     1</i>
   <i type="int" name="DIM">     3</i>
   <i type="int" name="ANTIRES">     0</i>
   <i name="OMEGAMAX">    -30.00000000</i>
   <i name="OMEGAMIN">    -30.00000000</i>
   <i name="OMEGATL">   -200.00000000</i>
   <i type="int" name="OMEGAGRID">   140</i>
   <i name="CSHIFT">     -0.10000000</i>
   <i type="logical" name="SELFENERGY"> F  </i>
   <i type="logical" name="LSPECTRAL"> F  </i>
   <i type="logical" name="LSPECTRALGW"> F  </i>
   <i type="logical" name="LSINGLES"> F  </i>
   <i type="logical" name="LFERMIGW"> F  </i>
   <i type="logical" name="ODDONLYGW"> F  </i>
   <i type="logical" name="EVENONLYGW"> F  </i>
   <i type="int" name="NKREDLFX">     1</i>
   <i type="int" name="NKREDLFY">     1</i>
   <i type="int" name="NKREDLFZ">     1</i>
   <i type="int" name="MAXMEM">  2800</i>
   <i type="int" name="TELESCOPE">     0</i>
   <i type="int" name="TAUPAR">     1</i>
   <i type="int" name="OMEGAPAR">    -1</i>
   <i name="LAMBDA">      1.00000000</i>
  </separator>
  <separator name="External order field" >
   <i name="OFIELD_KAPPA">      0.00000000</i>
   <v name="OFIELD_K">      0.00000000      0.00000000      0.00000000</v>
   <i name="OFIELD_Q6_NEAR">      0.00000000</i>
   <i name="OFIELD_Q6_FAR">      0.00000000</i>
   <i name="OFIELD_A">      0.00000000</i>
  </separator>
 </parameters>
 <atominfo>
  <atoms>       2 </atoms>
  <types>       1 </types>
  <array name="atoms" >
   <dimension dim="1">ion</dimension>
   <field type="string">element</field>
   <field type="int">atomtype</field>
   <set>
    <rc><c>Si</c><c>   1</c></rc>
    <rc><c>Si</c><c>   1</c></rc>
   </set>
  </array>
  <array name="atomtypes" >
   <dimension dim="1">type</dimension>
   <field type="int">atomspertype</field>
   <field type="string">element</field>
   <field>mass</field>
   <field>valence</field>
   <field type="string">pseudopotential</field>
   <set>
    <rc><c>   2</c><c>Si</c><c>     28.08500000</c><c>      4.00000000</c><c> PAW_PBE Si 05Jan2001                   </c></rc>
   </set>
  </array>
 </atominfo>
 <structure name="initialpos" >
  <crystal>
   <varray name="basis" >
    <v>      -2.43080100       2.43080100       1.33880900 </v>
    <v>       2.43080100      -2.43080100       1.33880900 </v>
    <v>       2.43080100       2.43080100      -1.33880900 </v>
   </varray>
   <i name="volume">     31.64298368 </i>
   <varray name="rec_basis" >
    <v>      -0.00000000       0.20569351       0.37346627 </v>
    <v>       0.20569351      -0.00000000       0.37346627 </v>
    <v>       0.20569351       0.20569351       0.00000000 </v>
   </varray>
  </crystal>
  <varray name="positions" >
   <v>       0.75000000       0.25000000       0.50000000 </v>
   <v>       0.50000000       0.50000000       0.00000000 </v>
  </varray>
 </structure>
 <calculation>
  <scstep>
   <time name="dav">    0.59    0.59</time>
   <time name="total">    0.63    0.64</time>
   <energy>
    <i name="alphaZ">      4.25536084 </i>
    <i name="ewald">   -262.31143679 </i>
    <i name="hartreedc">     -2.44878666 </i>
    <i name="XCdc">    -17.98876633 </i>
    <i name="pawpsdc">     65.95520812 </i>
    <i name="pawaedc">    -30.76852678 </i>
    <i name="eentropy">     -0.01242937 </i>
    <i name="bandstr">     38.62082951 </i>
    <i name="atom">    206.13125414 </i>
    <i name="e_fr_energy">      1.43270668 </i>
    <i name="e_wo_entrp">      1.44513605 </i>
    <i name="e_0_energy">      1.43892137 </i>
   </energy>
  </scstep>
  <scstep>
   <time name="dav">    0.83    0.84</time>
   <time name="total">    0.83    0.84</time>
   <energy>
    <i name="e_fr_energy">    -10.14147383 </i>
    <i name="e_wo_entrp">    -10.11987611 </i>
    <i name="e_0_energy">    -10.13067497 </i>
   </energy>
  </scstep>
  <scstep>
   <time name="dav">    0.72    0.72</time>
   <time name="total">    0.72    0.72</time>
   <energy>
    <i name="e_fr_energy">    -10.26716786 </i>
    <i name="e_wo_entrp">    -10.24689107 </i>
    <i name="e_0_energy">    -10.25702946 </i>
   </energy>
  </scstep>
  <scstep>
   <time name="dav">    0.83    0.84</time>
   <time name="total">    0.84    0.84</time>
   <energy>
    <i name="e_fr_energy">    -10.26748919 </i>
    <i name="e_wo_entrp">    -10.24721542 </i>
    <i name="e_0_energy">    -10.25735231 </i>
   </energy>
  </scstep>
  <scstep>
   <time name="dav">    0.74    0.74</time>
   <time name="total">    0.79    0.79</time>
   <energy>
    <i name="e_fr_energy">    -10.26748959 </i>
    <i name="e_wo_entrp">    -10.24721581 </i>
    <i name="e_0_energy">    -10.25735270 </i>
   </energy>
  </scstep>
  <scstep>
   <time name="dav">    0.66    0.66</time>
   <time name="total">    0.74    0.75</time>
   <energy>
    <i name="e_fr_energy">    -10.26120027 </i>
    <i name="e_wo_entrp">    -10.24088084 </i>
    <i name="e_0_energy">    -10.25104055 </i>
   </energy>
  </scstep>
  <scstep>
   <time name="dav">    0.70    0.69</time>
   <time name="total">    0.77    0.78</time>
   <energy>
    <i name="e_fr_energy">    -10.25677375 </i>
    <i name="e_wo_entrp">    -10.23641330 </i>
    <i name="e_0_energy">    -10.24659352 </i>
   </energy>
  </scstep>
  <scstep>
   <time name="dav">    0.41    0.41</time>
   <time name="total">    0.44    0.46</time>
   <energy>
    <i name="alphaZ">      4.25536084 </i>
    <i name="ewald">   -262.31143679 </i>
    <i name="hartreedc">     -2.60888357 </i>
    <i name="XCdc">    -17.77284568 </i>
    <i name="pawpsdc">     69.49982540 </i>
    <i name="pawaedc">    -34.39312522 </i>
    <i name="eentropy">     -0.02035174 </i>
    <i name="bandstr">     26.96348035 </i>
    <i name="atom">    206.13125414 </i>
    <i name="e_fr_energy">    -10.25672226 </i>
    <i name="e_wo_entrp">    -10.23637052 </i>
    <i name="e_0_energy">    -10.24654639 </i>
   </energy>
  </scstep>
  <structure>
   <crystal>
    <varray name="basis" >
     <v>      -2.43080100       2.43080100       1.33880900 </v>
     <v>       2.43080100      -2.43080100       1.33880900 </v>
     <v>       2.43080100       2.43080100      -1.33880900 </v>
    </varray>
    <i name="volume">     31.64298368 </i>
    <varray name="rec_basis" >
     <v>      -0.00000000       0.20569351       0.37346627 </v>
     <v>       0.20569351      -0.00000000       0.37346627 </v>
     <v>       0.20569351       0.20569351       0.00000000 </v>
    </varray>
   </crystal>
   <varray name="positions" >
    <v>       0.75000000       0.25000000       0.50000000 </v>
    <v>       0.50000000       0.50000000       0.00000000 </v>
   </varray>
  </structure>
  <varray name="forces" >
   <v>      -0.00000000       0.00000000      -0.00000000 </v>
   <v>       0.00000000      -0.00000000       0.00000000 </v>
  </varray>
  <varray name="stress" >
   <v>     -46.43413564       0.00000000       0.00000000 </v>
   <v>       0.00000000     -46.43413564       0.00000000 </v>
   <v>       0.00000000       0.00000000       1.07958977 </v>
  </varray>
  <energy>
   <i name="e_fr_energy">    -10.25672226 </i>
   <i name="e_wo_entrp">    -10.24654639 </i>
   <i name="e_0_energy">     -0.02035174 </i>
  </energy>
  <time name="totalsc">    7.04    7.97</time>
  <eigenvalues>
   <array>
    <dimension dim="1">band</dimension>
    <dimension dim="2">kpoint</dimension>
    <dimension dim="3">spin</dimension>
    <field>eigene</field>
    <field>occ</field>
    <set>
     <set comment="spin 1">
      <set comment="kpoint 1">
       <r>   -4.2296    1.0000 </r>
       <r>    4.4190    1.0000 </r>
       <r>    6.6843    1.0000 </r>
       <r>    8.2050    0.9994 </r>
       <r>   11.8402    0.0000 </r>
       <r>   13.6945    0.0000 </r>
       <r>   14.2614    0.0000 </r>
       <r>   16.1268    0.0000 </r>
      </set>
      <set comment="kpoint 2">
       <r>   -3.0136    1.0000 </r>
       <r>    4.1738    1.0000 </r>
       <r>    6.9830    1.0000 </r>
       <r>    9.1453    0.0004 </r>
       <r>   10.7998    0.0000 </r>
       <r>   10.9056    0.0000 </r>
       <r>   13.6668    0.0000 </r>
       <r>   14.4195    0.0000 </r>
      </set>
      <set comment="kpoint 3">
       <r>   -1.0173    1.0000 </r>
       <r>    4.4691    1.0000 </r>
       <r>    5.5478    1.0000 </r>
       <r>    7.2531    1.0000 </r>
       <r>    8.6014    0.6764 </r>
       <r>   11.7295    0.0000 </r>
       <r>   13.1735    0.0000 </r>
       <r>   13.5682    0.0000 </r>
      </set>
      <set comment="kpoint 4">
       <r>    1.3144    1.0000 </r>
       <r>    2.2327    1.0000 </r>
       <r>    5.7695    1.0000 </r>
       <r>    6.1622    1.0000 </r>
       <r>    8.4842    0.9008 </r>
       <r>   10.5669    0.0000 </r>
       <r>   13.0848    0.0000 </r>
       <r>   14.0295    0.0000 </r>
      </set>
      <set comment="kpoint 5">
       <r>   -4.6373    1.0000 </r>
       <r>    5.0239    1.0000 </r>
       <r>    5.8794    1.0000 </r>
       <r>    7.8732    1.0000 </r>
       <r>   10.9737    0.0000 </r>
       <r>   14.8461    0.0000 </r>
       <r>   17.3162    0.0000 </r>
       <r>   17.4139    0.0000 </r>
      </set>
      <set comment="kpoint 6">
       <r>   -1.2001    1.0000 </r>
       <r>    4.4601    1.0000 </r>
       <r>    6.4289    1.0000 </r>
       <r>    6.6235    1.0000 </r>
       <r>    9.5712    0.0000 </r>
       <r>   11.5605    0.0000 </r>
       <r>   12.8624    0.0000 </r>
       <r>   13.0545    0.0000 </r>
      </set>
      <set comment="kpoint 7">
       <r>    1.2616    1.0000 </r>
       <r>    2.9603    1.0000 </r>
       <r>    4.3064    1.0000 </r>
       <r>    5.7817    1.0000 </r>
       <r>    9.8261    0.0000 </r>
       <r>   11.5622    0.0000 </r>
       <r>   12.5844    0.0000 </r>
       <r>   14.6209    0.0000 </r>
      </set>
      <set comment="kpoint 8">
       <r>   -0.1034    1.0000 </r>
       <r>    2.7289    1.0000 </r>
       <r>    4.9076    1.0000 </r>
       <r>    7.2561    1.0000 </r>
       <r>    9.0725    0.0020 </r>
       <r>   11.7306    0.0000 </r>
       <r>   13.6492    0.0000 </r>
       <r>   14.5290    0.0000 </r>
      </set>
      <set comment="kpoint 9">
       <r>   -2.2659    1.0000 </r>
       <r>    2.1099    1.0000 </r>
       <r>    7.5268    1.0000 </r>
       <r>    8.8053    0.1624 </r>
       <r>   10.3320    0.0000 </r>
       <r>   11.4548    0.0000 </r>
       <r>   12.6648    0.0000 </r>
       <r>   15.0031    0.0000 </r>
      </set>
      <set comment="kpoint 10">
       <r>   -3.6638    1.0000 </r>
       <r>    2.1991    1.0000 </r>
       <r>    7.1910    1.0000 </r>
       <r>    9.1291    0.0005 </r>
       <r>   12.1199    0.0000 </r>
       <r>   13.6322    0.0000 </r>
       <r>   14.1844    0.0000 </r>
       <r>   14.8061    0.0000 </r>
      </set>
      <set comment="kpoint 11">
       <r>   -4.2591    1.0000 </r>
       <r>    3.0114    1.0000 </r>
       <r>    5.9956    1.0000 </r>
       <r>    9.1089    0.0009 </r>
       <r>   12.7744    0.0000 </r>
       <r>   12.9371    0.0000 </r>
       <r>   15.8535    0.0000 </r>
       <r>   17.2007    0.0000 </r>
      </set>
      <set comment="kpoint 12">
       <r>   -4.0410    1.0000 </r>
       <r>    4.1364    1.0000 </r>
       <r>    5.3633    1.0000 </r>
       <r>    9.6893    0.0000 </r>
       <r>   12.5645    0.0000 </r>
       <r>   12.6842    0.0000 </r>
       <r>   13.7250    0.0000 </r>
       <r>   15.7003    0.0000 </r>
      </set>
      <set comment="kpoint 13">
       <r>    1.1239    1.0000 </r>
       <r>    1.1912    1.0000 </r>
       <r>    4.7154    1.0000 </r>
       <r>    7.1987    1.0000 </r>
       <r>    9.8120    0.0000 </r>
       <r>   10.6373    0.0000 </r>
       <r>   14.6746    0.0000 </r>
       <r>   15.5249    0.0000 </r>
      </set>
      <set comment="kpoint 14">
       <r>   -1.1525    1.0000 </r>
       <r>    0.3141    1.0000 </r>
       <r>    8.0523    1.0000 </r>
       <r>    8.6627    0.5096 </r>
       <r>    9.9836    0.0000 </r>
       <r>   11.3745    0.0000 </r>
       <r>   12.4719    0.0000 </r>
       <r>   13.8627    0.0000 </r>
      </set>
      <set comment="kpoint 15">
       <r>   -2.7257    1.0000 </r>
       <r>    0.2275    1.0000 </r>
       <r>    8.0269    1.0000 </r>
       <r>   10.0937    0.0000 </r>
       <r>   10.6116    0.0000 </r>
       <r>   12.6963    0.0000 </r>
       <r>   13.7359    0.0000 </r>
       <r>   13.8259    0.0000 </r>
      </set>
      <set comment="kpoint 16">
       <r>   -3.5055    1.0000 </r>
       <r>    0.9137    1.0000 </r>
       <r>    6.6794    1.0000 </r>
       <r>   10.0475    0.0000 </r>
       <r>   10.8019    0.0000 </r>
       <r>   14.1344    0.0000 </r>
       <r>   15.8371    0.0000 </r>
       <r>   16.8940    0.0000 </r>
      </set>
      <set comment="kpoint 17">
       <r>   -3.4765    1.0000 </r>
       <r>    2.3232    1.0000 </r>
       <r>    5.4830    1.0000 </r>
       <r>   10.6435    0.0000 </r>
       <r>   11.0380    0.0000 </r>
       <r>   12.9442    0.0000 </r>
       <r>   14.7175    0.0000 </r>
       <r>   15.6183    0.0000 </r>
      </set>
      <set comment="kpoint 18">
       <r>   -2.6401    1.0000 </r>
       <r>    3.9983    1.0000 </r>
       <r>    5.3703    1.0000 </r>
       <r>    8.4478    0.9386 </r>
       <r>   11.0772    0.0000 </r>
       <r>   12.6211    0.0000 </r>
       <r>   13.2806    0.0000 </r>
       <r>   13.6508    0.0000 </r>
      </set>
      <set comment="kpoint 19">
       <r>   -1.4237    1.0000 </r>
       <r>   -1.4237    1.0000 </r>
       <r>    9.1709    0.0002 </r>
       <r>    9.1709    0.0002 </r>
       <r>   11.3441    0.0000 </r>
       <r>   11.3441    0.0000 </r>
       <r>   13.5409    0.0000 </r>
       <r>   13.5409    0.0000 </r>
      </set>
      <set comment="kpoint 20">
       <r>   -2.3828    1.0000 </r>
       <r>   -0.9026    1.0000 </r>
       <r>    7.7222    1.0000 </r>
       <r>    9.1035    0.0010 </r>
       <r>   11.1592    0.0000 </r>
       <r>   12.5312    0.0000 </r>
       <r>   16.5996    0.0000 </r>
       <r>   16.6976    0.0000 </r>
      </set>
      <set comment="kpoint 21">
       <r>   -2.5411    1.0000 </r>
       <r>    0.3947    1.0000 </r>
       <r>    6.3159    1.0000 </r>
       <r>    9.0450    0.0037 </r>
       <r>   11.3941    0.0000 </r>
       <r>   12.8675    0.0000 </r>
       <r>   14.8058    0.0000 </r>
       <r>   15.3286    0.0000 </r>
      </set>
      <set comment="kpoint 22">
       <r>   -1.8966    1.0000 </r>
       <r>    2.3937    1.0000 </r>
       <r>    5.5756    1.0000 </r>
       <r>    7.8093    1.0000 </r>
       <r>    9.6684    0.0000 </r>
       <r>   12.4810    0.0000 </r>
       <r>   13.9746    0.0000 </r>
       <r>   15.3130    0.0000 </r>
      </set>
      <set comment="kpoint 23">
       <r>   -0.4717    1.0000 </r>
       <r>    4.0445    1.0000 </r>
       <r>    5.1975    1.0000 </r>
       <r>    5.9869    1.0000 </r>
       <r>    9.1324    0.0005 </r>
       <r>   11.5480    0.0000 </r>
       <r>   11.8598    0.0000 </r>
       <r>   15.1454    0.0000 </r>
      </set>
      <set comment="kpoint 24">
       <r>   -1.2476    1.0000 </r>
       <r>   -1.2410    1.0000 </r>
       <r>    7.5137    1.0000 </r>
       <r>    7.5277    1.0000 </r>
       <r>   11.4852    0.0000 </r>
       <r>   13.3744    0.0000 </r>
       <r>   14.2132    0.0000 </r>
       <r>   14.8147    0.0000 </r>
      </set>
      <set comment="kpoint 25">
       <r>   -0.7917    1.0000 </r>
       <r>    0.6568    1.0000 </r>
       <r>    6.4729    1.0000 </r>
       <r>    7.3887    1.0000 </r>
       <r>    8.2509    0.9983 </r>
       <r>   12.1335    0.0000 </r>
       <r>   15.0684    0.0000 </r>
       <r>   16.3717    0.0000 </r>
      </set>
      <set comment="kpoint 26">
       <r>    0.4250    1.0000 </r>
       <r>    3.0413    1.0000 </r>
       <r>    4.2092    1.0000 </r>
       <r>    6.4192    1.0000 </r>
       <r>    8.6452    0.5587 </r>
       <r>   10.5784    0.0000 </r>
       <r>   13.0814    0.0000 </r>
       <r>   16.4560    0.0000 </r>
      </set>
      <set comment="kpoint 27">
       <r>    0.9103    1.0000 </r>
       <r>    2.6379    1.0000 </r>
       <r>    6.2223    1.0000 </r>
       <r>    6.9546    1.0000 </r>
       <r>    7.5702    1.0000 </r>
       <r>   10.1835    0.0000 </r>
       <r>   11.6193    0.0000 </r>
       <r>   15.3622    0.0000 </r>
      </set>
      <set comment="kpoint 28">
       <r>    1.5576    1.0000 </r>
       <r>    1.7340    1.0000 </r>
       <r>    3.9099    1.0000 </r>
       <r>    7.2900    1.0000 </r>
       <r>    7.6975    1.0000 </r>
       <r>   10.2015    0.0000 </r>
       <r>   14.9315    0.0000 </r>
       <r>   15.5956    0.0000 </r>
      </set>
      <set comment="kpoint 29">
       <r>    0.5977    1.0000 </r>
       <r>    3.6351    1.0000 </r>
       <r>    4.9753    1.0000 </r>
       <r>    7.1496    1.0000 </r>
       <r>    8.2576    0.9981 </r>
       <r>   10.0656    0.0000 </r>
       <r>   11.6565    0.0000 </r>
       <r>   14.0554    0.0000 </r>
      </set>
      <set comment="kpoint 30">
       <r>   -1.5701    1.0000 </r>
       <r>    5.8145    1.0000 </r>
       <r>    6.8250    1.0000 </r>
       <r>    7.1955    1.0000 </r>
       <r>    8.4301    0.9524 </r>
       <r>   10.9124    0.0000 </r>
       <r>   11.6334    0.0000 </r>
       <r>   13.3090    0.0000 </r>
      </set>
      <set comment="kpoint 31">
       <r>   -1.7550    1.0000 </r>
       <r>    6.4445    1.0000 </r>
       <r>    7.1122    1.0000 </r>
       <r>    7.4096    1.0000 </r>
       <r>    8.7675    0.2366 </r>
       <r>   10.4185    0.0000 </r>
       <r>   11.6093    0.0000 </r>
       <r>   11.8323    0.0000 </r>
      </set>
      <set comment="kpoint 32">
       <r>   -3.3890    1.0000 </r>
       <r>    6.1323    1.0000 </r>
       <r>    6.8792    1.0000 </r>
       <r>    8.7283    0.3300 </r>
       <r>   10.8557    0.0000 </r>
       <r>   11.2853    0.0000 </r>
       <r>   12.0830    0.0000 </r>
       <r>   13.8218    0.0000 </r>
      </set>
      <set comment="kpoint 33">
       <r>   -4.4187    1.0000 </r>
       <r>    6.5147    1.0000 </r>
       <r>    6.5147    1.0000 </r>
       <r>    6.7837    1.0000 </r>
       <r>   10.7288    0.0000 </r>
       <r>   14.4887    0.0000 </r>
       <r>   14.6048    0.0000 </r>
       <r>   16.4831    0.0000 </r>
      </set>
      <set comment="kpoint 34">
       <r>   -0.2818    1.0000 </r>
       <r>    2.5872    1.0000 </r>
       <r>    5.9984    1.0000 </r>
       <r>    6.0883    1.0000 </r>
       <r>   10.5636    0.0000 </r>
       <r>   12.4036    0.0000 </r>
       <r>   13.6306    0.0000 </r>
       <r>   14.0702    0.0000 </r>
      </set>
      <set comment="kpoint 35">
       <r>    2.0204    1.0000 </r>
       <r>    2.7683    1.0000 </r>
       <r>    3.7976    1.0000 </r>
       <r>    4.4475    1.0000 </r>
       <r>   11.4870    0.0000 </r>
       <r>   13.4062    0.0000 </r>
       <r>   13.7127    0.0000 </r>
       <r>   13.8956    0.0000 </r>
      </set>
      <set comment="kpoint 36">
       <r>   -3.8826    1.0000 </r>
       <r>    2.8329    1.0000 </r>
       <r>    4.2590    1.0000 </r>
       <r>   10.6538    0.0000 </r>
       <r>   11.2304    0.0000 </r>
       <r>   14.0108    0.0000 </r>
       <r>   16.2484    0.0000 </r>
       <r>   16.7635    0.0000 </r>
      </set>
      <set comment="kpoint 37">
       <r>    0.9885    1.0000 </r>
       <r>    0.9885    1.0000 </r>
       <r>    5.8783    1.0000 </r>
       <r>    5.8783    1.0000 </r>
       <r>   11.8134    0.0000 </r>
       <r>   11.8134    0.0000 </r>
       <r>   13.6155    0.0000 </r>
       <r>   13.6155    0.0000 </r>
      </set>
      <set comment="kpoint 38">
       <r>   -3.1331    1.0000 </r>
       <r>    1.2026    1.0000 </r>
       <r>    4.4781    1.0000 </r>
       <r>    8.6259    0.6120 </r>
       <r>   12.5692    0.0000 </r>
       <r>   15.4801    0.0000 </r>
       <r>   16.0800    0.0000 </r>
       <r>   16.8591    0.0000 </r>
      </set>
      <set comment="kpoint 39">
       <r>   -2.9166    1.0000 </r>
       <r>    2.2976    1.0000 </r>
       <r>    3.8140    1.0000 </r>
       <r>    8.7812    0.2078 </r>
       <r>   11.3785    0.0000 </r>
       <r>   14.0059    0.0000 </r>
       <r>   16.0257    0.0000 </r>
       <r>   16.3326    0.0000 </r>
      </set>
      <set comment="kpoint 40">
       <r>   -2.0184    1.0000 </r>
       <r>   -0.5558    1.0000 </r>
       <r>    5.4860    1.0000 </r>
       <r>    6.8863    1.0000 </r>
       <r>   13.6161    0.0000 </r>
       <r>   14.6167    0.0000 </r>
       <r>   16.1721    0.0000 </r>
       <r>   16.5546    0.0000 </r>
      </set>
      <set comment="kpoint 41">
       <r>   -1.9906    1.0000 </r>
       <r>    0.8594    1.0000 </r>
       <r>    4.1742    1.0000 </r>
       <r>    6.9104    1.0000 </r>
       <r>   11.0173    0.0000 </r>
       <r>   15.3206    0.0000 </r>
       <r>   16.3849    0.0000 </r>
       <r>   17.8323    0.0000 </r>
      </set>
      <set comment="kpoint 42">
       <r>   -1.1635    1.0000 </r>
       <r>    2.5301    1.0000 </r>
       <r>    4.0888    1.0000 </r>
       <r>    7.0032    1.0000 </r>
       <r>    7.9132    1.0000 </r>
       <r>   13.7220    0.0000 </r>
       <r>   15.1376    0.0000 </r>
       <r>   16.4673    0.0000 </r>
      </set>
      <set comment="kpoint 43">
       <r>   -0.7215    1.0000 </r>
       <r>   -0.7074    1.0000 </r>
       <r>    5.3371    1.0000 </r>
       <r>    5.3596    1.0000 </r>
       <r>   10.8726    0.0000 </r>
       <r>   15.9886    0.0000 </r>
       <r>   16.6569    0.0000 </r>
       <r>   16.9685    0.0000 </r>
      </set>
      <set comment="kpoint 44">
       <r>   -0.0820    1.0000 </r>
       <r>    1.2960    1.0000 </r>
       <r>    4.5866    1.0000 </r>
       <r>    5.8496    1.0000 </r>
       <r>    7.0393    1.0000 </r>
       <r>   13.9067    0.0000 </r>
       <r>   16.6657    0.0000 </r>
       <r>   17.7041    0.0000 </r>
      </set>
      <set comment="kpoint 45">
       <r>    1.2698    1.0000 </r>
       <r>    2.9953    1.0000 </r>
       <r>    4.1625    1.0000 </r>
       <r>    5.0741    1.0000 </r>
       <r>    7.2613    1.0000 </r>
       <r>   11.6895    0.0000 </r>
       <r>   13.0218    0.0000 </r>
       <r>   16.6280    0.0000 </r>
      </set>
      <set comment="kpoint 46">
       <r>    2.1052    1.0000 </r>
       <r>    2.5765    1.0000 </r>
       <r>    3.6452    1.0000 </r>
       <r>    5.7636    1.0000 </r>
       <r>    5.8799    1.0000 </r>
       <r>   11.9378    0.0000 </r>
       <r>   14.3976    0.0000 </r>
       <r>   15.2022    0.0000 </r>
      </set>
      <set comment="kpoint 47">
       <r>    0.2508    1.0000 </r>
       <r>    4.6292    1.0000 </r>
       <r>    5.5566    1.0000 </r>
       <r>    6.6289    1.0000 </r>
       <r>    7.4269    1.0000 </r>
       <r>   10.4432    0.0000 </r>
       <r>   11.5104    0.0000 </r>
       <r>   12.9952    0.0000 </r>
      </set>
      <set comment="kpoint 48">
       <r>   -1.9406    1.0000 </r>
       <r>    7.7960    1.0000 </r>
       <r>    7.7960    1.0000 </r>
       <r>    7.8920    1.0000 </r>
       <r>    8.1083    1.0000 </r>
       <r>    9.3906    0.0000 </r>
       <r>   11.3298    0.0000 </r>
       <r>   11.3298    0.0000 </r>
      </set>
      <set comment="kpoint 49">
       <r>   -2.3934    1.0000 </r>
       <r>    1.3432    1.0000 </r>
       <r>    2.9357    1.0000 </r>
       <r>    6.5629    1.0000 </r>
       <r>   14.2286    0.0000 </r>
       <r>   15.1099    0.0000 </r>
       <r>   16.6694    0.0000 </r>
       <r>   18.0977    0.0000 </r>
      </set>
      <set comment="kpoint 50">
       <r>   -1.3010    1.0000 </r>
       <r>    0.0917    1.0000 </r>
       <r>    3.4555    1.0000 </r>
       <r>    4.8122    1.0000 </r>
       <r>   14.5599    0.0000 </r>
       <r>   14.7474    0.0000 </r>
       <r>   17.6497    0.0000 </r>
       <r>   18.7187    0.0000 </r>
      </set>
      <set comment="kpoint 51">
       <r>   -1.0874    1.0000 </r>
       <r>    1.1765    1.0000 </r>
       <r>    2.7991    1.0000 </r>
       <r>    5.0096    1.0000 </r>
       <r>   10.5634    0.0000 </r>
       <r>   17.4782    0.0000 </r>
       <r>   17.8394    0.0000 </r>
       <r>   18.8534    0.0000 </r>
      </set>
      <set comment="kpoint 52">
       <r>    0.1043    1.0000 </r>
       <r>    0.1288    1.0000 </r>
       <r>    3.4777    1.0000 </r>
       <r>    3.4927    1.0000 </r>
       <r>   10.4028    0.0000 </r>
       <r>   17.7204    0.0000 </r>
       <r>   19.0048    0.0000 </r>
       <r>   19.5742    0.0000 </r>
      </set>
      <set comment="kpoint 53">
       <r>    0.9234    1.0000 </r>
       <r>    1.7884    1.0000 </r>
       <r>    3.4138    1.0000 </r>
       <r>    4.2485    1.0000 </r>
       <r>    6.6083    1.0000 </r>
       <r>   15.5734    0.0000 </r>
       <r>   16.8062    0.0000 </r>
       <r>   17.9805    0.0000 </r>
      </set>
      <set comment="kpoint 54">
       <r>    2.3201    1.0000 </r>
       <r>    3.2895    1.0000 </r>
       <r>    4.0415    1.0000 </r>
       <r>    4.7522    1.0000 </r>
       <r>    4.7522    1.0000 </r>
       <r>   13.6540    0.0000 </r>
       <r>   14.2164    0.0000 </r>
       <r>   14.2164    0.0000 </r>
      </set>
      <set comment="kpoint 55">
       <r>   -0.2819    1.0000 </r>
       <r>    0.5900    1.0000 </r>
       <r>    2.2464    1.0000 </r>
       <r>    3.1066    1.0000 </r>
       <r>   14.4608    0.0000 </r>
       <r>   14.4986    0.0000 </r>
       <r>   19.8893    0.0000 </r>
       <r>   20.6552    0.0000 </r>
      </set>
      <set comment="kpoint 56">
       <r>    0.7802    1.0000 </r>
       <r>    0.8198    1.0000 </r>
       <r>    2.4533    1.0000 </r>
       <r>    2.4533    1.0000 </r>
       <r>   10.2394    0.0000 </r>
       <r>   18.2332    0.0000 </r>
       <r>   20.1710    0.0000 </r>
       <r>   20.2280    0.0000 </r>
      </set>
     </set>
    </set>
   </array>
  </eigenvalues>
  <separator name="orbital magnetization" >
   <v name="MAGDIPOLOUT">      0.00000000      0.00000000      0.00000000</v>
  </separator>
  <dos>
   <i name="efermi">      8.66610317 </i>
   <total>
    <array>
     <dimension dim="1">gridpoints</dimension>
     <dimension dim="2">spin</dimension>
     <field>energy</field>
     <field>total</field>
     <field>integrated</field>
     <set>
      <set comment="spin 1">
       <r>    -6.6373     0.0000     0.0000 </r>
       <r>    -6.5397     0.0000     0.0000 </r>
       <r>    -6.4421     0.0000     0.0000 </r>
       <r>    -6.3444     0.0000     0.0000 </r>
       <r>    -6.2468     0.0000     0.0000 </r>
       <r>    -6.1491     0.0000     0.0000 </r>
       <r>    -6.0515     0.0000     0.0000 </r>
       <r>    -5.9539     0.0000     0.0000 </r>
       <r>    -5.8562     0.0000     0.0000 </r>
       <r>    -5.7586     0.0000     0.0000 </r>
       <r>    -5.6609     0.0000     0.0000 </r>
       <r>    -5.5633     0.0000     0.0000 </r>
       <r>    -5.4656     0.0000     0.0000 </r>
       <r>    -5.3680     0.0000     0.0000 </r>
       <r>    -5.2704     0.0000     0.0000 </r>
       <r>    -5.1727     0.0000     0.0000 </r>
       <r>    -5.0751     0.0001     0.0000 </r>
       <r>    -4.9774     0.0011     0.0001 </r>
       <r>    -4.8798     0.0057     0.0007 </r>
       <r>    -4.7822     0.0180     0.0024 </r>
       <r>    -4.6845     0.0372     0.0061 </r>
       <r>    -4.5869     0.0547     0.0114 </r>
       <r>    -4.4892     0.0718     0.0184 </r>
       <r>    -4.3916     0.1092     0.0291 </r>
       <r>    -4.2939     0.1707     0.0457 </r>
       <r>    -4.1963     0.2171     0.0669 </r>
       <r>    -4.0987     0.2155     0.0880 </r>
       <r>    -4.0010     0.1816     0.1057 </r>
       <r>    -3.9034     0.1459     0.1200 </r>
       <r>    -3.8057     0.1312     0.1328 </r>
       <r>    -3.7081     0.1611     0.1485 </r>
       <r>    -3.6104     0.2436     0.1723 </r>
       <r>    -3.5128     0.3400     0.2055 </r>
       <r>    -3.4152     0.3721     0.2418 </r>
       <r>    -3.3175     0.3119     0.2723 </r>
       <r>    -3.2199     0.2430     0.2960 </r>
       <r>    -3.1222     0.2499     0.3204 </r>
       <r>    -3.0246     0.3041     0.3501 </r>
       <r>    -2.9270     0.3230     0.3816 </r>
       <r>    -2.8293     0.2962     0.4106 </r>
       <r>    -2.7317     0.2878     0.4387 </r>
       <r>    -2.6340     0.3268     0.4706 </r>
       <r>    -2.5364     0.3726     0.5070 </r>
       <r>    -2.4387     0.3895     0.5450 </r>
       <r>    -2.3411     0.3814     0.5822 </r>
       <r>    -2.2435     0.3583     0.6172 </r>
       <r>    -2.1458     0.3475     0.6512 </r>
       <r>    -2.0482     0.3955     0.6898 </r>
       <r>    -1.9505     0.4690     0.7356 </r>
       <r>    -1.8529     0.4646     0.7809 </r>
       <r>    -1.7553     0.3669     0.8168 </r>
       <r>    -1.6576     0.2642     0.8425 </r>
       <r>    -1.5600     0.2245     0.8645 </r>
       <r>    -1.4623     0.2619     0.8900 </r>
       <r>    -1.3647     0.3835     0.9275 </r>
       <r>    -1.2670     0.5732     0.9835 </r>
       <r>    -1.1694     0.7345     1.0552 </r>
       <r>    -1.0718     0.7567     1.1291 </r>
       <r>    -0.9741     0.6564     1.1932 </r>
       <r>    -0.8765     0.5526     1.2471 </r>
       <r>    -0.7788     0.5045     1.2964 </r>
       <r>    -0.6812     0.4637     1.3416 </r>
       <r>    -0.5836     0.3903     1.3798 </r>
       <r>    -0.4859     0.3142     1.4104 </r>
       <r>    -0.3883     0.2749     1.4373 </r>
       <r>    -0.2906     0.2945     1.4660 </r>
       <r>    -0.1930     0.3756     1.5027 </r>
       <r>    -0.0953     0.4772     1.5493 </r>
       <r>     0.0023     0.5437     1.6024 </r>
       <r>     0.0999     0.5812     1.6591 </r>
       <r>     0.1976     0.6365     1.7213 </r>
       <r>     0.2952     0.7097     1.7906 </r>
       <r>     0.3929     0.7484     1.8637 </r>
       <r>     0.4905     0.7206     1.9340 </r>
       <r>     0.5881     0.6618     1.9986 </r>
       <r>     0.6858     0.6186     2.0590 </r>
       <r>     0.7834     0.6151     2.1191 </r>
       <r>     0.8811     0.6508     2.1826 </r>
       <r>     0.9787     0.6778     2.2488 </r>
       <r>     1.0764     0.7051     2.3177 </r>
       <r>     1.1740     0.8022     2.3960 </r>
       <r>     1.2716     0.8864     2.4825 </r>
       <r>     1.3693     0.7828     2.5590 </r>
       <r>     1.4669     0.5247     2.6102 </r>
       <r>     1.5646     0.3126     2.6407 </r>
       <r>     1.6622     0.2355     2.6637 </r>
       <r>     1.7598     0.2332     2.6865 </r>
       <r>     1.8575     0.2450     2.7104 </r>
       <r>     1.9551     0.2956     2.7393 </r>
       <r>     2.0528     0.4319     2.7815 </r>
       <r>     2.1504     0.6171     2.8417 </r>
       <r>     2.2481     0.7607     2.9160 </r>
       <r>     2.3457     0.8077     2.9948 </r>
       <r>     2.4433     0.7666     3.0697 </r>
       <r>     2.5410     0.7072     3.1388 </r>
       <r>     2.6386     0.6882     3.2059 </r>
       <r>     2.7363     0.6997     3.2743 </r>
       <r>     2.8339     0.7178     3.3444 </r>
       <r>     2.9315     0.7402     3.4166 </r>
       <r>     3.0292     0.7160     3.4865 </r>
       <r>     3.1268     0.5733     3.5425 </r>
       <r>     3.2245     0.3814     3.5798 </r>
       <r>     3.3221     0.3038     3.6094 </r>
       <r>     3.4198     0.3797     3.6465 </r>
       <r>     3.5174     0.4953     3.6949 </r>
       <r>     3.6150     0.5444     3.7480 </r>
       <r>     3.7127     0.5245     3.7992 </r>
       <r>     3.8103     0.4948     3.8475 </r>
       <r>     3.9080     0.5264     3.8989 </r>
       <r>     4.0056     0.6819     3.9655 </r>
       <r>     4.1033     0.9488     4.0581 </r>
       <r>     4.2009     1.1731     4.1727 </r>
       <r>     4.2985     1.2045     4.2903 </r>
       <r>     4.3962     1.0975     4.3975 </r>
       <r>     4.4938     0.9762     4.4928 </r>
       <r>     4.5915     0.8446     4.5753 </r>
       <r>     4.6891     0.6985     4.6435 </r>
       <r>     4.7867     0.6098     4.7030 </r>
       <r>     4.8844     0.6179     4.7633 </r>
       <r>     4.9820     0.6506     4.8269 </r>
       <r>     5.0797     0.6110     4.8865 </r>
       <r>     5.1773     0.5312     4.9384 </r>
       <r>     5.2750     0.5441     4.9915 </r>
       <r>     5.3726     0.6948     5.0594 </r>
       <r>     5.4702     0.8778     5.1451 </r>
       <r>     5.5679     0.9647     5.2393 </r>
       <r>     5.6655     0.9619     5.3332 </r>
       <r>     5.7632     0.9879     5.4296 </r>
       <r>     5.8608     1.0434     5.5315 </r>
       <r>     5.9584     1.0049     5.6296 </r>
       <r>     6.0561     0.8659     5.7142 </r>
       <r>     6.1537     0.7376     5.7862 </r>
       <r>     6.2514     0.7022     5.8548 </r>
       <r>     6.3490     0.7750     5.9304 </r>
       <r>     6.4467     0.8901     6.0173 </r>
       <r>     6.5443     0.9390     6.1090 </r>
       <r>     6.6419     0.8935     6.1963 </r>
       <r>     6.7396     0.8381     6.2781 </r>
       <r>     6.8372     0.8833     6.3644 </r>
       <r>     6.9349     1.0384     6.4657 </r>
       <r>     7.0325     1.2015     6.5831 </r>
       <r>     7.1301     1.3145     6.7114 </r>
       <r>     7.2278     1.3706     6.8452 </r>
       <r>     7.3254     1.3243     6.9745 </r>
       <r>     7.4231     1.1790     7.0897 </r>
       <r>     7.5207     1.0036     7.1877 </r>
       <r>     7.6184     0.8361     7.2693 </r>
       <r>     7.7160     0.7092     7.3385 </r>
       <r>     7.8136     0.6462     7.4016 </r>
       <r>     7.9113     0.6169     7.4619 </r>
       <r>     8.0089     0.6006     7.5205 </r>
       <r>     8.1066     0.6126     7.5803 </r>
       <r>     8.2042     0.6465     7.6435 </r>
       <r>     8.3018     0.6609     7.7080 </r>
       <r>     8.3995     0.6584     7.7723 </r>
       <r>     8.4971     0.7225     7.8428 </r>
       <r>     8.5948     0.8801     7.9288 </r>
       <r>     8.6924     1.0031     8.0267 </r>
       <r>     8.7901     0.9547     8.1199 </r>
       <r>     8.8877     0.8092     8.1989 </r>
       <r>     8.9853     0.7904     8.2761 </r>
       <r>     9.0830     0.9216     8.3661 </r>
       <r>     9.1806     0.9318     8.4571 </r>
       <r>     9.2783     0.6771     8.5232 </r>
       <r>     9.3759     0.3657     8.5589 </r>
       <r>     9.4735     0.2320     8.5816 </r>
       <r>     9.5712     0.2945     8.6103 </r>
       <r>     9.6688     0.4387     8.6532 </r>
       <r>     9.7665     0.5524     8.7071 </r>
       <r>     9.8641     0.6109     8.7668 </r>
       <r>     9.9618     0.6629     8.8315 </r>
       <r>    10.0594     0.7194     8.9017 </r>
       <r>    10.1570     0.7286     8.9729 </r>
       <r>    10.2547     0.6985     9.0411 </r>
       <r>    10.3523     0.7181     9.1112 </r>
       <r>    10.4500     0.8393     9.1931 </r>
       <r>    10.5476     1.0157     9.2923 </r>
       <r>    10.6452     1.1307     9.4027 </r>
       <r>    10.7429     1.1335     9.5134 </r>
       <r>    10.8405     1.1070     9.6215 </r>
       <r>    10.9382     1.0902     9.7279 </r>
       <r>    11.0358     1.0144     9.8270 </r>
       <r>    11.1335     0.8819     9.9131 </r>
       <r>    11.2311     0.8410     9.9952 </r>
       <r>    11.3287     1.0156    10.0944 </r>
       <r>    11.4264     1.3227    10.2235 </r>
       <r>    11.5240     1.5668    10.3765 </r>
       <r>    11.6217     1.6383    10.5365 </r>
       <r>    11.7193     1.5235    10.6852 </r>
       <r>    11.8170     1.2543    10.8077 </r>
       <r>    11.9146     0.9248    10.8980 </r>
       <r>    12.0122     0.6662    10.9631 </r>
       <r>    12.1099     0.5276    11.0146 </r>
       <r>    12.2075     0.4508    11.0586 </r>
       <r>    12.3052     0.4430    11.1018 </r>
       <r>    12.4028     0.6091    11.1613 </r>
       <r>    12.5004     0.9178    11.2509 </r>
       <r>    12.5981     1.1515    11.3634 </r>
       <r>    12.6957     1.1680    11.4774 </r>
       <r>    12.7934     1.0680    11.5817 </r>
       <r>    12.8910     1.0276    11.6820 </r>
       <r>    12.9887     1.0559    11.7851 </r>
       <r>    13.0863     1.0290    11.8856 </r>
       <r>    13.1839     0.8943    11.9729 </r>
       <r>    13.2816     0.7361    12.0448 </r>
       <r>    13.3792     0.6829    12.1115 </r>
       <r>    13.4769     0.8413    12.1936 </r>
       <r>    13.5745     1.2189    12.3126 </r>
       <r>    13.6721     1.5964    12.4685 </r>
       <r>    13.7698     1.7089    12.6354 </r>
       <r>    13.8674     1.5895    12.7906 </r>
       <r>    13.9651     1.4303    12.9302 </r>
       <r>    14.0627     1.2730    13.0545 </r>
       <r>    14.1604     1.0775    13.1597 </r>
       <r>    14.2580     0.8849    13.2461 </r>
       <r>    14.3556     0.7934    13.3236 </r>
       <r>    14.4533     0.8501    13.4066 </r>
       <r>    14.5509     0.9927    13.5035 </r>
       <r>    14.6486     1.1097    13.6119 </r>
       <r>    14.7462     1.1295    13.7222 </r>
       <r>    14.8438     1.0438    13.8241 </r>
       <r>    14.9415     0.9198    13.9139 </r>
       <r>    15.0391     0.8543    13.9973 </r>
       <r>    15.1368     0.8690    14.0821 </r>
       <r>    15.2344     0.9220    14.1722 </r>
       <r>    15.3321     0.9546    14.2654 </r>
       <r>    15.4297     0.9127    14.3545 </r>
       <r>    15.5273     0.8203    14.4346 </r>
       <r>    15.6250     0.7232    14.5052 </r>
       <r>    15.7226     0.6090    14.5647 </r>
       <r>    15.8203     0.4991    14.6134 </r>
       <r>    15.9179     0.4533    14.6577 </r>
       <r>    16.0155     0.4758    14.7041 </r>
       <r>    16.1132     0.5230    14.7552 </r>
       <r>    16.2108     0.5858    14.8124 </r>
       <r>    16.3085     0.7068    14.8814 </r>
       <r>    16.4061     0.8697    14.9663 </r>
       <r>    16.5038     0.9807    15.0621 </r>
       <r>    16.6014     1.0023    15.1599 </r>
       <r>    16.6990     0.9448    15.2522 </r>
       <r>    16.7967     0.8038    15.3307 </r>
       <r>    16.8943     0.6096    15.3902 </r>
       <r>    16.9920     0.4172    15.4309 </r>
       <r>    17.0896     0.2705    15.4573 </r>
       <r>    17.1872     0.1986    15.4767 </r>
       <r>    17.2849     0.1898    15.4953 </r>
       <r>    17.3825     0.2108    15.5159 </r>
       <r>    17.4802     0.2542    15.5407 </r>
       <r>    17.5778     0.3414    15.5740 </r>
       <r>    17.6755     0.4720    15.6201 </r>
       <r>    17.7731     0.5714    15.6759 </r>
       <r>    17.8707     0.5525    15.7298 </r>
       <r>    17.9684     0.4252    15.7713 </r>
       <r>    18.0660     0.2744    15.7981 </r>
       <r>    18.1637     0.1592    15.8137 </r>
       <r>    18.2613     0.0858    15.8221 </r>
       <r>    18.3589     0.0425    15.8262 </r>
       <r>    18.4566     0.0250    15.8287 </r>
       <r>    18.5542     0.0384    15.8324 </r>
       <r>    18.6519     0.0845    15.8407 </r>
       <r>    18.7495     0.1446    15.8548 </r>
       <r>    18.8472     0.1856    15.8729 </r>
       <r>    18.9448     0.1884    15.8913 </r>
       <r>    19.0424     0.1542    15.9064 </r>
       <r>    19.1401     0.0978    15.9159 </r>
       <r>    19.2377     0.0469    15.9205 </r>
       <r>    19.3354     0.0256    15.9230 </r>
       <r>    19.4330     0.0392    15.9268 </r>
       <r>    19.5307     0.0716    15.9338 </r>
       <r>    19.6283     0.0907    15.9427 </r>
       <r>    19.7259     0.0817    15.9506 </r>
       <r>    19.8236     0.0651    15.9570 </r>
       <r>    19.9212     0.0567    15.9625 </r>
       <r>    20.0189     0.0515    15.9676 </r>
       <r>    20.1165     0.0488    15.9723 </r>
       <r>    20.2141     0.0483    15.9770 </r>
       <r>    20.3118     0.0412    15.9811 </r>
       <r>    20.4094     0.0288    15.9839 </r>
       <r>    20.5071     0.0261    15.9864 </r>
       <r>    20.6047     0.0363    15.9900 </r>
       <r>    20.7024     0.0436    15.9942 </r>
       <r>    20.8000     0.0347    15.9976 </r>
       <r>    20.8976     0.0176    15.9993 </r>
       <r>    20.9953     0.0056    15.9999 </r>
       <r>    21.0929     0.0011    16.0000 </r>
       <r>    21.1906     0.0001    16.0000 </r>
       <r>    21.2882     0.0000    16.0000 </r>
       <r>    21.3858     0.0000    16.0000 </r>
       <r>    21.4835     0.0000    16.0000 </r>
       <r>    21.5811     0.0000    16.0000 </r>
       <r>    21.6788     0.0000    16.0000 </r>
       <r>    21.7764     0.0000    16.0000 </r>
       <r>    21.8741     0.0000    16.0000 </r>
       <r>    21.9717     0.0000    16.0000 </r>
       <r>    22.0693     0.0000    16.0000 </r>
       <r>    22.1670     0.0000    16.0000 </r>
       <r>    22.2646     0.0000    16.0000 </r>
       <r>    22.3623     0.0000    16.0000 </r>
       <r>    22.4599     0.0000    16.0000 </r>
       <r>    22.5575     0.0000    16.0000 </r>
       <r>    22.6552     0.0000    16.0000 </r>
      </set>
     </set>
    </array>
   </total>
  </dos>
 </calculation>
 <structure name="finalpos" >
  <crystal>
   <varray name="basis" >
    <v>      -2.43080100       2.43080100       1.33880900 </v>
    <v>       2.43080100      -2.43080100       1.33880900 </v>
    <v>       2.43080100       2.43080100      -1.33880900 </v>
   </varray>
   <i name="volume">     31.64298368 </i>
   <varray name="rec_basis" >
    <v>      -0.00000000       0.20569351       0.37346627 </v>
    <v>       0.20569351      -0.00000000       0.37346627 </v>
    <v>       0.20569351       0.20569351       0.00000000 </v>
   </varray>
  </crystal>
  <varray name="positions" >
   <v>       0.75000000       0.25000000       0.50000000 </v>
   <v>       0.50000000       0.50000000       0.00000000 </v>
  </varray>
 </structure>
</modeling>
