unknown system                          
           1
    -2.430801    2.430801    1.338809
     2.430801   -2.430801    1.338809
     2.430801    2.430801   -1.338809
   Si
   2
Direct configuration=     1
   0.75000000  0.25000000  0.50000000
   0.50000000  0.50000000  0.00000000
