   2   2   0   0
  0.1529437E+02  0.3691622E-09  0.3691622E-09  0.3691622E-09  0.5000000E-15
  1.000000000000000E-004
  CAR 
 unknown system                          
     23.22223833     -6.61422358  301      9.10616021      1.00000000
     -6.614  0.0000E+00  0.0000E+00
     -6.515  0.0000E+00  0.0000E+00
     -6.415  0.0000E+00  0.0000E+00
     -6.316  0.0000E+00  0.0000E+00
     -6.216  0.0000E+00  0.0000E+00
     -6.117  0.0000E+00  0.0000E+00
     -6.017  0.0000E+00  0.0000E+00
     -5.918  0.0000E+00  0.0000E+00
     -5.819  0.0000E+00  0.0000E+00
     -5.719  0.5104E-17  0.5076E-18
     -5.620  0.1066E-14  0.1065E-15
     -5.520  0.1363E-12  0.1366E-13
     -5.421  0.1074E-10  0.1082E-11
     -5.321  0.5224E-09  0.5304E-10
     -5.222  0.1577E-07  0.1621E-08
     -5.122  0.2973E-06  0.3119E-07
     -5.023  0.3545E-05  0.3838E-06
     -4.923  0.2731E-04  0.3100E-05
     -4.824  0.1405E-03  0.1708E-04
     -4.725  0.5066E-03  0.6746E-04
     -4.625  0.1355E-02  0.2022E-03
     -4.526  0.2849E-02  0.4856E-03
     -4.426  0.4908E-02  0.9737E-03
     -4.327  0.6958E-02  0.1666E-02
     -4.227  0.8262E-02  0.2487E-02
     -4.128  0.9489E-02  0.3431E-02
     -4.028  0.1205E-01  0.4630E-02
     -3.929  0.1438E-01  0.6060E-02
     -3.829  0.1360E-01  0.7413E-02
     -3.730  0.1076E-01  0.8483E-02
     -3.631  0.9331E-02  0.9411E-02
     -3.531  0.1134E-01  0.1054E-01
     -3.432  0.1643E-01  0.1217E-01
     -3.332  0.2136E-01  0.1430E-01
     -3.233  0.2325E-01  0.1661E-01
     -3.133  0.2241E-01  0.1884E-01
     -3.034  0.1990E-01  0.2082E-01
     -2.934  0.1730E-01  0.2254E-01
     -2.835  0.1665E-01  0.2419E-01
     -2.735  0.1736E-01  0.2592E-01
     -2.636  0.1787E-01  0.2770E-01
     -2.537  0.1861E-01  0.2955E-01
     -2.437  0.1995E-01  0.3153E-01
     -2.338  0.2237E-01  0.3376E-01
     -2.238  0.2663E-01  0.3641E-01
     -2.139  0.3003E-01  0.3939E-01
     -2.039  0.2853E-01  0.4223E-01
     -1.940  0.2351E-01  0.4457E-01
     -1.840  0.2158E-01  0.4671E-01
     -1.741  0.2527E-01  0.4923E-01
     -1.641  0.2873E-01  0.5208E-01
     -1.542  0.2676E-01  0.5475E-01
     -1.443  0.2247E-01  0.5698E-01
     -1.343  0.2178E-01  0.5915E-01
     -1.244  0.2620E-01  0.6175E-01
     -1.144  0.3348E-01  0.6508E-01
     -1.045  0.3964E-01  0.6902E-01
     -0.945  0.4042E-01  0.7304E-01
     -0.846  0.3476E-01  0.7650E-01
     -0.746  0.2707E-01  0.7919E-01
     -0.647  0.2325E-01  0.8151E-01
     -0.547  0.2394E-01  0.8389E-01
     -0.448  0.2531E-01  0.8640E-01
     -0.349  0.2490E-01  0.8888E-01
     -0.249  0.2378E-01  0.9124E-01
     -0.150  0.2602E-01  0.9383E-01
     -0.050  0.3397E-01  0.9721E-01
      0.049  0.4384E-01  0.1016E+00
      0.149  0.4941E-01  0.1065E+00
      0.248  0.4856E-01  0.1113E+00
      0.348  0.4409E-01  0.1157E+00
      0.447  0.3994E-01  0.1197E+00
      0.547  0.3790E-01  0.1234E+00
      0.646  0.3782E-01  0.1272E+00
      0.745  0.3888E-01  0.1311E+00
      0.845  0.3960E-01  0.1350E+00
      0.944  0.4012E-01  0.1390E+00
      1.044  0.4119E-01  0.1431E+00
      1.143  0.3984E-01  0.1471E+00
      1.243  0.3314E-01  0.1503E+00
      1.342  0.2438E-01  0.1528E+00
      1.442  0.2119E-01  0.1549E+00
      1.541  0.2679E-01  0.1575E+00
      1.641  0.3504E-01  0.1610E+00
      1.740  0.3833E-01  0.1648E+00
      1.839  0.3704E-01  0.1685E+00
      1.939  0.3702E-01  0.1722E+00
      2.038  0.4188E-01  0.1764E+00
      2.138  0.4923E-01  0.1813E+00
      2.237  0.5400E-01  0.1866E+00
      2.337  0.5450E-01  0.1921E+00
      2.436  0.4968E-01  0.1970E+00
      2.536  0.3743E-01  0.2007E+00
      2.635  0.2322E-01  0.2030E+00
      2.735  0.1717E-01  0.2047E+00
      2.834  0.2048E-01  0.2068E+00
      2.933  0.2547E-01  0.2093E+00
      3.033  0.2842E-01  0.2121E+00
      3.132  0.3433E-01  0.2156E+00
      3.232  0.4766E-01  0.2203E+00
      3.331  0.6217E-01  0.2265E+00
      3.431  0.6433E-01  0.2329E+00
      3.530  0.5174E-01  0.2380E+00
      3.630  0.3711E-01  0.2417E+00
      3.729  0.3272E-01  0.2450E+00
      3.829  0.4173E-01  0.2491E+00
      3.928  0.5618E-01  0.2547E+00
      4.027  0.6250E-01  0.2609E+00
      4.127  0.5544E-01  0.2664E+00
      4.226  0.4216E-01  0.2706E+00
      4.326  0.3242E-01  0.2738E+00
      4.425  0.2838E-01  0.2767E+00
      4.525  0.2698E-01  0.2794E+00
      4.624  0.2810E-01  0.2821E+00
      4.724  0.3400E-01  0.2855E+00
      4.823  0.4547E-01  0.2901E+00
      4.923  0.5846E-01  0.2959E+00
      5.022  0.6412E-01  0.3022E+00
      5.121  0.6042E-01  0.3083E+00
      5.221  0.5685E-01  0.3139E+00
      5.320  0.5952E-01  0.3198E+00
      5.420  0.6287E-01  0.3261E+00
      5.519  0.6186E-01  0.3322E+00
      5.619  0.5837E-01  0.3380E+00
      5.718  0.5174E-01  0.3432E+00
      5.818  0.4129E-01  0.3473E+00
      5.917  0.3376E-01  0.3506E+00
      6.017  0.3397E-01  0.3540E+00
      6.116  0.4148E-01  0.3582E+00
      6.215  0.5757E-01  0.3639E+00
      6.315  0.7683E-01  0.3715E+00
      6.414  0.8417E-01  0.3799E+00
      6.514  0.7392E-01  0.3872E+00
      6.613  0.5847E-01  0.3931E+00
      6.713  0.5352E-01  0.3984E+00
      6.812  0.6107E-01  0.4045E+00
      6.912  0.7023E-01  0.4114E+00
      7.011  0.7164E-01  0.4186E+00
      7.111  0.6616E-01  0.4251E+00
      7.210  0.5911E-01  0.4310E+00
      7.309  0.5259E-01  0.4363E+00
      7.409  0.4984E-01  0.4412E+00
      7.508  0.5409E-01  0.4466E+00
      7.608  0.5976E-01  0.4525E+00
      7.707  0.5937E-01  0.4584E+00
      7.807  0.5462E-01  0.4639E+00
      7.906  0.5147E-01  0.4690E+00
      8.006  0.5466E-01  0.4744E+00
      8.105  0.6628E-01  0.4810E+00
      8.205  0.7619E-01  0.4886E+00
      8.304  0.6956E-01  0.4955E+00
      8.403  0.5137E-01  0.5006E+00
      8.503  0.4016E-01  0.5046E+00
      8.602  0.4216E-01  0.5088E+00
      8.702  0.4928E-01  0.5137E+00
      8.801  0.5336E-01  0.5190E+00
      8.901  0.5232E-01  0.5242E+00
      9.000  0.4767E-01  0.5290E+00
      9.100  0.4146E-01  0.5331E+00
      9.199  0.3661E-01  0.5367E+00
      9.299  0.3542E-01  0.5402E+00
      9.398  0.3710E-01  0.5439E+00
      9.497  0.4173E-01  0.5481E+00
      9.597  0.5091E-01  0.5532E+00
      9.696  0.6138E-01  0.5593E+00
      9.796  0.6641E-01  0.5659E+00
      9.895  0.6696E-01  0.5725E+00
      9.995  0.6980E-01  0.5795E+00
     10.094  0.7103E-01  0.5865E+00
     10.194  0.6036E-01  0.5925E+00
     10.293  0.4096E-01  0.5966E+00
     10.393  0.2738E-01  0.5993E+00
     10.492  0.2800E-01  0.6021E+00
     10.591  0.3934E-01  0.6060E+00
     10.691  0.5060E-01  0.6111E+00
     10.790  0.5267E-01  0.6163E+00
     10.890  0.4743E-01  0.6210E+00
     10.989  0.4347E-01  0.6253E+00
     11.089  0.4464E-01  0.6298E+00
     11.188  0.4828E-01  0.6346E+00
     11.288  0.5173E-01  0.6397E+00
     11.387  0.5486E-01  0.6452E+00
     11.487  0.5743E-01  0.6509E+00
     11.586  0.5862E-01  0.6567E+00
     11.685  0.5734E-01  0.6624E+00
     11.785  0.5422E-01  0.6678E+00
     11.884  0.5312E-01  0.6731E+00
     11.984  0.5631E-01  0.6787E+00
     12.083  0.6187E-01  0.6849E+00
     12.183  0.6839E-01  0.6917E+00
     12.282  0.7768E-01  0.6994E+00
     12.382  0.8833E-01  0.7082E+00
     12.481  0.9258E-01  0.7174E+00
     12.581  0.8688E-01  0.7260E+00
     12.680  0.7702E-01  0.7337E+00
     12.779  0.7018E-01  0.7407E+00
     12.879  0.7116E-01  0.7477E+00
     12.978  0.7847E-01  0.7555E+00
     13.078  0.7947E-01  0.7634E+00
     13.177  0.6791E-01  0.7702E+00
     13.277  0.5816E-01  0.7760E+00
     13.376  0.6277E-01  0.7822E+00
     13.476  0.7364E-01  0.7895E+00
     13.575  0.7626E-01  0.7971E+00
     13.675  0.6758E-01  0.8038E+00
     13.774  0.5636E-01  0.8095E+00
     13.873  0.5094E-01  0.8145E+00
     13.973  0.5123E-01  0.8196E+00
     14.072  0.5447E-01  0.8250E+00
     14.172  0.6066E-01  0.8311E+00
     14.271  0.6856E-01  0.8379E+00
     14.371  0.7421E-01  0.8453E+00
     14.470  0.7564E-01  0.8528E+00
     14.570  0.7311E-01  0.8601E+00
     14.669  0.6879E-01  0.8669E+00
     14.769  0.6632E-01  0.8735E+00
     14.868  0.6714E-01  0.8802E+00
     14.967  0.7040E-01  0.8872E+00
     15.067  0.7555E-01  0.8947E+00
     15.166  0.7877E-01  0.9025E+00
     15.266  0.7127E-01  0.9096E+00
     15.365  0.5385E-01  0.9150E+00
     15.465  0.3966E-01  0.9189E+00
     15.564  0.3703E-01  0.9226E+00
     15.664  0.4561E-01  0.9271E+00
     15.763  0.6197E-01  0.9333E+00
     15.863  0.7858E-01  0.9411E+00
     15.962  0.8477E-01  0.9495E+00
     16.061  0.7519E-01  0.9570E+00
     16.161  0.5519E-01  0.9625E+00
     16.260  0.3698E-01  0.9662E+00
     16.360  0.2871E-01  0.9690E+00
     16.459  0.2958E-01  0.9720E+00
     16.559  0.3484E-01  0.9754E+00
     16.658  0.3865E-01  0.9793E+00
     16.758  0.3596E-01  0.9829E+00
     16.857  0.2886E-01  0.9857E+00
     16.957  0.2728E-01  0.9884E+00
     17.056  0.3756E-01  0.9922E+00
     17.155  0.5288E-01  0.9974E+00
     17.255  0.5906E-01  0.1003E+01
     17.354  0.5006E-01  0.1008E+01
     17.454  0.3443E-01  0.1012E+01
     17.553  0.2370E-01  0.1014E+01
     17.653  0.1932E-01  0.1016E+01
     17.752  0.1719E-01  0.1018E+01
     17.852  0.1721E-01  0.1019E+01
     17.951  0.2052E-01  0.1021E+01
     18.051  0.2431E-01  0.1024E+01
     18.150  0.2602E-01  0.1026E+01
     18.249  0.2788E-01  0.1029E+01
     18.349  0.3208E-01  0.1032E+01
     18.448  0.3710E-01  0.1036E+01
     18.548  0.4016E-01  0.1040E+01
     18.647  0.3801E-01  0.1044E+01
     18.747  0.3022E-01  0.1047E+01
     18.846  0.2180E-01  0.1049E+01
     18.946  0.1684E-01  0.1051E+01
     19.045  0.1508E-01  0.1052E+01
     19.145  0.1546E-01  0.1054E+01
     19.244  0.1587E-01  0.1055E+01
     19.343  0.1353E-01  0.1057E+01
     19.443  0.9886E-02  0.1058E+01
     19.542  0.8055E-02  0.1058E+01
     19.642  0.7702E-02  0.1059E+01
     19.741  0.7579E-02  0.1060E+01
     19.841  0.7908E-02  0.1061E+01
     19.940  0.8302E-02  0.1062E+01
     20.040  0.7733E-02  0.1062E+01
     20.139  0.6108E-02  0.1063E+01
     20.239  0.4068E-02  0.1063E+01
     20.338  0.2232E-02  0.1064E+01
     20.438  0.1086E-02  0.1064E+01
     20.537  0.9218E-03  0.1064E+01
     20.636  0.1645E-02  0.1064E+01
     20.736  0.2682E-02  0.1064E+01
     20.835  0.3249E-02  0.1065E+01
     20.935  0.3123E-02  0.1065E+01
     21.034  0.3001E-02  0.1065E+01
     21.134  0.3583E-02  0.1066E+01
     21.233  0.4292E-02  0.1066E+01
     21.333  0.3804E-02  0.1066E+01
     21.432  0.2204E-02  0.1067E+01
     21.532  0.8048E-03  0.1067E+01
     21.631  0.1833E-03  0.1067E+01
     21.730  0.2593E-04  0.1067E+01
     21.830  0.2274E-05  0.1067E+01
     21.929  0.1234E-06  0.1067E+01
     22.029  0.4134E-08  0.1067E+01
     22.128  0.8544E-10  0.1067E+01
     22.228  0.1088E-11  0.1067E+01
     22.327  0.8518E-14  0.1067E+01
     22.427  0.4083E-16  0.1067E+01
     22.526  0.0000E+00  0.1067E+01
     22.626  0.0000E+00  0.1067E+01
     22.725  0.0000E+00  0.1067E+01
     22.824  0.0000E+00  0.1067E+01
     22.924  0.0000E+00  0.1067E+01
     23.023  0.0000E+00  0.1067E+01
     23.123  0.0000E+00  0.1067E+01
     23.222  0.0000E+00  0.1067E+01
