unknown system                          
   1.00000000000000     
    -2.432004    2.432004    1.339471
     2.432004   -2.432004    1.339471
     2.432004    2.432004   -1.339471
   Si
     2
Direct
  0.750000  0.250000  0.500000
  0.500000  0.500000  0.000000
 
   36   36   36
  9.7124      9.6428      9.4403      9.1222      8.7136      8.2419      7.7329      7.2080      6.6832      6.1712    
  5.6833      5.2303      4.8229      4.4701      4.1785      3.9517      3.7907      3.6948      3.6630      3.6948    
  3.7907      3.9517      4.1785      4.4701      4.8229      5.2303      5.6833      6.1712      6.6832      7.2080    
  7.7329      8.2419      8.7136      9.1222      9.4403      9.6428      9.6428      9.7978      9.8116      9.6871    
  9.4388      9.0887      8.6621      8.1827      7.6705      7.1416      6.6098      6.0888      5.5926      5.1352    
  4.7291      4.3831      4.1025      3.8894      3.7432      3.6628      3.6473      3.6965      3.8114      3.9924    
  4.2391      4.5493      4.9184      5.3402      5.8075      6.3126      6.8467      7.3981      7.9504      8.4803    
  8.9592      9.3563      9.4403      9.8116      10.048      10.138      10.081      9.8893      9.5844      9.1897    
  8.7275      8.2168      7.6731      7.1112      6.5465      5.9965      5.4788      5.0093      4.6004      4.2594    
  3.9895      3.7910      3.6624      3.6023      3.6099      3.6854      3.8292      4.0411      4.3199      4.6630    
  5.0669      5.5277      6.0407      6.5992      7.1921      7.8013      8.4012      8.9592      9.1222      9.6871    
  10.138      10.447      10.599      10.593      10.444      10.170      9.7958      9.3416      8.8247      8.2595    
  7.6601      7.0439      6.4311      5.8440      5.3028      4.8237      4.4172      4.0879      3.8368      3.6620    
  3.5613      3.5331      3.5768      3.6924      3.8797      4.1386      4.4685      4.8686      5.3381      5.8750    
  6.4736      7.1225      7.8013      8.4803      8.7136      9.4388      10.081      10.599      10.962      11.158    
  11.186      11.062      10.807      10.446      9.9949      9.4692      8.8797      8.2391      7.5657      6.8834    
  6.2195      5.5999      5.0457      4.5706      4.1814      3.8792      3.6617      3.5256      3.4683      3.4880    
  3.5842      3.7572      4.0078      4.3375      4.7485      5.2425      5.8193      6.4736      7.1921      7.9504    
  8.2419      9.0887      9.8893      10.593      11.158      11.553      11.762      11.791      11.669      11.426    
  11.084      10.650      10.124      9.5115      8.8289      8.0951      7.3384      6.5925      5.8903      5.2584    
  4.7144      4.2669      3.9170      3.6617      3.4963      3.4167      3.4203      3.5062      3.6749      3.9289    
  4.2717      4.7082      5.2425      5.8750      6.5992      7.3981      7.7329      8.6621      9.5844      10.444    
  11.186      11.762      12.128      12.283      12.264      12.124      11.903      11.613      11.238      10.749    
  10.133      9.4096      8.6140      7.7803      6.9498      6.1634      5.4541      4.8434      4.3414      3.9490    
  3.6620      3.4740      3.3795      3.3749      3.4591      3.6337      3.9025      4.2717      4.7485      5.3381    
  6.0407      6.8467      7.2080      8.1827      9.1897      10.170      11.062      11.791      12.283      12.520    
  12.546      12.441      12.284      12.120      11.939      11.685      11.291      10.712      9.9620      9.1047    
  8.1931      7.2780      6.4089      5.6255      4.9529      4.4024      3.9743      3.6624      3.4590      3.3570    
  3.3521      3.4434      3.6337      3.9289      4.3375      4.8686      5.5277      6.3126      6.6832      7.6705    
  8.7275      9.7958      10.807      11.669      12.264      12.546      12.550      12.383      12.176      12.033    
  11.990      11.996      11.942      11.708      11.214      10.466      9.5500      8.5619      7.5648      6.6175    
  5.7661      5.0389      4.4478      3.9917      3.6628      3.4515      3.3494      3.3521      3.4591      3.6749    
  4.0078      4.4685      5.0669      5.8075      6.1712      7.1416      8.2168      9.3416      10.446      11.426    
  12.124      12.441      12.383      12.065      11.666      11.374      11.306      11.472      11.761      11.992    
  11.983      11.618      10.899      9.9351      8.8733      7.7994      6.7812      5.8705      5.0982      4.4757    
  4.0006      3.6630      3.4515      3.3570      3.3749      3.5062      3.7572      4.1386      4.6630      5.3402    
  5.6833      6.6098      7.6731      8.8247      9.9949      11.084      11.903      12.284      12.176      11.666    
  10.963      10.332      10.006      10.106      10.588      11.260      11.855      12.122      11.920      11.248    
  10.247      9.1164      7.9733      6.8939      5.9348      5.1284      4.4851      4.0006      3.6628      3.4590    
  3.3795      3.4203      3.5842      3.8797      4.3199      4.9184      5.2303      6.0888      7.1112      8.2595    
  9.4692      10.650      11.613      12.120      12.033      11.374      10.332      9.2238      8.4009      8.1331    
  8.5138      9.4223      10.565      11.580      12.155      12.125      11.507      10.477      9.2830      8.0801    
  6.9513      5.9565      5.1284      4.4757      3.9917      3.6624      3.4740      3.4167      3.4880      3.6924    
  4.0411      4.5493      4.8229      5.5926      6.5465      7.6601      8.8797      10.124      11.238      11.939    
  11.990      11.306      10.006      8.4009      6.9205      5.9922      5.8994      6.6804      8.1119      9.7848    
  11.243      12.123      12.253      11.677      10.616      9.3677      8.1161      6.9513      5.9348      5.0982    
  4.4478      3.9743      3.6620      3.4963      3.4683      3.5768      3.8292      4.2391      4.4701      5.1352    
  5.9965      7.0439      8.2391      9.5115      10.749      11.685      11.996      11.472      10.106      8.1332    
  5.9922      4.2247      3.3137      3.5251      4.8120      6.8282      9.0454      10.924      12.069      12.319    
  11.761      10.663      9.3677      8.0801      6.8939      5.8705      5.0389      4.4024      3.9490      3.6617    
  3.5256      3.5331      3.6854      3.9924      4.1785      4.7291      5.4788      6.4311      7.5657      8.8289    
  10.133      11.291      11.942      11.761      10.588      8.5138      5.8994      3.3138      1.3913     0.64105    
  1.2766      3.1390      5.7496      8.4701      10.699      12.032      12.340      11.761      10.616      9.2830    
  7.9733      6.7812      5.7661      4.9529      4.3414      3.9170      3.6617      3.5613      3.6099      3.8114    
  3.9517      4.3831      5.0094      5.8440      6.8834      8.0951      9.4096      10.712      11.708      11.993    
  11.260      9.4223      6.6804      3.5251     0.64105     -1.2733     -1.7208     -.57370      1.8794      5.0317    
  8.1557      10.618      12.032      12.319      11.677      10.477      9.1164      7.7994      6.6175      5.6255    
  4.8434      4.2669      3.8792      3.6620      3.6023      3.6965      3.7907      4.1026      4.6004      5.3028    
  6.2195      7.3384      8.6140      9.9620      11.214      11.983      11.855      10.565      8.1119      4.8120    
  1.2766     -1.7208     -3.4564     -3.4845     -1.7905      1.2033      4.7799      8.1557      10.699      12.069    
  12.253      11.507      10.247      8.8733      7.5648      6.4089      5.4541      4.7144      4.1814      3.8368    
  3.6624      3.6473      3.6948      3.8894      4.2594      4.8237      5.5999      6.5926      7.7803      9.1047    
  10.466      11.618      12.122      11.580      9.7848      6.8282      3.1390     -.57372     -3.4845     -4.8882    
 -4.4271     -2.2148      1.2033      5.0317      8.4701      10.924      12.123      12.125      11.248      9.9351    
  8.5619      7.2780      6.1634      5.2584      4.5706      4.0879      3.7910      3.6628      3.6630      3.7432    
  3.9895      4.4172      5.0457      5.8903      6.9498      8.1931      9.5500      10.899      11.920      12.155    
  11.243      9.0454      5.7496      1.8794     -1.7905     -4.4272     -5.3868     -4.4271     -1.7905      1.8794    
  5.7496      9.0454      11.243      12.155      11.920      10.899      9.5500      8.1931      6.9498      5.8903    
  5.0457      4.4172      3.9895      3.7432      3.6948      3.6628      3.7910      4.0880      4.5706      5.2584    
  6.1634      7.2780      8.5619      9.9351      11.248      12.125      12.123      10.924      8.4700      5.0317    
  1.2032     -2.2148     -4.4272     -4.8882     -3.4845     -.57370      3.1390      6.8282      9.7848      11.580    
  12.122      11.618      10.466      9.1047      7.7803      6.5925      5.5999      4.8237      4.2594      3.8894    
  3.7907      3.6473      3.6624      3.8368      4.1814      4.7144      5.4541      6.4089      7.5648      8.8732    
  10.247      11.507      12.253      12.069      10.699      8.1556      4.7799      1.2032     -1.7905     -3.4845    
 -3.4564     -1.7208      1.2766      4.8120      8.1119      10.565      11.855      11.983      11.214      9.9620    
  8.6140      7.3384      6.2195      5.3028      4.6004      4.1025      3.9517      3.6966      3.6023      3.6620    
  3.8792      4.2669      4.8434      5.6255      6.6175      7.7994      9.1164      10.477      11.677      12.319    
  12.032      10.618      8.1556      5.0317      1.8794     -.57372     -1.7208     -1.2733     0.64105      3.5251    
  6.6804      9.4223      11.260      11.992      11.708      10.712      9.4096      8.0951      6.8834      5.8440    
  5.0093      4.3831      4.1785      3.8114      3.6099      3.5613      3.6617      3.9170      4.3414      4.9529    
  5.7661      6.7812      7.9732      9.2830      10.616      11.761      12.340      12.032      10.699      8.4700    
  5.7496      3.1390      1.2766     0.64105      1.3913      3.3137      5.8994      8.5138      10.588      11.761    
  11.942      11.291      10.133      8.8289      7.5657      6.4311      5.4788      4.7291      4.4701      3.9924    
  3.6854      3.5331      3.5256      3.6617      3.9491      4.4025      5.0389      5.8705      6.8938      8.0800    
  9.3676      10.663      11.761      12.319      12.069      10.924      9.0454      6.8282      4.8120      3.5251    
  3.3138      4.2247      5.9922      8.1331      10.106      11.472      11.996      11.685      10.749      9.5115    
  8.2391      7.0439      5.9965      5.1352      4.8229      4.2391      3.8292      3.5768      3.4683      3.4963    
  3.6620      3.9743      4.4478      5.0982      5.9348      6.9512      8.1160      9.3676      10.616      11.677    
  12.253      12.123      11.243      9.7848      8.1119      6.6804      5.8994      5.9922      6.9205      8.4009    
  10.006      11.306      11.990      11.939      11.238      10.124      8.8797      7.6601      6.5465      5.5926    
  5.2303      4.5493      4.0411      3.6924      3.4880      3.4168      3.4740      3.6625      3.9917      4.4757    
  5.1284      5.9565      6.9512      8.0800      9.2830      10.477      11.507      12.125      12.155      11.580    
  10.565      9.4223      8.5138      8.1332      8.4009      9.2238      10.332      11.374      12.033      12.120    
  11.613      10.650      9.4692      8.2595      7.1112      6.0888      5.6833      4.9184      4.3199      3.8797    
  3.5842      3.4204      3.3795      3.4590      3.6629      4.0006      4.4851      5.1284      5.9348      6.8938    
  7.9732      9.1164      10.247      11.248      11.920      12.122      11.855      11.260      10.588      10.106    
  10.006      10.332      10.963      11.666      12.176      12.284      11.903      11.084      9.9949      8.8247    
  7.6731      6.6098      6.1712      5.3402      4.6630      4.1386      3.7572      3.5062      3.3749      3.3570    
  3.4515      3.6630      4.0006      4.4757      5.0982      5.8705      6.7812      7.7994      8.8732      9.9351    
  10.899      11.618      11.983      11.993      11.761      11.472      11.306      11.374      11.666      12.065    
  12.383      12.441      12.124      11.426      10.446      9.3416      8.2168      7.1416      6.6832      5.8075    
  5.0669      4.4685      4.0078      3.6749      3.4591      3.3521      3.3494      3.4515      3.6629      3.9917    
  4.4478      5.0389      5.7661      6.6175      7.5648      8.5619      9.5500      10.466      11.214      11.708    
  11.942      11.996      11.990      12.033      12.176      12.383      12.550      12.546      12.264      11.669    
  10.807      9.7958      8.7275      7.6705      7.2080      6.3126      5.5277      4.8686      4.3375      3.9289    
  3.6337      3.4434      3.3521      3.3570      3.4590      3.6625      3.9743      4.4025      4.9529      5.6255    
  6.4089      7.2780      8.1931      9.1047      9.9620      10.712      11.291      11.685      11.939      12.120    
  12.284      12.441      12.546      12.520      12.283      11.791      11.062      10.170      9.1897      8.1827    
  7.7329      6.8467      6.0407      5.3381      4.7485      4.2717      3.9025      3.6337      3.4591      3.3749    
  3.3795      3.4740      3.6620      3.9491      4.3414      4.8434      5.4541      6.1634      6.9498      7.7803    
  8.6140      9.4096      10.133      10.749      11.238      11.613      11.903      12.124      12.264      12.283    
  12.128      11.762      11.186      10.444      9.5844      8.6621      8.2419      7.3981      6.5992      5.8749    
  5.2424      4.7082      4.2717      3.9289      3.6749      3.5062      3.4204      3.4168      3.4963      3.6617    
  3.9170      4.2669      4.7144      5.2584      5.8903      6.5926      7.3384      8.0951      8.8289      9.5115    
  10.124      10.650      11.084      11.426      11.669      11.791      11.762      11.553      11.158      10.593    
  9.8893      9.0887      8.7136      7.9504      7.1921      6.4736      5.8193      5.2424      4.7485      4.3375    
  4.0078      3.7572      3.5842      3.4880      3.4683      3.5256      3.6617      3.8792      4.1814      4.5706    
  5.0457      5.5999      6.2195      6.8834      7.5657      8.2391      8.8797      9.4692      9.9949      10.446    
  10.807      11.062      11.186      11.158      10.962      10.599      10.081      9.4388      9.1222      8.4803    
  7.8013      7.1225      6.4736      5.8749      5.3381      4.8686      4.4685      4.1386      3.8797      3.6924    
  3.5768      3.5331      3.5613      3.6620      3.8368      4.0880      4.4172      4.8237      5.3028      5.8440    
  6.4311      7.0439      7.6601      8.2595      8.8247      9.3416      9.7958      10.170      10.444      10.593    
  10.599      10.447      10.138      9.6871      9.4403      8.9592      8.4012      7.8013      7.1921      6.5992    
  6.0407      5.5277      5.0669      4.6630      4.3199      4.0411      3.8292      3.6854      3.6099      3.6023    
  3.6624      3.7910      3.9895      4.2594      4.6004      5.0094      5.4788      5.9965      6.5465      7.1112    
  7.6731      8.2168      8.7275      9.1897      9.5844      9.8893      10.081      10.138      10.048      9.8116    
  9.6428      9.3563      8.9592      8.4803      7.9504      7.3981      6.8467      6.3126      5.8075      5.3402    
  4.9184      4.5493      4.2391      3.9924      3.8114      3.6966      3.6473      3.6628      3.7432      3.8894    
  4.1026      4.3831      4.7291      5.1352      5.5926      6.0888      6.6098      7.1416      7.6705      8.1827    
  8.6621      9.0887      9.4388      9.6871      9.8116      9.7978      9.6428      9.5326      9.3026      8.9704    
  8.5603      8.0990      7.6110      7.1162      6.6290      6.1602      5.7184      5.3123      4.9503      4.6404    
  4.3883      4.1976      4.0696      4.0041      4.0006      4.0588      4.1794      4.3630      4.6096      4.9169    
  5.2798      5.6900      6.1363      6.6067      7.0891      7.5723      8.0446      8.4918      8.8959      9.2347    
  9.4850      9.6257      9.5326      9.6428      9.6256      9.4850      9.2347      8.8959      8.4918      8.0446    
  7.5723      7.0891      6.6067      6.1364      5.6900      5.2798      4.9169      4.6096      4.3630      4.1794    
  4.0588      4.0006      4.0041      4.0696      4.1976      4.3883      4.6404      4.9503      5.3122      5.7184    
  6.1602      6.6290      7.1162      7.6110      8.0990      8.5603      8.9704      9.3026      9.2865      9.6091    
  9.8116      9.8828      9.8235      9.6446      9.3648      9.0050      8.5852      8.1222      7.6298      7.1208    
  6.6088      6.1095      5.6388      5.2115      4.8390      4.5286      4.2837      4.1050      3.9917      3.9428    
  3.9581      4.0377      4.1816      4.3893      4.6584      4.9853      5.3651      5.7928      6.2629      6.7689    
  7.3008      7.8433      8.3741      8.8654      8.9238      9.4363      9.8495      10.138      10.288      10.297    
  10.176      9.9421      9.6140      9.2101      8.7456      8.2335      7.6872      7.1227      6.5592      6.0170    
  5.5152      5.0691      4.6886      4.3788      4.1410      3.9743      3.8771      3.8484      3.8877      3.9948    
  4.1693      4.4101      4.7156      5.0838      5.5128      6.0000      6.5404      7.1242      7.7341      8.3447    
  8.4715      9.1407      9.7415      10.237      10.599      10.811      10.874      10.796      10.594      10.287    
  9.8911      9.4180      8.8792      8.2879      7.6621      7.0251      6.4022      5.8179      5.2919      4.8374    
  4.4613      4.1657      3.9490      3.8091      3.7437      3.7515      3.8318      3.9845      4.2096      4.5075    
  4.8792      5.3254      5.8458      6.4362      7.0857      7.7741      7.9596      8.7464      9.5018      10.180    
  10.742      11.158      11.414      11.509      11.456      11.276      10.987      10.596      10.112      9.5432    
  8.9021      8.2089      7.4913      6.7809      6.1084      5.4989      4.9692      4.5283      4.1782      3.9170    
  3.7411      3.6469      3.6322      3.6957      3.8378      4.0596      4.3638      4.7539      5.2331      5.8025    
  6.4576      7.1848      7.4162      8.2805      9.1525      9.9821      10.720      11.324      11.762      12.017    
  12.102      12.052      11.893      11.637      11.277      10.798      10.201      9.5081      8.7435      7.9407    
  7.1387      6.3755      5.6820      5.0791      4.5771      4.1782      3.8792      3.6749      3.5603      3.5321    
  3.5887      3.7310      3.9617      4.2857      4.7090      5.2366      5.8699      6.6023      6.8645      7.7691    
  8.7193      9.6640      10.547      11.314      11.905      12.283      12.464      12.497      12.438      12.319    
  12.137      11.853      11.424      10.827      10.084      9.2460      8.3561      7.4615      6.6084      5.8339    
  5.1626      4.6060      4.1657      3.8368      3.6124      3.4858      3.4529      3.5121      3.6652      3.9167    
  4.2738      4.7444      5.3348      6.0449      6.3222      7.2341      8.2270      9.2512      10.247      11.148    
  11.863      12.328      12.546      12.584      12.537      12.482      12.449      12.402      12.262      11.938    
  11.382      10.608      9.6976      8.7212      7.7364      6.7977      5.9486      5.2166      4.6140      4.1410    
  3.7910      3.5550      3.4250      3.3961      3.4671      3.6412      3.9249      4.3277      4.8591      5.5249    
  5.8025      6.6933      7.6968      8.7677      9.8447      10.855      11.680      12.209      12.421      12.383    
  12.228      12.099      12.091      12.213      12.384      12.462      12.306      11.834      11.058      10.081    
  9.0220      7.9525      6.9360      6.0214      5.2390      4.6006      4.1050      3.7432      3.5043      3.3792    
  3.3626      3.4544      3.6593      3.9862      4.4467      5.0508      5.3161      6.1608      7.1462      8.2338    
  9.3642      10.462      11.394      11.997      12.196      12.036      11.666      11.296      11.116      11.226    
  11.596      12.075      12.449      12.518      12.169      11.414      10.384      9.2473      8.1017      7.0179    
  6.0498      5.2289      4.5665      4.0588      3.6948      3.4616      3.3495      3.3534      3.4745      3.7197    
  4.1002      4.6291      4.8725      5.6498      6.5906      7.6660      8.8228      9.9866      11.030      11.742    
  11.971      11.704      11.075      10.332      9.7630      9.5975      9.9204      10.640      11.517      12.252    
  12.586      12.383      11.666      10.594      9.3893      8.1786      7.0407      6.0329      5.1871      4.5129    
  4.0041      3.6473      3.4282      3.3368      3.3689      3.5275      3.8219      4.2657      4.4805      5.1727    
  6.0447      7.0797      8.2348      9.4398      10.588      11.451      11.795      11.512      10.671      9.5155    
  8.4009      7.6914      7.6362      8.2804      9.4453      10.790      11.926      12.543      12.491      11.813    
  10.708      9.4442      8.1814      7.0041      5.9717      5.1153      4.4420      3.9428      3.6023      3.4053    
  3.3418      3.4094      3.6132      3.9651      4.1472      4.7413      5.5239      6.4911      7.6139      8.8329    
  10.059      11.097      11.647      11.492      10.590      9.1133      7.4261      5.9923      5.2371      5.4055    
  6.4747      8.1591      10.007      11.549      12.432      12.511      11.860      10.722      9.4113      8.1109    
  6.9101      5.8690      5.0164      4.3564      3.8771      3.5613      3.3936      3.3648      3.4745      3.7304    
  3.8775      4.3652      5.0429      5.9179      6.9770      8.1769      9.4407      10.635      11.453      11.577    
  10.827      9.2485      7.1323      4.9673      3.3138      2.6344      3.1400      4.7140      6.9510      9.2922    
  11.199      12.298      12.464      11.814      10.640      9.2934      7.9705      6.7629      5.7289      4.8943    
  4.2592      3.8091      3.5256      3.3936      3.4054      3.5631      3.6735      4.0513      4.6145      5.3783    
  6.3444      7.4884      8.7512      10.037      11.121      11.626      11.244      9.8551      7.6055      4.9117    
  2.3787     0.64108     0.16736      1.1031      3.2189      5.9880      8.7577      10.944      12.177      12.366    
  11.682      10.466      9.0957      7.7661      6.5682      5.5570      4.7535      4.1538      3.7411      3.4963    
  3.4053      3.4627      3.5353      3.8030      4.2479      4.8888      5.7386      6.7912      8.0097      9.3194    
  10.589      11.490      11.620      10.701      8.6892      5.8416      2.6937     -.52446E-01 -1.7208     -1.8722    
 -.45315      2.1854      5.4060      8.4870      10.827      12.086      12.224      11.469      10.207      8.8257    
  7.5055      6.3335      5.3595      4.5989      4.0436      3.6749      3.4740      3.4283      3.4617      3.6210    
  3.9484      4.4620      5.1806      6.1130      7.2443      8.5245      9.8645      11.071      11.740      11.473    
  10.040      7.4852      4.1741     0.74517     -2.0342     -3.4845     -3.2306     -1.3288      1.7520      5.2868    
  8.5181      10.861      12.024      12.035      11.177      9.8713      8.4933      7.1983      6.0676      5.1438    
  4.4358      3.9319      3.6124      3.4590      3.4515      3.5043      3.7176      4.1054      4.6874      5.4810    
  6.4896      7.6888      9.0165      10.367      11.471      11.889      11.247      9.3778      6.4162      2.8235    
 -.68554     -3.3167     -4.4271     -3.7338     -1.4095      1.9761      5.6432      8.8365      11.019      11.970    
  11.789      10.808      9.4702      8.1100      6.8556      5.7801      4.9172      4.2696      3.8223      3.5550    
  3.5043      3.4515      3.5550      3.8222      4.2696      4.9171      5.7801      6.8556      8.1100      9.4702    
  10.808      11.788      11.970      11.019      8.8365      5.6432      1.9761     -1.4095     -3.7338     -4.4272    
 -3.3167     -.68554      2.8235      6.4162      9.3778      11.247      11.889      11.471      10.367      9.0166    
  7.6889      6.4896      5.4810      4.6874      4.1054      3.7176      3.6210      3.4616      3.4590      3.6124    
  3.9319      4.4358      5.1437      6.0676      7.1983      8.4933      9.8713      11.177      12.035      12.024    
  10.861      8.5180      5.2868      1.7520     -1.3289     -3.2307     -3.4845     -2.0342     0.74515      4.1741    
  7.4852      10.040      11.473      11.740      11.071      9.8646      8.5245      7.2443      6.1130      5.1806    
  4.4620      3.9484      3.8030      3.5352      3.4283      3.4740      3.6749      4.0436      4.5989      5.3595    
  6.3335      7.5054      8.8257      10.207      11.469      12.224      12.086      10.827      8.4870      5.4060    
  2.1854     -.45319     -1.8723     -1.7208     -.52498E-01  2.6937      5.8416      8.6892      10.701      11.620    
  11.490      10.589      9.3194      8.0097      6.7912      5.7386      4.8888      4.2479      4.0513      3.6735    
  3.4627      3.4053      3.4963      3.7411      4.1538      4.7535      5.5569      6.5681      7.7661      9.0956    
  10.466      11.682      12.366      12.177      10.944      8.7577      5.9879      3.2189      1.1031     0.16731    
 0.64102      2.3787      4.9116      7.6055      9.8551      11.244      11.626      11.121      10.037      8.7512    
  7.4884      6.3444      5.3783      4.6145      4.3652      3.8775      3.5631      3.4054      3.3936      3.5257    
  3.8092      4.2592      4.8943      5.7289      6.7628      7.9705      9.2934      10.640      11.814      12.464    
  12.298      11.199      9.2922      6.9510      4.7140      3.1400      2.6344      3.3137      4.9673      7.1323    
  9.2484      10.827      11.577      11.453      10.635      9.4407      8.1769      6.9770      5.9178      5.0429    
  4.7413      4.1472      3.7304      3.4745      3.3648      3.3936      3.5613      3.8771      4.3564      5.0164    
  5.8689      6.9101      8.1109      9.4113      10.722      11.860      12.511      12.432      11.549      10.007    
  8.1591      6.4747      5.4055      5.2370      5.9922      7.4260      9.1133      10.590      11.492      11.647    
  11.097      10.059      8.8329      7.6139      6.4911      5.5239      5.1727      4.4805      3.9651      3.6132    
  3.4094      3.3419      3.4053      3.6023      3.9429      4.4420      5.1153      5.9717      7.0041      8.1814    
  9.4442      10.708      11.813      12.491      12.543      11.926      10.790      9.4453      8.2804      7.6362    
  7.6913      8.4008      9.5154      10.671      11.512      11.795      11.451      10.588      9.4398      8.2348    
  7.0797      6.0447      5.6498      4.8725      4.2657      3.8219      3.5275      3.3689      3.3368      3.4283    
  3.6473      4.0041      4.5129      5.1871      6.0329      7.0407      8.1786      9.3893      10.594      11.666    
  12.383      12.586      12.252      11.517      10.640      9.9204      9.5975      9.7630      10.332      11.075    
  11.704      11.971      11.742      11.030      9.9866      8.8228      7.6660      6.5905      6.1608      5.3161    
  4.6291      4.1002      3.7197      3.4745      3.3534      3.3495      3.4617      3.6948      4.0588      4.5665    
  5.2289      6.0498      7.0179      8.1017      9.2473      10.384      11.414      12.169      12.518      12.449    
  12.076      11.596      11.226      11.116      11.296      11.666      12.036      12.196      11.997      11.394    
  10.462      9.3642      8.2338      7.1462      6.6933      5.8025      5.0508      4.4466      3.9862      3.6593    
  3.4544      3.3626      3.3792      3.5044      3.7432      4.1050      4.6006      5.2389      6.0214      6.9360    
  7.9526      9.0221      10.081      11.058      11.834      12.306      12.462      12.384      12.213      12.091    
  12.099      12.228      12.383      12.421      12.209      11.680      10.855      9.8447      8.7677      7.6968    
  7.2341      6.3222      5.5249      4.8590      4.3276      3.9249      3.6412      3.4671      3.3961      3.4250    
  3.5550      3.7910      4.1410      4.6140      5.2166      5.9486      6.7978      7.7365      8.7213      9.6976    
  10.608      11.382      11.938      12.262      12.403      12.449      12.482      12.537      12.584      12.546    
  12.328      11.863      11.148      10.247      9.2512      8.2270      7.7691      6.8645      6.0449      5.3348    
  4.7444      4.2737      3.9167      3.6652      3.5121      3.4529      3.4858      3.6124      3.8368      4.1657    
  4.6060      5.1626      5.8339      6.6084      7.4615      8.3561      9.2461      10.084      10.827      11.424    
  11.854      12.137      12.319      12.438      12.497      12.464      12.283      11.905      11.314      10.547    
  9.6640      8.7193      8.2805      7.4162      6.6023      5.8699      5.2366      4.7090      4.2857      3.9617    
  3.7310      3.5887      3.5320      3.5603      3.6749      3.8792      4.1782      4.5771      5.0791      5.6820    
  6.3755      7.1387      7.9407      8.7435      9.5081      10.201      10.798      11.277      11.637      11.893    
  12.052      12.102      12.017      11.762      11.324      10.720      9.9821      9.1525      8.7464      7.9596    