   2   2   0   0
  0.1584499E+02  0.3690998E-09  0.3690998E-09  0.3690998E-09  0.5000000E-15
  1.000000000000000E-004
  CAR 
 unknown system                          
     22.61885548     -6.64305445  301      8.64781155      1.00000000
     -6.643  0.0000E+00  0.0000E+00
     -6.546  0.0000E+00  0.0000E+00
     -6.448  0.0000E+00  0.0000E+00
     -6.350  0.0000E+00  0.0000E+00
     -6.253  0.0000E+00  0.0000E+00
     -6.155  0.0000E+00  0.0000E+00
     -6.058  0.0000E+00  0.0000E+00
     -5.960  0.0000E+00  0.0000E+00
     -5.863  0.0000E+00  0.0000E+00
     -5.765  0.1126E-16  0.1099E-17
     -5.668  0.2297E-14  0.2252E-15
     -5.570  0.2942E-12  0.2892E-13
     -5.473  0.2360E-10  0.2331E-11
     -5.375  0.1187E-08  0.1181E-09
     -5.277  0.3751E-07  0.3777E-08
     -5.180  0.7452E-06  0.7646E-07
     -5.082  0.9324E-05  0.9860E-06
     -4.985  0.7364E-04  0.8169E-05
     -4.887  0.3684E-03  0.4410E-04
     -4.790  0.1176E-02  0.1588E-03
     -4.692  0.2455E-02  0.3983E-03
     -4.595  0.3628E-02  0.7522E-03
     -4.497  0.4760E-02  0.1216E-02
     -4.400  0.7218E-02  0.1921E-02
     -4.302  0.1130E-01  0.3023E-02
     -4.205  0.1445E-01  0.4432E-02
     -4.107  0.1441E-01  0.5838E-02
     -4.009  0.1218E-01  0.7026E-02
     -3.912  0.9781E-02  0.7980E-02
     -3.814  0.8761E-02  0.8834E-02
     -3.717  0.1068E-01  0.9876E-02
     -3.619  0.1612E-01  0.1145E-01
     -3.522  0.2257E-01  0.1365E-01
     -3.424  0.2484E-01  0.1607E-01
     -3.327  0.2093E-01  0.1811E-01
     -3.229  0.1628E-01  0.1970E-01
     -3.132  0.1663E-01  0.2133E-01
     -3.034  0.2022E-01  0.2330E-01
     -2.937  0.2156E-01  0.2540E-01
     -2.839  0.1981E-01  0.2733E-01
     -2.741  0.1919E-01  0.2921E-01
     -2.644  0.2174E-01  0.3133E-01
     -2.546  0.2482E-01  0.3375E-01
     -2.449  0.2599E-01  0.3628E-01
     -2.351  0.2548E-01  0.3877E-01
     -2.254  0.2395E-01  0.4110E-01
     -2.156  0.2319E-01  0.4336E-01
     -2.059  0.2630E-01  0.4593E-01
     -1.961  0.3122E-01  0.4897E-01
     -1.864  0.3107E-01  0.5201E-01
     -1.766  0.2464E-01  0.5441E-01
     -1.669  0.1774E-01  0.5614E-01
     -1.571  0.1500E-01  0.5760E-01
     -1.473  0.1740E-01  0.5930E-01
     -1.376  0.2540E-01  0.6178E-01
     -1.278  0.3800E-01  0.6548E-01
     -1.181  0.4886E-01  0.7025E-01
     -1.083  0.5055E-01  0.7518E-01
     -0.986  0.4397E-01  0.7947E-01
     -0.888  0.3699E-01  0.8308E-01
     -0.791  0.3372E-01  0.8636E-01
     -0.693  0.3102E-01  0.8939E-01
     -0.596  0.2616E-01  0.9194E-01
     -0.498  0.2106E-01  0.9399E-01
     -0.401  0.1838E-01  0.9579E-01
     -0.303  0.1961E-01  0.9770E-01
     -0.205  0.2496E-01  0.1001E+00
     -0.108  0.3176E-01  0.1032E+00
     -0.010  0.3627E-01  0.1068E+00
      0.087  0.3877E-01  0.1106E+00
      0.185  0.4238E-01  0.1147E+00
      0.282  0.4725E-01  0.1193E+00
      0.380  0.4994E-01  0.1242E+00
      0.477  0.4820E-01  0.1289E+00
      0.575  0.4429E-01  0.1332E+00
      0.672  0.4136E-01  0.1372E+00
      0.770  0.4107E-01  0.1412E+00
      0.868  0.4340E-01  0.1455E+00
      0.965  0.4523E-01  0.1499E+00
      1.063  0.4709E-01  0.1545E+00
      1.160  0.5354E-01  0.1597E+00
      1.258  0.5918E-01  0.1655E+00
      1.355  0.5236E-01  0.1706E+00
      1.453  0.3516E-01  0.1740E+00
      1.550  0.2094E-01  0.1760E+00
      1.648  0.1573E-01  0.1776E+00
      1.745  0.1557E-01  0.1791E+00
      1.843  0.1637E-01  0.1807E+00
      1.940  0.1968E-01  0.1826E+00
      2.038  0.2863E-01  0.1854E+00
      2.136  0.4088E-01  0.1894E+00
      2.233  0.5055E-01  0.1943E+00
      2.331  0.5388E-01  0.1996E+00
      2.428  0.5123E-01  0.2046E+00
      2.526  0.4720E-01  0.2092E+00
      2.623  0.4582E-01  0.2136E+00
      2.721  0.4655E-01  0.2182E+00
      2.818  0.4785E-01  0.2229E+00
      2.916  0.4949E-01  0.2277E+00
      3.013  0.4800E-01  0.2324E+00
      3.111  0.3848E-01  0.2361E+00
      3.208  0.2547E-01  0.2386E+00
      3.306  0.1995E-01  0.2405E+00
      3.404  0.2486E-01  0.2430E+00
      3.501  0.3278E-01  0.2462E+00
      3.599  0.3636E-01  0.2497E+00
      3.696  0.3515E-01  0.2531E+00
      3.794  0.3317E-01  0.2564E+00
      3.891  0.3516E-01  0.2598E+00
      3.989  0.4518E-01  0.2642E+00
      4.086  0.6265E-01  0.2703E+00
      4.184  0.7783E-01  0.2779E+00
      4.281  0.8056E-01  0.2858E+00
      4.379  0.7371E-01  0.2930E+00
      4.476  0.6545E-01  0.2993E+00
      4.574  0.5651E-01  0.3049E+00
      4.672  0.4670E-01  0.3094E+00
      4.769  0.4070E-01  0.3134E+00
      4.867  0.4116E-01  0.3174E+00
      4.964  0.4341E-01  0.3216E+00
      5.062  0.4090E-01  0.3256E+00
      5.159  0.3548E-01  0.3291E+00
      5.257  0.3599E-01  0.3326E+00
      5.354  0.4582E-01  0.3371E+00
      5.452  0.5823E-01  0.3427E+00
      5.549  0.6444E-01  0.3490E+00
      5.647  0.6440E-01  0.3553E+00
      5.744  0.6590E-01  0.3617E+00
      5.842  0.6953E-01  0.3685E+00
      5.940  0.6724E-01  0.3751E+00
      6.037  0.5821E-01  0.3808E+00
      6.135  0.4955E-01  0.3856E+00
      6.232  0.4685E-01  0.3902E+00
      6.330  0.5142E-01  0.3952E+00
      6.427  0.5907E-01  0.4009E+00
      6.525  0.6253E-01  0.4070E+00
      6.622  0.5970E-01  0.4129E+00
      6.720  0.5598E-01  0.4183E+00
      6.817  0.5866E-01  0.4240E+00
      6.915  0.6878E-01  0.4307E+00
      7.013  0.7976E-01  0.4385E+00
      7.110  0.8748E-01  0.4471E+00
      7.208  0.9144E-01  0.4560E+00
      7.305  0.8871E-01  0.4646E+00
      7.403  0.7926E-01  0.4724E+00
      7.500  0.6756E-01  0.4790E+00
      7.598  0.5623E-01  0.4844E+00
      7.695  0.4753E-01  0.4891E+00
      7.793  0.4320E-01  0.4933E+00
      7.890  0.4126E-01  0.4973E+00
      7.988  0.4017E-01  0.5012E+00
      8.085  0.4086E-01  0.5052E+00
      8.183  0.4307E-01  0.5094E+00
      8.281  0.4413E-01  0.5137E+00
      8.378  0.4401E-01  0.5180E+00
      8.476  0.4799E-01  0.5227E+00
      8.573  0.5825E-01  0.5284E+00
      8.671  0.6668E-01  0.5349E+00
      8.768  0.6392E-01  0.5411E+00
      8.866  0.5430E-01  0.5464E+00
      8.963  0.5263E-01  0.5515E+00
      9.061  0.6125E-01  0.5575E+00
      9.158  0.6250E-01  0.5636E+00
      9.256  0.4603E-01  0.5681E+00
      9.353  0.2505E-01  0.5705E+00
      9.451  0.1552E-01  0.5721E+00
      9.549  0.1928E-01  0.5739E+00
      9.646  0.2888E-01  0.5768E+00
      9.744  0.3664E-01  0.5803E+00
      9.841  0.4060E-01  0.5843E+00
      9.939  0.4402E-01  0.5886E+00
     10.036  0.4785E-01  0.5933E+00
     10.134  0.4871E-01  0.5980E+00
     10.231  0.4690E-01  0.6026E+00
     10.329  0.4807E-01  0.6073E+00
     10.426  0.5566E-01  0.6127E+00
     10.524  0.6710E-01  0.6192E+00
     10.621  0.7509E-01  0.6266E+00
     10.719  0.7570E-01  0.6340E+00
     10.817  0.7391E-01  0.6412E+00
     10.914  0.7272E-01  0.6483E+00
     11.012  0.6793E-01  0.6549E+00
     11.109  0.5926E-01  0.6607E+00
     11.207  0.5605E-01  0.6661E+00
     11.304  0.6695E-01  0.6727E+00
     11.402  0.8722E-01  0.6812E+00
     11.499  0.1039E+00  0.6913E+00
     11.597  0.1092E+00  0.7019E+00
     11.694  0.1020E+00  0.7119E+00
     11.792  0.8451E-01  0.7201E+00
     11.889  0.6279E-01  0.7263E+00
     11.987  0.4527E-01  0.7307E+00
     12.085  0.3568E-01  0.7342E+00
     12.182  0.3045E-01  0.7371E+00
     12.280  0.2965E-01  0.7400E+00
     12.377  0.4010E-01  0.7439E+00
     12.475  0.6031E-01  0.7498E+00
     12.572  0.7624E-01  0.7572E+00
     12.670  0.7794E-01  0.7648E+00
     12.767  0.7138E-01  0.7718E+00
     12.865  0.6845E-01  0.7785E+00
     12.962  0.7050E-01  0.7854E+00
     13.060  0.6930E-01  0.7921E+00
     13.158  0.6055E-01  0.7980E+00
     13.255  0.4951E-01  0.8029E+00
     13.353  0.4523E-01  0.8073E+00
     13.450  0.5515E-01  0.8127E+00
     13.548  0.8004E-01  0.8205E+00
     13.645  0.1058E+00  0.8308E+00
     13.743  0.1144E+00  0.8419E+00
     13.840  0.1069E+00  0.8524E+00
     13.938  0.9594E-01  0.8617E+00
     14.035  0.8516E-01  0.8700E+00
     14.133  0.7215E-01  0.8771E+00
     14.230  0.5938E-01  0.8829E+00
     14.328  0.5314E-01  0.8880E+00
     14.426  0.5662E-01  0.8936E+00
     14.523  0.6590E-01  0.9000E+00
     14.621  0.7372E-01  0.9072E+00
     14.718  0.7538E-01  0.9145E+00
     14.816  0.7001E-01  0.9214E+00
     14.913  0.6177E-01  0.9274E+00
     15.011  0.5721E-01  0.9330E+00
     15.108  0.5805E-01  0.9386E+00
     15.206  0.6153E-01  0.9446E+00
     15.303  0.6377E-01  0.9509E+00
     15.401  0.6116E-01  0.9568E+00
     15.498  0.5508E-01  0.9622E+00
     15.596  0.4848E-01  0.9669E+00
     15.694  0.4065E-01  0.9709E+00
     15.791  0.3314E-01  0.9741E+00
     15.889  0.3005E-01  0.9770E+00
     15.986  0.3166E-01  0.9801E+00
     16.084  0.3502E-01  0.9836E+00
     16.181  0.3935E-01  0.9874E+00
     16.279  0.4735E-01  0.9920E+00
     16.376  0.5801E-01  0.9977E+00
     16.474  0.6518E-01  0.1004E+01
     16.571  0.6651E-01  0.1011E+01
     16.669  0.6287E-01  0.1017E+01
     16.766  0.5384E-01  0.1022E+01
     16.864  0.4114E-01  0.1026E+01
     16.962  0.2832E-01  0.1029E+01
     17.059  0.1837E-01  0.1030E+01
     17.157  0.1339E-01  0.1032E+01
     17.254  0.1271E-01  0.1033E+01
     17.352  0.1410E-01  0.1034E+01
     17.449  0.1699E-01  0.1036E+01
     17.547  0.2271E-01  0.1038E+01
     17.644  0.3133E-01  0.1041E+01
     17.742  0.3794E-01  0.1045E+01
     17.839  0.3676E-01  0.1049E+01
     17.937  0.2838E-01  0.1051E+01
     18.034  0.1840E-01  0.1053E+01
     18.132  0.1078E-01  0.1054E+01
     18.230  0.5900E-02  0.1055E+01
     18.327  0.2949E-02  0.1055E+01
     18.425  0.1705E-02  0.1055E+01
     18.522  0.2539E-02  0.1055E+01
     18.620  0.5556E-02  0.1056E+01
     18.717  0.9515E-02  0.1057E+01
     18.815  0.1226E-01  0.1058E+01
     18.912  0.1254E-01  0.1059E+01
     19.010  0.1037E-01  0.1060E+01
     19.107  0.6668E-02  0.1061E+01
     19.205  0.3202E-02  0.1061E+01
     19.303  0.1575E-02  0.1062E+01
     19.400  0.2214E-02  0.1062E+01
     19.498  0.4343E-02  0.1062E+01
     19.595  0.6028E-02  0.1063E+01
     19.693  0.5877E-02  0.1063E+01
     19.790  0.4793E-02  0.1064E+01
     19.888  0.4006E-02  0.1064E+01
     19.985  0.3505E-02  0.1065E+01
     20.083  0.3283E-02  0.1065E+01
     20.180  0.3241E-02  0.1065E+01
     20.278  0.2739E-02  0.1065E+01
     20.375  0.1907E-02  0.1066E+01
     20.473  0.1741E-02  0.1066E+01
     20.571  0.2439E-02  0.1066E+01
     20.668  0.2903E-02  0.1066E+01
     20.766  0.2290E-02  0.1067E+01
     20.863  0.1150E-02  0.1067E+01
     20.961  0.3655E-03  0.1067E+01
     21.058  0.7345E-04  0.1067E+01
     21.156  0.9316E-05  0.1067E+01
     21.253  0.7449E-06  0.1067E+01
     21.351  0.3750E-07  0.1067E+01
     21.448  0.1187E-08  0.1067E+01
     21.546  0.2360E-10  0.1067E+01
     21.643  0.2942E-12  0.1067E+01
     21.741  0.2297E-14  0.1067E+01
     21.839  0.1186E-16  0.1067E+01
     21.936  0.0000E+00  0.1067E+01
     22.034  0.0000E+00  0.1067E+01
     22.131  0.0000E+00  0.1067E+01
     22.229  0.0000E+00  0.1067E+01
     22.326  0.0000E+00  0.1067E+01
     22.424  0.0000E+00  0.1067E+01
     22.521  0.0000E+00  0.1067E+01
     22.619  0.0000E+00  0.1067E+01
