    2    2   15    1
  0.1584499E+02  0.3690998E-09  0.3690998E-09  0.3690998E-09  0.5000000E-15
  1.000000000000000E-004
  CAR 
 unknown system                          
      8     56      8
 
  0.6250000E-01  0.6250000E-01  0.6250000E-01  0.1562500E-01
    1       -4.235768   1.000000
    2        4.402974   1.000000
    3        6.668787   1.000000
    4        8.184333   0.999476
    5       11.825073   0.000000
    6       13.670020   0.000000
    7       14.237265   0.000000
    8       16.099188   0.000000
 
  0.1875000E+00  0.6250000E-01  0.6250000E-01  0.3125000E-01
    1       -3.021112   1.000000
    2        4.158015   1.000000
    3        6.966867   1.000000
    4        9.127379   0.000348
    5       10.778078   0.000000
    6       10.882233   0.000000
    7       13.646464   0.000000
    8       14.394765   0.000000
 
  0.3125000E+00  0.6250000E-01  0.6250000E-01  0.3125000E-01
    1       -1.027035   1.000000
    2        4.451712   1.000000
    3        5.534096   1.000000
    4        7.237104   1.000000
    5        8.581987   0.679196
    6       11.712267   0.000000
    7       13.145197   0.000000
    8       13.544989   0.000000
 
  0.4375000E+00  0.6250000E-01  0.6250000E-01  0.1562500E-01
    1        1.300045   1.000000
    2        2.222065   1.000000
    3        5.752218   1.000000
    4        6.147649   1.000000
    5        8.464508   0.902538
    6       10.552118   0.000000
    7       13.059563   0.000000
    8       14.006796   0.000000
 
 -0.6250000E-01  0.6250000E-01  0.6250000E-01  0.7812500E-02
    1       -4.643054   1.000000
    2        5.006125   1.000000
    3        5.865304   1.000000
    4        7.852166   1.000000
    5       10.960340   0.000000
    6       14.822539   0.000000
    7       17.286998   0.000000
    8       17.385593   0.000000
 
  0.1875000E+00  0.1875000E+00  0.6250000E-01  0.1562500E-01
    1       -1.209662   1.000000
    2        4.443739   1.000000
    3        6.412604   1.000000
    4        6.608349   1.000000
    5        9.552519   0.000000
    6       11.534775   0.000000
    7       12.842703   0.000000
    8       13.034751   0.000000
 
  0.3125000E+00  0.1875000E+00  0.6250000E-01  0.3125000E-01
    1        1.248255   1.000000
    2        2.947393   1.000000
    3        4.291924   1.000000
    4        5.767203   1.000000
    5        9.806108   0.000000
    6       11.542459   0.000000
    7       12.563355   0.000000
    8       14.596471   0.000000
 
  0.4375000E+00  0.1875000E+00  0.6250000E-01  0.3125000E-01
    1       -0.114236   1.000000
    2        2.714455   1.000000
    3        4.893908   1.000000
    4        7.239697   1.000000
    5        9.054007   0.002038
    6       11.710108   0.000000
    7       13.627565   0.000000
    8       14.501364   0.000000
 
 -0.4375000E+00  0.1875000E+00  0.6250000E-01  0.3125000E-01
    1       -2.274156   1.000000
    2        2.096688   1.000000
    3        7.509700   1.000000
    4        8.788061   0.160668
    5       10.312104   0.000000
    6       11.432370   0.000000
    7       12.643198   0.000000
    8       14.977527   0.000000
 
 -0.3125000E+00  0.1875000E+00  0.6250000E-01  0.1562500E-01
    1       -3.670551   1.000000
    2        2.185798   1.000000
    3        7.174947   1.000000
    4        9.109197   0.000552
    5       12.098358   0.000000
    6       13.610241   0.000000
    7       14.164821   0.000000
    8       14.779043   0.000000
 
 -0.1875000E+00  0.1875000E+00  0.6250000E-01  0.1562500E-01
    1       -4.265191   1.000000
    2        2.996914   1.000000
    3        5.980857   1.000000
    4        9.088236   0.000922
    5       12.752866   0.000000
    6       12.919948   0.000000
    7       15.827739   0.000000
    8       17.170762   0.000000
 
 -0.6250000E-01  0.1875000E+00  0.6250000E-01  0.1562500E-01
    1       -4.047314   1.000000
    2        4.119349   1.000000
    3        5.350401   1.000000
    4        9.667447   0.000000
    5       12.548689   0.000000
    6       12.661119   0.000000
    7       13.702374   0.000000
    8       15.671148   0.000000
 
  0.3125000E+00  0.3125000E+00  0.6250000E-01  0.1562500E-01
    1        1.111317   1.000000
    2        1.179204   1.000000
    3        4.701770   1.000000
    4        7.182220   1.000000
    5        9.793522   0.000000
    6       10.617221   0.000000
    7       14.649529   0.000000
    8       15.498537   0.000000
 
  0.4375000E+00  0.3125000E+00  0.6250000E-01  0.3125000E-01
    1       -1.162030   1.000000
    2        0.302971   1.000000
    3        8.034053   0.999993
    4        8.645396   0.506813
    5        9.965796   0.000000
    6       11.354155   0.000000
    7       12.448601   0.000000
    8       13.838094   0.000000
 
 -0.4375000E+00  0.3125000E+00  0.6250000E-01  0.1562500E-01
    1       -2.733450   1.000000
    2        0.216503   1.000000
    3        8.010010   0.999997
    4       10.073878   0.000000
    5       10.591556   0.000000
    6       12.675561   0.000000
    7       13.710325   0.000000
    8       13.802942   0.000000
 
 -0.3125000E+00  0.3125000E+00  0.6250000E-01  0.1562500E-01
    1       -3.512388   1.000000
    2        0.901869   1.000000
    3        6.663807   1.000000
    4       10.027023   0.000000
    5       10.782371   0.000000
    6       14.110646   0.000000
    7       15.816380   0.000000
    8       16.864841   0.000000
 
 -0.1875000E+00  0.3125000E+00  0.6250000E-01  0.3125000E-01
    1       -3.483456   1.000000
    2        2.309342   1.000000
    3        5.468825   1.000000
    4       10.623114   0.000000
    5       11.017135   0.000000
    6       12.921938   0.000000
    7       14.696334   0.000000
    8       15.590976   0.000000
 
 -0.6250000E-01  0.3125000E+00  0.6250000E-01  0.1562500E-01
    1       -2.647989   1.000000
    2        3.981124   1.000000
    3        5.357622   1.000000
    4        8.430453   0.937848
    5       11.056819   0.000000
    6       12.596578   0.000000
    7       13.252601   0.000000
    8       13.631596   0.000000
 
  0.4375000E+00  0.4375000E+00  0.6250000E-01  0.7812500E-02
    1       -1.432878   1.000000
    2       -1.432878   1.000000
    3        9.152943   0.000177
    4        9.152944   0.000177
    5       11.323328   0.000000
    6       11.323329   0.000000
    7       13.517208   0.000000
    8       13.517210   0.000000
 
 -0.4375000E+00  0.4375000E+00  0.6250000E-01  0.1562500E-01
    1       -2.390991   1.000000
    2       -0.912351   1.000000
    3        7.705605   1.000000
    4        9.085538   0.000983
    5       11.138080   0.000000
    6       12.508984   0.000000
    7       16.571600   0.000000
    8       16.669352   0.000000
 
 -0.3125000E+00  0.4375000E+00  0.6250000E-01  0.3125000E-01
    1       -2.549076   1.000000
    2        0.383426   1.000000
    3        6.300619   1.000000
    4        9.026772   0.003685
    5       11.374446   0.000000
    6       12.844062   0.000000
    7       14.779515   0.000000
    8       15.303871   0.000000
 
 -0.1875000E+00  0.4375000E+00  0.6250000E-01  0.3125000E-01
    1       -1.905331   1.000000
    2        2.379608   1.000000
    3        5.561276   1.000000
    4        7.792419   1.000000
    5        9.650575   0.000000
    6       12.457609   0.000000
    7       13.949552   0.000000
    8       15.287407   0.000000
 
 -0.6250000E-01  0.4375000E+00  0.6250000E-01  0.1562500E-01
    1       -0.482147   1.000000
    2        4.027059   1.000000
    3        5.183923   1.000000
    4        5.973437   1.000000
    5        9.112265   0.000511
    6       11.531506   0.000000
    7       11.837117   0.000000
    8       15.116023   0.000000
 
 -0.4375000E+00 -0.4375000E+00  0.6250000E-01  0.1562500E-01
    1       -1.257099   1.000000
    2       -1.250399   1.000000
    3        7.496822   1.000000
    4        7.511383   1.000000
    5       11.465960   0.000000
    6       13.350276   0.000000
    7       14.187693   0.000000
    8       14.790570   0.000000
 
 -0.3125000E+00 -0.4375000E+00  0.6250000E-01  0.3125000E-01
    1       -0.801686   1.000000
    2        0.645122   1.000000
    3        6.456594   1.000000
    4        7.371936   1.000000
    5        8.235552   0.998222
    6       12.110692   0.000000
    7       15.043036   0.000000
    8       16.343436   0.000000
 
 -0.1875000E+00 -0.4375000E+00  0.6250000E-01  0.3125000E-01
    1        0.413387   1.000000
    2        3.025217   1.000000
    3        4.197298   1.000000
    4        6.404547   1.000000
    5        8.627483   0.557150
    6       10.557227   0.000000
    7       13.060962   0.000000
    8       16.426478   0.000000
 
 -0.6250000E-01 -0.4375000E+00  0.6250000E-01  0.1562500E-01
    1        0.897417   1.000000
    2        2.625850   1.000000
    3        6.205198   1.000000
    4        6.939238   1.000000
    5        7.550399   1.000000
    6       10.169288   0.000000
    7       11.596642   0.000000
    8       15.335841   0.000000
 
 -0.3125000E+00 -0.3125000E+00  0.6250000E-01  0.1562500E-01
    1        1.543568   1.000000
    2        1.721432   1.000000
    3        3.897787   1.000000
    4        7.274046   1.000000
    5        7.681327   1.000000
    6       10.180638   0.000000
    7       14.909549   0.000000
    8       15.569226   0.000000
 
 -0.1875000E+00 -0.3125000E+00  0.6250000E-01  0.3125000E-01
    1        0.585614   1.000000
    2        3.621329   1.000000
    3        4.959968   1.000000
    4        7.133359   1.000000
    5        8.239331   0.998064
    6       10.045510   0.000000
    7       11.637996   0.000000
    8       14.031252   0.000000
 
 -0.6250000E-01 -0.3125000E+00  0.6250000E-01  0.1562500E-01
    1       -1.579199   1.000000
    2        5.795793   1.000000
    3        6.809616   1.000000
    4        7.179634   1.000000
    5        8.409384   0.954096
    6       10.897314   0.000000
    7       11.605909   0.000000
    8       13.288894   0.000000
 
 -0.1875000E+00 -0.1875000E+00  0.6250000E-01  0.1562500E-01
    1       -1.763928   1.000000
    2        6.425613   1.000000
    3        7.094961   1.000000
    4        7.393908   1.000000
    5        8.748710   0.237780
    6       10.390261   0.000000
    7       11.593179   0.000000
    8       11.815461   0.000000
 
 -0.6250000E-01 -0.1875000E+00  0.6250000E-01  0.1562500E-01
    1       -3.396092   1.000000
    2        6.113738   1.000000
    3        6.863771   1.000000
    4        8.707964   0.335294
    5       10.832659   0.000000
    6       11.260754   0.000000
    7       12.068249   0.000000
    8       13.802743   0.000000
 
 -0.6250000E-01 -0.6250000E-01  0.6250000E-01  0.3906250E-02
    1       -4.424659   1.000000
    2        6.499316   1.000000
    3        6.499317   1.000000
    4        6.760092   1.000000
    5       10.716296   0.000000
    6       14.462183   0.000000
    7       14.579307   0.000000
    8       16.456365   0.000000
 
  0.1875000E+00  0.1875000E+00  0.1875000E+00  0.1562500E-01
    1       -0.292318   1.000000
    2        2.573265   1.000000
    3        5.982816   1.000000
    4        6.073318   1.000000
    5       10.544543   0.000000
    6       12.379632   0.000000
    7       13.608196   0.000000
    8       14.046558   0.000000
 
  0.3125000E+00  0.1875000E+00  0.1875000E+00  0.1562500E-01
    1        2.005165   1.000000
    2        2.754733   1.000000
    3        3.784431   1.000000
    4        4.435818   1.000000
    5       11.465585   0.000000
    6       13.385931   0.000000
    7       13.690248   0.000000
    8       13.869092   0.000000
 
 -0.1875000E+00  0.1875000E+00  0.1875000E+00  0.7812500E-02
    1       -3.889132   1.000000
    2        2.817042   1.000000
    3        4.247661   1.000000
    4       10.634127   0.000000
    5       11.207205   0.000000
    6       13.993192   0.000000
    7       16.223305   0.000000
    8       16.734372   0.000000
 
  0.3125000E+00  0.3125000E+00  0.1875000E+00  0.7812500E-02
    1        0.976513   1.000000
    2        0.976513   1.000000
    3        5.863217   1.000000
    4        5.863217   1.000000
    5       11.793381   0.000000
    6       11.793383   0.000000
    7       13.590394   0.000000
    8       13.590399   0.000000
 
 -0.3125000E+00  0.3125000E+00  0.1875000E+00  0.1562500E-01
    1       -3.140415   1.000000
    2        1.189903   1.000000
    3        4.465224   1.000000
    4        8.608231   0.610213
    5       12.546179   0.000000
    6       15.455253   0.000000
    7       16.056155   0.000000
    8       16.833268   0.000000
 
 -0.1875000E+00  0.3125000E+00  0.1875000E+00  0.1562500E-01
    1       -2.924146   1.000000
    2        2.282183   1.000000
    3        3.803311   1.000000
    4        8.763203   0.207266
    5       11.359057   0.000000
    6       13.978985   0.000000
    7       16.005090   0.000000
    8       16.302585   0.000000
 
 -0.4375000E+00  0.4375000E+00  0.1875000E+00  0.1562500E-01
    1       -2.027027   1.000000
    2       -0.566149   1.000000
    3        5.471688   1.000000
    4        6.870441   1.000000
    5       13.593202   0.000000
    6       14.593473   0.000000
    7       16.144850   0.000000
    8       16.526407   0.000000
 
 -0.3125000E+00  0.4375000E+00  0.1875000E+00  0.3125000E-01
    1       -1.999229   1.000000
    2        0.846989   1.000000
    3        4.161669   1.000000
    4        6.894365   1.000000
    5       10.998059   0.000000
    6       15.293502   0.000000
    7       16.357057   0.000000
    8       17.802536   0.000000
 
 -0.1875000E+00  0.4375000E+00  0.1875000E+00  0.1562500E-01
    1       -1.173065   1.000000
    2        2.514162   1.000000
    3        4.077902   1.000000
    4        6.986308   1.000000
    5        7.897999   1.000000
    6       13.695587   0.000000
    7       15.116055   0.000000
    8       16.436805   0.000000
 
 -0.4375000E+00 -0.4375000E+00  0.1875000E+00  0.1562500E-01
    1       -0.731761   1.000000
    2       -0.717556   1.000000
    3        5.322710   1.000000
    4        5.345505   1.000000
    5       10.853488   0.000000
    6       15.959967   0.000000
    7       16.631706   0.000000
    8       16.939675   0.000000
 
 -0.3125000E+00 -0.4375000E+00  0.1875000E+00  0.3125000E-01
    1       -0.092977   1.000000
    2        1.283005   1.000000
    3        4.573471   1.000000
    4        5.834240   1.000000
    5        7.024897   1.000000
    6       13.881303   0.000000
    7       16.640500   0.000000
    8       17.674118   0.000000
 
 -0.1875000E+00 -0.4375000E+00  0.1875000E+00  0.1562500E-01
    1        1.256632   1.000000
    2        2.979132   1.000000
    3        4.150167   1.000000
    4        5.061977   1.000000
    5        7.245531   1.000000
    6       11.664754   0.000000
    7       13.003096   0.000000
    8       16.599526   0.000000
 
 -0.3125000E+00 -0.3125000E+00  0.1875000E+00  0.1562500E-01
    1        2.088647   1.000000
    2        2.562648   1.000000
    3        3.634767   1.000000
    4        5.749548   1.000000
    5        5.866097   1.000000
    6       11.914103   0.000000
    7       14.376435   0.000000
    8       15.175503   0.000000
 
 -0.1875000E+00 -0.3125000E+00  0.1875000E+00  0.1562500E-01
    1        0.239304   1.000000
    2        4.614083   1.000000
    3        5.539646   1.000000
    4        6.614445   1.000000
    5        7.410593   1.000000
    6       10.418710   0.000000
    7       11.493640   0.000000
    8       12.971915   0.000000
 
 -0.1875000E+00 -0.1875000E+00  0.1875000E+00  0.3906250E-02
    1       -1.949283   1.000000
    2        7.778718   1.000000
    3        7.778718   1.000000
    4        7.874741   1.000000
    5        8.088793   0.999961
    6        9.359823   0.000000
    7       11.314280   0.000000
    8       11.314283   0.000000
 
 -0.3125000E+00  0.3125000E+00  0.3125000E+00  0.7812500E-02
    1       -2.401569   1.000000
    2        1.328692   1.000000
    3        2.926072   1.000000
    4        6.547368   1.000000
    5       14.205348   0.000000
    6       15.086096   0.000000
    7       16.638987   0.000000
    8       18.075643   0.000000
 
 -0.4375000E+00  0.4375000E+00  0.3125000E+00  0.1562500E-01
    1       -1.310595   1.000000
    2        0.080036   1.000000
    3        3.443852   1.000000
    4        4.798534   1.000000
    5       14.536794   0.000000
    6       14.723990   0.000000
    7       17.619141   0.000000
    8       18.687426   0.000000
 
 -0.3125000E+00  0.4375000E+00  0.3125000E+00  0.1562500E-01
    1       -1.097236   1.000000
    2        1.162174   1.000000
    3        2.789600   1.000000
    4        4.995663   1.000000
    5       10.544499   0.000000
    6       17.445765   0.000000
    7       17.810961   0.000000
    8       18.824799   0.000000
 
 -0.4375000E+00 -0.4375000E+00  0.3125000E+00  0.1562500E-01
    1        0.092533   1.000000
    2        0.117206   1.000000
    3        3.465912   1.000000
    4        3.481009   1.000000
    5       10.384034   0.000000
    6       17.688498   0.000000
    7       18.976385   0.000000
    8       19.560915   0.000000
 
 -0.3125000E+00 -0.4375000E+00  0.3125000E+00  0.1562500E-01
    1        0.910711   1.000000
    2        1.773196   1.000000
    3        3.403659   1.000000
    4        4.235751   1.000000
    5        6.593720   1.000000
    6       15.544138   0.000000
    7       16.782082   0.000000
    8       17.951227   0.000000
 
 -0.3125000E+00 -0.3125000E+00  0.3125000E+00  0.3906250E-02
    1        2.302619   1.000000
    2        3.273540   1.000000
    3        4.030376   1.000000
    4        4.740516   1.000000
    5        4.740516   1.000000
    6       13.622664   0.000000
    7       14.195427   0.000000
    8       14.195433   0.000000
 
 -0.4375000E+00  0.4375000E+00  0.4375000E+00  0.7812500E-02
    1       -0.293150   1.000000
    2        0.576311   1.000000
    3        2.237567   1.000000
    4        3.095278   1.000000
    5       14.437707   0.000000
    6       14.475407   0.000000
    7       19.854914   0.000000
    8       20.618855   0.000000
 
 -0.4375000E+00 -0.4375000E+00  0.4375000E+00  0.3906250E-02
    1        0.766020   1.000000
    2        0.805943   1.000000
    3        2.444240   1.000000
    4        2.444240   1.000000
    5       10.220705   0.000000
    6       18.200575   0.000000
    7       20.137940   0.000000
    8       20.188571   0.000000
