 running on    8 total cores
 distrk:  each k-point on    8 cores,    1 groups
 distr:  one band on    1 cores,    8 groups
 using from now: INCAR     
 vasp.5.4.4.18Apr17-6-g9f103f2a35 (build Dec 09 2018 21:25:21) complex          
  
 POSCAR found type information on POSCAR  Si
 POSCAR found :  1 types and       2 ions
 scaLAPACK will be used

 ----------------------------------------------------------------------------- 
|                                                                             |
|           W    W    AA    RRRRR   N    N  II  N    N   GGGG   !!!           |
|           W    W   A  A   R    R  NN   N  II  NN   N  G    G  !!!           |
|           W    W  A    A  R    R  N N  N  II  N N  N  G       !!!           |
|           W WW W  AAAAAA  RRRRR   N  N N  II  N  N N  G  GGG   !            |
|           WW  WW  A    A  R   R   N   NN  II  N   NN  G    G                |
|           W    W  A    A  R    R  N    N  II  N    N   GGGG   !!!           |
|                                                                             |
|      For optimal performance we recommend to set                            |
|        NCORE= 4 - approx SQRT( number of cores)                             |
|      NCORE specifies how many cores store one orbital (NPAR=cpu/NCORE).     |
|      This setting can  greatly improve the performance of VASP for DFT.     |
|      The default,   NCORE=1            might be grossly inefficient         |
|      on modern multi-core architectures or massively parallel machines.     |
|      Do your own testing !!!!                                               |
|      Unfortunately you need to use the default for GW and RPA calculations. |
|      (for HF NCORE is supported but not extensively tested yet)             |
|                                                                             |
 ----------------------------------------------------------------------------- 

 LDA part: xc-table for Pade appr. of Perdew
 POSCAR, INCAR and KPOINTS ok, starting setup
 FFT: planning ...
 WAVECAR not read
 entering main loop
       N       E                     dE             d eps       ncg     rms          rms(c)
DAV:   1     0.159577986715E+01    0.15958E+01   -0.28252E+03   896   0.611E+02
DAV:   2    -0.101489499331E+02   -0.11745E+02   -0.11413E+02  1368   0.655E+01
DAV:   3    -0.102662739272E+02   -0.11732E+00   -0.11319E+00  1216   0.819E+00
DAV:   4    -0.102665336178E+02   -0.25969E-03   -0.25969E-03  1384   0.362E-01
DAV:   5    -0.102665342081E+02   -0.59024E-06   -0.58992E-06  1168   0.969E-03    0.153E+00
DAV:   6    -0.102602810846E+02    0.62531E-02   -0.36529E-03  1232   0.403E-01    0.954E-01
DAV:   7    -0.102558784858E+02    0.44026E-02   -0.95091E-03  1080   0.676E-01    0.503E-02
DAV:   8    -0.102558279689E+02    0.50517E-04   -0.38183E-04   664   0.142E-01
   1 F= -.10255828E+02 E0= -.10245664E+02  d E =-.102558E+02
 curvature:   0.00 expect dE= 0.000E+00 dE for cont linesearch  0.000E+00
 trial: gam= 0.00000 g(F)=  0.116E-46 g(S)=  0.000E+00 ort = 0.000E+00 (trialstep = 0.100E+01)
 search vector abs. value=  0.100E-09
 reached required accuracy - stopping structural energy minimisation
 writing wavefunctions
