<?xml version="1.0" encoding="ISO-8859-1"?>
<modeling>
 <generator>
  <i name="program" type="string">vasp </i>
  <i name="version" type="string">5.4.4.18Apr17-6-g9f103f2a35  </i>
  <i name="subversion" type="string">(build Dec 09 2018 21:25:21) complex            parallel </i>
  <i name="platform" type="string">IFC18.0.1.163_CrayMPICH7.7.0_MKL18.0.1.163 </i>
  <i name="date" type="string">2019 03 23 </i>
  <i name="time" type="string">21:16:58 </i>
 </generator>
 <incar>
  <i type="string" name="PREC">normal</i>
  <i type="int" name="IBRION">     2</i>
  <i name="EDIFF">      0.00040000</i>
  <i name="EDIFFG">     -0.01000000</i>
  <i type="int" name="NSW">    15</i>
  <i type="int" name="ISIF">     2</i>
  <i name="ENCUT">    350.00000000</i>
  <i type="int" name="NBANDS">     8</i>
  <i type="logical" name="LREAL"> F  </i>
  <i type="int" name="ISMEAR">     0</i>
  <i name="SIGMA">      0.20000000</i>
  <v type="int" name="KPOINT_BSE">    -1     0     0     0</v>
 </incar>
 <structure name="primitive_cell" >
  <crystal>
   <varray name="basis" >
    <v>      -2.43200400       2.43200400       1.33947100 </v>
    <v>       2.43200400      -2.43200400       1.33947100 </v>
    <v>       2.43200400       2.43200400      -1.33947100 </v>
   </varray>
   <i name="volume">     31.68997354 </i>
   <varray name="rec_basis" >
    <v>      -0.00000000       0.20559177       0.37328169 </v>
    <v>       0.20559177      -0.00000000       0.37328169 </v>
    <v>       0.20559177       0.20559177       0.00000000 </v>
   </varray>
  </crystal>
  <varray name="positions" >
   <v>      -0.25000000       0.25000000      -0.50000000 </v>
   <v>      -0.50000000      -0.50000000       0.00000000 </v>
  </varray>
 </structure>
 <varray name="primitive_index" >
  <v type="int" >        1 </v>
  <v type="int" >        2 </v>
 </varray>
 <kpoints>
  <generation param="Monkhorst-Pack">
   <v type="int" name="divisions">       8        8        8 </v>
   <v name="usershift">      0.00000000       0.00000000       0.00000000 </v>
   <v name="genvec1">      0.12500000       0.00000000      -0.00000000 </v>
   <v name="genvec2">      0.00000000       0.12500000      -0.00000000 </v>
   <v name="genvec3">     -0.00000000       0.00000000       0.12500000 </v>
   <v name="shift">      0.50000000       0.50000000       0.50000000 </v>
  </generation>
  <varray name="kpointlist" >
   <v>       0.06250000       0.06250000       0.06250000 </v>
   <v>       0.18750000       0.06250000       0.06250000 </v>
   <v>       0.31250000       0.06250000       0.06250000 </v>
   <v>       0.43750000       0.06250000       0.06250000 </v>
   <v>      -0.06250000       0.06250000       0.06250000 </v>
   <v>       0.18750000       0.18750000       0.06250000 </v>
   <v>       0.31250000       0.18750000       0.06250000 </v>
   <v>       0.43750000       0.18750000       0.06250000 </v>
   <v>      -0.43750000       0.18750000       0.06250000 </v>
   <v>      -0.31250000       0.18750000       0.06250000 </v>
   <v>      -0.18750000       0.18750000       0.06250000 </v>
   <v>      -0.06250000       0.18750000       0.06250000 </v>
   <v>       0.31250000       0.31250000       0.06250000 </v>
   <v>       0.43750000       0.31250000       0.06250000 </v>
   <v>      -0.43750000       0.31250000       0.06250000 </v>
   <v>      -0.31250000       0.31250000       0.06250000 </v>
   <v>      -0.18750000       0.31250000       0.06250000 </v>
   <v>      -0.06250000       0.31250000       0.06250000 </v>
   <v>       0.43750000       0.43750000       0.06250000 </v>
   <v>      -0.43750000       0.43750000       0.06250000 </v>
   <v>      -0.31250000       0.43750000       0.06250000 </v>
   <v>      -0.18750000       0.43750000       0.06250000 </v>
   <v>      -0.06250000       0.43750000       0.06250000 </v>
   <v>      -0.43750000      -0.43750000       0.06250000 </v>
   <v>      -0.31250000      -0.43750000       0.06250000 </v>
   <v>      -0.18750000      -0.43750000       0.06250000 </v>
   <v>      -0.06250000      -0.43750000       0.06250000 </v>
   <v>      -0.31250000      -0.31250000       0.06250000 </v>
   <v>      -0.18750000      -0.31250000       0.06250000 </v>
   <v>      -0.06250000      -0.31250000       0.06250000 </v>
   <v>      -0.18750000      -0.18750000       0.06250000 </v>
   <v>      -0.06250000      -0.18750000       0.06250000 </v>
   <v>      -0.06250000      -0.06250000       0.06250000 </v>
   <v>       0.18750000       0.18750000       0.18750000 </v>
   <v>       0.31250000       0.18750000       0.18750000 </v>
   <v>      -0.18750000       0.18750000       0.18750000 </v>
   <v>       0.31250000       0.31250000       0.18750000 </v>
   <v>      -0.31250000       0.31250000       0.18750000 </v>
   <v>      -0.18750000       0.31250000       0.18750000 </v>
   <v>      -0.43750000       0.43750000       0.18750000 </v>
   <v>      -0.31250000       0.43750000       0.18750000 </v>
   <v>      -0.18750000       0.43750000       0.18750000 </v>
   <v>      -0.43750000      -0.43750000       0.18750000 </v>
   <v>      -0.31250000      -0.43750000       0.18750000 </v>
   <v>      -0.18750000      -0.43750000       0.18750000 </v>
   <v>      -0.31250000      -0.31250000       0.18750000 </v>
   <v>      -0.18750000      -0.31250000       0.18750000 </v>
   <v>      -0.18750000      -0.18750000       0.18750000 </v>
   <v>      -0.31250000       0.31250000       0.31250000 </v>
   <v>      -0.43750000       0.43750000       0.31250000 </v>
   <v>      -0.31250000       0.43750000       0.31250000 </v>
   <v>      -0.43750000      -0.43750000       0.31250000 </v>
   <v>      -0.31250000      -0.43750000       0.31250000 </v>
   <v>      -0.31250000      -0.31250000       0.31250000 </v>
   <v>      -0.43750000       0.43750000       0.43750000 </v>
   <v>      -0.43750000      -0.43750000       0.43750000 </v>
  </varray>
  <varray name="weights" >
   <v>       0.01562500 </v>
   <v>       0.03125000 </v>
   <v>       0.03125000 </v>
   <v>       0.01562500 </v>
   <v>       0.00781250 </v>
   <v>       0.01562500 </v>
   <v>       0.03125000 </v>
   <v>       0.03125000 </v>
   <v>       0.03125000 </v>
   <v>       0.01562500 </v>
   <v>       0.01562500 </v>
   <v>       0.01562500 </v>
   <v>       0.01562500 </v>
   <v>       0.03125000 </v>
   <v>       0.01562500 </v>
   <v>       0.01562500 </v>
   <v>       0.03125000 </v>
   <v>       0.01562500 </v>
   <v>       0.00781250 </v>
   <v>       0.01562500 </v>
   <v>       0.03125000 </v>
   <v>       0.03125000 </v>
   <v>       0.01562500 </v>
   <v>       0.01562500 </v>
   <v>       0.03125000 </v>
   <v>       0.03125000 </v>
   <v>       0.01562500 </v>
   <v>       0.01562500 </v>
   <v>       0.03125000 </v>
   <v>       0.01562500 </v>
   <v>       0.01562500 </v>
   <v>       0.01562500 </v>
   <v>       0.00390625 </v>
   <v>       0.01562500 </v>
   <v>       0.01562500 </v>
   <v>       0.00781250 </v>
   <v>       0.00781250 </v>
   <v>       0.01562500 </v>
   <v>       0.01562500 </v>
   <v>       0.01562500 </v>
   <v>       0.03125000 </v>
   <v>       0.01562500 </v>
   <v>       0.01562500 </v>
   <v>       0.03125000 </v>
   <v>       0.01562500 </v>
   <v>       0.01562500 </v>
   <v>       0.01562500 </v>
   <v>       0.00390625 </v>
   <v>       0.00781250 </v>
   <v>       0.01562500 </v>
   <v>       0.01562500 </v>
   <v>       0.01562500 </v>
   <v>       0.01562500 </v>
   <v>       0.00390625 </v>
   <v>       0.00781250 </v>
   <v>       0.00390625 </v>
  </varray>
 </kpoints>
 <parameters>
  <separator name="general" >
   <i type="string" name="SYSTEM">unknown system</i>
   <i type="logical" name="LCOMPAT"> F  </i>
  </separator>
  <separator name="electronic" >
   <i type="string" name="PREC">normal</i>
   <i name="ENMAX">    350.00000000</i>
   <i name="ENAUG">    322.06900000</i>
   <i name="EDIFF">      0.00040000</i>
   <i type="int" name="IALGO">    38</i>
   <i type="int" name="IWAVPR">    11</i>
   <i type="int" name="NBANDS">     8</i>
   <i name="NELECT">      8.00000000</i>
   <i type="int" name="TURBO">     0</i>
   <i type="int" name="IRESTART">     0</i>
   <i type="int" name="NREBOOT">     0</i>
   <i type="int" name="NMIN">     0</i>
   <i name="EREF">      0.00000000</i>
   <separator name="electronic smearing" >
    <i type="int" name="ISMEAR">     0</i>
    <i name="SIGMA">      0.20000000</i>
    <i name="KSPACING">      0.50000000</i>
    <i type="logical" name="KGAMMA"> T  </i>
   </separator>
   <separator name="electronic projectors" >
    <i type="logical" name="LREAL"> F  </i>
    <v name="ROPT">      0.00000000</v>
    <i type="int" name="LMAXPAW">  -100</i>
    <i type="int" name="LMAXMIX">     2</i>
    <i type="logical" name="NLSPLINE"> F  </i>
   </separator>
   <separator name="electronic startup" >
    <i type="int" name="ISTART">     0</i>
    <i type="int" name="ICHARG">     2</i>
    <i type="int" name="INIWAV">     1</i>
   </separator>
   <separator name="electronic spin" >
    <i type="int" name="ISPIN">     1</i>
    <i type="logical" name="LNONCOLLINEAR"> F  </i>
    <v name="MAGMOM">      1.00000000      1.00000000</v>
    <i name="NUPDOWN">     -1.00000000</i>
    <i type="logical" name="LSORBIT"> F  </i>
    <v name="SAXIS">      0.00000000      0.00000000      1.00000000</v>
    <i type="logical" name="LSPIRAL"> F  </i>
    <v name="QSPIRAL">      0.00000000      0.00000000      0.00000000</v>
    <i type="logical" name="LZEROZ"> F  </i>
   </separator>
   <separator name="electronic exchange-correlation" >
    <i type="logical" name="LASPH"> F  </i>
    <i type="logical" name="LMETAGGA"> F  </i>
   </separator>
   <separator name="electronic convergence" >
    <i type="int" name="NELM">    60</i>
    <i type="int" name="NELMDL">    -5</i>
    <i type="int" name="NELMIN">     2</i>
    <i name="ENINI">    350.00000000</i>
    <separator name="electronic convergence detail" >
     <i type="logical" name="LDIAG"> T  </i>
     <i type="logical" name="LSUBROT"> F  </i>
     <i name="WEIMIN">      0.00100000</i>
     <i name="EBREAK">      0.00001250</i>
     <i name="DEPER">      0.30000000</i>
     <i type="int" name="NRMM">     4</i>
     <i name="TIME">      0.40000000</i>
    </separator>
   </separator>
   <separator name="electronic mixer" >
    <i name="AMIX">      0.40000000</i>
    <i name="BMIX">      1.00000000</i>
    <i name="AMIN">      0.10000000</i>
    <i name="AMIX_MAG">      1.60000000</i>
    <i name="BMIX_MAG">      1.00000000</i>
    <separator name="electronic mixer details" >
     <i type="int" name="IMIX">     4</i>
     <i type="logical" name="MIXFIRST"> F  </i>
     <i type="int" name="MAXMIX">   -45</i>
     <i name="WC">    100.00000000</i>
     <i type="int" name="INIMIX">     1</i>
     <i type="int" name="MIXPRE">     1</i>
     <i type="int" name="MREMOVE">     5</i>
    </separator>
   </separator>
   <separator name="electronic dipolcorrection" >
    <i type="logical" name="LDIPOL"> F  </i>
    <i type="logical" name="LMONO"> F  </i>
    <i type="int" name="IDIPOL">     0</i>
    <i name="EPSILON">      1.00000000</i>
    <v name="DIPOL">   -100.00000000   -100.00000000   -100.00000000</v>
    <i name="EFIELD">      0.00000000</i>
   </separator>
  </separator>
  <separator name="grids" >
   <i type="int" name="NGX">    18</i>
   <i type="int" name="NGY">    18</i>
   <i type="int" name="NGZ">    18</i>
   <i type="int" name="NGXF">    36</i>
   <i type="int" name="NGYF">    36</i>
   <i type="int" name="NGZF">    36</i>
   <i type="logical" name="ADDGRID"> F  </i>
  </separator>
  <separator name="ionic" >
   <i type="int" name="NSW">    15</i>
   <i type="int" name="IBRION">     2</i>
   <i type="int" name="MDALGO">     0</i>
   <i type="int" name="ISIF">     2</i>
   <i name="PSTRESS">      0.00000000</i>
   <i name="EDIFFG">     -0.01000000</i>
   <i type="int" name="NFREE">     1</i>
   <i name="POTIM">      0.50000000</i>
   <i name="SMASS">     -3.00000000</i>
   <i name="SCALEE">      1.00000000</i>
  </separator>
  <separator name="ionic md" >
   <i name="TEBEG">      0.00010000</i>
   <i name="TEEND">      0.00010000</i>
   <i type="int" name="NBLOCK">     1</i>
   <i type="int" name="KBLOCK">    15</i>
   <i type="int" name="NPACO">   256</i>
   <i name="APACO">     16.00000000</i>
  </separator>
  <separator name="symmetry" >
   <i type="int" name="ISYM">     2</i>
   <i name="SYMPREC">      0.00001000</i>
  </separator>
  <separator name="dos" >
   <i type="int" name="LORBIT">     0</i>
   <v name="RWIGS">     -1.00000000</v>
   <i type="int" name="NEDOS">   301</i>
   <i name="EMIN">     10.00000000</i>
   <i name="EMAX">    -10.00000000</i>
   <i name="EFERMI">      0.00000000</i>
  </separator>
  <separator name="writing" >
   <i type="int" name="NWRITE">     2</i>
   <i type="logical" name="LWAVE"> T  </i>
   <i type="logical" name="LDOWNSAMPLE"> F  </i>
   <i type="logical" name="LCHARG"> T  </i>
   <i type="logical" name="LPARD"> F  </i>
   <i type="logical" name="LVTOT"> F  </i>
   <i type="logical" name="LVHAR"> F  </i>
   <i type="logical" name="LELF"> F  </i>
   <i type="logical" name="LOPTICS"> F  </i>
   <v name="STM">      0.00000000      0.00000000      0.00000000      0.00000000      0.00000000      0.00000000      0.00000000</v>
  </separator>
  <separator name="performance" >
   <i type="int" name="NPAR">     8</i>
   <i type="int" name="NSIM">     4</i>
   <i type="int" name="NBLK">    -1</i>
   <i type="logical" name="LPLANE"> T  </i>
   <i type="logical" name="LSCALAPACK"> T  </i>
   <i type="logical" name="LSCAAWARE"> F  </i>
   <i type="logical" name="LSCALU"> F  </i>
   <i type="logical" name="LASYNC"> F  </i>
   <i type="logical" name="LORBITALREAL"> F  </i>
  </separator>
  <separator name="miscellaneous" >
   <i type="int" name="IDIOT">     3</i>
   <i type="int" name="ISPECIAL">     0</i>
   <i type="logical" name="LMUSIC"> F  </i>
   <v name="POMASS">     28.08500000</v>
   <v name="DARWINR">      0.00000000</v>
   <v name="DARWINV">      1.00000000</v>
   <i type="logical" name="LCORR"> T  </i>
  </separator>
  <i type="logical" name="GGA_COMPAT"> T  </i>
  <i type="logical" name="LBERRY"> F  </i>
  <i type="int" name="ICORELEVEL">     0</i>
  <i type="logical" name="LDAU"> F  </i>
  <i type="int" name="I_CONSTRAINED_M">     0</i>
  <separator name="electronic exchange-correlation" >
   <i type="string" name="GGA">--</i>
   <i type="int" name="VOSKOWN">     0</i>
   <i type="logical" name="LHFCALC"> F  </i>
   <i type="string" name="PRECFOCK"></i>
   <i type="logical" name="LSYMGRAD"> F  </i>
   <i type="logical" name="LHFONE"> F  </i>
   <i type="logical" name="LRHFCALC"> F  </i>
   <i type="logical" name="LTHOMAS"> F  </i>
   <i type="logical" name="LMODELHF"> F  </i>
   <i name="ENCUT4O">     -1.00000000</i>
   <i type="int" name="EXXOEP">     0</i>
   <i type="int" name="FOURORBIT">     0</i>
   <i name="AEXX">      0.00000000</i>
   <i name="HFALPHA">      0.00000000</i>
   <i name="MCALPHA">      0.00000000</i>
   <i name="ALDAX">      1.00000000</i>
   <i name="AGGAX">      1.00000000</i>
   <i name="ALDAC">      1.00000000</i>
   <i name="AGGAC">      1.00000000</i>
   <i type="int" name="NKREDX">     1</i>
   <i type="int" name="NKREDY">     1</i>
   <i type="int" name="NKREDZ">     1</i>
   <i type="logical" name="SHIFTRED"> F  </i>
   <i type="logical" name="ODDONLY"> F  </i>
   <i type="logical" name="EVENONLY"> F  </i>
   <i type="int" name="LMAXFOCK">     0</i>
   <i type="int" name="NMAXFOCKAE">     0</i>
   <i type="logical" name="LFOCKAEDFT"> F  </i>
   <i name="HFSCREEN">      0.00000000</i>
   <i name="HFSCREENC">      0.00000000</i>
   <i type="int" name="NBANDSGWLOW">     0</i>
  </separator>
  <separator name="vdW DFT" >
   <i type="logical" name="LUSE_VDW"> F  </i>
   <i name="Zab_VDW">     -0.84910000</i>
   <i name="PARAM1">      0.12340000</i>
   <i name="PARAM2">      1.00000000</i>
   <i name="PARAM3">      0.00000000</i>
  </separator>
  <separator name="model GW" >
   <i type="int" name="MODEL_GW">     0</i>
   <i name="MODEL_EPS0">      9.50699206</i>
   <i name="MODEL_ALPHA">      1.00000000</i>
  </separator>
  <separator name="linear response parameters" >
   <i type="logical" name="LEPSILON"> F  </i>
   <i type="logical" name="LRPA"> F  </i>
   <i type="logical" name="LNABLA"> F  </i>
   <i type="logical" name="LVEL"> F  </i>
   <i type="int" name="KINTER">     0</i>
   <i name="CSHIFT">      0.10000000</i>
   <i name="OMEGAMAX">     -1.00000000</i>
   <i name="DEG_THRESHOLD">      0.00200000</i>
   <i name="RTIME">     -0.10000000</i>
   <i name="WPLASMAI">      0.00000000</i>
   <v name="DFIELD">      0.00000000      0.00000000      0.00000000</v>
   <v name="WPLASMA">      0.00000000      0.00000000      0.00000000      0.00000000      0.00000000      0.00000000      0.00000000      0.00000000      0.00000000</v>
  </separator>
  <separator name="orbital magnetization" >
   <i type="logical" name="NUCIND"> F  </i>
   <v name="MAGPOS">      0.00000000      0.00000000      0.00000000</v>
   <i type="logical" name="LNICSALL"> T  </i>
   <i type="logical" name="ORBITALMAG"> F  </i>
   <i type="logical" name="LMAGBLOCH"> F  </i>
   <i type="logical" name="LCHIMAG"> F  </i>
   <i type="logical" name="LGAUGE"> T  </i>
   <i type="int" name="MAGATOM">     0</i>
   <v name="MAGDIPOL">      0.00000000      0.00000000      0.00000000</v>
   <v name="AVECCONST">      0.00000000      0.00000000      0.00000000</v>
  </separator>
  <separator name="response functions" >
   <i type="logical" name="LADDER"> F  </i>
   <i type="logical" name="LRPAFORCE"> F  </i>
   <i type="logical" name="LFXC"> F  </i>
   <i type="logical" name="LHARTREE"> T  </i>
   <i type="int" name="IBSE">     0</i>
   <v type="int" name="KPOINT">    -1     0     0     0</v>
   <i type="logical" name="LTCTE"> F  </i>
   <i type="logical" name="LTETE"> F  </i>
   <i type="logical" name="LTRIPLET"> F  </i>
   <i type="logical" name="LFXCEPS"> F  </i>
   <i type="logical" name="LFXHEG"> F  </i>
   <i type="int" name="NATURALO">     2</i>
   <i type="logical" name="L2ORDER"> F  </i>
   <i type="logical" name="LMP2LT"> F  </i>
   <i type="logical" name="LUSEW"> F  </i>
   <i name="ENCUTGW">     -2.00000000</i>
   <i name="ENCUTGWSOFT">     -2.00000000</i>
   <i name="ENCUTLF">     -1.00000000</i>
   <i type="int" name="LMAXMP2">    -1</i>
   <i name="SCISSOR">      0.00000000</i>
   <i type="int" name="NOMEGA">     0</i>
   <i type="int" name="NOMEGAR">     0</i>
   <i type="int" name="NBANDSGW">    -1</i>
   <i type="int" name="NBANDSO">    -1</i>
   <i type="int" name="NBANDSV">    -1</i>
   <i type="int" name="NELM">     1</i>
   <i type="int" name="NELMHF">     1</i>
   <i type="int" name="DIM">     3</i>
   <i type="int" name="ANTIRES">     0</i>
   <i name="OMEGAMAX">    -30.00000000</i>
   <i name="OMEGAMIN">    -30.00000000</i>
   <i name="OMEGATL">   -200.00000000</i>
   <i type="int" name="OMEGAGRID">   140</i>
   <i name="CSHIFT">     -0.10000000</i>
   <i type="logical" name="SELFENERGY"> F  </i>
   <i type="logical" name="LSPECTRAL"> F  </i>
   <i type="logical" name="LSPECTRALGW"> F  </i>
   <i type="logical" name="LSINGLES"> F  </i>
   <i type="logical" name="LFERMIGW"> F  </i>
   <i type="logical" name="ODDONLYGW"> F  </i>
   <i type="logical" name="EVENONLYGW"> F  </i>
   <i type="int" name="NKREDLFX">     1</i>
   <i type="int" name="NKREDLFY">     1</i>
   <i type="int" name="NKREDLFZ">     1</i>
   <i type="int" name="MAXMEM">  2800</i>
   <i type="int" name="TELESCOPE">     0</i>
   <i type="int" name="TAUPAR">     1</i>
   <i type="int" name="OMEGAPAR">    -1</i>
   <i name="LAMBDA">      1.00000000</i>
  </separator>
  <separator name="External order field" >
   <i name="OFIELD_KAPPA">      0.00000000</i>
   <v name="OFIELD_K">      0.00000000      0.00000000      0.00000000</v>
   <i name="OFIELD_Q6_NEAR">      0.00000000</i>
   <i name="OFIELD_Q6_FAR">      0.00000000</i>
   <i name="OFIELD_A">      0.00000000</i>
  </separator>
 </parameters>
 <atominfo>
  <atoms>       2 </atoms>
  <types>       1 </types>
  <array name="atoms" >
   <dimension dim="1">ion</dimension>
   <field type="string">element</field>
   <field type="int">atomtype</field>
   <set>
    <rc><c>Si</c><c>   1</c></rc>
    <rc><c>Si</c><c>   1</c></rc>
   </set>
  </array>
  <array name="atomtypes" >
   <dimension dim="1">type</dimension>
   <field type="int">atomspertype</field>
   <field type="string">element</field>
   <field>mass</field>
   <field>valence</field>
   <field type="string">pseudopotential</field>
   <set>
    <rc><c>   2</c><c>Si</c><c>     28.08500000</c><c>      4.00000000</c><c> PAW_PBE Si 05Jan2001                   </c></rc>
   </set>
  </array>
 </atominfo>
 <structure name="initialpos" >
  <crystal>
   <varray name="basis" >
    <v>      -2.43200400       2.43200400       1.33947100 </v>
    <v>       2.43200400      -2.43200400       1.33947100 </v>
    <v>       2.43200400       2.43200400      -1.33947100 </v>
   </varray>
   <i name="volume">     31.68997354 </i>
   <varray name="rec_basis" >
    <v>      -0.00000000       0.20559177       0.37328169 </v>
    <v>       0.20559177      -0.00000000       0.37328169 </v>
    <v>       0.20559177       0.20559177       0.00000000 </v>
   </varray>
  </crystal>
  <varray name="positions" >
   <v>       0.75000000       0.25000000       0.50000000 </v>
   <v>       0.50000000       0.50000000       0.00000000 </v>
  </varray>
 </structure>
 <calculation>
  <scstep>
   <time name="dav">    0.71    0.72</time>
   <time name="total">    0.76    0.78</time>
   <energy>
    <i name="alphaZ">      4.24905100 </i>
    <i name="ewald">   -262.18172144 </i>
    <i name="hartreedc">     -2.45876546 </i>
    <i name="XCdc">    -17.99604034 </i>
    <i name="pawpsdc">     65.95520812 </i>
    <i name="pawaedc">    -30.76852678 </i>
    <i name="eentropy">     -0.01133124 </i>
    <i name="bandstr">     38.67665189 </i>
    <i name="atom">    206.13125414 </i>
    <i name="e_fr_energy">      1.59577987 </i>
    <i name="e_wo_entrp">      1.60711111 </i>
    <i name="e_0_energy">      1.60144549 </i>
   </energy>
  </scstep>
  <scstep>
   <time name="dav">    1.06    1.07</time>
   <time name="total">    1.07    1.07</time>
   <energy>
    <i name="e_fr_energy">    -10.14894993 </i>
    <i name="e_wo_entrp">    -10.12902897 </i>
    <i name="e_0_energy">    -10.13898945 </i>
   </energy>
  </scstep>
  <scstep>
   <time name="dav">    0.96    0.96</time>
   <time name="total">    0.96    0.97</time>
   <energy>
    <i name="e_fr_energy">    -10.26627393 </i>
    <i name="e_wo_entrp">    -10.24602264 </i>
    <i name="e_0_energy">    -10.25614829 </i>
   </energy>
  </scstep>
  <scstep>
   <time name="dav">    1.08    1.09</time>
   <time name="total">    1.08    1.10</time>
   <energy>
    <i name="e_fr_energy">    -10.26653362 </i>
    <i name="e_wo_entrp">    -10.24627923 </i>
    <i name="e_0_energy">    -10.25640643 </i>
   </energy>
  </scstep>
  <scstep>
   <time name="dav">    0.92    0.92</time>
   <time name="total">    0.98    0.99</time>
   <energy>
    <i name="e_fr_energy">    -10.26653421 </i>
    <i name="e_wo_entrp">    -10.24627982 </i>
    <i name="e_0_energy">    -10.25640702 </i>
   </energy>
  </scstep>
  <scstep>
   <time name="dav">    0.97    0.97</time>
   <time name="total">    1.06    1.07</time>
   <energy>
    <i name="e_fr_energy">    -10.26028108 </i>
    <i name="e_wo_entrp">    -10.23998291 </i>
    <i name="e_0_energy">    -10.25013200 </i>
   </energy>
  </scstep>
  <scstep>
   <time name="dav">    0.85    0.84</time>
   <time name="total">    0.94    0.95</time>
   <energy>
    <i name="e_fr_energy">    -10.25587849 </i>
    <i name="e_wo_entrp">    -10.23554244 </i>
    <i name="e_0_energy">    -10.24571046 </i>
   </energy>
  </scstep>
  <scstep>
   <time name="dav">    0.59    0.59</time>
   <time name="total">    0.63    0.63</time>
   <energy>
    <i name="alphaZ">      4.24905100 </i>
    <i name="ewald">   -262.18172144 </i>
    <i name="hartreedc">     -2.61656538 </i>
    <i name="XCdc">    -17.78093780 </i>
    <i name="pawpsdc">     69.46912525 </i>
    <i name="pawaedc">    -34.36156324 </i>
    <i name="eentropy">     -0.02032808 </i>
    <i name="bandstr">     26.85585759 </i>
    <i name="atom">    206.13125414 </i>
    <i name="e_fr_energy">    -10.25582797 </i>
    <i name="e_wo_entrp">    -10.23549988 </i>
    <i name="e_0_energy">    -10.24566393 </i>
   </energy>
  </scstep>
  <structure>
   <crystal>
    <varray name="basis" >
     <v>      -2.43200400       2.43200400       1.33947100 </v>
     <v>       2.43200400      -2.43200400       1.33947100 </v>
     <v>       2.43200400       2.43200400      -1.33947100 </v>
    </varray>
    <i name="volume">     31.68997354 </i>
    <varray name="rec_basis" >
     <v>      -0.00000000       0.20559177       0.37328169 </v>
     <v>       0.20559177      -0.00000000       0.37328169 </v>
     <v>       0.20559177       0.20559177       0.00000000 </v>
    </varray>
   </crystal>
   <varray name="positions" >
    <v>       0.75000000       0.25000000       0.50000000 </v>
    <v>       0.50000000       0.50000000       0.00000000 </v>
   </varray>
  </structure>
  <varray name="forces" >
   <v>      -0.00000000       0.00000000      -0.00000000 </v>
   <v>       0.00000000      -0.00000000       0.00000000 </v>
  </varray>
  <varray name="stress" >
   <v>     -47.83628513       0.00000000       0.00000000 </v>
   <v>       0.00000000     -47.83628513      -0.00000000 </v>
   <v>       0.00000000       0.00000000      -0.26364450 </v>
  </varray>
  <energy>
   <i name="e_fr_energy">    -10.25582797 </i>
   <i name="e_wo_entrp">    -10.24566393 </i>
   <i name="e_0_energy">     -0.02032808 </i>
  </energy>
  <time name="totalsc">    8.80    9.40</time>
  <eigenvalues>
   <array>
    <dimension dim="1">band</dimension>
    <dimension dim="2">kpoint</dimension>
    <dimension dim="3">spin</dimension>
    <field>eigene</field>
    <field>occ</field>
    <set>
     <set comment="spin 1">
      <set comment="kpoint 1">
       <r>   -4.2358    1.0000 </r>
       <r>    4.4030    1.0000 </r>
       <r>    6.6688    1.0000 </r>
       <r>    8.1843    0.9995 </r>
       <r>   11.8251    0.0000 </r>
       <r>   13.6700    0.0000 </r>
       <r>   14.2373    0.0000 </r>
       <r>   16.0992    0.0000 </r>
      </set>
      <set comment="kpoint 2">
       <r>   -3.0211    1.0000 </r>
       <r>    4.1580    1.0000 </r>
       <r>    6.9669    1.0000 </r>
       <r>    9.1274    0.0003 </r>
       <r>   10.7781    0.0000 </r>
       <r>   10.8822    0.0000 </r>
       <r>   13.6465    0.0000 </r>
       <r>   14.3948    0.0000 </r>
      </set>
      <set comment="kpoint 3">
       <r>   -1.0270    1.0000 </r>
       <r>    4.4517    1.0000 </r>
       <r>    5.5341    1.0000 </r>
       <r>    7.2371    1.0000 </r>
       <r>    8.5820    0.6792 </r>
       <r>   11.7123    0.0000 </r>
       <r>   13.1452    0.0000 </r>
       <r>   13.5450    0.0000 </r>
      </set>
      <set comment="kpoint 4">
       <r>    1.3000    1.0000 </r>
       <r>    2.2221    1.0000 </r>
       <r>    5.7522    1.0000 </r>
       <r>    6.1476    1.0000 </r>
       <r>    8.4645    0.9025 </r>
       <r>   10.5521    0.0000 </r>
       <r>   13.0596    0.0000 </r>
       <r>   14.0068    0.0000 </r>
      </set>
      <set comment="kpoint 5">
       <r>   -4.6431    1.0000 </r>
       <r>    5.0061    1.0000 </r>
       <r>    5.8653    1.0000 </r>
       <r>    7.8522    1.0000 </r>
       <r>   10.9603    0.0000 </r>
       <r>   14.8225    0.0000 </r>
       <r>   17.2870    0.0000 </r>
       <r>   17.3856    0.0000 </r>
      </set>
      <set comment="kpoint 6">
       <r>   -1.2097    1.0000 </r>
       <r>    4.4437    1.0000 </r>
       <r>    6.4126    1.0000 </r>
       <r>    6.6083    1.0000 </r>
       <r>    9.5525    0.0000 </r>
       <r>   11.5348    0.0000 </r>
       <r>   12.8427    0.0000 </r>
       <r>   13.0348    0.0000 </r>
      </set>
      <set comment="kpoint 7">
       <r>    1.2483    1.0000 </r>
       <r>    2.9474    1.0000 </r>
       <r>    4.2919    1.0000 </r>
       <r>    5.7672    1.0000 </r>
       <r>    9.8061    0.0000 </r>
       <r>   11.5425    0.0000 </r>
       <r>   12.5634    0.0000 </r>
       <r>   14.5965    0.0000 </r>
      </set>
      <set comment="kpoint 8">
       <r>   -0.1142    1.0000 </r>
       <r>    2.7145    1.0000 </r>
       <r>    4.8939    1.0000 </r>
       <r>    7.2397    1.0000 </r>
       <r>    9.0540    0.0020 </r>
       <r>   11.7101    0.0000 </r>
       <r>   13.6276    0.0000 </r>
       <r>   14.5014    0.0000 </r>
      </set>
      <set comment="kpoint 9">
       <r>   -2.2742    1.0000 </r>
       <r>    2.0967    1.0000 </r>
       <r>    7.5097    1.0000 </r>
       <r>    8.7881    0.1607 </r>
       <r>   10.3121    0.0000 </r>
       <r>   11.4324    0.0000 </r>
       <r>   12.6432    0.0000 </r>
       <r>   14.9775    0.0000 </r>
      </set>
      <set comment="kpoint 10">
       <r>   -3.6706    1.0000 </r>
       <r>    2.1858    1.0000 </r>
       <r>    7.1749    1.0000 </r>
       <r>    9.1092    0.0006 </r>
       <r>   12.0984    0.0000 </r>
       <r>   13.6102    0.0000 </r>
       <r>   14.1648    0.0000 </r>
       <r>   14.7790    0.0000 </r>
      </set>
      <set comment="kpoint 11">
       <r>   -4.2652    1.0000 </r>
       <r>    2.9969    1.0000 </r>
       <r>    5.9809    1.0000 </r>
       <r>    9.0882    0.0009 </r>
       <r>   12.7529    0.0000 </r>
       <r>   12.9199    0.0000 </r>
       <r>   15.8277    0.0000 </r>
       <r>   17.1708    0.0000 </r>
      </set>
      <set comment="kpoint 12">
       <r>   -4.0473    1.0000 </r>
       <r>    4.1193    1.0000 </r>
       <r>    5.3504    1.0000 </r>
       <r>    9.6674    0.0000 </r>
       <r>   12.5487    0.0000 </r>
       <r>   12.6611    0.0000 </r>
       <r>   13.7024    0.0000 </r>
       <r>   15.6711    0.0000 </r>
      </set>
      <set comment="kpoint 13">
       <r>    1.1113    1.0000 </r>
       <r>    1.1792    1.0000 </r>
       <r>    4.7018    1.0000 </r>
       <r>    7.1822    1.0000 </r>
       <r>    9.7935    0.0000 </r>
       <r>   10.6172    0.0000 </r>
       <r>   14.6495    0.0000 </r>
       <r>   15.4985    0.0000 </r>
      </set>
      <set comment="kpoint 14">
       <r>   -1.1620    1.0000 </r>
       <r>    0.3030    1.0000 </r>
       <r>    8.0341    1.0000 </r>
       <r>    8.6454    0.5068 </r>
       <r>    9.9658    0.0000 </r>
       <r>   11.3542    0.0000 </r>
       <r>   12.4486    0.0000 </r>
       <r>   13.8381    0.0000 </r>
      </set>
      <set comment="kpoint 15">
       <r>   -2.7335    1.0000 </r>
       <r>    0.2165    1.0000 </r>
       <r>    8.0100    1.0000 </r>
       <r>   10.0739    0.0000 </r>
       <r>   10.5916    0.0000 </r>
       <r>   12.6756    0.0000 </r>
       <r>   13.7103    0.0000 </r>
       <r>   13.8029    0.0000 </r>
      </set>
      <set comment="kpoint 16">
       <r>   -3.5124    1.0000 </r>
       <r>    0.9019    1.0000 </r>
       <r>    6.6638    1.0000 </r>
       <r>   10.0270    0.0000 </r>
       <r>   10.7824    0.0000 </r>
       <r>   14.1106    0.0000 </r>
       <r>   15.8164    0.0000 </r>
       <r>   16.8648    0.0000 </r>
      </set>
      <set comment="kpoint 17">
       <r>   -3.4835    1.0000 </r>
       <r>    2.3093    1.0000 </r>
       <r>    5.4688    1.0000 </r>
       <r>   10.6231    0.0000 </r>
       <r>   11.0171    0.0000 </r>
       <r>   12.9219    0.0000 </r>
       <r>   14.6963    0.0000 </r>
       <r>   15.5910    0.0000 </r>
      </set>
      <set comment="kpoint 18">
       <r>   -2.6480    1.0000 </r>
       <r>    3.9811    1.0000 </r>
       <r>    5.3576    1.0000 </r>
       <r>    8.4305    0.9378 </r>
       <r>   11.0568    0.0000 </r>
       <r>   12.5966    0.0000 </r>
       <r>   13.2526    0.0000 </r>
       <r>   13.6316    0.0000 </r>
      </set>
      <set comment="kpoint 19">
       <r>   -1.4329    1.0000 </r>
       <r>   -1.4329    1.0000 </r>
       <r>    9.1529    0.0002 </r>
       <r>    9.1529    0.0002 </r>
       <r>   11.3233    0.0000 </r>
       <r>   11.3233    0.0000 </r>
       <r>   13.5172    0.0000 </r>
       <r>   13.5172    0.0000 </r>
      </set>
      <set comment="kpoint 20">
       <r>   -2.3910    1.0000 </r>
       <r>   -0.9124    1.0000 </r>
       <r>    7.7056    1.0000 </r>
       <r>    9.0855    0.0010 </r>
       <r>   11.1381    0.0000 </r>
       <r>   12.5090    0.0000 </r>
       <r>   16.5716    0.0000 </r>
       <r>   16.6694    0.0000 </r>
      </set>
      <set comment="kpoint 21">
       <r>   -2.5491    1.0000 </r>
       <r>    0.3834    1.0000 </r>
       <r>    6.3006    1.0000 </r>
       <r>    9.0268    0.0037 </r>
       <r>   11.3744    0.0000 </r>
       <r>   12.8441    0.0000 </r>
       <r>   14.7795    0.0000 </r>
       <r>   15.3039    0.0000 </r>
      </set>
      <set comment="kpoint 22">
       <r>   -1.9053    1.0000 </r>
       <r>    2.3796    1.0000 </r>
       <r>    5.5613    1.0000 </r>
       <r>    7.7924    1.0000 </r>
       <r>    9.6506    0.0000 </r>
       <r>   12.4576    0.0000 </r>
       <r>   13.9496    0.0000 </r>
       <r>   15.2874    0.0000 </r>
      </set>
      <set comment="kpoint 23">
       <r>   -0.4821    1.0000 </r>
       <r>    4.0271    1.0000 </r>
       <r>    5.1839    1.0000 </r>
       <r>    5.9734    1.0000 </r>
       <r>    9.1123    0.0005 </r>
       <r>   11.5315    0.0000 </r>
       <r>   11.8371    0.0000 </r>
       <r>   15.1160    0.0000 </r>
      </set>
      <set comment="kpoint 24">
       <r>   -1.2571    1.0000 </r>
       <r>   -1.2504    1.0000 </r>
       <r>    7.4968    1.0000 </r>
       <r>    7.5114    1.0000 </r>
       <r>   11.4660    0.0000 </r>
       <r>   13.3503    0.0000 </r>
       <r>   14.1877    0.0000 </r>
       <r>   14.7906    0.0000 </r>
      </set>
      <set comment="kpoint 25">
       <r>   -0.8017    1.0000 </r>
       <r>    0.6451    1.0000 </r>
       <r>    6.4566    1.0000 </r>
       <r>    7.3719    1.0000 </r>
       <r>    8.2356    0.9982 </r>
       <r>   12.1107    0.0000 </r>
       <r>   15.0430    0.0000 </r>
       <r>   16.3434    0.0000 </r>
      </set>
      <set comment="kpoint 26">
       <r>    0.4134    1.0000 </r>
       <r>    3.0252    1.0000 </r>
       <r>    4.1973    1.0000 </r>
       <r>    6.4045    1.0000 </r>
       <r>    8.6275    0.5572 </r>
       <r>   10.5572    0.0000 </r>
       <r>   13.0610    0.0000 </r>
       <r>   16.4265    0.0000 </r>
      </set>
      <set comment="kpoint 27">
       <r>    0.8974    1.0000 </r>
       <r>    2.6259    1.0000 </r>
       <r>    6.2052    1.0000 </r>
       <r>    6.9392    1.0000 </r>
       <r>    7.5504    1.0000 </r>
       <r>   10.1693    0.0000 </r>
       <r>   11.5966    0.0000 </r>
       <r>   15.3358    0.0000 </r>
      </set>
      <set comment="kpoint 28">
       <r>    1.5436    1.0000 </r>
       <r>    1.7214    1.0000 </r>
       <r>    3.8978    1.0000 </r>
       <r>    7.2740    1.0000 </r>
       <r>    7.6813    1.0000 </r>
       <r>   10.1806    0.0000 </r>
       <r>   14.9095    0.0000 </r>
       <r>   15.5692    0.0000 </r>
      </set>
      <set comment="kpoint 29">
       <r>    0.5856    1.0000 </r>
       <r>    3.6213    1.0000 </r>
       <r>    4.9600    1.0000 </r>
       <r>    7.1334    1.0000 </r>
       <r>    8.2393    0.9981 </r>
       <r>   10.0455    0.0000 </r>
       <r>   11.6380    0.0000 </r>
       <r>   14.0313    0.0000 </r>
      </set>
      <set comment="kpoint 30">
       <r>   -1.5792    1.0000 </r>
       <r>    5.7958    1.0000 </r>
       <r>    6.8096    1.0000 </r>
       <r>    7.1796    1.0000 </r>
       <r>    8.4094    0.9541 </r>
       <r>   10.8973    0.0000 </r>
       <r>   11.6059    0.0000 </r>
       <r>   13.2889    0.0000 </r>
      </set>
      <set comment="kpoint 31">
       <r>   -1.7639    1.0000 </r>
       <r>    6.4256    1.0000 </r>
       <r>    7.0950    1.0000 </r>
       <r>    7.3939    1.0000 </r>
       <r>    8.7487    0.2378 </r>
       <r>   10.3903    0.0000 </r>
       <r>   11.5932    0.0000 </r>
       <r>   11.8155    0.0000 </r>
      </set>
      <set comment="kpoint 32">
       <r>   -3.3961    1.0000 </r>
       <r>    6.1137    1.0000 </r>
       <r>    6.8638    1.0000 </r>
       <r>    8.7080    0.3353 </r>
       <r>   10.8327    0.0000 </r>
       <r>   11.2608    0.0000 </r>
       <r>   12.0682    0.0000 </r>
       <r>   13.8027    0.0000 </r>
      </set>
      <set comment="kpoint 33">
       <r>   -4.4247    1.0000 </r>
       <r>    6.4993    1.0000 </r>
       <r>    6.4993    1.0000 </r>
       <r>    6.7601    1.0000 </r>
       <r>   10.7163    0.0000 </r>
       <r>   14.4622    0.0000 </r>
       <r>   14.5793    0.0000 </r>
       <r>   16.4564    0.0000 </r>
      </set>
      <set comment="kpoint 34">
       <r>   -0.2923    1.0000 </r>
       <r>    2.5733    1.0000 </r>
       <r>    5.9828    1.0000 </r>
       <r>    6.0733    1.0000 </r>
       <r>   10.5445    0.0000 </r>
       <r>   12.3796    0.0000 </r>
       <r>   13.6082    0.0000 </r>
       <r>   14.0466    0.0000 </r>
      </set>
      <set comment="kpoint 35">
       <r>    2.0052    1.0000 </r>
       <r>    2.7547    1.0000 </r>
       <r>    3.7844    1.0000 </r>
       <r>    4.4358    1.0000 </r>
       <r>   11.4656    0.0000 </r>
       <r>   13.3859    0.0000 </r>
       <r>   13.6902    0.0000 </r>
       <r>   13.8691    0.0000 </r>
      </set>
      <set comment="kpoint 36">
       <r>   -3.8891    1.0000 </r>
       <r>    2.8170    1.0000 </r>
       <r>    4.2477    1.0000 </r>
       <r>   10.6341    0.0000 </r>
       <r>   11.2072    0.0000 </r>
       <r>   13.9932    0.0000 </r>
       <r>   16.2233    0.0000 </r>
       <r>   16.7344    0.0000 </r>
      </set>
      <set comment="kpoint 37">
       <r>    0.9765    1.0000 </r>
       <r>    0.9765    1.0000 </r>
       <r>    5.8632    1.0000 </r>
       <r>    5.8632    1.0000 </r>
       <r>   11.7934    0.0000 </r>
       <r>   11.7934    0.0000 </r>
       <r>   13.5904    0.0000 </r>
       <r>   13.5904    0.0000 </r>
      </set>
      <set comment="kpoint 38">
       <r>   -3.1404    1.0000 </r>
       <r>    1.1899    1.0000 </r>
       <r>    4.4652    1.0000 </r>
       <r>    8.6082    0.6102 </r>
       <r>   12.5462    0.0000 </r>
       <r>   15.4553    0.0000 </r>
       <r>   16.0562    0.0000 </r>
       <r>   16.8333    0.0000 </r>
      </set>
      <set comment="kpoint 39">
       <r>   -2.9241    1.0000 </r>
       <r>    2.2822    1.0000 </r>
       <r>    3.8033    1.0000 </r>
       <r>    8.7632    0.2073 </r>
       <r>   11.3591    0.0000 </r>
       <r>   13.9790    0.0000 </r>
       <r>   16.0051    0.0000 </r>
       <r>   16.3026    0.0000 </r>
      </set>
      <set comment="kpoint 40">
       <r>   -2.0270    1.0000 </r>
       <r>   -0.5661    1.0000 </r>
       <r>    5.4717    1.0000 </r>
       <r>    6.8704    1.0000 </r>
       <r>   13.5932    0.0000 </r>
       <r>   14.5935    0.0000 </r>
       <r>   16.1449    0.0000 </r>
       <r>   16.5264    0.0000 </r>
      </set>
      <set comment="kpoint 41">
       <r>   -1.9992    1.0000 </r>
       <r>    0.8470    1.0000 </r>
       <r>    4.1617    1.0000 </r>
       <r>    6.8944    1.0000 </r>
       <r>   10.9981    0.0000 </r>
       <r>   15.2935    0.0000 </r>
       <r>   16.3571    0.0000 </r>
       <r>   17.8025    0.0000 </r>
      </set>
      <set comment="kpoint 42">
       <r>   -1.1731    1.0000 </r>
       <r>    2.5142    1.0000 </r>
       <r>    4.0779    1.0000 </r>
       <r>    6.9863    1.0000 </r>
       <r>    7.8980    1.0000 </r>
       <r>   13.6956    0.0000 </r>
       <r>   15.1161    0.0000 </r>
       <r>   16.4368    0.0000 </r>
      </set>
      <set comment="kpoint 43">
       <r>   -0.7318    1.0000 </r>
       <r>   -0.7176    1.0000 </r>
       <r>    5.3227    1.0000 </r>
       <r>    5.3455    1.0000 </r>
       <r>   10.8535    0.0000 </r>
       <r>   15.9600    0.0000 </r>
       <r>   16.6317    0.0000 </r>
       <r>   16.9397    0.0000 </r>
      </set>
      <set comment="kpoint 44">
       <r>   -0.0930    1.0000 </r>
       <r>    1.2830    1.0000 </r>
       <r>    4.5735    1.0000 </r>
       <r>    5.8342    1.0000 </r>
       <r>    7.0249    1.0000 </r>
       <r>   13.8813    0.0000 </r>
       <r>   16.6405    0.0000 </r>
       <r>   17.6741    0.0000 </r>
      </set>
      <set comment="kpoint 45">
       <r>    1.2566    1.0000 </r>
       <r>    2.9791    1.0000 </r>
       <r>    4.1502    1.0000 </r>
       <r>    5.0620    1.0000 </r>
       <r>    7.2455    1.0000 </r>
       <r>   11.6648    0.0000 </r>
       <r>   13.0031    0.0000 </r>
       <r>   16.5995    0.0000 </r>
      </set>
      <set comment="kpoint 46">
       <r>    2.0886    1.0000 </r>
       <r>    2.5626    1.0000 </r>
       <r>    3.6348    1.0000 </r>
       <r>    5.7495    1.0000 </r>
       <r>    5.8661    1.0000 </r>
       <r>   11.9141    0.0000 </r>
       <r>   14.3764    0.0000 </r>
       <r>   15.1755    0.0000 </r>
      </set>
      <set comment="kpoint 47">
       <r>    0.2393    1.0000 </r>
       <r>    4.6141    1.0000 </r>
       <r>    5.5396    1.0000 </r>
       <r>    6.6144    1.0000 </r>
       <r>    7.4106    1.0000 </r>
       <r>   10.4187    0.0000 </r>
       <r>   11.4936    0.0000 </r>
       <r>   12.9719    0.0000 </r>
      </set>
      <set comment="kpoint 48">
       <r>   -1.9493    1.0000 </r>
       <r>    7.7787    1.0000 </r>
       <r>    7.7787    1.0000 </r>
       <r>    7.8747    1.0000 </r>
       <r>    8.0888    1.0000 </r>
       <r>    9.3598    0.0000 </r>
       <r>   11.3143    0.0000 </r>
       <r>   11.3143    0.0000 </r>
      </set>
      <set comment="kpoint 49">
       <r>   -2.4016    1.0000 </r>
       <r>    1.3287    1.0000 </r>
       <r>    2.9261    1.0000 </r>
       <r>    6.5474    1.0000 </r>
       <r>   14.2053    0.0000 </r>
       <r>   15.0861    0.0000 </r>
       <r>   16.6390    0.0000 </r>
       <r>   18.0756    0.0000 </r>
      </set>
      <set comment="kpoint 50">
       <r>   -1.3106    1.0000 </r>
       <r>    0.0800    1.0000 </r>
       <r>    3.4439    1.0000 </r>
       <r>    4.7985    1.0000 </r>
       <r>   14.5368    0.0000 </r>
       <r>   14.7240    0.0000 </r>
       <r>   17.6191    0.0000 </r>
       <r>   18.6874    0.0000 </r>
      </set>
      <set comment="kpoint 51">
       <r>   -1.0972    1.0000 </r>
       <r>    1.1622    1.0000 </r>
       <r>    2.7896    1.0000 </r>
       <r>    4.9957    1.0000 </r>
       <r>   10.5445    0.0000 </r>
       <r>   17.4458    0.0000 </r>
       <r>   17.8110    0.0000 </r>
       <r>   18.8248    0.0000 </r>
      </set>
      <set comment="kpoint 52">
       <r>    0.0925    1.0000 </r>
       <r>    0.1172    1.0000 </r>
       <r>    3.4659    1.0000 </r>
       <r>    3.4810    1.0000 </r>
       <r>   10.3840    0.0000 </r>
       <r>   17.6885    0.0000 </r>
       <r>   18.9764    0.0000 </r>
       <r>   19.5609    0.0000 </r>
      </set>
      <set comment="kpoint 53">
       <r>    0.9107    1.0000 </r>
       <r>    1.7732    1.0000 </r>
       <r>    3.4037    1.0000 </r>
       <r>    4.2358    1.0000 </r>
       <r>    6.5937    1.0000 </r>
       <r>   15.5441    0.0000 </r>
       <r>   16.7821    0.0000 </r>
       <r>   17.9512    0.0000 </r>
      </set>
      <set comment="kpoint 54">
       <r>    2.3026    1.0000 </r>
       <r>    3.2735    1.0000 </r>
       <r>    4.0304    1.0000 </r>
       <r>    4.7405    1.0000 </r>
       <r>    4.7405    1.0000 </r>
       <r>   13.6227    0.0000 </r>
       <r>   14.1954    0.0000 </r>
       <r>   14.1954    0.0000 </r>
      </set>
      <set comment="kpoint 55">
       <r>   -0.2931    1.0000 </r>
       <r>    0.5763    1.0000 </r>
       <r>    2.2376    1.0000 </r>
       <r>    3.0953    1.0000 </r>
       <r>   14.4377    0.0000 </r>
       <r>   14.4754    0.0000 </r>
       <r>   19.8549    0.0000 </r>
       <r>   20.6189    0.0000 </r>
      </set>
      <set comment="kpoint 56">
       <r>    0.7660    1.0000 </r>
       <r>    0.8059    1.0000 </r>
       <r>    2.4442    1.0000 </r>
       <r>    2.4442    1.0000 </r>
       <r>   10.2207    0.0000 </r>
       <r>   18.2006    0.0000 </r>
       <r>   20.1379    0.0000 </r>
       <r>   20.1886    0.0000 </r>
      </set>
     </set>
    </set>
   </array>
  </eigenvalues>
  <separator name="orbital magnetization" >
   <v name="MAGDIPOLOUT">      0.00000000      0.00000000      0.00000000</v>
  </separator>
  <dos>
   <i name="efermi">      8.64781155 </i>
   <total>
    <array>
     <dimension dim="1">gridpoints</dimension>
     <dimension dim="2">spin</dimension>
     <field>energy</field>
     <field>total</field>
     <field>integrated</field>
     <set>
      <set comment="spin 1">
       <r>    -6.6431     0.0000     0.0000 </r>
       <r>    -6.5455     0.0000     0.0000 </r>
       <r>    -6.4480     0.0000     0.0000 </r>
       <r>    -6.3504     0.0000     0.0000 </r>
       <r>    -6.2529     0.0000     0.0000 </r>
       <r>    -6.1554     0.0000     0.0000 </r>
       <r>    -6.0578     0.0000     0.0000 </r>
       <r>    -5.9603     0.0000     0.0000 </r>
       <r>    -5.8627     0.0000     0.0000 </r>
       <r>    -5.7652     0.0000     0.0000 </r>
       <r>    -5.6677     0.0000     0.0000 </r>
       <r>    -5.5701     0.0000     0.0000 </r>
       <r>    -5.4726     0.0000     0.0000 </r>
       <r>    -5.3750     0.0000     0.0000 </r>
       <r>    -5.2775     0.0000     0.0000 </r>
       <r>    -5.1800     0.0000     0.0000 </r>
       <r>    -5.0824     0.0001     0.0000 </r>
       <r>    -4.9849     0.0011     0.0001 </r>
       <r>    -4.8873     0.0055     0.0007 </r>
       <r>    -4.7898     0.0176     0.0024 </r>
       <r>    -4.6923     0.0368     0.0060 </r>
       <r>    -4.5947     0.0544     0.0113 </r>
       <r>    -4.4972     0.0714     0.0182 </r>
       <r>    -4.3996     0.1083     0.0288 </r>
       <r>    -4.3021     0.1695     0.0453 </r>
       <r>    -4.2046     0.2167     0.0665 </r>
       <r>    -4.1070     0.2162     0.0876 </r>
       <r>    -4.0095     0.1827     0.1054 </r>
       <r>    -3.9119     0.1467     0.1197 </r>
       <r>    -3.8144     0.1314     0.1325 </r>
       <r>    -3.7169     0.1602     0.1481 </r>
       <r>    -3.6193     0.2417     0.1717 </r>
       <r>    -3.5218     0.3386     0.2048 </r>
       <r>    -3.4242     0.3726     0.2411 </r>
       <r>    -3.3267     0.3140     0.2717 </r>
       <r>    -3.2292     0.2443     0.2955 </r>
       <r>    -3.1316     0.2494     0.3199 </r>
       <r>    -3.0341     0.3033     0.3495 </r>
       <r>    -2.9365     0.3234     0.3810 </r>
       <r>    -2.8390     0.2972     0.4100 </r>
       <r>    -2.7415     0.2879     0.4381 </r>
       <r>    -2.6439     0.3261     0.4699 </r>
       <r>    -2.5464     0.3723     0.5062 </r>
       <r>    -2.4488     0.3898     0.5442 </r>
       <r>    -2.3513     0.3821     0.5815 </r>
       <r>    -2.2538     0.3593     0.6165 </r>
       <r>    -2.1562     0.3479     0.6505 </r>
       <r>    -2.0587     0.3945     0.6889 </r>
       <r>    -1.9611     0.4683     0.7346 </r>
       <r>    -1.8636     0.4660     0.7801 </r>
       <r>    -1.7661     0.3696     0.8161 </r>
       <r>    -1.6685     0.2662     0.8421 </r>
       <r>    -1.5710     0.2249     0.8640 </r>
       <r>    -1.4735     0.2609     0.8895 </r>
       <r>    -1.3759     0.3809     0.9266 </r>
       <r>    -1.2784     0.5699     0.9822 </r>
       <r>    -1.1808     0.7329     1.0537 </r>
       <r>    -1.0833     0.7583     1.1277 </r>
       <r>    -0.9858     0.6595     1.1920 </r>
       <r>    -0.8882     0.5548     1.2461 </r>
       <r>    -0.7907     0.5057     1.2955 </r>
       <r>    -0.6931     0.4652     1.3408 </r>
       <r>    -0.5956     0.3924     1.3791 </r>
       <r>    -0.4981     0.3158     1.4099 </r>
       <r>    -0.4005     0.2757     1.4368 </r>
       <r>    -0.3030     0.2941     1.4655 </r>
       <r>    -0.2054     0.3744     1.5020 </r>
       <r>    -0.1079     0.4764     1.5485 </r>
       <r>    -0.0104     0.5440     1.6016 </r>
       <r>     0.0872     0.5815     1.6583 </r>
       <r>     0.1847     0.6357     1.7203 </r>
       <r>     0.2823     0.7087     1.7894 </r>
       <r>     0.3798     0.7491     1.8625 </r>
       <r>     0.4773     0.7230     1.9330 </r>
       <r>     0.5749     0.6644     1.9978 </r>
       <r>     0.6724     0.6204     2.0583 </r>
       <r>     0.7700     0.6160     2.1184 </r>
       <r>     0.8675     0.6510     2.1819 </r>
       <r>     0.9650     0.6785     2.2481 </r>
       <r>     1.0626     0.7063     2.3170 </r>
       <r>     1.1601     0.8031     2.3953 </r>
       <r>     1.2577     0.8877     2.4819 </r>
       <r>     1.3552     0.7854     2.5585 </r>
       <r>     1.4527     0.5274     2.6099 </r>
       <r>     1.5503     0.3141     2.6406 </r>
       <r>     1.6478     0.2360     2.6636 </r>
       <r>     1.7454     0.2336     2.6864 </r>
       <r>     1.8429     0.2456     2.7103 </r>
       <r>     1.9404     0.2952     2.7391 </r>
       <r>     2.0380     0.4294     2.7810 </r>
       <r>     2.1355     0.6132     2.8408 </r>
       <r>     2.2331     0.7583     2.9148 </r>
       <r>     2.3306     0.8082     2.9936 </r>
       <r>     2.4281     0.7685     3.0686 </r>
       <r>     2.5257     0.7079     3.1376 </r>
       <r>     2.6232     0.6873     3.2047 </r>
       <r>     2.7208     0.6983     3.2728 </r>
       <r>     2.8183     0.7177     3.3428 </r>
       <r>     2.9158     0.7423     3.4152 </r>
       <r>     3.0134     0.7199     3.4854 </r>
       <r>     3.1109     0.5772     3.5417 </r>
       <r>     3.2085     0.3821     3.5790 </r>
       <r>     3.3060     0.2993     3.6082 </r>
       <r>     3.4035     0.3729     3.6445 </r>
       <r>     3.5011     0.4916     3.6925 </r>
       <r>     3.5986     0.5453     3.7457 </r>
       <r>     3.6962     0.5273     3.7971 </r>
       <r>     3.7937     0.4975     3.8456 </r>
       <r>     3.8912     0.5273     3.8971 </r>
       <r>     3.9888     0.6778     3.9632 </r>
       <r>     4.0863     0.9397     4.0549 </r>
       <r>     4.1839     1.1675     4.1687 </r>
       <r>     4.2814     1.2084     4.2866 </r>
       <r>     4.3789     1.1057     4.3944 </r>
       <r>     4.4765     0.9818     4.4902 </r>
       <r>     4.5740     0.8476     4.5729 </r>
       <r>     4.6716     0.7006     4.6412 </r>
       <r>     4.7691     0.6105     4.7008 </r>
       <r>     4.8666     0.6174     4.7610 </r>
       <r>     4.9642     0.6512     4.8245 </r>
       <r>     5.0617     0.6135     4.8843 </r>
       <r>     5.1592     0.5321     4.9362 </r>
       <r>     5.2568     0.5399     4.9889 </r>
       <r>     5.3543     0.6873     5.0559 </r>
       <r>     5.4519     0.8734     5.1411 </r>
       <r>     5.5494     0.9667     5.2354 </r>
       <r>     5.6469     0.9659     5.3296 </r>
       <r>     5.7445     0.9885     5.4261 </r>
       <r>     5.8420     1.0429     5.5278 </r>
       <r>     5.9396     1.0086     5.6262 </r>
       <r>     6.0371     0.8731     5.7113 </r>
       <r>     6.1346     0.7432     5.7838 </r>
       <r>     6.2322     0.7028     5.8524 </r>
       <r>     6.3297     0.7713     5.9276 </r>
       <r>     6.4273     0.8860     6.0140 </r>
       <r>     6.5248     0.9379     6.1055 </r>
       <r>     6.6223     0.8955     6.1929 </r>
       <r>     6.7199     0.8397     6.2748 </r>
       <r>     6.8174     0.8800     6.3606 </r>
       <r>     6.9150     1.0317     6.4612 </r>
       <r>     7.0125     1.1963     6.5779 </r>
       <r>     7.1100     1.3121     6.7059 </r>
       <r>     7.2076     1.3716     6.8397 </r>
       <r>     7.3051     1.3307     6.9695 </r>
       <r>     7.4027     1.1889     7.0854 </r>
       <r>     7.5002     1.0133     7.1843 </r>
       <r>     7.5977     0.8435     7.2666 </r>
       <r>     7.6953     0.7130     7.3361 </r>
       <r>     7.7928     0.6480     7.3993 </r>
       <r>     7.8904     0.6189     7.4597 </r>
       <r>     7.9879     0.6025     7.5184 </r>
       <r>     8.0854     0.6130     7.5782 </r>
       <r>     8.1830     0.6460     7.6412 </r>
       <r>     8.2805     0.6620     7.7058 </r>
       <r>     8.3781     0.6601     7.7702 </r>
       <r>     8.4756     0.7199     7.8404 </r>
       <r>     8.5731     0.8738     7.9256 </r>
       <r>     8.6707     1.0002     8.0232 </r>
       <r>     8.7682     0.9588     8.1167 </r>
       <r>     8.8658     0.8144     8.1962 </r>
       <r>     8.9633     0.7894     8.2732 </r>
       <r>     9.0608     0.9187     8.3628 </r>
       <r>     9.1584     0.9375     8.4542 </r>
       <r>     9.2559     0.6904     8.5216 </r>
       <r>     9.3535     0.3757     8.5582 </r>
       <r>     9.4510     0.2328     8.5809 </r>
       <r>     9.5485     0.2892     8.6091 </r>
       <r>     9.6461     0.4333     8.6514 </r>
       <r>     9.7436     0.5496     8.7050 </r>
       <r>     9.8412     0.6091     8.7644 </r>
       <r>     9.9387     0.6603     8.8288 </r>
       <r>    10.0362     0.7177     8.8988 </r>
       <r>    10.1338     0.7306     8.9701 </r>
       <r>    10.2313     0.7035     9.0387 </r>
       <r>    10.3289     0.7210     9.1090 </r>
       <r>    10.4264     0.8349     9.1905 </r>
       <r>    10.5239     1.0065     9.2886 </r>
       <r>    10.6215     1.1264     9.3985 </r>
       <r>    10.7190     1.1356     9.5093 </r>
       <r>    10.8166     1.1087     9.6174 </r>
       <r>    10.9141     1.0908     9.7238 </r>
       <r>    11.0116     1.0190     9.8232 </r>
       <r>    11.1092     0.8889     9.9099 </r>
       <r>    11.2067     0.8407     9.9919 </r>
       <r>    11.3043     1.0042    10.0898 </r>
       <r>    11.4018     1.3083    10.2175 </r>
       <r>    11.4993     1.5584    10.3695 </r>
       <r>    11.5969     1.6375    10.5292 </r>
       <r>    11.6944     1.5296    10.6784 </r>
       <r>    11.7919     1.2677    10.8020 </r>
       <r>    11.8895     0.9418    10.8939 </r>
       <r>    11.9870     0.6790    10.9601 </r>
       <r>    12.0846     0.5352    11.0123 </r>
       <r>    12.1821     0.4568    11.0569 </r>
       <r>    12.2796     0.4447    11.1003 </r>
       <r>    12.3772     0.6015    11.1589 </r>
       <r>    12.4747     0.9047    11.2472 </r>
       <r>    12.5723     1.1436    11.3587 </r>
       <r>    12.6698     1.1691    11.4727 </r>
       <r>    12.7673     1.0707    11.5772 </r>
       <r>    12.8649     1.0267    11.6773 </r>
       <r>    12.9624     1.0575    11.7805 </r>
       <r>    13.0600     1.0396    11.8819 </r>
       <r>    13.1575     0.9083    11.9705 </r>
       <r>    13.2550     0.7427    12.0429 </r>
       <r>    13.3526     0.6785    12.1091 </r>
       <r>    13.4501     0.8272    12.1898 </r>
       <r>    13.5477     1.2006    12.3069 </r>
       <r>    13.6452     1.5873    12.4617 </r>
       <r>    13.7427     1.7161    12.6291 </r>
       <r>    13.8403     1.6030    12.7854 </r>
       <r>    13.9378     1.4392    12.9258 </r>
       <r>    14.0354     1.2775    13.0504 </r>
       <r>    14.1329     1.0822    13.1560 </r>
       <r>    14.2304     0.8907    13.2428 </r>
       <r>    14.3280     0.7971    13.3206 </r>
       <r>    14.4255     0.8493    13.4034 </r>
       <r>    14.5231     0.9885    13.4999 </r>
       <r>    14.6206     1.1059    13.6077 </r>
       <r>    14.7181     1.1307    13.7180 </r>
       <r>    14.8157     1.0502    13.8204 </r>
       <r>    14.9132     0.9266    13.9108 </r>
       <r>    15.0108     0.8582    13.9945 </r>
       <r>    15.1083     0.8708    14.0795 </r>
       <r>    15.2058     0.9229    14.1695 </r>
       <r>    15.3034     0.9566    14.2628 </r>
       <r>    15.4009     0.9174    14.3523 </r>
       <r>    15.4985     0.8261    14.4329 </r>
       <r>    15.5960     0.7272    14.5038 </r>
       <r>    15.6935     0.6098    14.5633 </r>
       <r>    15.7911     0.4971    14.6118 </r>
       <r>    15.8886     0.4507    14.6557 </r>
       <r>    15.9862     0.4749    14.7020 </r>
       <r>    16.0837     0.5253    14.7533 </r>
       <r>    16.1812     0.5902    14.8108 </r>
       <r>    16.2788     0.7102    14.8801 </r>
       <r>    16.3763     0.8701    14.9650 </r>
       <r>    16.4739     0.9778    15.0604 </r>
       <r>    16.5714     0.9976    15.1577 </r>
       <r>    16.6689     0.9430    15.2496 </r>
       <r>    16.7665     0.8076    15.3284 </r>
       <r>    16.8640     0.6171    15.3886 </r>
       <r>    16.9616     0.4247    15.4300 </r>
       <r>    17.0591     0.2756    15.4569 </r>
       <r>    17.1566     0.2009    15.4765 </r>
       <r>    17.2542     0.1907    15.4951 </r>
       <r>    17.3517     0.2116    15.5157 </r>
       <r>    17.4493     0.2548    15.5406 </r>
       <r>    17.5468     0.3407    15.5738 </r>
       <r>    17.6443     0.4699    15.6197 </r>
       <r>    17.7419     0.5691    15.6752 </r>
       <r>    17.8394     0.5515    15.7290 </r>
       <r>    17.9369     0.4257    15.7705 </r>
       <r>    18.0345     0.2760    15.7974 </r>
       <r>    18.1320     0.1617    15.8132 </r>
       <r>    18.2296     0.0885    15.8218 </r>
       <r>    18.3271     0.0442    15.8261 </r>
       <r>    18.4246     0.0256    15.8286 </r>
       <r>    18.5222     0.0381    15.8323 </r>
       <r>    18.6197     0.0833    15.8405 </r>
       <r>    18.7173     0.1427    15.8544 </r>
       <r>    18.8148     0.1839    15.8723 </r>
       <r>    18.9123     0.1880    15.8907 </r>
       <r>    19.0099     0.1556    15.9058 </r>
       <r>    19.1074     0.1000    15.9156 </r>
       <r>    19.2050     0.0480    15.9203 </r>
       <r>    19.3025     0.0236    15.9226 </r>
       <r>    19.4000     0.0332    15.9258 </r>
       <r>    19.4976     0.0651    15.9322 </r>
       <r>    19.5951     0.0904    15.9410 </r>
       <r>    19.6927     0.0882    15.9496 </r>
       <r>    19.7902     0.0719    15.9566 </r>
       <r>    19.8877     0.0601    15.9625 </r>
       <r>    19.9853     0.0526    15.9676 </r>
       <r>    20.0828     0.0492    15.9724 </r>
       <r>    20.1804     0.0486    15.9772 </r>
       <r>    20.2779     0.0411    15.9812 </r>
       <r>    20.3754     0.0286    15.9839 </r>
       <r>    20.4730     0.0261    15.9865 </r>
       <r>    20.5705     0.0366    15.9901 </r>
       <r>    20.6681     0.0435    15.9943 </r>
       <r>    20.7656     0.0344    15.9977 </r>
       <r>    20.8631     0.0172    15.9993 </r>
       <r>    20.9607     0.0055    15.9999 </r>
       <r>    21.0582     0.0011    16.0000 </r>
       <r>    21.1558     0.0001    16.0000 </r>
       <r>    21.2533     0.0000    16.0000 </r>
       <r>    21.3508     0.0000    16.0000 </r>
       <r>    21.4484     0.0000    16.0000 </r>
       <r>    21.5459     0.0000    16.0000 </r>
       <r>    21.6435     0.0000    16.0000 </r>
       <r>    21.7410     0.0000    16.0000 </r>
       <r>    21.8385     0.0000    16.0000 </r>
       <r>    21.9361     0.0000    16.0000 </r>
       <r>    22.0336     0.0000    16.0000 </r>
       <r>    22.1312     0.0000    16.0000 </r>
       <r>    22.2287     0.0000    16.0000 </r>
       <r>    22.3262     0.0000    16.0000 </r>
       <r>    22.4238     0.0000    16.0000 </r>
       <r>    22.5213     0.0000    16.0000 </r>
       <r>    22.6189     0.0000    16.0000 </r>
      </set>
     </set>
    </array>
   </total>
  </dos>
 </calculation>
 <structure name="finalpos" >
  <crystal>
   <varray name="basis" >
    <v>      -2.43200400       2.43200400       1.33947100 </v>
    <v>       2.43200400      -2.43200400       1.33947100 </v>
    <v>       2.43200400       2.43200400      -1.33947100 </v>
   </varray>
   <i name="volume">     31.68997354 </i>
   <varray name="rec_basis" >
    <v>      -0.00000000       0.20559177       0.37328169 </v>
    <v>       0.20559177      -0.00000000       0.37328169 </v>
    <v>       0.20559177       0.20559177       0.00000000 </v>
   </varray>
  </crystal>
  <varray name="positions" >
   <v>       0.75000000       0.25000000       0.50000000 </v>
   <v>       0.50000000       0.50000000       0.00000000 </v>
  </varray>
 </structure>
</modeling>
