unknown system                          
           1
    -2.432004    2.432004    1.339471
     2.432004   -2.432004    1.339471
     2.432004    2.432004   -1.339471
   Si
   2
Direct configuration=     1
   0.75000000  0.25000000  0.50000000
   0.50000000  0.50000000  0.00000000
