unknown system                          
   1.00000000000000     
    -0.000000    2.779507    2.779507
     2.779507   -0.000000    2.779507
     2.779507    2.779507   -0.000000
   Si
     2
Direct
  0.500000  0.500000  0.500000
  0.750000  0.750000  0.750000
 
   24   24   24
 0.69087     0.72836     0.84659      1.0614      1.3956      1.8728      2.5091      3.2997      4.2050      5.1385    
  5.9696      6.5498      6.7587      6.5499      5.9697      5.1385      4.2049      3.2994      2.5087      1.8725    
  1.3954      1.0614     0.84670     0.72847     0.72836     0.78981     0.92141      1.1383      1.4584      1.8960    
  2.4537      3.1129      3.8241      4.5042      5.0468      5.3499      5.3499      5.0469      4.5043      3.8241    
  3.1127      2.4534      1.8956      1.4582      1.1383     0.92159     0.79003     0.72845     0.84659     0.92141    
  1.0567      1.2653      1.5592      1.9441      2.4128      2.9385      3.4706      3.9374      4.2600      4.3756    
  4.2601      3.9375      3.4706      2.9384      2.4126      1.9439      1.5591      1.2654      1.0569     0.92160    
 0.84672     0.82284      1.0614      1.1383      1.2653      1.4521      1.7056      2.0252      2.3977      2.7941    
  3.1686      3.4647      3.6291      3.6291      3.4647      3.1686      2.7940      2.3976      2.0251      1.7058    
  1.4523      1.2655      1.1385      1.0614      1.0255      1.0255      1.3956      1.4584      1.5592      1.7056    
  1.9013      2.1420      2.4128      2.6864      2.9255      3.0902      3.1490      3.0901      2.9253      2.6862    
  2.4127      2.1421      1.9014      1.7058      1.5593      1.4585      1.3955      1.3621      1.3517      1.3621    
  1.8728      1.8960      1.9441      2.0252      2.1420      2.2895      2.4537      2.6121      2.7385      2.8089    
  2.8088      2.7383      2.6119      2.4536      2.2896      2.1422      2.0253      1.9440      1.8958      1.8727    
  1.8647      1.8633      1.8633      1.8648      2.5091      2.4537      2.4128      2.3977      2.4128      2.4537    
  2.5090      2.5638      2.6036      2.6179      2.6034      2.5636      2.5088      2.4536      2.4128      2.3977    
  2.4127      2.4535      2.5088      2.5636      2.6034      2.6179      2.6036      2.5639      3.2997      3.1129    
  2.9385      2.7941      2.6864      2.6121      2.5638      2.5345      2.5204      2.5203      2.5344      2.5636    
  2.6119      2.6862      2.7940      2.9385      3.1128      3.2995      3.4733      3.6076      3.6806      3.6808    
  3.6078      3.4736      4.2050      3.8241      3.4706      3.1686      2.9255      2.7385      2.6036      2.5204    
  2.4920      2.5203      2.6033      2.7383      2.9253      3.1686      3.4707      3.8242      4.2050      4.5733    
  4.8818      5.0869      5.1588      5.0870      4.8819      4.5734      5.1385      4.5042      3.9374      3.4647    
  3.0902      2.8089      2.6179      2.5203      2.5203      2.6178      2.8087      3.0901      3.4647      3.9376    
  4.5044      5.1387      5.7864      6.3729      6.8191      7.0603      7.0603      6.8191      6.3729      5.7863    
  5.9696      5.0468      4.2600      3.6291      3.1490      2.8088      2.6034      2.5344      2.6033      2.8087    
  3.1490      3.6291      4.2601      5.0470      5.9699      6.9685      7.9422      8.7663      9.3196      9.5147    
  9.3196      8.7661      7.9420      6.9683      6.5498      5.3499      4.3756      3.6291      3.0901      2.7383    
  2.5636      2.5636      2.7383      3.0901      3.6291      4.3756      5.3500      6.5500      7.9253      9.3634    
  10.697      11.734      12.303      12.303      11.734      10.697      9.3632      7.9251      6.7587      5.3499    
  4.2601      3.4647      2.9253      2.6119      2.5088      2.6119      2.9253      3.4647      4.2601      5.3500    
  6.7589      8.4645      10.368      12.282      13.950      15.096      15.505      15.096      13.950      12.282    
  10.367      8.4642      6.5499      5.0469      3.9375      3.1686      2.6862      2.4536      2.4536      2.6862    
  3.1686      3.9376      5.0470      6.5500      8.4645      10.732      13.183      15.531      17.392      18.410    
  18.410      17.392      15.531      13.183      10.731      8.4643      5.9697      4.5043      3.4706      2.7940    
  2.4127      2.2896      2.4128      2.7940      3.4707      4.5044      5.9699      7.9253      10.368      13.183    
  16.106      18.682      20.421      21.031      20.421      18.682      16.106      13.183      10.368      7.9252    
  5.1385      3.8241      2.9384      2.3976      2.1421      2.1422      2.3977      2.9385      3.8242      5.1387    
  6.9685      9.3634      12.282      15.531      18.682      21.138      22.466      22.466      21.138      18.682    
  15.531      12.282      9.3633      6.9683      4.2049      3.1127      2.4126      2.0251      1.9014      2.0253    
  2.4127      3.1128      4.2050      5.7864      7.9422      10.697      13.950      17.392      20.421      22.466    
  23.184      22.466      20.421      17.391      13.950      10.697      7.9421      5.7862      3.2994      2.4534    
  1.9439      1.7058      1.7058      1.9440      2.4535      3.2995      4.5733      6.3729      8.7663      11.734    
  15.096      18.410      21.031      22.466      22.466      21.032      18.410      15.096      11.734      8.7662    
  6.3728      4.5732      2.5087      1.8956      1.5591      1.4523      1.5593      1.8958      2.5088      3.4733    
  4.8818      6.8191      9.3196      12.303      15.505      18.410      20.421      21.138      20.421      18.410    
  15.504      12.303      9.3196      6.8191      4.8817      3.4733      1.8725      1.4582      1.2654      1.2655    
  1.4585      1.8727      2.5636      3.6076      5.0869      7.0603      9.5147      12.303      15.096      17.392    
  18.682      18.682      17.391      15.096      12.303      9.5147      7.0603      5.0869      3.6075      2.5635    
  1.3954      1.1383      1.0569      1.1385      1.3955      1.8647      2.6034      3.6806      5.1588      7.0603    
  9.3196      11.734      13.950      15.531      16.106      15.531      13.950      11.734      9.3196      7.0603    
  5.1588      3.6805      2.6032      1.8646      1.0614     0.92159     0.92160      1.0614      1.3621      1.8633    
  2.6179      3.6808      5.0870      6.8191      8.7661      10.697      12.282      13.183      13.183      12.282    
  10.697      8.7662      6.8191      5.0869      3.6805      2.6177      1.8631      1.3620     0.84670     0.79003    
 0.84672      1.0255      1.3517      1.8633      2.6036      3.6078      4.8819      6.3729      7.9420      9.3632    
  10.367      10.731      10.368      9.3633      7.9421      6.3728      4.8817      3.6075      2.6032      1.8631    
  1.3516      1.0255     0.72847     0.72845     0.82284      1.0255      1.3621      1.8648      2.5639      3.4736    
  4.5734      5.7863      6.9683      7.9251      8.4642      8.4643      7.9252      6.9683      5.7862      4.5732    
  3.4733      2.5635      1.8646      1.3620      1.0255     0.82286     0.72835     0.78981     0.92141      1.1383    
  1.4584      1.8960      2.4537      3.1129      3.8241      4.5042      5.0468      5.3498      5.3498      5.0469    
  4.5042      3.8241      3.1127      2.4534      1.8957      1.4582      1.1384     0.92160     0.79003     0.72845    
 0.78981     0.85960     0.98692      1.1850      1.4664      1.8369      2.2895      2.7980      3.3126      3.7637    
  4.0751      4.1866      4.0751      3.7638      3.3127      2.7980      2.2894      1.8366      1.4662      1.1851    
 0.98710     0.85983     0.78996     0.76779     0.92141     0.98692      1.0981      1.2659      1.4980      1.7942    
  2.1420      2.5132      2.8640      3.1412      3.2950      3.2950      3.1412      2.8640      2.5132      2.1419    
  1.7941      1.4980      1.2660      1.0983     0.98707     0.92153     0.89165     0.89161      1.1383      1.1850    
  1.2659      1.3902      1.5623      1.7787      2.0252      2.2758      2.4956      2.6472      2.7014      2.6472    
  2.4955      2.2757      2.0250      1.7787      1.5624      1.3904      1.2661      1.1851      1.1384      1.1156    
  1.1090      1.1156      1.4584      1.4664      1.4980      1.5623      1.6625      1.7942      1.9441      2.0910    
  2.2094      2.2758      2.2758      2.2093      2.0908      1.9440      1.7942      1.6626      1.5625      1.4982    
  1.4664      1.4584      1.4624      1.4677      1.4677      1.4625      1.8960      1.8369      1.7942      1.7787    
  1.7942      1.8369      1.8960      1.9560      2.0005      2.0169      2.0004      1.9558      1.8958      1.8369    
  1.7943      1.7789      1.7943      1.8369      1.8958      1.9558      2.0004      2.0169      2.0005      1.9560    
  2.4537      2.2895      2.1420      2.0252      1.9441      1.8960      1.8728      1.8648      1.8633      1.8633    
  1.8647      1.8727      1.8958      1.9440      2.0252      2.1421      2.2896      2.4535      2.6119      2.7383    
  2.8088      2.8089      2.7385      2.6121      3.1129      2.7980      2.5132      2.2758      2.0910      1.9560    
  1.8648      1.8123      1.7951      1.8122      1.8648      1.9558      2.0909      2.2758      2.5133      2.7982    
  3.1129      3.4265      3.6977      3.8830      3.9491      3.8833      3.6980      3.4267      3.8241      3.3126    
  2.8640      2.4956      2.2094      2.0005      1.8633      1.7951      1.7951      1.8633      2.0004      2.2094    
  2.4957      2.8642      3.3129      3.8243      4.3598      4.8593      5.2506      5.4666      5.4666      5.2507    
  4.8594      4.3597      4.5042      3.7637      3.1412      2.6472      2.2758      2.0169      1.8633      1.8122    
  1.8633      2.0168      2.2758      2.6474      3.1416      3.7641      4.5045      5.3231      6.1441      6.8599    
  7.3526      7.5287      7.3525      6.8598      6.1441      5.3230      5.0468      4.0751      3.2950      2.7014    
  2.2758      2.0004      1.8647      1.8648      2.0004      2.2758      2.7016      3.2954      4.0756      5.0472    
  6.1821      7.4006      8.5645      9.4938      10.013      10.013      9.4936      8.5643      7.4005      6.1819    
  5.3498      4.1866      3.2950      2.6472      2.2093      1.9558      1.8727      1.9558      2.2094      2.6474    
  3.2954      4.1871      5.3502      6.7825      8.4211      10.117      11.637      12.703      13.089      12.703    
  11.637      10.117      8.4210      6.7823      5.3498      4.0751      3.1412      2.4955      2.0908      1.8958    
  1.8958      2.0909      2.4957      3.1416      4.0756      5.3502      6.9988      8.9973      11.220      13.409    
  15.199      16.215      16.215      15.199      13.408      11.220      8.9973      6.9986      5.0469      3.7638    
  2.8640      2.2757      1.9440      1.8369      1.9440      2.2758      2.8642      3.7641      5.0472      6.7825    
  8.9973      11.620      14.420      16.993      18.831      19.501      18.831      16.993      14.420      11.620    
  8.9973      6.7823      4.5042      3.3127      2.5132      2.0250      1.7942      1.7943      2.0252      2.5133    
  3.3129      4.5045      6.1821      8.4211      11.220      14.420      17.649      20.336      21.874      21.874    
  20.336      17.648      14.420      11.220      8.4210      6.1819      3.8241      2.7980      2.1419      1.7787    
  1.6626      1.7789      2.1421      2.7982      3.8243      5.3231      7.4006      10.117      13.409      16.993    
  20.336      22.740      23.616      22.740      20.336      16.992      13.408      10.117      7.4005      5.3230    
  3.1127      2.2894      1.7941      1.5624      1.5625      1.7943      2.2896      3.1129      4.3598      6.1441    
  8.5645      11.637      15.199      18.831      21.874      23.616      23.616      21.874      18.830      15.198    
  11.636      8.5643      6.1441      4.3597      2.4534      1.8366      1.4980      1.3904      1.4982      1.8369    
  2.4535      3.4265      4.8593      6.8599      9.4938      12.703      16.215      19.501      21.874      22.740    
  21.874      19.501      16.214      12.703      9.4934      6.8597      4.8593      3.4265      1.8957      1.4662    
  1.2660      1.2661      1.4664      1.8958      2.6119      3.6977      5.2506      7.3526      10.013      13.089    
  16.215      18.831      20.336      20.336      18.830      16.214      13.088      10.013      7.3523      5.2505    
  3.6977      2.6118      1.4582      1.1851      1.0983      1.1851      1.4584      1.9558      2.7383      3.8830    
  5.4666      7.5287      10.013      12.703      15.199      16.993      17.648      16.992      15.198      12.703    
  10.013      7.5285      5.4665      3.8829      2.7381      1.9556      1.1384     0.98710     0.98707      1.1384    
  1.4624      2.0004      2.8088      3.9491      5.4666      7.3525      9.4936      11.637      13.408      14.420    
  14.420      13.408      11.636      9.4934      7.3523      5.4665      3.9489      2.8085      2.0001      1.4623    
 0.92160     0.85983     0.92153      1.1156      1.4677      2.0169      2.8089      3.8833      5.2507      6.8598    
  8.5643      10.117      11.220      11.620      11.220      10.117      8.5643      6.8597      5.2505      3.8829    
  2.8085      2.0166      1.4676      1.1157     0.79003     0.78996     0.89165      1.1090      1.4677      2.0005    
  2.7385      3.6980      4.8594      6.1441      7.4005      8.4210      8.9973      8.9973      8.4210      7.4005    
  6.1441      4.8593      3.6977      2.7381      2.0001      1.4676      1.1091     0.89180     0.72845     0.76779    
 0.89161      1.1156      1.4625      1.9560      2.6121      3.4267      4.3597      5.3230      6.1819      6.7823    
  6.9986      6.7823      6.1819      5.3230      4.3597      3.4265      2.6118      1.9556      1.4623      1.1157    
 0.89180     0.76797     0.84657     0.92140      1.0567      1.2653      1.5592      1.9441      2.4128      2.9385    
  3.4706      3.9374      4.2600      4.3755      4.2600      3.9374      3.4706      2.9384      2.4126      1.9440    
  1.5592      1.2654      1.0569     0.92160     0.84671     0.82283     0.92140     0.98691      1.0981      1.2659    
  1.4980      1.7942      2.1420      2.5132      2.8640      3.1412      3.2950      3.2950      3.1412      2.8640    
  2.5132      2.1420      1.7942      1.4980      1.2660      1.0983     0.98706     0.92151     0.89164     0.89160    
  1.0567      1.0981      1.1725      1.2894      1.4539      1.6625      1.9013      2.1446      2.3581      2.5054    
  2.5581      2.5054      2.3581      2.1446      1.9013      1.6626      1.4540      1.2895      1.1726      1.0982    
  1.0567      1.0375      1.0321      1.0375      1.2653      1.2659      1.2894      1.3455      1.4379      1.5623    
  1.7056      1.8469      1.9612      2.0252      2.0252      1.9610      1.8468      1.7055      1.5623      1.4380    
  1.3457      1.2896      1.2660      1.2653      1.2749      1.2833      1.2833      1.2750      1.5592      1.4980    
  1.4539      1.4379      1.4539      1.4980      1.5592      1.6215      1.6677      1.6848      1.6676      1.6213    
  1.5591      1.4980      1.4540      1.4381      1.4541      1.4981      1.5591      1.6213      1.6676      1.6848    
  1.6677      1.6215      1.9441      1.7942      1.6625      1.5623      1.4980      1.4664      1.4584      1.4625    
  1.4677      1.4677      1.4624      1.4583      1.4664      1.4982      1.5625      1.6627      1.7942      1.9440    
  2.0909      2.2093      2.2758      2.2758      2.2094      2.0910      2.4128      2.1420      1.9013      1.7056    
  1.5592      1.4584      1.3955      1.3621      1.3517      1.3621      1.3955      1.4585      1.5593      1.7058    
  1.9014      2.1421      2.4127      2.6862      2.9253      3.0901      3.1490      3.0902      2.9255      2.6864    
  2.9385      2.5132      2.1446      1.8469      1.6215      1.4625      1.3621      1.3137      1.3138      1.3622    
  1.4626      1.6216      1.8471      2.1448      2.5133      2.9386      3.3887      3.8128      4.1478      4.3339    
  4.3339      4.1479      3.8129      3.3887      3.4706      2.8640      2.3581      1.9612      1.6677      1.4677    
  1.3517      1.3138      1.3518      1.4679      1.6679      1.9614      2.3583      2.8641      3.4707      4.1470    
  4.8310      5.4323      5.8489      5.9984      5.8488      5.4322      4.8308      4.1468      3.9374      3.1412    
  2.5054      2.0252      1.6848      1.4677      1.3621      1.3622      1.4679      1.6850      2.0255      2.5057    
  3.1414      3.9376      4.8734      5.8859      6.8608      7.6448      8.0851      8.0850      7.6445      6.8605    
  5.8857      4.8733      4.2600      3.2950      2.5581      2.0252      1.6676      1.4624      1.3955      1.4626    
  1.6679      2.0255      2.5584      3.2952      4.2602      5.4545      6.8306      8.2667      9.5627      10.478    
  10.809      10.477      9.5624      8.2664      6.8303      5.4543      4.3755      3.2950      2.5054      1.9610    
  1.6213      1.4583      1.4585      1.6216      1.9614      2.5057      3.2952      4.3757      5.7794      7.4932    
  9.4149      11.323      12.893      13.788      13.788      12.893      11.323      9.4146      7.4930      5.7794    
  4.2600      3.1412      2.3581      1.8468      1.5591      1.4664      1.5593      1.8471      2.3583      3.1414    
  4.2602      5.7794      7.7324      10.066      12.579      14.905      16.574      17.184      16.574      14.905    
  12.579      10.066      7.7324      5.7794      3.9374      2.8640      2.1446      1.7055      1.4980      1.4982    
  1.7058      2.1448      2.8641      3.9376      5.4545      7.4932      10.066      13.037      16.058      18.588    
  20.044      20.044      18.588      16.058      13.037      10.066      7.4932      5.4544      3.4706      2.5132    
  1.9013      1.5623      1.4540      1.5625      1.9014      2.5133      3.4707      4.8734      6.8306      9.4149    
  12.579      16.058      19.326      21.695      22.565      21.695      19.326      16.058      12.579      9.4149    
  6.8305      4.8733      2.9384      2.1420      1.6626      1.4380      1.4381      1.6627      2.1421      2.9386    
  4.1470      5.8859      8.2667      11.323      14.905      18.588      21.695      23.492      23.492      21.695    
  18.587      14.904      11.323      8.2667      5.8858      4.1468      2.4126      1.7942      1.4540      1.3457    
  1.4541      1.7942      2.4127      3.3887      4.8310      6.8608      9.5627      12.893      16.574      20.044    
  22.565      23.492      22.565      20.044      16.574      12.893      9.5625      6.8606      4.8308      3.3885    
  1.9440      1.4980      1.2895      1.2896      1.4981      1.9440      2.6862      3.8128      5.4323      7.6448    
  10.478      13.788      17.184      20.044      21.695      21.695      20.044      17.184      13.788      10.477    
  7.6444      5.4319      3.8126      2.6862      1.5592      1.2660      1.1726      1.2660      1.5591      2.0909    
  2.9253      4.1478      5.8489      8.0851      10.809      13.788      16.574      18.588      19.326      18.587    
  16.574      13.788      10.809      8.0847      5.8485      4.1475      2.9252      2.0908      1.2654      1.0983    
  1.0982      1.2653      1.6213      2.2093      3.0901      4.3339      5.9984      8.0850      10.477      12.893    
  14.905      16.058      16.058      14.904      12.893      10.477      8.0847      5.9980      4.3336      3.0898    
  2.2092      1.6214      1.0569     0.98706      1.0567      1.2749      1.6676      2.2758      3.1490      4.3339    
  5.8488      7.6445      9.5624      11.323      12.579      13.037      12.579      11.323      9.5625      7.6444    
  5.8485      4.3336      3.1487      2.2756      1.6677      1.2751     0.92160     0.92151      1.0375      1.2833    
  1.6848      2.2758      3.0902      4.1479      5.4322      6.8605      8.2664      9.4146      10.066      10.066    
  9.4149      8.2667      6.8606      5.4319      4.1475      3.0898      2.2756      1.6848      1.2835      1.0377    
 0.84671     0.89164      1.0321      1.2833      1.6677      2.2094      2.9255      3.8129      4.8308      5.8857    
  6.8303      7.4930      7.7324      7.4932      6.8305      5.8858      4.8308      3.8126      2.9252      2.2092    
  1.6677      1.2835      1.0323     0.89184     0.82283     0.89160      1.0375      1.2750      1.6215      2.0910    
  2.6864      3.3887      4.1468      4.8733      5.4543      5.7794      5.7794      5.4544      4.8733      4.1468    
  3.3885      2.6862      2.0908      1.6214      1.2751      1.0377     0.89184     0.82293      1.0614      1.1383    
  1.2653      1.4521      1.7056      2.0252      2.3977      2.7941      3.1686      3.4647      3.6291      3.6291    
  3.4647      3.1685      2.7940      2.3976      2.0252      1.7058      1.4524      1.2655      1.1384      1.0614    
  1.0255      1.0255      1.1383      1.1850      1.2659      1.3902      1.5623      1.7787      2.0252      2.2758    
  2.4956      2.6472      2.7014      2.6471      2.4955      2.2757      2.0251      1.7788      1.5625      1.3904    
  1.2661      1.1851      1.1383      1.1156      1.1090      1.1156      1.2653      1.2659      1.2894      1.3455    
  1.4379      1.5623      1.7056      1.8469      1.9611      2.0252      2.0252      1.9610      1.8468      1.7056    
  1.5624      1.4381      1.3457      1.2896      1.2659      1.2652      1.2749      1.2833      1.2833      1.2750    
  1.4521      1.3902      1.3455      1.3292      1.3455      1.3902      1.4521      1.5151      1.5618      1.5791    
  1.5617      1.5149      1.4520      1.3902      1.3457      1.3295      1.3457      1.3902      1.4520      1.5149    
  1.5617      1.5791      1.5618      1.5151      1.7056      1.5623      1.4379      1.3455      1.2894      1.2659    
  1.2653      1.2750      1.2833      1.2833      1.2749      1.2652      1.2659      1.2896      1.3457      1.4381    
  1.5624      1.7056      1.8468      1.9610      2.0252      2.0252      1.9611      1.8469      2.0252      1.7787    
  1.5623      1.3902      1.2659      1.1850      1.1383      1.1156      1.1090      1.1156      1.1383      1.1851    
  1.2661      1.3904      1.5625      1.7788      2.0251      2.2757      2.4955      2.6471      2.7014      2.6472    
  2.4956      2.2758      2.3977      2.0252      1.7056      1.4521      1.2653      1.1383      1.0614      1.0255    
  1.0255      1.0614      1.1384      1.2655      1.4524      1.7058      2.0252      2.3976      2.7940      3.1685    
  3.4647      3.6291      3.6291      3.4647      3.1686      2.7941      2.7941      2.2758      1.8469      1.5151    
  1.2750      1.1156      1.0255     0.99650      1.0256      1.1158      1.2752      1.5153      1.8471      2.2758    
  2.7940      3.3739      3.9610      4.4770      4.8343      4.9624      4.8343      4.4770      3.9610      3.3740    
  3.1686      2.4956      1.9611      1.5618      1.2833      1.1090      1.0255      1.0256      1.1092      1.2836    
  1.5621      1.9613      2.4955      3.1684      3.9609      4.8180      5.6421      6.3035      6.6745      6.6743    
  6.3032      5.6418      4.8179      3.9610      3.4647      2.6472      2.0252      1.5791      1.2833      1.1156    
  1.0614      1.1158      1.2836      1.5794      2.0254      2.6471      3.4644      4.4767      5.6418      6.8552    
  7.9475      8.7169      8.9953      8.7166      7.9470      6.8548      5.6418      4.4770      3.6291      2.7014    
  2.0252      1.5617      1.2749      1.1383      1.1384      1.2752      1.5621      2.0254      2.7014      3.6288    
  4.8340      6.3032      7.9473      9.5759      10.913      11.674      11.674      10.913      9.5755      7.9470    
  6.3032      4.8343      3.6291      2.6471      1.9610      1.5149      1.2652      1.1851      1.2655      1.5153    
  1.9613      2.6471      3.6288      4.9621      6.6742      8.7168      10.913      12.942      14.396      14.927    
  14.396      12.942      10.913      8.7166      6.6743      4.9624      3.4647      2.4955      1.8468      1.4520    
  1.2659      1.2661      1.4524      1.8471      2.4955      3.4644      4.8340      6.6742      8.9953      11.674    
  14.396      16.673      17.982      17.982      16.673      14.396      11.674      8.9953      6.6745      4.8343    
  3.1685      2.2757      1.7056      1.3902      1.2896      1.3904      1.7058      2.2758      3.1684      4.4767    
  6.3032      8.7168      11.674      14.927      17.982      20.197      21.011      20.198      17.982      14.927    
  11.674      8.7169      6.3035      4.4770      2.7940      2.0251      1.5624      1.3457      1.3457      1.5625    
  2.0252      2.7940      3.9609      5.6418      7.9473      10.913      14.396      17.982      21.011      22.762    
  22.762      21.011      17.982      14.396      10.913      7.9475      5.6421      3.9610      2.3976      1.7788    
  1.4381      1.3295      1.4381      1.7788      2.3976      3.3739      4.8180      6.8552      9.5759      12.942    
  16.673      20.197      22.762      23.706      22.762      20.197      16.673      12.942      9.5759      6.8552    
  4.8180      3.3739      2.0252      1.5625      1.3457      1.3457      1.5624      2.0251      2.7940      3.9610    
  5.6421      7.9475      10.913      14.396      17.982      21.011      22.762      22.762      21.011      17.982    
  14.396      10.913      7.9473      5.6418      3.9609      2.7940      1.7058      1.3904      1.2896      1.3902    
  1.7056      2.2757      3.1685      4.4770      6.3035      8.7169      11.674      14.927      17.982      20.198    
  21.011      20.197      17.982      14.927      11.674      8.7168      6.3032      4.4767      3.1684      2.2758    
  1.4524      1.2661      1.2659      1.4520      1.8468      2.4955      3.4647      4.8343      6.6745      8.9953    
  11.674      14.396      16.673      17.982      17.982      16.673      14.396      11.674      8.9953      6.6742    
  4.8340      3.4644      2.4955      1.8471      1.2655      1.1851      1.2652      1.5149      1.9610      2.6471    
  3.6291      4.9624      6.6743      8.7166      10.913      12.942      14.396      14.927      14.396      12.942    
  10.913      8.7168      6.6742      4.9621      3.6288      2.6471      1.9613      1.5153      1.1384      1.1383    
  1.2749      1.5617      2.0252      2.7014      3.6291      4.8343      6.3032      7.9470      9.5755      10.913    
  11.674      11.674      10.913      9.5759      7.9473      6.3032      4.8340      3.6288      2.7014      2.0254    
  1.5621      1.2752      1.0614      1.1156      1.2833      1.5791      2.0252      2.6472      3.4647      4.4770    
  5.6418      6.8548      7.9470      8.7166      8.9953      8.7169      7.9475      6.8552      5.6418      4.4767    
  3.4644      2.6471      2.0254      1.5794      1.2836      1.1158      1.0255      1.1090      1.2833      1.5618    
  1.9611      2.4956      3.1686      3.9610      4.8179      5.6418      6.3032      6.6743      6.6745      6.3035    
  5.6421      4.8180      3.9609      3.1684      2.4955      1.9613      1.5621      1.2836      1.1092      1.0256    
  1.0255      1.1156      1.2750      1.5151      1.8469      2.2758      2.7941      3.3740      3.9610      4.4770    
  4.8343      4.9624      4.8343      4.4770      3.9610      3.3739      2.7940      2.2758      1.8471      1.5153    
  1.2752      1.1158      1.0256     0.99650      1.3955      1.4584      1.5592      1.7056      1.9013      2.1420    
  2.4128      2.6864      2.9255      3.0902      3.1490      3.0901      2.9253      2.6862      2.4127      2.1421    
  1.9014      1.7058      1.5593      1.4585      1.3955      1.3621      1.3517      1.3621      1.4584      1.4664    
  1.4980      1.5623      1.6625      1.7942      1.9441      2.0910      2.2094      2.2758      2.2758      2.2093    
  2.0909      1.9440      1.7942      1.6627      1.5625      1.4982      1.4664      1.4583      1.4624      1.4677    
  1.4677      1.4625      1.5592      1.4980      1.4539      1.4379      1.4539      1.4980      1.5592      1.6215    
  1.6677      1.6848      1.6676      1.6213      1.5591      1.4981      1.4541      1.4381      1.4540      1.4980    
  1.5591      1.6213      1.6676      1.6848      1.6677      1.6215      1.7056      1.5623      1.4379      1.3455    
  1.2894      1.2659      1.2653      1.2750      1.2833      1.2833      1.2749      1.2653      1.2660      1.2896    
  1.3457      1.4380      1.5623      1.7055      1.8468      1.9610      2.0252      2.0252      1.9612      1.8469    
  1.9013      1.6625      1.4539      1.2894      1.1725      1.0981      1.0567      1.0375      1.0321      1.0375    
  1.0567      1.0982      1.1726      1.2895      1.4540      1.6626      1.9013      2.1446      2.3581      2.5054    
  2.5581      2.5054      2.3581      2.1446      2.1420      1.7942      1.4980      1.2659      1.0981     0.98691    
 0.92140     0.89160     0.89164     0.92151     0.98706      1.0983      1.2660      1.4980      1.7942      2.1420    
  2.5132      2.8640      3.1412      3.2950      3.2950      3.1412      2.8640      2.5132      2.4128      1.9441    