   2   2   0   0
  0.2001288E+02  0.3839590E-09  0.3839590E-09  0.3839590E-09  0.5000000E-15
  1.000000000000000E-004
  CAR 
 unknown system                          
     15.26290690     -8.17642468  301      5.95109384      1.00000000
     -8.176  0.0000E+00  0.0000E+00
     -8.098  0.0000E+00  0.0000E+00
     -8.020  0.0000E+00  0.0000E+00
     -7.942  0.0000E+00  0.0000E+00
     -7.864  0.0000E+00  0.0000E+00
     -7.786  0.0000E+00  0.0000E+00
     -7.708  0.0000E+00  0.0000E+00
     -7.630  0.0000E+00  0.0000E+00
     -7.551  0.0000E+00  0.0000E+00
     -7.473  0.0000E+00  0.0000E+00
     -7.395  0.0000E+00  0.0000E+00
     -7.317  0.2456E-16  0.1919E-17
     -7.239  0.1810E-14  0.1434E-15
     -7.161  0.1057E-12  0.8400E-14
     -7.083  0.4566E-11  0.3651E-12
     -7.004  0.1460E-09  0.1177E-10
     -6.926  0.3457E-08  0.2819E-09
     -6.848  0.6063E-07  0.5019E-08
     -6.770  0.7880E-06  0.6659E-07
     -6.692  0.7591E-05  0.6597E-06
     -6.614  0.5423E-04  0.4897E-05
     -6.536  0.2874E-03  0.2735E-04
     -6.458  0.1130E-02  0.1156E-03
     -6.379  0.3298E-02  0.3733E-03
     -6.301  0.7146E-02  0.9317E-03
     -6.223  0.1150E-01  0.1830E-02
     -6.145  0.1374E-01  0.2903E-02
     -6.067  0.1219E-01  0.3855E-02
     -5.989  0.8030E-02  0.4483E-02
     -5.911  0.3929E-02  0.4790E-02
     -5.832  0.1427E-02  0.4901E-02
     -5.754  0.3848E-03  0.4931E-02
     -5.676  0.7699E-04  0.4937E-02
     -5.598  0.1145E-04  0.4938E-02
     -5.520  0.1706E-05  0.4938E-02
     -5.442  0.5975E-05  0.4939E-02
     -5.364  0.5707E-04  0.4943E-02
     -5.286  0.4113E-03  0.4975E-02
     -5.207  0.2199E-02  0.5147E-02
     -5.129  0.8721E-02  0.5829E-02
     -5.051  0.2568E-01  0.7835E-02
     -4.973  0.5612E-01  0.1222E-01
     -4.895  0.9110E-01  0.1934E-01
     -4.817  0.1099E+00  0.2792E-01
     -4.739  0.9891E-01  0.3565E-01
     -4.661  0.6838E-01  0.4099E-01
     -4.582  0.4295E-01  0.4435E-01
     -4.504  0.3963E-01  0.4744E-01
     -4.426  0.5680E-01  0.5188E-01
     -4.348  0.7732E-01  0.5792E-01
     -4.270  0.8156E-01  0.6430E-01
     -4.192  0.6429E-01  0.6932E-01
     -4.114  0.3766E-01  0.7226E-01
     -4.035  0.1638E-01  0.7354E-01
     -3.957  0.5292E-02  0.7395E-01
     -3.879  0.1268E-02  0.7405E-01
     -3.801  0.2256E-03  0.7407E-01
     -3.723  0.3008E-04  0.7407E-01
     -3.645  0.7441E-05  0.7407E-01
     -3.567  0.4794E-04  0.7408E-01
     -3.489  0.3729E-03  0.7411E-01
     -3.410  0.2160E-02  0.7428E-01
     -3.332  0.9288E-02  0.7500E-01
     -3.254  0.2964E-01  0.7732E-01
     -3.176  0.7020E-01  0.8280E-01
     -3.098  0.1235E+00  0.9245E-01
     -3.020  0.1612E+00  0.1050E+00
     -2.942  0.1564E+00  0.1173E+00
     -2.864  0.1126E+00  0.1261E+00
     -2.785  0.6024E-01  0.1308E+00
     -2.707  0.2392E-01  0.1326E+00
     -2.629  0.7052E-02  0.1332E+00
     -2.551  0.1543E-02  0.1333E+00
     -2.473  0.2504E-03  0.1333E+00
     -2.395  0.3014E-04  0.1333E+00
     -2.317  0.2690E-05  0.1333E+00
     -2.238  0.1779E-06  0.1333E+00
     -2.160  0.8718E-08  0.1333E+00
     -2.082  0.3268E-09  0.1333E+00
     -2.004  0.3885E-09  0.1333E+00
     -1.926  0.1030E-07  0.1333E+00
     -1.848  0.2070E-06  0.1333E+00
     -1.770  0.3080E-05  0.1333E+00
     -1.692  0.3397E-04  0.1333E+00
     -1.613  0.2778E-03  0.1334E+00
     -1.535  0.1684E-02  0.1335E+00
     -1.457  0.7579E-02  0.1341E+00
     -1.379  0.2531E-01  0.1361E+00
     -1.301  0.6274E-01  0.1410E+00
     -1.223  0.1155E+00  0.1500E+00
     -1.145  0.1578E+00  0.1623E+00
     -1.066  0.1602E+00  0.1748E+00
     -0.988  0.1207E+00  0.1843E+00
     -0.910  0.6757E-01  0.1895E+00
     -0.832  0.2808E-01  0.1917E+00
     -0.754  0.8663E-02  0.1924E+00
     -0.676  0.1983E-02  0.1926E+00
     -0.598  0.3369E-03  0.1926E+00
     -0.520  0.4245E-04  0.1926E+00
     -0.441  0.3994E-05  0.1926E+00
     -0.363  0.7622E-06  0.1926E+00
     -0.285  0.6348E-05  0.1926E+00
     -0.207  0.6099E-04  0.1926E+00
     -0.129  0.4356E-03  0.1926E+00
     -0.051  0.2308E-02  0.1928E+00
      0.027  0.9088E-02  0.1935E+00
      0.105  0.2664E-01  0.1956E+00
      0.184  0.5841E-01  0.2002E+00
      0.262  0.9700E-01  0.2077E+00
      0.340  0.1255E+00  0.2176E+00
      0.418  0.1338E+00  0.2280E+00
      0.496  0.1272E+00  0.2379E+00
      0.574  0.1125E+00  0.2467E+00
      0.652  0.8884E-01  0.2537E+00
      0.731  0.5803E-01  0.2582E+00
      0.809  0.2978E-01  0.2605E+00
      0.887  0.1283E-01  0.2615E+00
      0.965  0.9883E-02  0.2623E+00
      1.043  0.2339E-01  0.2641E+00
      1.121  0.5807E-01  0.2687E+00
      1.199  0.1100E+00  0.2773E+00
      1.277  0.1549E+00  0.2894E+00
      1.356  0.1621E+00  0.3020E+00
      1.434  0.1260E+00  0.3119E+00
      1.512  0.7269E-01  0.3176E+00
      1.590  0.3114E-01  0.3200E+00
      1.668  0.9906E-02  0.3208E+00
      1.746  0.2338E-02  0.3210E+00
      1.824  0.4096E-03  0.3210E+00
      1.902  0.5321E-04  0.3210E+00
      1.981  0.5125E-05  0.3210E+00
      2.059  0.3659E-06  0.3210E+00
      2.137  0.1936E-07  0.3210E+00
      2.215  0.7596E-09  0.3210E+00
      2.293  0.7330E-10  0.3210E+00
      2.371  0.1650E-08  0.3210E+00
      2.449  0.3927E-07  0.3210E+00
      2.528  0.6925E-06  0.3210E+00
      2.606  0.9049E-05  0.3210E+00
      2.684  0.8765E-04  0.3210E+00
      2.762  0.6297E-03  0.3210E+00
      2.840  0.3356E-02  0.3213E+00
      2.918  0.1328E-01  0.3223E+00
      2.996  0.3906E-01  0.3254E+00
      3.074  0.8575E-01  0.3321E+00
      3.153  0.1419E+00  0.3432E+00
      3.231  0.1824E+00  0.3574E+00
      3.309  0.1953E+00  0.3727E+00
      3.387  0.1953E+00  0.3880E+00
      3.465  0.1952E+00  0.4032E+00
      3.543  0.1822E+00  0.4174E+00
      3.621  0.1414E+00  0.4285E+00
      3.700  0.8519E-01  0.4351E+00
      3.778  0.3869E-01  0.4382E+00
      3.856  0.1311E-01  0.4392E+00
      3.934  0.3306E-02  0.4395E+00
      4.012  0.6444E-03  0.4395E+00
      4.090  0.3164E-03  0.4395E+00
      4.168  0.1511E-02  0.4396E+00
      4.246  0.7256E-02  0.4402E+00
      4.325  0.2601E-01  0.4422E+00
      4.403  0.6922E-01  0.4477E+00
      4.481  0.1368E+00  0.4583E+00
      4.559  0.2007E+00  0.4740E+00
      4.637  0.2186E+00  0.4911E+00
      4.715  0.1769E+00  0.5049E+00
      4.793  0.1063E+00  0.5132E+00
      4.871  0.4742E-01  0.5169E+00
      4.950  0.1571E-01  0.5182E+00
      5.028  0.3869E-02  0.5185E+00
      5.106  0.7705E-03  0.5185E+00
      5.184  0.4998E-03  0.5186E+00
      5.262  0.1843E-02  0.5187E+00
      5.340  0.6167E-02  0.5192E+00
      5.418  0.1540E-01  0.5204E+00
      5.497  0.2854E-01  0.5226E+00
      5.575  0.3929E-01  0.5257E+00
      5.653  0.4017E-01  0.5288E+00
      5.731  0.3050E-01  0.5312E+00
      5.809  0.1721E-01  0.5325E+00
      5.887  0.7357E-02  0.5331E+00
      5.965  0.3188E-02  0.5334E+00
      6.043  0.4706E-02  0.5337E+00
      6.122  0.1377E-01  0.5348E+00
      6.200  0.3318E-01  0.5374E+00
      6.278  0.5971E-01  0.5421E+00
      6.356  0.7981E-01  0.5483E+00
      6.434  0.7922E-01  0.5545E+00
      6.512  0.5840E-01  0.5591E+00
      6.590  0.3198E-01  0.5616E+00
      6.668  0.1315E-01  0.5626E+00
      6.747  0.5058E-02  0.5630E+00
      6.825  0.6827E-02  0.5635E+00
      6.903  0.2327E-01  0.5653E+00
      6.981  0.6684E-01  0.5706E+00
      7.059  0.1437E+00  0.5818E+00
      7.137  0.2300E+00  0.5998E+00
      7.215  0.2745E+00  0.6212E+00
      7.294  0.2461E+00  0.6404E+00
      7.372  0.1718E+00  0.6538E+00
      7.450  0.1083E+00  0.6623E+00
      7.528  0.8457E-01  0.6689E+00
      7.606  0.8579E-01  0.6756E+00
      7.684  0.8263E-01  0.6821E+00
      7.762  0.6372E-01  0.6871E+00
      7.840  0.4032E-01  0.6902E+00
      7.919  0.2785E-01  0.6924E+00
      7.997  0.3016E-01  0.6947E+00
      8.075  0.3876E-01  0.6978E+00
      8.153  0.4206E-01  0.7011E+00
      8.231  0.3604E-01  0.7039E+00
      8.309  0.2627E-01  0.7059E+00
      8.387  0.1958E-01  0.7075E+00
      8.466  0.1654E-01  0.7087E+00
      8.544  0.1370E-01  0.7098E+00
      8.622  0.9745E-02  0.7106E+00
      8.700  0.7579E-02  0.7112E+00
      8.778  0.1382E-01  0.7122E+00
      8.856  0.3896E-01  0.7153E+00
      8.934  0.9186E-01  0.7225E+00
      9.012  0.1627E+00  0.7352E+00
      9.091  0.2143E+00  0.7519E+00
      9.169  0.2095E+00  0.7683E+00
      9.247  0.1522E+00  0.7802E+00
      9.325  0.8207E-01  0.7866E+00
      9.403  0.3286E-01  0.7892E+00
      9.481  0.9768E-02  0.7899E+00
      9.559  0.2155E-02  0.7901E+00
      9.637  0.3526E-03  0.7901E+00
      9.716  0.4281E-04  0.7901E+00
      9.794  0.3852E-05  0.7901E+00
      9.872  0.2569E-06  0.7901E+00
      9.950  0.1270E-07  0.7901E+00
     10.028  0.4647E-09  0.7901E+00
     10.106  0.1259E-10  0.7901E+00
     10.184  0.2524E-12  0.7901E+00
     10.263  0.4028E-14  0.7901E+00
     10.341  0.1566E-13  0.7901E+00
     10.419  0.9371E-12  0.7901E+00
     10.497  0.4143E-10  0.7901E+00
     10.575  0.1356E-08  0.7901E+00
     10.653  0.3286E-07  0.7901E+00
     10.731  0.5898E-06  0.7901E+00
     10.809  0.7844E-05  0.7901E+00
     10.888  0.7733E-04  0.7901E+00
     10.966  0.5653E-03  0.7902E+00
     11.044  0.3065E-02  0.7904E+00
     11.122  0.1233E-01  0.7914E+00
     11.200  0.3683E-01  0.7943E+00
     11.278  0.8165E-01  0.8006E+00
     11.356  0.1344E+00  0.8111E+00
     11.434  0.1644E+00  0.8240E+00
     11.513  0.1499E+00  0.8357E+00
     11.591  0.1046E+00  0.8439E+00
     11.669  0.6564E-01  0.8490E+00
     11.747  0.6203E-01  0.8538E+00
     11.825  0.9628E-01  0.8614E+00
     11.903  0.1434E+00  0.8726E+00
     11.981  0.1653E+00  0.8855E+00
     12.060  0.1427E+00  0.8966E+00
     12.138  0.9388E-01  0.9040E+00
     12.216  0.5517E-01  0.9083E+00
     12.294  0.5173E-01  0.9123E+00
     12.372  0.8779E-01  0.9192E+00
     12.450  0.1483E+00  0.9308E+00
     12.528  0.2059E+00  0.9469E+00
     12.606  0.2392E+00  0.9655E+00
     12.685  0.2428E+00  0.9845E+00
     12.763  0.2168E+00  0.1001E+01
     12.841  0.1639E+00  0.1014E+01
     12.919  0.1016E+00  0.1022E+01
     12.997  0.5731E-01  0.1027E+01
     13.075  0.4759E-01  0.1030E+01
     13.153  0.6850E-01  0.1036E+01
     13.231  0.9833E-01  0.1043E+01
     13.310  0.1100E+00  0.1052E+01
     13.388  0.9199E-01  0.1059E+01
     13.466  0.5717E-01  0.1064E+01
     13.544  0.2638E-01  0.1066E+01
     13.622  0.9040E-02  0.1066E+01
     13.700  0.2299E-02  0.1067E+01
     13.778  0.4339E-03  0.1067E+01
     13.857  0.6073E-04  0.1067E+01
     13.935  0.6304E-05  0.1067E+01
     14.013  0.4851E-06  0.1067E+01
     14.091  0.2766E-07  0.1067E+01
     14.169  0.1168E-08  0.1067E+01
     14.247  0.3653E-10  0.1067E+01
     14.325  0.8454E-12  0.1067E+01
     14.403  0.1448E-13  0.1067E+01
     14.482  0.2245E-15  0.1067E+01
     14.560  0.0000E+00  0.1067E+01
     14.638  0.0000E+00  0.1067E+01
     14.716  0.0000E+00  0.1067E+01
     14.794  0.0000E+00  0.1067E+01
     14.872  0.0000E+00  0.1067E+01
     14.950  0.0000E+00  0.1067E+01
     15.029  0.0000E+00  0.1067E+01
     15.107  0.0000E+00  0.1067E+01
     15.185  0.0000E+00  0.1067E+01
     15.263  0.0000E+00  0.1067E+01
