    2    2   15    1
  0.1529437E+02  0.3691622E-09  0.3691622E-09  0.3691622E-09  0.5000000E-15
  1.000000000000000E-004
  CAR 
 unknown system                          
      8      3      8
 
  0.2500000E+00  0.2500000E+00  0.2500000E+00  0.2500000E+00
    1        3.387669   1.000000
    2        3.387698   1.000000
    3        4.040633   1.000000
    4        4.040636   1.000000
    5       13.258759   0.000000
    6       13.258771   0.000000
    7       15.042695   0.000000
    8       15.042720   0.000000
 
 -0.2500000E+00  0.2500000E+00  0.2500000E+00  0.5000000E+00
    1       -3.163926   1.000000
    2        1.901582   1.000000
    3        3.631911   1.000000
    4        8.571403   0.500000
    5       12.916884   0.000000
    6       16.209270   0.000000
    7       17.381145   0.000000
    8       18.289475   0.000000
 
 -0.2500000E+00 -0.2500000E+00  0.2500000E+00  0.2500000E+00
    1        0.837088   1.000000
    2        5.747738   1.000000
    3        5.840690   1.000000
    4        7.287467   1.000000
    5        7.287485   1.000000
    6       11.532912   0.000000
    7       12.373430   0.000000
    8       12.373446   0.000000
