unknown system                          
   1.00000000000000     
    -2.450000    2.450000    1.274000
     2.450000   -2.450000    1.274000
     2.450000    2.450000   -1.274000
   Si
     2
Direct
  0.250000  0.750000  0.500000
  0.000000  0.000000  0.000000
 
   24   24   24
 -5.5693     -3.5403      1.5087      7.1227      10.923      11.888      10.624      8.5808      6.6888      5.2239    
  4.2439      3.6999      3.5276      3.7000      4.2439      5.2238      6.6888      8.5808      10.624      11.888    
  10.923      7.1228      1.5086     -3.5406     -3.5406     -4.5897     -1.7954      3.4015      8.4991      11.437    
  11.647      10.033      7.9995      6.2208      4.8961      4.0451      3.6080      3.5276      3.7905      4.4354    
  5.5291      7.1049      9.0658      11.058      11.979      10.488      6.3145     0.81779      1.5086     -1.7956    
 -1.8856      1.2721      6.0143      10.044      11.800      11.195      9.3281      7.3672      5.7377      4.5708    
  3.8532      3.5210      3.5275      3.8730      4.6048      5.7868      7.4333      9.4144      11.318      11.998    
  10.319      6.3145      7.1228      3.4014      1.2719      1.9101      4.9460      8.7139      11.333      11.828    
  10.529      8.5687      6.7299      5.2739      4.2698      3.6804      3.4444      3.5275      3.9415      4.7379    
  5.9735      7.6438      9.5969      11.404      11.998      10.488      10.923      8.4992      6.0142      4.9459    
  5.9555      8.4312      10.910      12.053      11.452      9.7242      7.8073      6.1306      4.8585      4.0105    
  3.5367      3.3829      3.5273      3.9903      4.8229      6.0717      7.7164      9.5969      11.318      11.979    
  11.888      11.437      10.044      8.7139      8.4312      9.4458      11.082      12.224      12.098      10.752    
  8.8941      7.0971      5.6066      4.5142      3.8061      3.4292      3.3398      3.5272      4.0158      4.8522    
  6.0717      7.6438      9.4144      11.058      10.624      11.647      11.800      11.333      10.910      11.082    
  11.832      12.568      12.583      11.588      9.9180      8.1177      6.4878      5.1881      4.2577      3.6654    
  3.3628      3.3177      3.5272      4.0158      4.8229      5.9735      7.4333      9.0658      8.5808      10.032    
  11.195      11.828      12.053      12.224      12.568      12.943      12.932      12.201      10.807      9.1283    
  7.4644      6.0213      4.8971      4.0997      3.5938      3.3404      3.3177      3.5272      3.9903      4.7379    
  5.7868      7.1049      6.6888      7.9996      9.3281      10.529      11.452      12.098      12.583      12.932    
  12.986      12.518      11.475      10.051      8.4836      6.9933      5.7287      4.7481      4.0465      3.5938    
  3.3628      3.3398      3.5273      3.9415      4.6048      5.5291      5.2238      6.2208      7.3673      8.5688    
  9.7243      10.752      11.588      12.201      12.518      12.415      11.819      10.787      9.4685      8.0629    
  6.7470      5.6291      4.7481      4.0997      3.6654      3.4292      3.3829      3.5275      3.8730      4.4354    
  4.2439      4.8961      5.7377      6.7299      7.8075      8.8942      9.9179      10.807      11.475      11.819    
  11.746      11.223      10.311      9.1526      7.9169      6.7470      5.7287      4.8971      4.2577      3.8061    
  3.5367      3.4444      3.5275      3.7905      3.7000      4.0451      4.5708      5.2739      6.1306      7.0973    
  8.1178      9.1283      10.051      10.787      11.223      11.266      10.887      10.142      9.1526      8.0629    
  6.9933      6.0213      5.1881      4.5142      4.0105      3.6804      3.5210      3.5276      3.5276      3.6081    
  3.8533      4.2698      4.8584      5.6066      6.4879      7.4645      8.4836      9.4685      10.311      10.888    
  11.093      10.887      10.311      9.4685      8.4836      7.4644      6.4878      5.6066      4.8585      4.2698    
  3.8532      3.6080      3.6999      3.5276      3.5212      3.6806      4.0106      4.5142      5.1880      6.0214    
  6.9934      8.0629      9.1525      10.142      10.888      11.266      11.223      10.787      10.051      9.1283    
  8.1177      7.0971      6.1306      5.2739      4.5708      4.0451      4.2439      3.7905      3.5276      3.4445    
  3.5369      3.8063      4.2577      4.8970      5.7288      6.7471      7.9170      9.1525      10.311      11.223    
  11.746      11.819      11.475      10.807      9.9180      8.8941      7.8073      6.7299      5.7377      4.8961    
  5.2239      4.4355      3.8731      3.5275      3.3830      3.4294      3.6656      4.0997      4.7481      5.6292    
  6.7471      8.0629      9.4685      10.787      11.819      12.415      12.518      12.201      11.588      10.752    
  9.7242      8.5687      7.3672      6.2208      6.6888      5.5292      4.6050      3.9416      3.5273      3.3399    
  3.3630      3.5940      4.0464      4.7481      5.7288      6.9934      8.4836      10.051      11.475      12.518    
  12.986      12.932      12.583      12.098      11.452      10.529      9.3281      7.9995      8.5808      7.1049    
  5.7869      4.7382      3.9905      3.5272      3.3177      3.3406      3.5940      4.0997      4.8970      6.0214    
  7.4645      9.1283      10.807      12.201      12.932      12.943      12.568      12.224      12.053      11.828    
  11.195      10.033      10.624      9.0658      7.4332      5.9736      4.8232      4.0160      3.5272      3.3177    
  3.3630      3.6656      4.2577      5.1880      6.4879      8.1178      9.9179      11.588      12.583      12.568    
  11.832      11.082      10.910      11.333      11.800      11.647      11.888      11.058      9.4144      7.6437    
  6.0718      4.8525      4.0160      3.5272      3.3399      3.4294      3.8063      4.5142      5.6066      7.0973    
  8.8942      10.752      12.098      12.224      11.082      9.4458      8.4312      8.7139      10.044      11.437    
  10.923      11.979      11.318      9.5969      7.7163      6.0718      4.8232      3.9905      3.5273      3.3830    
  3.5369      4.0106      4.8584      6.1306      7.8075      9.7243      11.452      12.053      10.910      8.4312    
  5.9555      4.9460      6.0143      8.4991      7.1227      10.488      11.998      11.404      9.5969      7.6437    
  5.9736      4.7382      3.9416      3.5275      3.4445      3.6806      4.2698      5.2739      6.7299      8.5688    
  10.529      11.828      11.333      8.7139      4.9459      1.9101      1.2721      3.4015      1.5087      6.3144    
  10.319      11.998      11.318      9.4144      7.4332      5.7869      4.6050      3.8731      3.5276      3.5212    
  3.8533      4.5708      5.7377      7.3673      9.3281      11.195      11.800      10.044      6.0142      1.2719    
 -1.8856     -1.7954     -3.5403     0.81795      6.3144      10.488      11.979      11.058      9.0658      7.1049    
  5.5292      4.4355      3.7905      3.5276      3.6081      4.0451      4.8961      6.2208      7.9996      10.032    
  11.647      11.437      8.4992      3.4014     -1.7956     -4.5897     -3.5401     -2.0944      2.2462      7.3093    
  10.840      11.763      10.540      8.5172      6.6192      5.1302      4.1168      3.5346      3.3177      3.4335    
  3.9013      4.7811      6.1286      7.9127      9.9190      11.435      11.101      8.1638      3.3274     -1.3468    
 -2.0946     -3.5402     -1.3465      3.3276      8.1638      11.101      11.435      9.9191      7.9127      6.1286    
  4.7811      3.9013      3.4335      3.3178      3.5346      4.1167      5.1301      6.6192      8.5171      10.540    
  11.763      10.840      7.3094      2.2461      2.3890     -1.1907     -1.7952     0.85849      5.3299      9.3853    
  11.354      10.969      9.2085      7.2730      5.6366      4.4494      3.7098      3.3568      3.3398      3.6536    
  4.3419      5.4716      7.0717      9.0410      11.032      12.007      10.756      7.1124      7.6647      3.7361    
  1.1485      1.2722      3.9756      7.7244      10.588      11.409      10.343      8.4616      6.6411      5.1762    
  4.1561      3.5538      3.3089      3.3828      3.7832      4.5608      5.7787      7.4483      9.4410      11.372    
  12.209      10.949      11.393      8.8258      5.9483      4.3611      4.9461      7.2774      9.9257      11.420    
  11.150      9.5924      7.7244      6.0558      4.7742      3.9172      3.4417      3.2927      3.4443      3.9145    
  4.7565      6.0253      7.7149      9.6803      11.541      12.372      12.447      11.941      10.268      8.4744    
  7.7115      8.4312      10.071      11.471      11.684      10.581      8.8102      7.0406      5.5500      4.4514    
  3.7442      3.3787      3.3089      3.5208      4.0386      4.9133      6.1889      7.8457      9.7344      11.517    
  11.285      12.354      12.380      11.586      10.723      10.509      11.082      11.895      12.148      11.389    
  9.8337      8.0723      6.4523      5.1504      4.2222      3.6440      3.3673      3.3568      3.6078      4.1466    
  5.0179      6.2545      7.8272      9.5952      9.2727      10.841      12.023      12.510      12.432      12.239    
  12.299      12.568      12.625      12.036      10.736      9.0884      7.4379      5.9972      4.8775      4.0961    
  3.6199      3.4073      3.4336      3.6997      4.2303      5.0617      6.2158      7.6605      7.3615      8.7948    
  10.215      11.427      12.224      12.625      12.832      12.971      12.932      12.466      11.441      10.015    
  8.4511      6.9635      5.7065      4.7455      4.0781      3.6722      3.4964      3.5347      3.7904      4.2835    
  5.0411      6.0771      5.8520      6.9583      8.2026      9.4658      10.620      11.550      12.202      12.602    
  12.741      12.518      11.840      10.756      9.4142      8.0029      6.6953      5.6020      4.7623      4.1691    
  3.7985      3.6300      3.6539      3.8732      4.3018      4.9584      4.8214      5.5614      6.4870      7.5459    
  8.6536      9.7151      10.648      11.388      11.875      12.041      11.819      11.192      10.220      9.0373    
  7.8055      6.6637      5.6951      4.9298      4.3664      3.9935      3.8010      3.7835      3.9418      4.2837    
  4.2307      4.6421      5.2307      5.9869      6.8767      7.8423      8.8144      9.7230      10.497      11.058    
  11.322      11.223      10.746      9.9508      8.9544      7.8931      6.8801      5.9858      5.2429      4.6628    
  4.2486      4.0002      3.9149      3.9909      4.0165      4.1471      4.4352      4.8859      5.4955      6.2436    
  7.0936      7.9978      8.8994      9.7287      10.398      10.810      10.887      10.606      10.009      9.1919    
  8.2682      7.3353      6.4609      5.6882      5.0455      4.5516      4.2161      4.0390      4.1469      4.0165    
  4.0392      4.2162      4.5517      5.0454      5.6883      6.4611      7.3354      8.2682      9.1918      10.009    
  10.606      10.887      10.810      10.398      9.7288      8.8995      7.9976      7.0934      6.2436      5.4956    
  4.8859      4.4350      4.6421      4.2306      3.9908      3.9150      4.0004      4.2487      4.6627      5.2428    
  5.9859      6.8803      7.8932      8.9543      9.9508      10.746      11.223      11.322      11.058      10.497    
  9.7231      8.8143      7.8421      6.8766      5.9870      5.2307      5.5615      4.8214      4.2836      3.9418    
  3.7836      3.8012      3.9936      4.3664      4.9298      5.6952      6.6638      7.8055      9.0372      10.221    
  11.192      11.819      12.041      11.875      11.388      10.648      9.7150      8.6534      7.5458      6.4871    
  6.9582      5.8520      4.9585      4.3017      3.8731      3.6539      3.6302      3.7987      4.1691      4.7622    
  5.6020      6.6954      8.0029      9.4141      10.756      11.840      12.518      12.741      12.602      12.202    
  11.550      10.620      9.4656      8.2025      8.7946      7.3614      6.0772      5.0413      4.2835      3.7903    
  3.5347      3.4967      3.6724      4.0780      4.7453      5.7065      6.9637      8.4511      10.015      11.441    
  12.466      12.932      12.970      12.832      12.625      12.224      11.427      10.215      10.841      9.2726    
  7.6603      6.2159      5.0619      4.2305      3.6997      3.4336      3.4075      3.6200      4.0961      4.8774    
  5.9973      7.4380      9.0883      10.736      12.036      12.625      12.568      12.299      12.239      12.432    
  12.510      12.023      12.355      11.285      9.5950      7.8270      6.2546      5.0182      4.1467      3.6077    
  3.3568      3.3674      3.6441      4.2221      5.1503      6.4523      8.0724      9.8337      11.389      12.148    
  11.895      11.082      10.509      10.723      11.586      12.380      11.941      12.447      11.518      9.7343    
  7.8456      6.1890      4.9135      4.0388      3.5208      3.3090      3.3788      3.7443      4.4513      5.5499    
  7.0407      8.8102      10.581      11.684      11.470      10.071      8.4310      7.7114      8.4743      10.268    
  8.8256      11.393      12.372      11.541      9.6803      7.7148      6.0254      4.7568      3.9147      3.4443    
  3.2927      3.4418      3.9173      4.7742      6.0557      7.7244      9.5924      11.150      11.420      9.9255    
  7.2772      4.9460      4.3611      5.9483      3.7362      7.6646      10.949      12.209      11.373      9.4410    
  7.4482      5.7788      4.5610      3.7833      3.3828      3.3090      3.5539      4.1561      5.1761      6.6411    
  8.4616      10.343      11.409      10.587      7.7242      3.9754      1.2722      1.1486     -1.1904      2.3891    
  7.1123      10.756      12.007      11.033      9.0411      7.0716      5.4717      4.3421      3.6537      3.3399    
  3.3568      3.7098      4.4494      5.6366      7.2729      9.2084      10.969      11.354      9.3854      5.3297    
 0.85823     -1.7952      1.5094      2.3896      5.5234      9.2371      11.707      12.040      10.633      8.6238    
  6.7533      5.2725      4.2450      3.6298      3.3627      3.4072      3.7743      4.5160      5.6893      7.2898    
  9.1695      10.906      11.452      9.9772      6.7740      3.3279      2.2465     0.81862      2.2467      5.7343    
  9.4189      11.558      11.519      9.9344      7.9677      6.2153      4.8780      3.9888      3.4963      3.3404    
  3.4963      3.9887      4.8779      6.2153      7.9677      9.9343      11.519      11.558      9.4191      5.7342    
  5.5233      2.3894      1.5094      3.3281      6.7742      9.9772      11.452      10.906      9.1696      7.2899    
  5.6894      4.5161      3.7744      3.4072      3.3628      3.6298      4.2449      5.2725      6.7534      8.6238    
  10.633      12.040      11.707      9.2373      9.5666      6.2414      3.7364      3.4020      5.3302      8.3101    
  10.652      11.260      10.195      8.3910      6.6349      5.2088      4.2079      3.6131      3.3672      3.4292    
  3.8008      4.5277      5.6736      7.2647      9.2087      11.215      12.481      11.989      12.406      10.362    
  7.7184      5.9485      6.0146      7.7246      9.8898      11.156      10.879      9.4152      7.6414      6.0397    
  4.7997      3.9693      3.5133      3.3788      3.5367      4.0000      4.8189      6.0516      7.7075      9.6715    
  11.637      12.830      13.044      12.865      11.409      9.5679      8.4744      8.7140      9.9257      11.092    
  11.285      10.285      8.6334      6.9588      5.5344      4.4816      3.8110      3.4796      3.4419      3.6804    
  4.2160      5.0983      6.3759      8.0417      9.9670      11.856      11.839      13.054      13.205      12.395    
  11.311      10.723      10.910      11.470      11.661      10.986      9.5570      7.9083      6.3779      5.1423    
  4.2674      3.7392      3.5135      3.5541      3.8532      4.4350      5.3445      6.6180      8.2344      10.062    
  9.9436      11.569      12.796      13.259      13.021      12.531      12.239      12.224      12.148      11.575    
  10.373      8.8329      7.2851      5.9296      4.8809      4.1655      3.7564      3.6134      3.7101      4.0451    
  4.6420      5.5376      6.7554      8.2653      8.1301      9.6191      11.063      12.245      12.924      13.097    
  12.997      12.832      12.582      12.035      11.031      9.6739      8.2030      6.8101      5.6406      4.7631    
  4.1799      3.8613      3.7746      3.9016      4.2440      4.8214      5.6608      6.7748      6.6746      7.8417    
  9.1182      10.368      11.442      12.209      12.614      12.725      12.602      12.200      11.440      10.350    
  9.0632      7.7369      6.5253      5.5321      4.7963      4.3108      4.0496      3.9891      4.1171      4.4357    
  4.9584      5.7031      5.6607      6.4648      7.4284      8.4878      9.5446      10.490      11.238      11.733    
  11.952      11.875      11.475      10.755      9.7727      8.6393      7.4952      6.4630      5.6174      4.9835    
  4.5545      4.3133      4.2451      4.3423      4.6052      5.0412      5.0619      5.5374      6.1654      6.9290    
  7.7846      8.6652      9.4938      10.200      10.728      11.029      11.058      10.787      10.220      9.4166    
  8.4776      7.5202      6.6418      5.9011      5.3208      4.9023      4.6400      4.5278      4.5612      4.7383    
  4.8234      5.0182      5.3444      5.8035      6.3867      7.0673      7.8026      8.5404      9.2264      9.8044    
  10.215      10.398      10.311      9.9507      9.3601      8.6216      7.8295      7.0634      6.3762      5.7968    
  5.3397      5.0127      4.8189      4.7568      4.9134      4.8526      4.9136      5.0982      5.4094      5.8444    
  6.3899      7.0222      7.7097      8.4121      9.0762      9.6335      10.009      10.142      10.009      9.6335    
  9.0763      8.4121      7.7096      7.0221      6.3899      5.8445      5.4095      5.0981      5.3442      5.0180    
  4.8233      4.7568      4.8190      5.0127      5.3396      5.7967      6.3763      7.0635      7.8295      8.6215    
  9.3601      9.9508      10.311      10.398      10.215      9.8045      9.2265      8.5403      7.8024      7.0673    
  6.3868      5.8036      6.1655      5.5373      5.0616      4.7381      4.5612      4.5279      4.6400      4.9022    
  5.3207      5.9012      6.6419      7.5202      8.4775      9.4166      10.221      10.787      11.058      11.029    
  10.728      10.201      9.4937      8.6650      7.7846      6.9290      7.4284      6.4648      5.6606      5.0410    
  4.6049      4.3422      4.2453      4.3134      4.5544      4.9833      5.6174      6.4631      7.4952      8.6392    
  9.7726      10.756      11.475      11.875      11.952      11.734      11.238      10.490      9.5444      8.4877    
  9.1180      7.8416      6.6746      5.7031      4.9583      4.4354      4.1170      3.9892      4.0497      4.3107    
  4.7962      5.5321      6.5254      7.7368      9.0631      10.350      11.440      12.200      12.602      12.725    
  12.613      12.209      11.442      10.368      11.063      9.6188      8.1298      6.7748      5.6609      4.8213    
  4.2438      3.9015      3.7747      3.8614      4.1798      4.7629      5.6406      6.8102      8.2029      9.6738    
  11.031      12.035      12.582      12.832      12.997      13.097      12.924      12.245      12.796      11.569    
  9.9434      8.2650      6.7554      5.5377      4.6420      4.0449      3.7100      3.6135      3.7564      4.1654    
  4.8808      5.9296      7.2852      8.8329      10.373      11.575      12.148      12.223      12.239      12.531    
  13.021      13.259      13.205      13.054      11.839      10.062      8.2342      6.6180      5.3447      4.4350    
  3.8531      3.5540      3.5135      3.7392      4.2673      5.1422      6.3779      7.9083      9.5569      10.986    
  11.661      11.470      10.909      10.722      11.311      12.395      11.408      12.865      13.044      11.856    
  9.9668      8.0415      6.3759      5.0985      4.2161      3.6803      3.4418      3.4796      3.8110      4.4815    
  5.5343      6.9589      8.6334      10.285      11.285      11.092      9.9255      8.7139      8.4743      9.5677    
  7.7183      10.362      12.406      12.830      11.637      9.6714      7.7074      6.0517      4.8191      4.0001    
  3.5366      3.3787      3.5134      3.9693      4.7997      6.0396      7.6414      9.4152      10.879      11.156    
  9.8895      7.7244      6.0145      5.9485      3.7366      6.2414      9.5663      11.988      12.481      11.215    
  9.2086      7.2646      5.6736      4.5278      3.8009      3.4291      3.3672      3.6131      4.2079      5.2087    
  6.6348      8.3909      10.195      11.260      10.652      8.3098      5.3300      3.4020      7.1234      7.6650    
  9.5663      11.711      12.854      12.430      10.822      8.8853      7.0964      5.6629      4.6402      3.9936    
  3.6655      3.6200      3.8613      4.4306      5.3805      6.7252      8.3768      10.101      11.329      11.310    
  9.9773      8.1642      7.3097      6.3152      7.1128      9.2371      11.400      12.369      11.735      10.046    
  8.1617      6.4868      5.1942      4.3133      3.7986      3.5939      3.6723      4.0496      4.7761      5.9032    
  7.4253      9.2119      10.947      11.874      11.304      9.4190      9.2371      7.1126      6.3152      7.3099    
  9.4191      11.304      11.874      10.947      9.2120      7.4253      5.9031      4.7761      4.0496      3.6723    
  3.5939      3.7986      4.3133      5.1942      6.4869      8.1617      10.046      11.735      12.369      11.401    
  11.711      9.5663      7.6648      7.1233      8.1643      9.9774      11.310      11.329      10.101      8.3769    
  6.7252      5.3806      4.4306      3.8612      3.6200      3.6656      3.9936      4.6401      5.6629      7.0965    
  8.8853      10.822      12.430      12.854      13.326      12.239      10.362      8.8257      8.4995      9.3858    
  10.652      11.259      10.690      9.2392      7.5886      6.1001      4.9456      4.1738      3.7563      3.6441    
  3.8063      4.2487      5.0129      6.1531      7.6888      9.5395      11.474      12.994      13.373      13.724    
  12.870      11.408      10.268      10.044      10.588      11.156      11.009      9.9530      8.4192      6.8848    
  5.5790      4.6171      4.0159      3.7393      3.7444      4.0107      4.5517      5.4098      6.6304      8.2156    
  10.065      11.938      12.160      13.506      13.943      13.407      12.395      11.586      11.333      11.420    
  11.285      10.512      9.1720      7.6789      6.2958      5.1828      4.4071      3.9626      3.8112      3.9175    
  4.2699      4.8859      5.8039      7.0566      8.6287      10.407      10.528      12.108      13.341      13.869    
  13.646      13.021      12.432      12.052      11.683      10.986      9.8306      8.4369      7.0524      5.8466    
  4.9264      4.3228      4.0159      3.9696      4.1564      4.5709      5.2306      6.1656      7.3944      8.8869    
  8.9626      10.411      11.779      12.861      13.435      13.448      13.097      12.625      12.097      11.389    
  10.373      9.1200      7.8033      6.5741      5.5579      4.8201      4.3673      4.1738      4.2082      4.4498    
  4.8962      5.5613      6.4648      7.6115      7.6863      8.8467      10.064      11.200      12.104      12.655    
  12.800      12.613      12.202      11.587      10.736      9.6738      8.4969      7.3231      6.2766      5.4468    
  4.8700      4.5399      4.4307      4.5164      4.7815      5.2239      5.8518      6.6744      6.7744      7.6112    
  8.5509      9.5230      10.427      11.158      11.636      11.825      11.734      11.388      10.807      10.015    
  9.0632      8.0373      7.0458      6.1877      5.5255      5.0786      4.8362      4.7761      4.8782      5.1305    
  5.5294      6.0769      6.2156      6.7548      7.3938      8.1054      8.8410      9.5346      10.116      10.529    
  10.738      10.728      10.497      10.051      9.4141      8.6393      7.8078      7.0113      6.3270      5.8001    
  5.4427      5.2461      5.1941      5.2726      5.4719      5.7870      5.9737      6.2544      6.6174      7.0560    
  7.5536      8.0820      8.6025      9.0722      9.4511      9.7047      9.8046      9.7288      9.4684      9.0372    
  8.4776      7.8555      7.2436      6.7023      6.2675      5.9519      5.7528      5.6626      5.6735      5.7789    
  6.0253      6.0719      6.1889      6.3754      6.6297      6.9457      7.3109      7.7074      8.1122      8.4983    
  8.8324      9.0763      9.1919      9.1525      8.9544      8.6217      8.2008      7.7463      7.3061      6.9133    
  6.5856      6.3310      6.1527      6.0513      6.3754      6.1887      6.0718      6.0253      6.0514      6.1526    
  6.3308      6.5855      6.9133      7.3063      7.7463      8.2007      8.6216      8.9544      9.1525      9.1918    
  9.0763      8.8325      8.4984      8.1122      7.7073      7.3110      6.9459      6.6299      7.0561      6.6173    
  6.2541      5.9735      5.7789      5.6735      5.6625      5.7526      5.9518      6.2676      6.7024      7.2436    
  7.8553      8.4776      9.0373      9.4684      9.7287      9.8046      9.7049      9.4513      9.0722      8.6024    
  8.0821      7.5538      8.1055      7.3939      6.7548      6.2154      5.7867      5.4718      5.2726      5.1941    
  5.2460      5.4426      5.8001      6.3271      7.0112      7.8076      8.6392      9.4141      10.051      10.497    
  10.728      10.738      10.529      10.116      9.5345      8.8409      9.5228      8.5509      7.6112      6.7744    
  6.0767      5.5290      5.1303      4.8782      4.7761      4.8361      5.0785      5.5256      6.1878      7.0457    
  8.0371      9.0632      10.015      10.807      11.388      11.734      11.825      11.636      11.158      10.427    
  11.200      10.064      8.8466      7.6863      6.6745      5.8516      5.2236      4.7812      4.5164      4.4307    
  4.5398      4.8699      5.4468      6.2766      7.3230      8.4968      9.6738      10.736      11.587      12.202    
  12.613      12.800      12.656      12.104      12.861      11.779      10.410      8.9624      7.6114      6.4649    
  5.5612      4.8958      4.4496      4.2082      4.1739      4.3671      4.8199      5.5579      6.5741      7.8033    
  9.1198      10.373      11.389      12.097      12.625      13.097      13.447      13.435      13.869      13.341    
  12.108      10.528      8.8866      7.3943      6.1657      5.2305      4.5706      4.1562      3.9696      4.0159    
  4.3227      4.9263      5.8466      7.0524      8.4368      9.8305      10.986      11.683      12.052      12.432    
  13.020      13.646      13.407      13.942      13.506      12.161      10.407      8.6284      7.0565      5.8040    
  4.8859      4.2696      3.9174      3.8112      3.9626      4.4070      5.1827      6.2959      7.6789      9.1719    
  10.511      11.285      11.420      11.333      11.586      12.395      11.408      12.870      13.724      13.373    
  11.938      10.065      8.2153      6.6303      5.4098      4.5516      4.0105      3.7443      3.7393      4.0158    
  4.6170      5.5789      6.8848      8.4192      9.9529      11.009      11.156      10.588      10.044      10.268    
  8.8259      10.361      12.239      13.326      12.994      11.474      9.5394      7.6886      6.1531      5.0130    
  4.2487      3.8062      3.6440      3.7563      4.1738      4.9456      6.1000      7.5885      9.2392      10.690    
  11.259      10.652      9.3856      8.4996      10.923      11.393      12.406      13.326      13.457      12.562    
  11.001      9.2701      7.6580      6.3311      5.3398      4.6628      4.2577      4.0963      4.1800      4.5400    
  5.2196      6.2413      7.5621      9.0399      10.437      11.329      11.452      11.101      10.840      10.488    
  10.949      11.988      12.854      12.839      11.794      10.175      8.4728      6.9521      5.7529      4.9025    
  4.3666      4.0999      4.0782      4.3109      4.8363      5.6989      6.9095      8.3942      9.9661      11.299    
  11.874      11.558      11.706      10.756      10.319      10.756      11.706      12.369      12.108      10.906    
  9.2838      7.6674      6.2859      5.2462      4.5546      4.1692      4.0466      4.1693      4.5546      5.2462    
  6.2860      7.6675      9.2838      10.906      12.108      12.369      12.854      11.988      10.948      10.488    
  10.841      11.558      11.874      11.299      9.9660      8.3942      6.9094      5.6989      4.8363      4.3109    
  4.0782      4.1000      4.3666      4.9025      5.7530      6.9522      8.4729      10.175      11.794      12.840    
  13.458      13.326      12.406      11.392      10.923      11.101      11.452      11.329      10.437      9.0399    
  7.5620      6.2412      5.2196      4.5400      4.1800      4.0962      4.2578      4.6629      5.3398      6.3312    
  7.6582      9.2702      11.001      12.562      13.136      13.905      13.724      12.865      11.941      11.437    
  11.354      11.260      10.690      9.5558      8.1762      6.8290      5.6929      4.8666      4.3673      4.1655    
  4.2223      4.5143      5.0455      5.8447      6.9461      8.3538      9.9947      11.685      12.156      13.450    