unknown system                          
   1.00000000000000     
    -2.311558    2.311558    1.462239
     2.311558   -2.311558    1.462239
     2.311558    2.311558   -1.462239
   Si
     2
Direct
  0.250000  0.750000  0.500000
  0.000000 -0.000000  0.000000
 
   24   24   24
 -.57033197982E+01 -.37407727444E+01 0.12147524581E+01 0.69126997901E+01 0.11059287286E+02
 0.12499250127E+02 0.11592970081E+02 0.96569242088E+01 0.77429922657E+01 0.61936128257E+01
 0.51166381167E+01 0.45007673785E+01 0.43023615309E+01 0.45008189237E+01 0.51166387492E+01
 0.61935612257E+01 0.77429803745E+01 0.96569415803E+01 0.11592935027E+02 0.12499207543E+02
 0.11059341074E+02 0.69127810025E+01 0.12147070217E+01 -.37408929027E+01 -.37408929027E+01
 -.44307755425E+01 -.14873455442E+01 0.36592290032E+01 0.86982725701E+01 0.11724724948E+02
 0.12150489371E+02 0.10734139608E+02 0.87898125155E+01 0.70269328016E+01 0.56756027777E+01
 0.47922052220E+01 0.43473441605E+01 0.43024914989E+01 0.46518920890E+01 0.54285293495E+01
 0.66748570485E+01 0.83769548711E+01 0.10375231335E+02 0.12187371439E+02 0.12565629386E+02
 0.10401532156E+02 0.57860367580E+01 0.28587522485E+00 0.12147070217E+01 -.14874472133E+01
 -.10467684512E+01 0.22491646934E+01 0.67516446039E+01 0.10432592897E+02 0.11992750479E+02
 0.11413172200E+02 0.96861181725E+01 0.78459172067E+01 0.62894470681E+01 0.51631649775E+01
 0.44803462627E+01 0.42028958530E+01 0.43026915045E+01 0.47888659860E+01 0.57024125282E+01
 0.70780286550E+01 0.88734483764E+01 0.10886335365E+02 0.12518221525E+02 0.12531181801E+02
 0.10130872608E+02 0.57860367580E+01 0.69127810025E+01 0.36591963438E+01 0.22490965882E+01
 0.33416573219E+01 0.62705852702E+01 0.94858950561E+01 0.11487936664E+02 0.11633549661E+02
 0.10334434491E+02 0.85610976585E+01 0.69025020143E+01 0.55884568737E+01 0.46937394181E+01
 0.42023675449E+01 0.40769759617E+01 0.43027629416E+01 0.49011758304E+01 0.59155211169E+01
 0.73677756656E+01 0.91892975109E+01 0.11150275017E+02 0.12621905184E+02 0.12531181801E+02
 0.10401532156E+02 0.11059341074E+02 0.86983299830E+01 0.67516303202E+01 0.62705593850E+01
 0.74300104788E+01 0.94506032873E+01 0.11126084155E+02 0.11570414503E+02 0.10689368821E+02
 0.91019739980E+01 0.74527399161E+01 0.60310264799E+01 0.49714503240E+01 0.42958848102E+01
 0.39742258801E+01 0.39769333989E+01 0.43025699090E+01 0.49804652710E+01 0.60504689146E+01
 0.75191034128E+01 0.92976336511E+01 0.11150275017E+02 0.12518221525E+02 0.12565629386E+02
 0.12499207543E+02 0.11724751540E+02 0.10432619501E+02 0.94859007317E+01 0.94506199026E+01
 0.10224142491E+02 0.11139430903E+02 0.11442382746E+02 0.10789826750E+02 0.94329376122E+01
 0.78859085516E+01 0.64470113299E+01 0.52880862258E+01 0.44716414692E+01 0.39881174192E+01
 0.38061163422E+01 0.39076942961E+01 0.43022420715E+01 0.50214128317E+01 0.60966609378E+01
 0.75191034128E+01 0.91892975109E+01 0.10886335365E+02 0.12187371439E+02 0.11592935027E+02
 0.12150465991E+02 0.11992745571E+02 0.11487930732E+02 0.11126106831E+02 0.11139481740E+02
 0.11343871052E+02 0.11307527055E+02 0.10699166474E+02 0.95482151811E+01 0.81655007133E+01
 0.67946188469E+01 0.56124200403E+01 0.47113772270E+01 0.41078899363E+01 0.37800321351E+01
 0.37036009271E+01 0.38723751304E+01 0.43021107806E+01 0.50214128317E+01 0.60504689146E+01
 0.73677756656E+01 0.88734483764E+01 0.10375231335E+02 0.96569415803E+01 0.10734144075E+02
 0.11413167917E+02 0.11633515257E+02 0.11570380387E+02 0.11442415637E+02 0.11307597257E+02
 0.11027872395E+02 0.10419540418E+02 0.94528239120E+01 0.82736074282E+01 0.70424145678E+01
 0.59145063944E+01 0.49943074797E+01 0.43209199162E+01 0.38882755312E+01 0.36755141476E+01
 0.36692285753E+01 0.38723751304E+01 0.43022420715E+01 0.49804652710E+01 0.59155211169E+01
 0.70780286550E+01 0.83769548711E+01 0.77429803745E+01 0.87898289753E+01 0.96861590113E+01
 0.10334446061E+02 0.10689313956E+02 0.10789774407E+02 0.10699200780E+02 0.10419612422E+02
 0.99051397722E+01 0.91494346986E+01 0.82058180250E+01 0.71731922311E+01 0.61725751982E+01
 0.53029891537E+01 0.46169590378E+01 0.41247204798E+01 0.38150216240E+01 0.36755141476E+01
 0.37036009271E+01 0.39076942961E+01 0.43025699090E+01 0.49011758304E+01 0.57024125282E+01
 0.66748570485E+01 0.61935612257E+01 0.70268911787E+01 0.78459348133E+01 0.85611632057E+01
 0.91019967458E+01 0.94328770094E+01 0.95481578509E+01 0.94528511625E+01 0.91494930360E+01
 0.86446975574E+01 0.79681496333E+01 0.71831948517E+01 0.63755605224E+01 0.56267441463E+01
 0.49910976846E+01 0.44904002357E+01 0.41247204798E+01 0.38882755312E+01 0.37800321351E+01
 0.38061163422E+01 0.39769333989E+01 0.43027629416E+01 0.47888659860E+01 0.54285293495E+01
 0.51166387492E+01 0.56755519189E+01 0.62893919679E+01 0.69025184630E+01 0.74528126339E+01
 0.78859380005E+01 0.81654508165E+01 0.82735577119E+01 0.82058323435E+01 0.79681853175E+01
 0.75801685835E+01 0.70796795723E+01 0.65203935612E+01 0.59592916802E+01 0.54412707206E+01
 0.49910976846E+01 0.46169590378E+01 0.43209199162E+01 0.41078899363E+01 0.39881174192E+01
 0.39742258801E+01 0.40769759617E+01 0.43026915045E+01 0.46518920890E+01 0.45008189237E+01
 0.47922378780E+01 0.51631288521E+01 0.55884030824E+01 0.60310349929E+01 0.64470724795E+01
 0.67946514966E+01 0.70423880366E+01 0.71731580161E+01 0.71831946198E+01 0.70796926229E+01
 0.68793983586E+01 0.66071761346E+01 0.62918531690E+01 0.59592916802E+01 0.56267441463E+01
 0.53029891537E+01 0.49943074797E+01 0.47113772270E+01 0.44716414692E+01 0.42958848102E+01
 0.42023675449E+01 0.42028958530E+01 0.43024914989E+01 0.43023615309E+01 0.43474133924E+01
 0.44804022047E+01 0.46937273724E+01 0.49714071754E+01 0.52880780532E+01 0.56124551640E+01
 0.59145398255E+01 0.61725762751E+01 0.63755425714E+01 0.65203819808E+01 0.66071752221E+01
 0.66361195757E+01 0.66071761346E+01 0.65203935612E+01 0.63755605224E+01 0.61725751982E+01
 0.59145063944E+01 0.56124200403E+01 0.52880862258E+01 0.49714503240E+01 0.46937394181E+01
 0.44803462627E+01 0.43473441605E+01 0.45007673785E+01 0.43024970665E+01 0.42029616960E+01
 0.42024322810E+01 0.42958994171E+01 0.44716115983E+01 0.47113459614E+01 0.49943112064E+01
 0.53030220547E+01 0.56267670852E+01 0.59592839132E+01 0.62918373095E+01 0.66071752221E+01
 0.68793983586E+01 0.70796795723E+01 0.71831948517E+01 0.71731922311E+01 0.70424145678E+01
 0.67946188469E+01 0.64470113299E+01 0.60310264799E+01 0.55884568737E+01 0.51631649775E+01
 0.47922052220E+01 0.51166381167E+01 0.46518695055E+01 0.43026927373E+01 0.40770144933E+01
 0.39742842578E+01 0.39881549779E+01 0.41078708711E+01 0.43208657686E+01 0.46169373934E+01
 0.49911299046E+01 0.54413019280E+01 0.59592839132E+01 0.65203819808E+01 0.70796926229E+01
 0.75801685835E+01 0.79681496333E+01 0.82058180250E+01 0.82736074282E+01 0.81655007133E+01
 0.78859085516E+01 0.74527399161E+01 0.69025020143E+01 0.62894470681E+01 0.56756027777E+01
 0.61936128257E+01 0.54285613948E+01 0.47888721357E+01 0.43027459265E+01 0.39769277149E+01
 0.38061586584E+01 0.37800853012E+01 0.38882627425E+01 0.41246519858E+01 0.44903688722E+01
 0.49911299046E+01 0.56267670852E+01 0.63755425714E+01 0.71831946198E+01 0.79681853175E+01
 0.86446975574E+01 0.91494346986E+01 0.94528239120E+01 0.95482151811E+01 0.94329376122E+01
 0.91019739980E+01 0.85610976585E+01 0.78459172067E+01 0.70269328016E+01 0.77429922657E+01
 0.66748949087E+01 0.57024708711E+01 0.49012024971E+01 0.43025255844E+01 0.39076430503E+01
 0.37036272049E+01 0.36755748476E+01 0.38150107861E+01 0.41246519858E+01 0.46169373934E+01
 0.53030220547E+01 0.61725762751E+01 0.71731580161E+01 0.82058323435E+01 0.91494930360E+01
 0.99051397722E+01 0.10419540418E+02 0.10699166474E+02 0.10789826750E+02 0.10689368821E+02
 0.10334434491E+02 0.96861181725E+01 0.87898125155E+01 0.96569242088E+01 0.83769249399E+01
 0.70780428751E+01 0.59155960891E+01 0.49805024517E+01 0.43021730966E+01 0.38722950402E+01
 0.36692482136E+01 0.36755748476E+01 0.38882627425E+01 0.43208657686E+01 0.49943112064E+01
 0.59145398255E+01 0.70423880366E+01 0.82735577119E+01 0.94528511625E+01 0.10419612422E+02
 0.11027872395E+02 0.11307527055E+02 0.11442382746E+02 0.11570414503E+02 0.11633549661E+02
 0.11413172200E+02 0.10734139608E+02 0.11592970081E+02 0.10375209152E+02 0.88733742111E+01
 0.73677651860E+01 0.60505518018E+01 0.50214535498E+01 0.43020318901E+01 0.38722950402E+01
 0.37036272049E+01 0.37800853012E+01 0.41078708711E+01 0.47113459614E+01 0.56124551640E+01
 0.67946514966E+01 0.81654508165E+01 0.95481578509E+01 0.10699200780E+02 0.11307597257E+02
 0.11343871052E+02 0.11139430903E+02 0.11126084155E+02 0.11487936664E+02 0.11992750479E+02
 0.12150489371E+02 0.12499250127E+02 0.12187440713E+02 0.10886306190E+02 0.91891893683E+01
 0.75190772139E+01 0.60967459576E+01 0.50214535498E+01 0.43021730966E+01 0.39076430503E+01
 0.38061586584E+01 0.39881549779E+01 0.44716115983E+01 0.52880780532E+01 0.64470724795E+01
 0.78859380005E+01 0.94328770094E+01 0.10789774407E+02 0.11442415637E+02 0.11139481740E+02
 0.10224142491E+02 0.94506032873E+01 0.94858950561E+01 0.10432592897E+02 0.11724724948E+02
 0.11059287286E+02 0.12565687452E+02 0.12518313507E+02 0.11150240695E+02 0.92975127334E+01
 0.75190772139E+01 0.60505518018E+01 0.49805024517E+01 0.43025255844E+01 0.39769277149E+01
 0.39742842578E+01 0.42958994171E+01 0.49714071754E+01 0.60310349929E+01 0.74528126339E+01
 0.91019967458E+01 0.10689313956E+02 0.11570380387E+02 0.11126106831E+02 0.94506199026E+01
 0.74300104788E+01 0.62705852702E+01 0.67516446039E+01 0.86982725701E+01 0.69126997901E+01
 0.10401460148E+02 0.12531248455E+02 0.12622005054E+02 0.11150240695E+02 0.91891893683E+01
 0.73677651860E+01 0.59155960891E+01 0.49012024971E+01 0.43027459265E+01 0.40770144933E+01
 0.42024322810E+01 0.46937273724E+01 0.55884030824E+01 0.69025184630E+01 0.85611632057E+01
 0.10334446061E+02 0.11633515257E+02 0.11487930732E+02 0.94859007317E+01 0.62705593850E+01
 0.33416573219E+01 0.22491646934E+01 0.36592290032E+01 0.12147524581E+01 0.57859426169E+01
 0.10130794206E+02 0.12531248455E+02 0.12518313507E+02 0.10886306190E+02 0.88733742111E+01
 0.70780428751E+01 0.57024708711E+01 0.47888721357E+01 0.43026927373E+01 0.42029616960E+01
 0.44804022047E+01 0.51631288521E+01 0.62893919679E+01 0.78459348133E+01 0.96861590113E+01
 0.11413167917E+02 0.11992745571E+02 0.10432619501E+02 0.67516303202E+01 0.22490965882E+01
 -.10467684512E+01 -.14873455442E+01 -.37407727444E+01 0.28592521747E+00 0.57859426169E+01
 0.10401460148E+02 0.12565687452E+02 0.12187440713E+02 0.10375209152E+02 0.83769249399E+01
 0.66748949087E+01 0.54285613948E+01 0.46518695055E+01 0.43024970665E+01 0.43474133924E+01
 0.47922378780E+01 0.56755519189E+01 0.70268911787E+01 0.87898289753E+01 0.10734144075E+02
 0.12150465991E+02 0.11724751540E+02 0.86983299830E+01 0.36591963438E+01 -.14874472133E+01
 -.44307755425E+01 -.37406021837E+01 -.24791024428E+01 0.16983918733E+01 0.68450670490E+01
 0.10775265574E+02 0.12238361203E+02 0.11413439687E+02 0.94924939118E+01 0.75515519722E+01
 0.59556501730E+01 0.48220567591E+01 0.41432956275E+01 0.38724471581E+01 0.39811904712E+01
 0.44822128854E+01 0.54179635557E+01 0.68143723835E+01 0.86026324168E+01 0.10532068845E+02
 0.11808485752E+02 0.11158243644E+02 0.80047990678E+01 0.31314126722E+01 -.14996867687E+01
 -.24792328530E+01 -.37406495897E+01 -.14996052881E+01 0.31314831516E+01 0.80047560189E+01
 0.11158149090E+02 0.11808439882E+02 0.10532083643E+02 0.86026686104E+01 0.68144021982E+01
 0.54179663730E+01 0.44821848354E+01 0.39811686904E+01 0.38724613148E+01 0.41433126555E+01
 0.48220398637E+01 0.59556312748E+01 0.75515654198E+01 0.94924966320E+01 0.11413398446E+02
 0.12238352108E+02 0.10775357434E+02 0.68451657884E+01 0.16983553402E+01 0.19060630179E+01
 -.12769039471E+01 -.14872558458E+01 0.12943932472E+01 0.56305848051E+01 0.94942391190E+01
 0.11405359365E+02 0.11120069135E+02 0.95036995132E+01 0.76680826259E+01 0.60815322387E+01
 0.49107247070E+01 0.41814701219E+01 0.38579158629E+01 0.39077300448E+01 0.43347802372E+01
 0.51794699688E+01 0.64865345026E+01 0.82388498434E+01 0.10272799245E+02 0.12100046111E+02
 0.12533235639E+02 0.10619433604E+02 0.65704247635E+01 0.73723427142E+01 0.37202873852E+01
 0.17033223605E+01 0.22491523609E+01 0.49346216611E+01 0.82833463408E+01 0.10668652189E+02
 0.11215976174E+02 0.10149843879E+02 0.84230283111E+01 0.67533180448E+01 0.54023858264E+01
 0.44657580447E+01 0.39375543981E+01 0.37808589695E+01 0.39769028525E+01 0.45444349354E+01
 0.55304619970E+01 0.69708691052E+01 0.88215160245E+01 0.10882057887E+02 0.12586634002E+02
 0.12817098353E+02 0.10915698419E+02 0.11617455540E+02 0.89749167284E+01 0.65071391407E+01
 0.54666741306E+01 0.62705364487E+01 0.82784314973E+01 0.10240647093E+02 0.11082801118E+02
 0.10501091992E+02 0.90123145619E+01 0.73685109589E+01 0.59174624441E+01 0.48174000957E+01
 0.41073080463E+01 0.37633133860E+01 0.37546665336E+01 0.40769021501E+01 0.47596392378E+01
 0.58499323826E+01 0.73693655682E+01 0.92485552151E+01 0.11265794399E+02 0.12865663512E+02
 0.13113941055E+02 0.13312925259E+02 0.12418426897E+02 0.10761564092E+02 0.93201472857E+01
 0.88603142002E+01 0.94505118231E+01 0.10464441623E+02 0.11040088571E+02 0.10652703988E+02
 0.94132778570E+01 0.78742700118E+01 0.64092759864E+01 0.52089033589E+01 0.43556179791E+01
 0.38511125234E+01 0.36662508942E+01 0.37808555372E+01 0.42027565909E+01 0.49666310425E+01
 0.61130046461E+01 0.76461098473E+01 0.94772175161E+01 0.11382437725E+02 0.12896970656E+02
 0.12617559677E+02 0.13225478038E+02 0.12908049028E+02 0.12062877652E+02 0.11306984391E+02
 0.11029235339E+02 0.11139331096E+02 0.11183468638E+02 0.10714579333E+02 0.96333462069E+01
 0.82385412674E+01 0.68337852344E+01 0.56050957785E+01 0.46619816107E+01 0.40341983639E+01
 0.37049647156E+01 0.36491199320E+01 0.38579253948E+01 0.43472209389E+01 0.51504638893E+01
 0.62966031491E+01 0.77725517757E+01 0.94789875813E+01 0.11206856917E+02 0.10742322789E+02
 0.11989093538E+02 0.12700070157E+02 0.12778594614E+02 0.12446806123E+02 0.12028373507E+02
 0.11682249663E+02 0.11307464558E+02 0.10677769850E+02 0.96800562418E+01 0.84441578846E+01
 0.71564573459E+01 0.59702522179E+01 0.50001332487E+01 0.42969452704E+01 0.38608483947E+01
 0.36709840667E+01 0.37108579266E+01 0.39811976441E+01 0.45006543135E+01 0.52960646465E+01
 0.63822343481E+01 0.77319982653E+01 0.92456726963E+01 0.87944229594E+01 0.10025121856E+02
 0.11049080827E+02 0.11722955334E+02 0.11969920257E+02 0.11869322848E+02 0.11554950286E+02
 0.11083850683E+02 0.10419477773E+02 0.95300192014E+01 0.84763759108E+01 0.73531840447E+01
 0.62750018495E+01 0.53445647472E+01 0.46222565262E+01 0.41236264306E+01 0.38375015592E+01
 0.37477739792E+01 0.38475411810E+01 0.41433699929E+01 0.46518283602E+01 0.53898956396E+01
 0.63590423596E+01 0.75240256501E+01 0.71669693621E+01 0.81678637588E+01 0.91220766151E+01
 0.99121032620E+01 0.10446112303E+02 0.10683876495E+02 0.10635701137E+02 0.10341745645E+02
 0.98364844548E+01 0.91494303196E+01 0.83193214307E+01 0.74081728002E+01 0.64993212695E+01
 0.56758221447E+01 0.49965755656E+01 0.44868382723E+01 0.41460581005E+01 0.39637292828E+01
 0.39324249832E+01 0.40532605284E+01 0.43349125940E+01 0.47889198732E+01 0.54223358585E+01
 0.62271061088E+01 0.59985222879E+01 0.66961018390E+01 0.74283443697E+01 0.81210756788E+01
 0.86949702580E+01 0.90857627093E+01 0.92589126305E+01 0.92108266084E+01 0.89591422625E+01
 0.85325373593E+01 0.79681452535E+01 0.73145827394E+01 0.66315917335E+01 0.59806616725E+01
 0.54107573505E+01 0.49489624145E+01 0.46020585650E+01 0.43664288091E+01 0.42386173605E+01
 0.42206971416E+01 0.43197898916E+01 0.45445617857E+01 0.49013199129E+01 0.53899731187E+01
 0.52962090706E+01 0.56958985862E+01 0.61581025794E+01 0.66471707645E+01 0.71152023364E+01
 0.75099511765E+01 0.77864446008E+01 0.79168285416E+01 0.78940331265E+01 0.77292231470E+01
 0.74467067438E+01 0.70797009918E+01 0.66669100401E+01 0.62475468402E+01 0.58542184965E+01
 0.55069790953E+01 0.52129272507E+01 0.49720757408E+01 0.47853481544E+01 0.46593064137E+01
 0.46054259703E+01 0.46359384413E+01 0.47598066014E+01 0.49807152321E+01 0.50216801849E+01
 0.51506715210E+01 0.53483359463E+01 0.56024675677E+01 0.58919645599E+01 0.61870225094E+01
 0.64536055759E+01 0.66613269958E+01 0.67911146377E+01 0.68387296240E+01 0.68128157960E+01
 0.67295559903E+01 0.66072112818E+01 0.64621362065E+01 0.63058541993E+01 0.61430583784E+01
 0.59720653362E+01 0.57890582933E+01 0.55945512498E+01 0.53979691872E+01 0.52171898897E+01
 0.50735742471E+01 0.49859285070E+01 0.49667466437E+01 0.51505656524E+01 0.50216943025E+01
 0.49668623449E+01 0.49860137015E+01 0.50735623930E+01 0.52171410348E+01 0.53979604898E+01
 0.55945812703E+01 0.57890800246E+01 0.59720622294E+01 0.61430525569E+01 0.63058602657E+01
 0.64621388004E+01 0.66071945722E+01 0.67295394534E+01 0.68128358964E+01 0.68387776334E+01
 0.67911250239E+01 0.66612647648E+01 0.64535395932E+01 0.61870483597E+01 0.58920587686E+01
 0.56024979818E+01 0.53482437963E+01 0.56958908773E+01 0.52961401211E+01 0.49806839830E+01
 0.47598665980E+01 0.46360468839E+01 0.46054933952E+01 0.46592856795E+01 0.47852840323E+01
 0.49720558369E+01 0.52129739677E+01 0.55070240738E+01 0.58542065662E+01 0.62475138962E+01
 0.66669120205E+01 0.70797205034E+01 0.74466996526E+01 0.77292113212E+01 0.78940628989E+01
 0.79168671378E+01 0.77864172521E+01 0.75098740290E+01 0.71151792251E+01 0.66472413293E+01
 0.61581798216E+01 0.66962079132E+01 0.59985367314E+01 0.53899201341E+01 0.49012919423E+01
 0.45446105809E+01 0.43198828540E+01 0.42207532554E+01 0.42385942725E+01 0.43663770194E+01
 0.46020546017E+01 0.49489979449E+01 0.54107626096E+01 0.59806337233E+01 0.66315997436E+01
 0.73146293563E+01 0.79681419035E+01 0.85324647181E+01 0.89591122317E+01 0.92109047305E+01
 0.92589899770E+01 0.90857122786E+01 0.86948473028E+01 0.81210414045E+01 0.74284388892E+01
 0.81678868254E+01 0.71670453016E+01 0.62271905569E+01 0.54223634934E+01 0.47888721780E+01
 0.43348703553E+01 0.40533071632E+01 0.39325123969E+01 0.39637406623E+01 0.41459891033E+01
 0.44867958517E+01 0.49966009051E+01 0.56758466333E+01 0.64993097090E+01 0.74081738457E+01
 0.83193467254E+01 0.91494161089E+01 0.98364185868E+01 0.10341712686E+02 0.10635746225E+02
 0.10683926851E+02 0.10446090300E+02 0.99120338689E+01 0.91220353137E+01 0.10025043057E+02
 0.87944125497E+01 0.75241160844E+01 0.63591587879E+01 0.53899154416E+01 0.46517424270E+01
 0.41433125732E+01 0.38475934395E+01 0.37478372746E+01 0.38374652179E+01 0.41235532772E+01
 0.46222640514E+01 0.53446169581E+01 0.62749856386E+01 0.73531231100E+01 0.84763861524E+01
 0.95300877736E+01 0.10419470471E+02 0.11083738739E+02 0.11554864345E+02 0.11869355050E+02
 0.11970004576E+02 0.11722979113E+02 0.11049020235E+02 0.11989109792E+02 0.10742278348E+02
 0.92456083437E+01 0.77320160145E+01 0.63823378793E+01 0.52961217791E+01 0.45005913559E+01
 0.39811122000E+01 0.37108531932E+01 0.36710154302E+01 0.38608361564E+01 0.42969187407E+01
 0.50001463528E+01 0.59702640157E+01 0.71564186594E+01 0.84441224963E+01 0.96800847881E+01
 0.10677805560E+02 0.11307421630E+02 0.11682155573E+02 0.12028318753E+02 0.12446815172E+02
 0.12778633198E+02 0.12700112616E+02 0.13225597821E+02 0.12617630479E+02 0.11206779178E+02
 0.94788632860E+01 0.77725598588E+01 0.62967241871E+01 0.51505061258E+01 0.43471243575E+01
 0.38578404423E+01 0.36491441254E+01 0.37050033509E+01 0.40341635255E+01 0.46619432625E+01
 0.56051299738E+01 0.68338271438E+01 0.82385055994E+01 0.96332753094E+01 0.10714562708E+02
 0.11183502334E+02 0.11139344399E+02 0.11029192539E+02 0.11306906928E+02 0.12062824247E+02
 0.12908087169E+02 0.12418436400E+02 0.13313025692E+02 0.12897057884E+02 0.11382397790E+02
 0.94771100183E+01 0.76460808919E+01 0.61130597552E+01 0.49666526754E+01 0.42027143688E+01
 0.37808295176E+01 0.36662619196E+01 0.38510996765E+01 0.43555845803E+01 0.52089221690E+01
 0.64093374990E+01 0.78742766115E+01 0.94132072910E+01 0.10652644126E+02 0.11040093473E+02
 0.10464472511E+02 0.94505274190E+01 0.88603103681E+01 0.93201154886E+01 0.10761516572E+02
 0.89748081431E+01 0.11617409327E+02 0.13114057338E+02 0.12865794395E+02 0.11265760967E+02
 0.92484195668E+01 0.73693164478E+01 0.58499937993E+01 0.47596788269E+01 0.40768699067E+01
 0.37546405135E+01 0.37633324007E+01 0.41073224872E+01 0.48173873978E+01 0.59174603172E+01
 0.73685324731E+01 0.90123281440E+01 0.10501079324E+02 0.11082766724E+02 0.10240602577E+02
 0.82784210414E+01 0.62706092354E+01 0.54667772923E+01 0.65071404343E+01 0.37202992679E+01
 0.73722483390E+01 0.10915647994E+02 0.12817169585E+02 0.12586714433E+02 0.10882034437E+02
 0.88214452055E+01 0.69708537693E+01 0.55304839546E+01 0.45444300444E+01 0.39768956833E+01
 0.37808971688E+01 0.39375946622E+01 0.44657374510E+01 0.54023392114E+01 0.67533192198E+01
 0.84230719389E+01 0.10149872305E+02 0.11215968317E+02 0.10668620315E+02 0.82833088952E+01
 0.49346269180E+01 0.22492438929E+01 0.17034379557E+01 -.12767455373E+01 0.19061286837E+01
 0.65703208540E+01 0.10619316536E+02 0.12533253206E+02 0.12100135077E+02 0.10272821781E+02
 0.82388000468E+01 0.64864985613E+01 0.51794784758E+01 0.43348037372E+01 0.39077532057E+01
 0.38579352909E+01 0.41814707308E+01 0.49107096133E+01 0.60815255737E+01 0.76680817826E+01
 0.95036888336E+01 0.11120078037E+02 0.11405416514E+02 0.94942823909E+01 0.56305387073E+01
 0.12943273490E+01 -.14871976679E+01 0.12152656568E+01 0.19064647131E+01 0.49276578643E+01
 0.87990132609E+01 0.11720551636E+02 0.12597673623E+02 0.11542099676E+02 0.95712641410E+01
 0.76070311247E+01 0.59770040381E+01 0.47945926473E+01 0.40531332853E+01 0.37035943474E+01
 0.37107588230E+01 0.40777496457E+01 0.48407166296E+01 0.60337359362E+01 0.76254596025E+01
 0.94484239461E+01 0.11050138404E+02 0.11408982579E+02 0.98078175534E+01 0.65809816731E+01
 0.31317024592E+01 0.16986309903E+01 0.28642289623E+00 0.16987568474E+01 0.52061482978E+01
 0.90650327318E+01 0.11551049523E+02 0.11895322639E+02 0.10540164848E+02 0.86035330471E+01
 0.68034186453E+01 0.53795561884E+01 0.44023356896E+01 0.38474346271E+01 0.36692125878E+01
 0.38474254886E+01 0.44023369489E+01 0.53795752531E+01 0.68034242706E+01 0.86034939482E+01
 0.10540124808E+02 0.11895374454E+02 0.11551190583E+02 0.90651194633E+01 0.52060773590E+01
 0.49276001494E+01 0.19063001107E+01 0.12151801820E+01 0.31317552831E+01 0.65810456169E+01
 0.98077806853E+01 0.11408887889E+02 0.11050085977E+02 0.94484338374E+01 0.76254859806E+01
 0.60337491853E+01 0.48407183462E+01 0.40777450246E+01 0.37107511809E+01 0.37035883280E+01
 0.40531320808E+01 0.47946040267E+01 0.59770330742E+01 0.76070497982E+01 0.95712305829E+01
 0.11542042926E+02 0.12597697026E+02 0.11720684342E+02 0.87991207775E+01 0.92966188162E+01
 0.59518281359E+01 0.37203901756E+01 0.36594318080E+01 0.56307244827E+01 0.84261461269E+01
 0.10538205601E+02 0.11043835910E+02 0.10032488463E+02 0.83475177326E+01 0.66961496941E+01
 0.53416735323E+01 0.43876185395E+01 0.38353147027E+01 0.36490766131E+01 0.38061182868E+01
 0.43197353128E+01 0.52354623477E+01 0.65984865445E+01 0.83916324463E+01 0.10460517049E+02
 0.12397454747E+02 0.13222157909E+02 0.12129469477E+02 0.12807485194E+02 0.10477822252E+02
 0.79524186973E+01 0.65071078844E+01 0.67516459711E+01 0.82833540188E+01 0.99979446300E+01
 0.10815849659E+02 0.10320887506E+02 0.89072930288E+01 0.73017699932E+01 0.58648498637E+01
 0.47610427905E+01 0.40403750522E+01 0.36856177901E+01 0.36662769152E+01 0.39742389165E+01
 0.46359337193E+01 0.57005603399E+01 0.72019445712E+01 0.90959371243E+01 0.11195567866E+02
 0.13058567158E+02 0.13785173221E+02 0.14202528119E+02 0.13558019276E+02 0.11918194082E+02
 0.10215807337E+02 0.93200215175E+01 0.94857229663E+01 0.10240510648E+02 0.10761132717E+02
 0.10448334477E+02 0.92968964231E+01 0.78036321301E+01 0.63644248231E+01 0.51708076267E+01
 0.43160478220E+01 0.38122756215E+01 0.36350224195E+01 0.37633815967E+01 0.42023980685E+01
 0.49859927281E+01 0.61593710768E+01 0.77388423488E+01 0.96541820793E+01 0.11699188925E+02
 0.13459805948E+02 0.13518079763E+02 0.14311207048E+02 0.14046114408E+02 0.13047741788E+02
 0.11963912542E+02 0.11306776637E+02 0.11125790980E+02 0.11039914563E+02 0.10576199411E+02
 0.95467966175E+01 0.81822161084E+01 0.68004982246E+01 0.55821706940E+01 0.46423483124E+01
 0.40214618471E+01 0.37102590301E+01 0.36857316019E+01 0.39377046818E+01 0.44803723767E+01
 0.53483264904E+01 0.65757238033E+01 0.81579517475E+01 0.10003867052E+02 0.11904348158E+02
 0.11769951053E+02 0.13168755125E+02 0.13956583013E+02 0.13969623125E+02 0.13415815340E+02
 0.12680692915E+02 0.12028193865E+02 0.11442110390E+02 0.10714371816E+02 0.96859063641E+01
 0.84326288748E+01 0.71444180487E+01 0.59600377411E+01 0.49916864128E+01 0.42972298327E+01
 0.38844180476E+01 0.37361016242E+01 0.38355482386E+01 0.41816277811E+01 0.47922333172E+01
 0.56959270436E+01 0.69108912707E+01 0.84122229261E+01 0.10097050929E+02 0.99128501545E+01
 0.11294982906E+02 0.12415447020E+02 0.13091545174E+02 0.13214931577E+02 0.12880703174E+02
 0.12284085063E+02 0.11554787773E+02 0.10698910443E+02 0.96799017978E+01 0.85412322006E+01
 0.73745533213E+01 0.62745669388E+01 0.53352912493E+01 0.46185865293E+01 0.41450449505E+01
 0.39067772322E+01 0.38875264808E+01 0.40779918664E+01 0.44823948729E+01 0.51166666228E+01
 0.59985222547E+01 0.71290886833E+01 0.84682425748E+01 0.83149754279E+01 0.94653193311E+01
 0.10524178198E+02 0.11348337164E+02 0.11826555069E+02 0.11913554587E+02 0.11638868394E+02
 0.11088823938E+02 0.10341662617E+02 0.94526884979E+01 0.84762825638E+01 0.74693176881E+01
 0.65023490801E+01 0.56490122678E+01 0.49656645136E+01 0.44792185988E+01 0.41905443520E+01
 0.40877791482E+01 0.41595955341E+01 0.44025992099E+01 0.48222604363E+01 0.54285947122E+01
 0.62270698257E+01 0.72048746236E+01 0.71289438064E+01 0.79678919548E+01 0.88033586634E+01
 0.95419039355E+01 0.10088952026E+02 0.10374635182E+02 0.10372637700E+02 0.10101696472E+02
 0.96106862878E+01 0.89591241498E+01 0.82057603984E+01 0.74081263107E+01 0.66252850861E+01
 0.59148284236E+01 0.53233657289E+01 0.48778074232E+01 0.45845774066E+01 0.44370459237E+01
 0.44256184322E+01 0.45447396260E+01 0.47947434454E+01 0.51796448141E+01 0.57025190400E+01
 0.63590038055E+01 0.63821713345E+01 0.69106236167E+01 0.74667732177E+01 0.80011875114E+01
 0.84547578146E+01 0.87704260605E+01 0.89070765660E+01 0.88494260481E+01 0.86096407536E+01
 0.82211540980E+01 0.77292417584E+01 0.71832063988E+01 0.66316155869E+01 0.61185456448E+01
 0.56788630213E+01 0.53337495034E+01 0.50897915809E+01 0.49431945731E+01 0.48868792691E+01
 0.49163297694E+01 0.50315592771E+01 0.52354740253E+01 0.55305916620E+01 0.59156445928E+01
 0.60506048403E+01 0.62966121219E+01 0.65754800878E+01 0.68668552000E+01 0.71426523771E+01
 0.73700476392E+01 0.75176367613E+01 0.75630214621E+01 0.74988904219E+01 0.73350465329E+01
 0.70956140506E+01 0.68128901977E+01 0.65204709225E+01 0.62475674973E+01 0.60149778396E+01
 0.58328352458E+01 0.57009615282E+01 0.56124754399E+01 0.55594943429E+01 0.55381077188E+01
 0.55502239421E+01 0.56019968711E+01 0.57004039609E+01 0.58499551486E+01 0.61129297240E+01
 0.60967806124E+01 0.61130504977E+01 0.61591751955E+01 0.62275198349E+01 0.63055056107E+01
 0.63772211393E+01 0.64271167854E+01 0.64448970366E+01 0.64295284338E+01 0.63901596884E+01
 0.63430693604E+01 0.63059182790E+01 0.62919120422E+01 0.63059073534E+01 0.63430795897E+01
 0.63901885180E+01 0.64295249681E+01 0.64448419066E+01 0.64270747527E+01 0.63772637941E+01
 0.63055968080E+01 0.62275388418E+01 0.61590724547E+01 0.65754166939E+01 0.62964778233E+01
 0.60505622054E+01 0.58500538548E+01 0.57005335147E+01 0.56020300950E+01 0.55501605578E+01
 0.55380528125E+01 0.55595168046E+01 0.56125310097E+01 0.57009721716E+01 0.58328032249E+01
 0.60149677407E+01 0.62475936868E+01 0.65204784562E+01 0.68128608771E+01 0.70956095385E+01
 0.73350990902E+01 0.74989243643E+01 0.75629616657E+01 0.75175464660E+01 0.73700595029E+01
 0.71427733880E+01 0.68669382589E+01 0.74668794356E+01 0.69106193265E+01 0.63820795696E+01
 0.59155798741E+01 0.55306328537E+01 0.52355869863E+01 0.50316369729E+01 0.49163132277E+01
 0.48868240762E+01 0.49431883342E+01 0.50898316075E+01 0.53337647922E+01 0.56788397976E+01
 0.61185411761E+01 0.66316419976E+01 0.71832037027E+01 0.77291983537E+01 0.82211497048E+01
 0.86097101273E+01 0.88494737794E+01 0.89070119111E+01 0.87703145119E+01 0.84547424318E+01
 0.80012937187E+01 0.88034178599E+01 0.79680197842E+01 0.71290168695E+01 0.63589593169E+01
 0.57024241963E+01 0.51796309082E+01 0.47948448451E+01 0.45448396035E+01 0.44256075767E+01
 0.44369758550E+01 0.45845677921E+01 0.48778558902E+01 0.53233747613E+01 0.59147878817E+01
 0.66252813069E+01 0.74081702351E+01 0.82057579585E+01 0.89590504593E+01 0.96106484108E+01
 0.10101760836E+02 0.10372711024E+02 0.10374597813E+02 0.10088831045E+02 0.95418350626E+01
 0.10524088483E+02 0.94653238405E+01 0.83150837447E+01 0.72049913126E+01 0.62270782204E+01
 0.54285037944E+01 0.48222077032E+01 0.44026588788E+01 0.41596714794E+01 0.40877642648E+01
 0.41904867702E+01 0.44792191580E+01 0.49657000405E+01 0.56489984983E+01 0.65023094890E+01
 0.74693361253E+01 0.84763303313E+01 0.94526561545E+01 0.10341552269E+02 0.11088763893E+02
 0.11638921719E+02 0.11913632341E+02 0.11826546852E+02 0.11348242597E+02 0.12415423067E+02
 0.11294874672E+02 0.99127778431E+01 0.84683170198E+01 0.71292415612E+01 0.59985699870E+01
 0.51165677826E+01 0.44823068899E+01 0.40780225062E+01 0.38875833161E+01 0.39067500783E+01
 0.41449873201E+01 0.46185947973E+01 0.53353292352E+01 0.62745494298E+01 0.73745087319E+01
 0.85412404647E+01 0.96799361588E+01 0.10698874866E+02 0.11554676025E+02 0.12283994141E+02
 0.12880706135E+02 0.13215007118E+02 0.13091610362E+02 0.13956706950E+02 0.13168793483E+02
 0.11769849929E+02 0.10096940153E+02 0.84122586260E+01 0.69110242644E+01 0.56959713827E+01
 0.47921463587E+01 0.41815508083E+01 0.38355600263E+01 0.37361165818E+01 0.38843740152E+01
 0.42971989978E+01 0.49917228464E+01 0.59600676747E+01 0.71443739877E+01 0.84325695848E+01
 0.96859098673E+01 0.10714403858E+02 0.11442084408E+02 0.12028096246E+02 0.12680590182E+02