unknown system                          
   1.00000000000000     
    -2.450000    2.450000    1.274000
     2.450000   -2.450000    1.274000
     2.450000    2.450000   -1.274000
   Si
     2
Direct
  0.250000  0.750000  0.500000
  0.000000  0.000000  0.000000
 
   24   24   24
 -.55672314835E+01 -.35385840422E+01 0.15097834645E+01 0.71232894848E+01 0.10923221153E+02
 0.11888825849E+02 0.10624687939E+02 0.85814638950E+01 0.66891645257E+01 0.52235373602E+01
 0.42427182677E+01 0.36980229096E+01 0.35254172739E+01 0.36980920604E+01 0.42427136855E+01
 0.52234829620E+01 0.66891991573E+01 0.85815207650E+01 0.10624609007E+02 0.11888726366E+02
 0.10923320228E+02 0.71234569937E+01 0.15097174720E+01 -.35387970985E+01 -.35387970985E+01
 -.45878463916E+01 -.17939913686E+01 0.34022098701E+01 0.84993800688E+01 0.11437166872E+02
 0.11647212635E+02 0.10033017499E+02 0.80000633507E+01 0.62209215998E+01 0.48955073131E+01
 0.40436066849E+01 0.36059936359E+01 0.35254552424E+01 0.37887533338E+01 0.44344879364E+01
 0.55291297759E+01 0.71055540485E+01 0.90666739215E+01 0.11058593332E+02 0.11979667547E+02
 0.10488514099E+02 0.63153555567E+01 0.81907984840E+00 0.15097174720E+01 -.17941790062E+01
 -.18842609611E+01 0.12728496997E+01 0.60144208557E+01 0.10044003683E+02 0.11799964395E+02
 0.11194702495E+02 0.93284018260E+01 0.73675582510E+01 0.57375684864E+01 0.45699148991E+01
 0.38514705429E+01 0.35188628433E+01 0.35254070279E+01 0.38714544258E+01 0.46041306578E+01
 0.57870374613E+01 0.74341475412E+01 0.94154617713E+01 0.11318805329E+02 0.11998596108E+02
 0.10319796590E+02 0.63153555567E+01 0.71234569937E+01 0.34021579646E+01 0.12727090741E+01
 0.19104976759E+01 0.49458617472E+01 0.87133370730E+01 0.11332265818E+02 0.11827072855E+02
 0.10528965921E+02 0.85688612006E+01 0.67300366176E+01 0.52735168624E+01 0.42685747357E+01
 0.36784634624E+01 0.34421252525E+01 0.35253498844E+01 0.39400491201E+01 0.47374233634E+01
 0.59739227995E+01 0.76448066812E+01 0.95979607678E+01 0.11404994178E+02 0.11998596108E+02
 0.10488514099E+02 0.10923320228E+02 0.84995073480E+01 0.60143901617E+01 0.49457824127E+01
 0.59549713814E+01 0.84301423580E+01 0.10908444536E+02 0.12051604151E+02 0.11451439670E+02
 0.97239813656E+01 0.78074417450E+01 0.61305422273E+01 0.48577895201E+01 0.40090190285E+01
 0.35345074647E+01 0.33804944719E+01 0.35252617658E+01 0.39890413716E+01 0.48225799255E+01
 0.60721956028E+01 0.77174354495E+01 0.95979607678E+01 0.11318805329E+02 0.11979667547E+02
 0.11888726366E+02 0.11437225897E+02 0.10044078944E+02 0.87133312199E+01 0.84301287047E+01
 0.94442472869E+01 0.11079901779E+02 0.12222086652E+02 0.12096405243E+02 0.10750776789E+02
 0.88939023805E+01 0.70972112258E+01 0.56063783899E+01 0.45133247686E+01 0.38044172019E+01
 0.34268533328E+01 0.33373708143E+01 0.35251487065E+01 0.40146063085E+01 0.48519121547E+01
 0.60721956028E+01 0.76448066812E+01 0.94154617713E+01 0.11058593332E+02 0.10624609007E+02
 0.11647145985E+02 0.11799977230E+02 0.11332285584E+02 0.10908462509E+02 0.11079947454E+02
 0.11829251281E+02 0.12565894294E+02 0.12580471969E+02 0.11586166116E+02 0.99171505165E+01
 0.81175597667E+01 0.64878803408E+01 0.51877368437E+01 0.42566290062E+01 0.36635379149E+01
 0.33603736398E+01 0.33152405545E+01 0.35251440796E+01 0.40146063085E+01 0.48225799255E+01
 0.59739227995E+01 0.74341475412E+01 0.90666739215E+01 0.85815207650E+01 0.10032995648E+02
 0.11194671222E+02 0.11827041978E+02 0.12051573377E+02 0.12222122548E+02 0.12565983760E+02
 0.12940651424E+02 0.12929445032E+02 0.12198378566E+02 0.10805558055E+02 0.91276748174E+01
 0.74643087782E+01 0.60213254972E+01 0.48966732694E+01 0.40985498082E+01 0.35918747591E+01
 0.33379520011E+01 0.33152405545E+01 0.35251487065E+01 0.39890413716E+01 0.47374233634E+01
 0.57870374613E+01 0.71055540485E+01 0.66891991573E+01 0.80001072201E+01 0.93284334646E+01
 0.10528968531E+02 0.11451376067E+02 0.12096335624E+02 0.12580516168E+02 0.12929557614E+02
 0.12982554018E+02 0.12515126109E+02 0.11473065067E+02 0.10049845799E+02 0.84831182622E+01
 0.69933042889E+01 0.57287120134E+01 0.47476689271E+01 0.40452495144E+01 0.35918747591E+01
 0.33603736398E+01 0.33373708143E+01 0.35252617658E+01 0.39400491201E+01 0.46041306578E+01
 0.55291297759E+01 0.52234829620E+01 0.62209010783E+01 0.73675860720E+01 0.85689332037E+01
 0.97240137393E+01 0.10750697499E+02 0.11586072853E+02 0.12198420310E+02 0.12515241652E+02
 0.12412035334E+02 0.11816266607E+02 0.10784806464E+02 0.94672649008E+01 0.80624732961E+01
 0.67469595856E+01 0.56291027640E+01 0.47476689271E+01 0.40985498082E+01 0.36635379149E+01
 0.34268533328E+01 0.33804944719E+01 0.35253498844E+01 0.38714544258E+01 0.44344879364E+01
 0.42427136855E+01 0.48954516591E+01 0.57375050946E+01 0.67300440150E+01 0.78075348157E+01
 0.88939592564E+01 0.99170740704E+01 0.10805455886E+02 0.11473095756E+02 0.11816371020E+02
 0.11742781983E+02 0.11220119786E+02 0.10309222722E+02 0.91513787704E+01 0.79165253960E+01
 0.67469595856E+01 0.57287120134E+01 0.48966732694E+01 0.42566290062E+01 0.38044172019E+01
 0.35345074647E+01 0.34421252525E+01 0.35254070279E+01 0.37887533338E+01 0.36980920604E+01
 0.40436427919E+01 0.45698706301E+01 0.52734275827E+01 0.61305241333E+01 0.70973050696E+01
 0.81176357789E+01 0.91276157833E+01 0.10049745415E+02 0.10784822473E+02 0.11220208495E+02
 0.11263353927E+02 0.10884802083E+02 0.10139970476E+02 0.91513787704E+01 0.80624732961E+01
 0.69933042889E+01 0.60213254972E+01 0.51877368437E+01 0.45133247686E+01 0.40090190285E+01
 0.36784634624E+01 0.35188628433E+01 0.35254552424E+01 0.35254172739E+01 0.36060598616E+01
 0.38515376624E+01 0.42685559806E+01 0.48576914876E+01 0.56063309456E+01 0.64879592620E+01
 0.74643988813E+01 0.84830827896E+01 0.94671708895E+01 0.10309226548E+02 0.10884880002E+02
 0.11090322673E+02 0.10884802083E+02 0.10309222722E+02 0.94672649008E+01 0.84831182622E+01
 0.74643087782E+01 0.64878803408E+01 0.56063783899E+01 0.48577895201E+01 0.42685747357E+01
 0.38514705429E+01 0.36059936359E+01 0.36980229096E+01 0.35254203545E+01 0.35189077469E+01
 0.36785524242E+01 0.40090371053E+01 0.45132311164E+01 0.51876598262E+01 0.60213826293E+01
 0.69934037241E+01 0.80624574495E+01 0.91512897650E+01 0.10139969602E+02 0.10884880002E+02
 0.11263353927E+02 0.11220119786E+02 0.10784806464E+02 0.10049845799E+02 0.91276748174E+01
 0.81175597667E+01 0.70972112258E+01 0.61305422273E+01 0.52735168624E+01 0.45699148991E+01
 0.40436066849E+01 0.42427182677E+01 0.37886991365E+01 0.35253376508E+01 0.34421350063E+01
 0.35346109365E+01 0.38044762873E+01 0.42565462021E+01 0.48965718297E+01 0.57287506572E+01
 0.67470636918E+01 0.79165171247E+01 0.91512897650E+01 0.10309226548E+02 0.11220208495E+02
 0.11742781983E+02 0.11816266607E+02 0.11473065067E+02 0.10805558055E+02 0.99171505165E+01
 0.88939023805E+01 0.78074417450E+01 0.67300366176E+01 0.57375684864E+01 0.48955073131E+01
 0.52235373602E+01 0.44345407964E+01 0.38714279084E+01 0.35252479461E+01 0.33804639197E+01
 0.34269659158E+01 0.36636324403E+01 0.40984771630E+01 0.47475535957E+01 0.56291342342E+01
 0.67470636918E+01 0.80624574495E+01 0.94671708895E+01 0.10784822473E+02 0.11816371020E+02
 0.12412035334E+02 0.12515126109E+02 0.12198378566E+02 0.11586166116E+02 0.10750776789E+02
 0.97239813656E+01 0.85688612006E+01 0.73675582510E+01 0.62209215998E+01 0.66891645257E+01
 0.55291746350E+01 0.46042341348E+01 0.39400548437E+01 0.35251322320E+01 0.33373053020E+01
 0.33604912687E+01 0.35919898429E+01 0.40451809250E+01 0.47475535957E+01 0.57287506572E+01
 0.69934037241E+01 0.84830827896E+01 0.10049745415E+02 0.11473095756E+02 0.12515241652E+02
 0.12982554018E+02 0.12929445032E+02 0.12580471969E+02 0.12096405243E+02 0.11451439670E+02
 0.10528965921E+02 0.93284018260E+01 0.80000633507E+01 0.85814638950E+01 0.71054604053E+01
 0.57870697770E+01 0.47375720534E+01 0.39890749602E+01 0.35250004036E+01 0.33151548062E+01
 0.33380712548E+01 0.35919898429E+01 0.40984771630E+01 0.48965718297E+01 0.60213826293E+01
 0.74643988813E+01 0.91276157833E+01 0.10805455886E+02 0.12198420310E+02 0.12929557614E+02
 0.12940651424E+02 0.12565894294E+02 0.12222086652E+02 0.12051604151E+02 0.11827072855E+02
 0.11194702495E+02 0.10033017499E+02 0.10624687939E+02 0.90666063470E+01 0.74340013453E+01
 0.59739441714E+01 0.48227600864E+01 0.40146559321E+01 0.35249890948E+01 0.33151548062E+01
 0.33604912687E+01 0.36636324403E+01 0.42565462021E+01 0.51876598262E+01 0.64879592620E+01
 0.81176357789E+01 0.99170740704E+01 0.11586072853E+02 0.12580516168E+02 0.12565983760E+02
 0.11829251281E+02 0.11079901779E+02 0.10908444536E+02 0.11332265818E+02 0.11799964395E+02
 0.11647212635E+02 0.11888825849E+02 0.11058722467E+02 0.94153861071E+01 0.76446242258E+01
 0.60722107510E+01 0.48521036119E+01 0.40146559321E+01 0.35250004036E+01 0.33373053020E+01
 0.34269659158E+01 0.38044762873E+01 0.45132311164E+01 0.56063309456E+01 0.70973050696E+01
 0.88939592564E+01 0.10750697499E+02 0.12096335624E+02 0.12222122548E+02 0.11079947454E+02
 0.94442472869E+01 0.84301423580E+01 0.87133370730E+01 0.10044003683E+02 0.11437166872E+02
 0.10923221153E+02 0.11979792585E+02 0.11318968672E+02 0.95978806377E+01 0.77172400585E+01
 0.60722107510E+01 0.48227600864E+01 0.39890749602E+01 0.35251322320E+01 0.33804639197E+01
 0.35346109365E+01 0.40090371053E+01 0.48576914876E+01 0.61305241333E+01 0.78075348157E+01
 0.97240137393E+01 0.11451376067E+02 0.12051573377E+02 0.10908462509E+02 0.84301287047E+01
 0.59549713814E+01 0.49458617472E+01 0.60144208557E+01 0.84993800688E+01 0.71232894848E+01
 0.10488388077E+02 0.11998735181E+02 0.11405169634E+02 0.95978806377E+01 0.76446242258E+01
 0.59739441714E+01 0.47375720534E+01 0.39400548437E+01 0.35252479461E+01 0.34421350063E+01
 0.36785524242E+01 0.42685559806E+01 0.52734275827E+01 0.67300440150E+01 0.85689332037E+01
 0.10528968531E+02 0.11827041978E+02 0.11332285584E+02 0.87133312199E+01 0.49457824127E+01
 0.19104976759E+01 0.12728496997E+01 0.34022098701E+01 0.15097834645E+01 0.63151661454E+01
 0.10319661095E+02 0.11998735181E+02 0.11318968672E+02 0.94153861071E+01 0.74340013453E+01
 0.57870697770E+01 0.46042341348E+01 0.38714279084E+01 0.35253376508E+01 0.35189077469E+01
 0.38515376624E+01 0.45698706301E+01 0.57375050946E+01 0.73675860720E+01 0.93284334646E+01
 0.11194671222E+02 0.11799977230E+02 0.10044078944E+02 0.60143901617E+01 0.12727090741E+01
 -.18842609611E+01 -.17939913686E+01 -.35385840422E+01 0.81915075603E+00 0.63151661454E+01
 0.10488388077E+02 0.11979792585E+02 0.11058722467E+02 0.90666063470E+01 0.71054604053E+01
 0.55291746350E+01 0.44345407964E+01 0.37886991365E+01 0.35254203545E+01 0.36060598616E+01
 0.40436427919E+01 0.48954516591E+01 0.62209010783E+01 0.80001072201E+01 0.10032995648E+02
 0.11647145985E+02 0.11437225897E+02 0.84995073480E+01 0.34021579646E+01 -.17941790062E+01
 -.45878463916E+01 -.35383875995E+01 -.20928278670E+01 0.22472208793E+01 0.73099854543E+01
 0.10840979872E+02 0.11763826578E+02 0.10541011347E+02 0.85177797258E+01 0.66194418140E+01
 0.51296235440E+01 0.41153350474E+01 0.35323848724E+01 0.33152394081E+01 0.34312256333E+01
 0.38995920350E+01 0.47802368132E+01 0.61285271039E+01 0.79130928654E+01 0.99195387244E+01
 0.11435276546E+02 0.11101629613E+02 0.81643490643E+01 0.33283230098E+01 -.13453274044E+01
 -.20930558245E+01 -.35384328234E+01 -.13451340261E+01 0.33284495746E+01 0.81642577224E+01
 0.11101509342E+02 0.11435286459E+02 0.99196006304E+01 0.79131122643E+01 0.61285290299E+01
 0.47802328962E+01 0.38995538994E+01 0.34312014667E+01 0.33152851545E+01 0.35324214469E+01
 0.41152836558E+01 0.51295875763E+01 0.66195196314E+01 0.85178329575E+01 0.10540899751E+02
 0.11763719047E+02 0.10841095767E+02 0.73101698633E+01 0.22471636639E+01 0.23900629961E+01
 -.11892686587E+01 -.17938433503E+01 0.85941855984E+00 0.53302568304E+01 0.93854661988E+01
 0.11354301561E+02 0.10969310101E+02 0.92086999642E+01 0.72730789865E+01 0.56362445575E+01
 0.44482525594E+01 0.37078735517E+01 0.33543414433E+01 0.33373731278E+01 0.36516826365E+01
 0.43408344747E+01 0.54714839756E+01 0.70722764258E+01 0.90419366989E+01 0.11033407255E+02
 0.12007648879E+02 0.10756732844E+02 0.71131680997E+01 0.76653501642E+01 0.37369317778E+01
 0.11494071960E+01 0.12728784319E+01 0.39758245807E+01 0.77241900960E+01 0.10587137572E+02
 0.11409228253E+02 0.10342806299E+02 0.84616391608E+01 0.66409800690E+01 0.51755423432E+01
 0.41546202370E+01 0.35516480470E+01 0.33063546201E+01 0.33804285975E+01 0.37814597981E+01
 0.45600129652E+01 0.57788965823E+01 0.74491194548E+01 0.94420494653E+01 0.11373497272E+02
 0.12210054344E+02 0.10949422174E+02 0.11393335883E+02 0.88261212498E+01 0.59486377740E+01
 0.43612254467E+01 0.49458508591E+01 0.72767453901E+01 0.99247738474E+01 0.11418921542E+02
 0.11149119261E+02 0.95921323353E+01 0.77243290508E+01 0.60554815470E+01 0.47733098815E+01
 0.39155055523E+01 0.34393651790E+01 0.32900941827E+01 0.34420269075E+01 0.39130137934E+01
 0.47560124435E+01 0.60257291973E+01 0.77159576652E+01 0.96814234269E+01 0.11541953493E+02
 0.12372706893E+02 0.12447446991E+02 0.11941485738E+02 0.10267889190E+02 0.84740778944E+01
 0.77108092644E+01 0.84300542189E+01 0.10069935500E+02 0.11469006612E+02 0.11682437504E+02
 0.10580160849E+02 0.88098224514E+01 0.70404434891E+01 0.55495239304E+01 0.44502814100E+01
 0.37423348729E+01 0.33762616918E+01 0.33063800211E+01 0.35186822408E+01 0.40373650711E+01
 0.49130305683E+01 0.61895843450E+01 0.78468296614E+01 0.97355588739E+01 0.11518450957E+02
 0.11285395959E+02 0.12354828512E+02 0.12380083486E+02 0.11585763803E+02 0.10721729227E+02
 0.10507196363E+02 0.11079768997E+02 0.11893366811E+02 0.12145894656E+02 0.11387871701E+02
 0.98328561432E+01 0.80719687847E+01 0.64521224774E+01 0.51499101798E+01 0.42209964283E+01
 0.36419982287E+01 0.33648156783E+01 0.33544061452E+01 0.36058594793E+01 0.41454865851E+01
 0.50178268970E+01 0.62551910247E+01 0.78283344098E+01 0.95963051974E+01 0.92737768978E+01
 0.10841354319E+02 0.12022735822E+02 0.12509730707E+02 0.12431286779E+02 0.12237766599E+02
 0.12296923730E+02 0.12565789446E+02 0.12622892670E+02 0.12033486223E+02 0.10734483299E+02
 0.90876186950E+01 0.74377457715E+01 0.59971137615E+01 0.48769431146E+01 0.40948576842E+01
 0.36179582168E+01 0.34049828305E+01 0.34313055539E+01 0.36979130715E+01 0.42293598401E+01
 0.50616656246E+01 0.62165280752E+01 0.76615478780E+01 0.73624177282E+01 0.87957108822E+01
 0.10215681759E+02 0.11427380954E+02 0.12223215720E+02 0.12624019987E+02 0.12830357725E+02
 0.12968107718E+02 0.12929316370E+02 0.12463526619E+02 0.11438340126E+02 0.10013899062E+02
 0.84505197058E+01 0.69634447668E+01 0.57063909018E+01 0.47449454771E+01 0.40768918075E+01
 0.36703993105E+01 0.34942245490E+01 0.35325456734E+01 0.37887045695E+01 0.42825470230E+01
 0.50409816443E+01 0.60776728389E+01 0.58523922687E+01 0.69590636348E+01 0.82033857984E+01
 0.94662571233E+01 0.10619597886E+02 0.11549697501E+02 0.12200513021E+02 0.12599981985E+02
 0.12738021518E+02 0.12515082887E+02 0.11837329693E+02 0.10753547745E+02 0.94129780357E+01
 0.80024371477E+01 0.66953447027E+01 0.56019642065E+01 0.47618938015E+01 0.41680605851E+01
 0.37968794020E+01 0.36279726003E+01 0.36519067530E+01 0.38715715613E+01 0.43007761170E+01
 0.49581951304E+01 0.48210430722E+01 0.55615632182E+01 0.64875748668E+01 0.75465799789E+01
 0.86540512653E+01 0.97150385797E+01 0.10647509521E+02 0.11386835174E+02 0.11873046478E+02
 0.12038268324E+02 0.11816228882E+02 0.11189663784E+02 0.10218586727E+02 0.90362237038E+01
 0.78051813386E+01 0.66637883038E+01 0.56952114972E+01 0.49295840916E+01 0.43656326592E+01
 0.39921132924E+01 0.37991775038E+01 0.37816710175E+01 0.39402937891E+01 0.42826953019E+01
 0.42296251822E+01 0.46414853010E+01 0.52305262463E+01 0.59872112930E+01 0.68771742631E+01
 0.78427088897E+01 0.88144920422E+01 0.97224790577E+01 0.10495924918E+02 0.11056328730E+02
 0.11319766197E+02 0.11220132973E+02 0.10743681005E+02 0.99489590821E+01 0.89533804541E+01
 0.78928433474E+01 0.68803034599E+01 0.59860593153E+01 0.52428427949E+01 0.46622121027E+01
 0.42475084879E+01 0.39986667801E+01 0.39133117107E+01 0.39894498903E+01 0.40150282694E+01
 0.41458339407E+01 0.44342911116E+01 0.48854678514E+01 0.54954530019E+01 0.62438835450E+01
 0.70940030639E+01 0.79979154183E+01 0.88990488207E+01 0.97275668898E+01 0.10395785086E+02
 0.10807287442E+02 0.10884847054E+02 0.10603735892E+02 0.10007101356E+02 0.91908395202E+01
 0.82679222862E+01 0.73354879416E+01 0.64612949970E+01 0.56883859494E+01 0.50452182942E+01
 0.45508758868E+01 0.42148919578E+01 0.40376050210E+01 0.41457088532E+01 0.40150358569E+01
 0.40377259939E+01 0.42149781864E+01 0.45508269939E+01 0.50451032259E+01 0.56883581305E+01
 0.64613833369E+01 0.73355523271E+01 0.82678668556E+01 0.91907652080E+01 0.10007136713E+02
 0.10603814722E+02 0.10884819661E+02 0.10807189374E+02 0.10395792206E+02 0.97276928587E+01
 0.88991006871E+01 0.79978000880E+01 0.70938849352E+01 0.62439376471E+01 0.54956076512E+01
 0.48855178425E+01 0.44341807246E+01 0.46414871768E+01 0.42295244313E+01 0.39893550419E+01
 0.39133431455E+01 0.39988007902E+01 0.42475740587E+01 0.46621164404E+01 0.52427228966E+01
 0.59860873764E+01 0.68804213434E+01 0.78928625511E+01 0.89532901648E+01 0.99489253103E+01
 0.10743751916E+02 0.11220169033E+02 0.11319700986E+02 0.11056286347E+02 0.10495996054E+02
 0.97225597945E+01 0.88144551460E+01 0.78426041575E+01 0.68771456846E+01 0.59872958029E+01
 0.52306239945E+01 0.55616890053E+01 0.48210501398E+01 0.42825814922E+01 0.39401903486E+01
 0.37817089816E+01 0.37993158381E+01 0.39921638937E+01 0.43655248989E+01 0.49294890033E+01
 0.56952782590E+01 0.66638951639E+01 0.78051410570E+01 0.90361118658E+01 0.10218612699E+02
 0.11189795700E+02 0.11816237401E+02 0.12038125811E+02 0.11872986748E+02 0.11386967654E+02
 0.10647641459E+02 0.97149817919E+01 0.86538944798E+01 0.75465325355E+01 0.64876823990E+01
 0.69590519111E+01 0.58524654952E+01 0.49582985344E+01 0.43007701201E+01 0.38714375121E+01
 0.36518311250E+01 0.36280767102E+01 0.37970065783E+01 0.41680209023E+01 0.47617742909E+01
 0.56019651108E+01 0.66954364163E+01 0.80024433605E+01 0.94129048903E+01 0.10753552106E+02
 0.11837413920E+02 0.12515093037E+02 0.12737933044E+02 0.12599940734E+02 0.12200582924E+02
 0.11549775406E+02 0.10619594165E+02 0.94661953044E+01 0.82033245483E+01 0.87955819474E+01
 0.73623635308E+01 0.60777875531E+01 0.50411410477E+01 0.42825246183E+01 0.37885209038E+01
 0.35324802596E+01 0.34943789970E+01 0.36705195974E+01 0.40767907197E+01 0.47448153216E+01
 0.57064580331E+01 0.69635772817E+01 0.84504770452E+01 0.10013760685E+02 0.11438354757E+02
 0.12463676508E+02 0.12929359982E+02 0.12967983190E+02 0.12830253586E+02 0.12624067802E+02
 0.12223338386E+02 0.11427439425E+02 0.10215619495E+02 0.10841393061E+02 0.92736982385E+01
 0.76614240625E+01 0.62165544265E+01 0.50618299696E+01 0.42294162700E+01 0.36977819235E+01
 0.34312113014E+01 0.34050660470E+01 0.36180505178E+01 0.40948080882E+01 0.48768761089E+01
 0.59971643993E+01 0.74378051334E+01 0.90875605322E+01 0.10734411161E+02 0.12033535357E+02
 0.12622983397E+02 0.12565781744E+02 0.12296847997E+02 0.12237727253E+02 0.12431293145E+02
 0.12509759516E+02 0.12022797187E+02 0.12354993309E+02 0.11285502952E+02 0.95961648698E+01
 0.78281284009E+01 0.62552373602E+01 0.50180586833E+01 0.41455415821E+01 0.36056749521E+01
 0.33543049474E+01 0.33649450764E+01 0.36421093195E+01 0.42209097691E+01 0.51498060904E+01
 0.64521845766E+01 0.80720735222E+01 0.98328247928E+01 0.11387768266E+02 0.12145877356E+02
 0.11893440210E+02 0.11079833723E+02 0.10507191455E+02 0.10721644317E+02 0.11585656753E+02
 0.12380093589E+02 0.11941441667E+02 0.12447575441E+02 0.11518579467E+02 0.97354754552E+01
 0.78466574245E+01 0.61895946902E+01 0.49131851698E+01 0.40374005391E+01 0.35185749697E+01
 0.33063489028E+01 0.33763465062E+01 0.37423512093E+01 0.44501947313E+01 0.55495076828E+01
 0.70405375397E+01 0.88098621684E+01 0.10580084800E+02 0.11682375146E+02 0.11469028758E+02
 0.10069973641E+02 0.84300735659E+01 0.77108277335E+01 0.84740452027E+01 0.10267779878E+02
 0.88259033049E+01 0.11393211787E+02 0.12372885272E+02 0.11542166936E+02 0.96813431025E+01
 0.77157289239E+01 0.60257119192E+01 0.47561904852E+01 0.39130787061E+01 0.34419159207E+01
 0.32900315227E+01 0.34394339011E+01 0.39155536977E+01 0.47732642578E+01 0.60554416183E+01
 0.77243518645E+01 0.95921676964E+01 0.11149135292E+02 0.11418910417E+02 0.99247071344E+01
 0.72766746233E+01 0.49459093601E+01 0.43613770291E+01 0.59486347335E+01 0.37369326460E+01
 0.76651575816E+01 0.10949320158E+02 0.12210200269E+02 0.11373648534E+02 0.94419755192E+01
 0.74489776323E+01 0.57789219939E+01 0.45601165705E+01 0.37814411038E+01 0.33803482648E+01
 0.33063814314E+01 0.35517291562E+01 0.41546016909E+01 0.51754609116E+01 0.66409718291E+01
 0.84616948129E+01 0.10342835950E+02 0.11409229577E+02 0.10587124955E+02 0.77241227783E+01
 0.39757494182E+01 0.12729354909E+01 0.11495571444E+01 -.11890347584E+01 0.23901556815E+01
 0.71129676255E+01 0.10756553166E+02 0.12007747765E+02 0.11033591397E+02 0.90419293259E+01
 0.70721482144E+01 0.54714511811E+01 0.43408939584E+01 0.36517054427E+01 0.33373547646E+01
 0.33543416593E+01 0.37078756437E+01 0.44482403785E+01 0.56362578505E+01 0.72730969828E+01
 0.92086563765E+01 0.10969268897E+02 0.11354380722E+02 0.93855663878E+01 0.53301672956E+01
 0.85922224836E+00 -.17938311770E+01 0.15104476586E+01 0.23906124049E+01 0.55241776208E+01
 0.92377016630E+01 0.11707251122E+02 0.12041032842E+02 0.10634009567E+02 0.86246392185E+01
 0.67537519252E+01 0.52721885926E+01 0.42437636195E+01 0.36278468763E+01 0.33603641965E+01
 0.34048914421E+01 0.37725294302E+01 0.45149629967E+01 0.56890566158E+01 0.72901285880E+01
 0.91699818491E+01 0.10906155611E+02 0.11452398096E+02 0.99776309790E+01 0.67745796325E+01
 0.33286760924E+01 0.22474848469E+01 0.81979789824E+00 0.22477353850E+01 0.57350953274E+01
 0.94195436290E+01 0.11558294516E+02 0.11519469682E+02 0.99350823722E+01 0.79682676340E+01
 0.62153335815E+01 0.48772298226E+01 0.39872482397E+01 0.34941364069E+01 0.33379500358E+01
 0.34941332652E+01 0.39872303800E+01 0.48772408056E+01 0.62153867882E+01 0.79682582027E+01
 0.99349683283E+01 0.11519427912E+02 0.11558453186E+02 0.94196909011E+01 0.57349678729E+01
 0.55240889677E+01 0.23903645191E+01 0.15104061314E+01 0.33288749015E+01 0.67747098262E+01
 0.99775515643E+01 0.11452289415E+02 0.10906162492E+02 0.91700313581E+01 0.72901372931E+01
 0.56890521718E+01 0.45149647382E+01 0.37725146049E+01 0.34048827823E+01 0.33603864137E+01
 0.36278461147E+01 0.42437200636E+01 0.52722000401E+01 0.67538414677E+01 0.86246421019E+01
 0.10633856750E+02 0.12040951798E+02 0.11707418800E+02 0.92378935976E+01 0.95670949332E+01
 0.62419822344E+01 0.37370985647E+01 0.34025938567E+01 0.53305392720E+01 0.83101447311E+01
 0.10651731168E+02 0.11260168606E+02 0.10195533728E+02 0.83911164555E+01 0.66347914145E+01
 0.52081777624E+01 0.42064835706E+01 0.36110597232E+01 0.33647923125E+01 0.34268778401E+01
 0.37991185274E+01 0.45268417187E+01 0.56736696480E+01 0.72655080013E+01 0.92097007716E+01
 0.11216169161E+02 0.12481590834E+02 0.11989193254E+02 0.12406899067E+02 0.10362166276E+02
 0.77186266315E+01 0.59486583438E+01 0.60145787719E+01 0.77243224607E+01 0.98892548861E+01
 0.11155855377E+02 0.10878701438E+02 0.94151284402E+01 0.76413657833E+01 0.60394140793E+01
 0.47988393959E+01 0.39676357160E+01 0.35110963486E+01 0.33763284678E+01 0.35345358380E+01
 0.39986114416E+01 0.48184706953E+01 0.60521193634E+01 0.77085978727E+01 0.96726469827E+01
 0.11637519894E+02 0.12830885059E+02 0.13044555471E+02 0.12865751302E+02 0.11408658096E+02
 0.95676285762E+01 0.84739863763E+01 0.87132591459E+01 0.99246947164E+01 0.11091239822E+02
 0.11284242517E+02 0.10284894934E+02 0.86331728640E+01 0.69586982115E+01 0.55339470816E+01
 0.44804682415E+01 0.38092030022E+01 0.34772836160E+01 0.34394893308E+01 0.36785060096E+01
 0.42148771631E+01 0.50981838698E+01 0.63767067292E+01 0.80429644785E+01 0.99682232068E+01
 0.11856744341E+02 0.11839470094E+02 0.13054256095E+02 0.13204822842E+02 0.12395060774E+02
 0.11310591898E+02 0.10721494276E+02 0.10908136910E+02 0.11468844844E+02 0.11660029712E+02
 0.10984663992E+02 0.95563423248E+01 0.79080368761E+01 0.63777167461E+01 0.51417534046E+01
 0.42662177451E+01 0.37373596482E+01 0.35112208648E+01 0.35519015403E+01 0.38515146574E+01
 0.44341751325E+01 0.53446737583E+01 0.66190127902E+01 0.82358310835E+01 0.10063653551E+02
 0.99449414606E+01 0.11569891126E+02 0.12796083953E+02 0.13258324393E+02 0.13019975118E+02
 0.12529790460E+02 0.12237529915E+02 0.12221737237E+02 0.12145629143E+02 0.11573719750E+02
 0.10371883521E+02 0.88323476492E+01 0.72849231873E+01 0.59294085366E+01 0.48803998197E+01
 0.41643471540E+01 0.37545903079E+01 0.36113273243E+01 0.37081402282E+01 0.40436700936E+01
 0.46414304241E+01 0.55379471602E+01 0.67565047993E+01 0.82667092688E+01 0.81314921503E+01
 0.96203387689E+01 0.11064054302E+02 0.12245270732E+02 0.12923639238E+02 0.13096175453E+02
 0.12995337335E+02 0.12830093608E+02 0.12580057025E+02 0.12033239108E+02 0.11029339112E+02
 0.96727593739E+01 0.82025351013E+01 0.68100302761E+01 0.56405759313E+01 0.47626126209E+01
 0.41788837174E+01 0.38597036646E+01 0.37727613035E+01 0.38998852964E+01 0.42427958436E+01
 0.48209863898E+01 0.56612399777E+01 0.67759656623E+01 0.66757430060E+01 0.78431125258E+01
 0.91194193446E+01 0.10368625752E+02 0.11442238764E+02 0.12208472829E+02 0.12612402027E+02
 0.12723535864E+02 0.12599795231E+02 0.12198083172E+02 0.11438142538E+02 0.10348583848E+02
 0.90622894567E+01 0.77365739727E+01 0.65254120463E+01 0.55321823755E+01 0.47960773733E+01
 0.43099883311E+01 0.40483091044E+01 0.39874996893E+01 0.41156268368E+01 0.44346318475E+01
 0.49581447936E+01 0.57036001554E+01 0.56611215020E+01 0.64657406362E+01 0.74296878032E+01
 0.84890073635E+01 0.95453737938E+01 0.10490686726E+02 0.11237727292E+02 0.11732433344E+02
 0.11950099503E+02 0.11872945127E+02 0.11472858885E+02 0.10753394171E+02 0.97711642602E+01
 0.86385214133E+01 0.74951047361E+01 0.64632656368E+01 0.56177138966E+01 0.49834546657E+01
 0.45539708683E+01 0.43122803349E+01 0.42438403404E+01 0.43410986344E+01 0.46043344678E+01
 0.50409865087E+01 0.50616621394E+01 0.55377004224E+01 0.61661742327E+01 0.69300017283E+01
 0.77856952959E+01 0.86659930551E+01 0.94941747418E+01 0.10200246776E+02 0.10727387351E+02
 0.11027308778E+02 0.11056285049E+02 0.10784702270E+02 0.10218542213E+02 0.94152918573E+01
 0.84769378750E+01 0.75202108516E+01 0.66422402476E+01 0.59016360127E+01 0.53210597370E+01
 0.49021114845E+01 0.46393108276E+01 0.45268369643E+01 0.45602260201E+01 0.47376555294E+01
 0.48228275842E+01 0.50179263326E+01 0.53444716052E+01 0.58040341101E+01 0.63874690459E+01
 0.70682406592E+01 0.78034198611E+01 0.85409643638E+01 0.92264116800E+01 0.98037294925E+01
 0.10213230786E+02 0.10395847226E+02 0.10309240750E+02 0.99489147722E+01 0.93588182485E+01
 0.86210588319E+01 0.78295851469E+01 0.70639519916E+01 0.63768905295E+01 0.57972641398E+01
 0.53398225399E+01 0.50124652203E+01 0.48183117917E+01 0.47561024293E+01 0.49130080905E+01
 0.48521337586E+01 0.49131549600E+01 0.50979982182E+01 0.54095379280E+01 0.58448734407E+01
 0.63906087896E+01 0.70229951337E+01 0.77102755358E+01 0.84121921319E+01 0.90755903110E+01
 0.96322015463E+01 0.10007186176E+02 0.10139963992E+02 0.10007106609E+02 0.96321907364E+01
 0.90756821802E+01 0.84122348973E+01 0.77101806243E+01 0.70228945418E+01 0.63906616330E+01
 0.58450252173E+01 0.54095921388E+01 0.50978813622E+01 0.53443996255E+01 0.50177544910E+01
 0.48227590564E+01 0.47562132570E+01 0.48184616038E+01 0.50124665965E+01 0.53396814309E+01
 0.57971758955E+01 0.63769664891E+01 0.70640599078E+01 0.78295588979E+01 0.86209588148E+01
 0.93588198909E+01 0.99490091692E+01 0.10309254803E+02 0.10395749580E+02 0.10213194274E+02
 0.98038355109E+01 0.92264984881E+01 0.85408812511E+01 0.78032737376E+01 0.70682432499E+01
 0.63876298477E+01 0.58041504214E+01 0.61663092145E+01 0.55376932480E+01 0.50615236911E+01
 0.47375392032E+01 0.45602642541E+01 0.45269797698E+01 0.46393700358E+01 0.49020110207E+01
 0.53209532779E+01 0.59016774083E+01 0.66423434975E+01 0.75201999443E+01 0.84768451385E+01
 0.94152923209E+01 0.10218637662E+02 0.10784715318E+02 0.11056178535E+02 0.11027264968E+02
 0.10727500042E+02 0.10200353038E+02 0.94941082296E+01 0.86658389664E+01 0.77856594128E+01
 0.69301277839E+01 0.74297464965E+01 0.64658905133E+01 0.56611996632E+01 0.50408919451E+01
 0.46041664163E+01 0.43410691380E+01 0.42439872734E+01 0.43123877860E+01 0.45538849897E+01
 0.49833258805E+01 0.56177482956E+01 0.64633850648E+01 0.74950957162E+01 0.86384105557E+01
 0.97711604609E+01 0.10753509861E+02 0.11472886913E+02 0.11872824718E+02 0.11950025741E+02
 0.11732533882E+02 0.11237861653E+02 0.10490668903E+02 0.95452297722E+01 0.84889123591E+01
 0.91192970649E+01 0.78430939012E+01 0.66758673398E+01 0.57037372348E+01 0.49581103552E+01
 0.44344549282E+01 0.41155520024E+01 0.39876264446E+01 0.40484262183E+01 0.43099167466E+01
 0.47959611386E+01 0.55322241825E+01 0.65255208925E+01 0.77365455650E+01 0.90621794884E+01
 0.10348600657E+02 0.11438267577E+02 0.12198101971E+02 0.12599666705E+02 0.12723454404E+02
 0.12612483868E+02 0.12208603846E+02 0.11442262662E+02 0.10368525270E+02 0.11064035641E+02
 0.96201892739E+01 0.81313737100E+01 0.67760545700E+01 0.56614385158E+01 0.48210108050E+01
 0.42426092847E+01 0.38997751773E+01 0.37728799466E+01 0.38598306171E+01 0.41788162118E+01
 0.47624979365E+01 0.56406211154E+01 0.68101380402E+01 0.82025046577E+01 0.96726509463E+01
 0.11029350580E+02 0.12033355289E+02 0.12580090675E+02 0.12829994909E+02 0.12995241190E+02
 0.13096189961E+02 0.12923742842E+02 0.12245366762E+02 0.12796230637E+02 0.11569945288E+02
 0.99447911428E+01 0.82665321397E+01 0.67565593755E+01 0.55381579745E+01 0.46414779551E+01
 0.40435013181E+01 0.37080439441E+01 0.36114389701E+01 0.37546878743E+01 0.41642683442E+01
 0.48803115989E+01 0.59294761412E+01 0.72850169495E+01 0.88322973983E+01 0.10371778640E+02
 0.11573734813E+02 0.12145735432E+02 0.12221781471E+02 0.12237464923E+02 0.12529688363E+02