   2   2   0   0
  0.1529437E+02  0.3691622E-09  0.3691622E-09  0.3691622E-09  0.5000000E-15
  1.000000000000000E-004
  CAR 
 unknown system                          
     22.02713106     -6.24179134  301      9.27625008      1.00000000
     -6.242  0.0000E+00  0.0000E+00
     -6.148  0.0000E+00  0.0000E+00
     -6.053  0.0000E+00  0.0000E+00
     -5.959  0.0000E+00  0.0000E+00
     -5.865  0.0000E+00  0.0000E+00
     -5.771  0.0000E+00  0.0000E+00
     -5.676  0.0000E+00  0.0000E+00
     -5.582  0.0000E+00  0.0000E+00
     -5.488  0.0000E+00  0.0000E+00
     -5.394  0.1473E-16  0.1388E-17
     -5.299  0.3294E-14  0.3118E-15
     -5.205  0.4200E-12  0.3989E-13
     -5.111  0.3461E-10  0.3301E-11
     -5.017  0.1844E-08  0.1770E-09
     -4.923  0.6358E-07  0.6168E-08
     -4.828  0.1420E-05  0.1400E-06
     -4.734  0.2058E-04  0.2079E-05
     -4.640  0.1936E-03  0.2033E-04
     -4.546  0.1184E-02  0.1319E-03
     -4.451  0.4713E-02  0.5760E-03
     -4.357  0.1221E-01  0.1727E-02
     -4.263  0.2063E-01  0.3671E-02
     -4.169  0.2271E-01  0.5811E-02
     -4.075  0.1630E-01  0.7346E-02
     -3.980  0.7624E-02  0.8065E-02
     -3.886  0.2323E-02  0.8284E-02
     -3.792  0.4622E-03  0.8327E-02
     -3.698  0.7648E-04  0.8335E-02
     -3.603  0.1513E-03  0.8349E-02
     -3.509  0.8186E-03  0.8426E-02
     -3.415  0.2978E-02  0.8707E-02
     -3.321  0.7064E-02  0.9372E-02
     -3.226  0.1099E-01  0.1041E-01
     -3.132  0.1171E-01  0.1151E-01
     -3.038  0.1111E-01  0.1256E-01
     -2.944  0.1667E-01  0.1413E-01
     -2.850  0.3205E-01  0.1715E-01
     -2.755  0.4896E-01  0.2176E-01
     -2.661  0.5690E-01  0.2713E-01
     -2.567  0.5792E-01  0.3258E-01
     -2.473  0.5581E-01  0.3784E-01
     -2.378  0.4504E-01  0.4209E-01
     -2.284  0.2628E-01  0.4456E-01
     -2.190  0.1050E-01  0.4555E-01
     -2.096  0.3927E-02  0.4592E-01
     -2.001  0.6344E-02  0.4652E-01
     -1.907  0.1800E-01  0.4822E-01
     -1.813  0.3565E-01  0.5158E-01
     -1.719  0.4634E-01  0.5594E-01
     -1.625  0.4043E-01  0.5975E-01
     -1.530  0.2720E-01  0.6232E-01
     -1.436  0.2161E-01  0.6435E-01
     -1.342  0.2351E-01  0.6657E-01
     -1.248  0.2230E-01  0.6867E-01
     -1.153  0.1459E-01  0.7004E-01
     -1.059  0.6273E-02  0.7063E-01
     -0.965  0.1760E-02  0.7080E-01
     -0.871  0.3255E-03  0.7083E-01
     -0.776  0.9447E-04  0.7084E-01
     -0.682  0.5041E-03  0.7089E-01
     -0.588  0.2900E-02  0.7116E-01
     -0.494  0.1092E-01  0.7219E-01
     -0.400  0.2679E-01  0.7471E-01
     -0.305  0.4298E-01  0.7876E-01
     -0.211  0.4594E-01  0.8309E-01
     -0.117  0.3659E-01  0.8654E-01
     -0.023  0.3265E-01  0.8962E-01
      0.072  0.4384E-01  0.9375E-01
      0.166  0.6222E-01  0.9961E-01
      0.260  0.8101E-01  0.1072E+00
      0.354  0.9826E-01  0.1165E+00
      0.449  0.9947E-01  0.1259E+00
      0.543  0.7417E-01  0.1329E+00
      0.637  0.4144E-01  0.1368E+00
      0.731  0.2504E-01  0.1391E+00
      0.825  0.2421E-01  0.1414E+00
      0.920  0.2522E-01  0.1438E+00
      1.014  0.2516E-01  0.1462E+00
      1.108  0.3187E-01  0.1492E+00
      1.202  0.4365E-01  0.1533E+00
      1.297  0.4563E-01  0.1576E+00
      1.391  0.3218E-01  0.1606E+00
      1.485  0.1549E-01  0.1621E+00
      1.579  0.7622E-02  0.1628E+00
      1.674  0.1024E-01  0.1637E+00
      1.768  0.1820E-01  0.1655E+00
      1.862  0.2292E-01  0.1676E+00
      1.956  0.1913E-01  0.1694E+00
      2.050  0.1120E-01  0.1705E+00
      2.145  0.8051E-02  0.1712E+00
      2.239  0.1557E-01  0.1727E+00
      2.333  0.3297E-01  0.1758E+00
      2.427  0.4971E-01  0.1805E+00
      2.522  0.5409E-01  0.1856E+00
      2.616  0.4765E-01  0.1901E+00
      2.710  0.4086E-01  0.1939E+00
      2.804  0.4152E-01  0.1978E+00
      2.898  0.4978E-01  0.2025E+00
      2.993  0.5821E-01  0.2080E+00
      3.087  0.6652E-01  0.2143E+00
      3.181  0.8265E-01  0.2221E+00
      3.275  0.9619E-01  0.2311E+00
      3.370  0.8609E-01  0.2393E+00
      3.464  0.5955E-01  0.2449E+00
      3.558  0.4257E-01  0.2489E+00
      3.652  0.4129E-01  0.2528E+00
      3.747  0.4243E-01  0.2568E+00
      3.841  0.3860E-01  0.2604E+00
      3.935  0.3670E-01  0.2639E+00
      4.029  0.4303E-01  0.2679E+00
      4.123  0.4816E-01  0.2725E+00
      4.218  0.3952E-01  0.2762E+00
      4.312  0.2176E-01  0.2782E+00
      4.406  0.8182E-02  0.2790E+00
      4.500  0.3824E-02  0.2794E+00
      4.595  0.7854E-02  0.2801E+00
      4.689  0.2023E-01  0.2820E+00
      4.783  0.3921E-01  0.2857E+00
      4.877  0.5735E-01  0.2911E+00
      4.972  0.6537E-01  0.2973E+00
      5.066  0.6300E-01  0.3032E+00
      5.160  0.6165E-01  0.3090E+00
      5.254  0.6741E-01  0.3154E+00
      5.348  0.7200E-01  0.3222E+00
      5.443  0.6955E-01  0.3287E+00
      5.537  0.6415E-01  0.3347E+00
      5.631  0.5502E-01  0.3399E+00
      5.725  0.3840E-01  0.3436E+00
      5.820  0.2334E-01  0.3458E+00
      5.914  0.2575E-01  0.3482E+00
      6.008  0.5173E-01  0.3531E+00
      6.102  0.8895E-01  0.3614E+00
      6.197  0.1162E+00  0.3724E+00
      6.291  0.1263E+00  0.3843E+00
      6.385  0.1211E+00  0.3957E+00
      6.479  0.9525E-01  0.4047E+00
      6.573  0.5486E-01  0.4098E+00
      6.668  0.2157E-01  0.4119E+00
      6.762  0.5618E-02  0.4124E+00
      6.856  0.9593E-03  0.4125E+00
      6.950  0.1308E-03  0.4125E+00
      7.045  0.2718E-03  0.4125E+00
      7.139  0.1887E-02  0.4127E+00
      7.233  0.8937E-02  0.4135E+00
      7.327  0.2817E-01  0.4162E+00
      7.422  0.5936E-01  0.4218E+00
      7.516  0.8421E-01  0.4297E+00
      7.610  0.8127E-01  0.4374E+00
      7.704  0.5451E-01  0.4425E+00
      7.798  0.2819E-01  0.4452E+00
      7.893  0.1982E-01  0.4470E+00
      7.987  0.3075E-01  0.4499E+00
      8.081  0.5016E-01  0.4547E+00
      8.175  0.6544E-01  0.4608E+00
      8.270  0.7528E-01  0.4679E+00
      8.364  0.8305E-01  0.4758E+00
      8.458  0.8342E-01  0.4836E+00
      8.552  0.7179E-01  0.4904E+00
      8.647  0.5984E-01  0.4960E+00
      8.741  0.6615E-01  0.5023E+00
      8.835  0.8614E-01  0.5104E+00
      8.929  0.9030E-01  0.5189E+00
      9.023  0.6602E-01  0.5251E+00
      9.118  0.3579E-01  0.5285E+00
      9.212  0.2585E-01  0.5309E+00
      9.306  0.4195E-01  0.5349E+00
      9.400  0.7139E-01  0.5416E+00
      9.495  0.9406E-01  0.5505E+00
      9.589  0.9901E-01  0.5598E+00
      9.683  0.9111E-01  0.5684E+00
      9.777  0.7858E-01  0.5758E+00
      9.871  0.6147E-01  0.5816E+00
      9.966  0.3868E-01  0.5852E+00
     10.060  0.1758E-01  0.5869E+00
     10.154  0.5546E-02  0.5874E+00
     10.248  0.2002E-02  0.5876E+00
     10.343  0.4676E-02  0.5880E+00
     10.437  0.1504E-01  0.5894E+00
     10.531  0.3283E-01  0.5925E+00
     10.625  0.4856E-01  0.5971E+00
     10.720  0.5339E-01  0.6021E+00
     10.814  0.5348E-01  0.6072E+00
     10.908  0.5712E-01  0.6126E+00
     11.002  0.6402E-01  0.6186E+00
     11.096  0.8273E-01  0.6264E+00
     11.191  0.1237E+00  0.6380E+00
     11.285  0.1646E+00  0.6536E+00
     11.379  0.1643E+00  0.6690E+00
     11.473  0.1174E+00  0.6801E+00
     11.568  0.6387E-01  0.6861E+00
     11.662  0.3957E-01  0.6898E+00
     11.756  0.4307E-01  0.6939E+00
     11.850  0.4980E-01  0.6986E+00
     11.945  0.4552E-01  0.7029E+00
     12.039  0.3735E-01  0.7064E+00
     12.133  0.3481E-01  0.7097E+00
     12.227  0.4042E-01  0.7135E+00
     12.321  0.5522E-01  0.7187E+00
     12.416  0.7257E-01  0.7255E+00
     12.510  0.7862E-01  0.7329E+00
     12.604  0.7211E-01  0.7397E+00
     12.698  0.6634E-01  0.7460E+00
     12.793  0.6590E-01  0.7522E+00
     12.887  0.6115E-01  0.7580E+00
     12.981  0.4673E-01  0.7624E+00
     13.075  0.2799E-01  0.7650E+00
     13.170  0.1260E-01  0.7662E+00
     13.264  0.4050E-02  0.7666E+00
     13.358  0.9096E-03  0.7667E+00
     13.452  0.3455E-03  0.7667E+00
     13.546  0.1710E-02  0.7668E+00
     13.641  0.8811E-02  0.7677E+00
     13.735  0.3022E-01  0.7705E+00
     13.829  0.6941E-01  0.7771E+00
     13.923  0.1090E+00  0.7873E+00
     14.018  0.1209E+00  0.7987E+00
     14.112  0.9931E-01  0.8081E+00
     14.206  0.6800E-01  0.8145E+00
     14.300  0.5829E-01  0.8200E+00
     14.395  0.8312E-01  0.8278E+00
     14.489  0.1215E+00  0.8393E+00
     14.583  0.1367E+00  0.8522E+00
     14.677  0.1228E+00  0.8637E+00
     14.771  0.1110E+00  0.8742E+00
     14.866  0.1154E+00  0.8851E+00
     14.960  0.1151E+00  0.8959E+00
     15.054  0.9840E-01  0.9052E+00
     15.148  0.7551E-01  0.9123E+00
     15.243  0.5302E-01  0.9173E+00
     15.337  0.3598E-01  0.9207E+00
     15.431  0.3380E-01  0.9239E+00
     15.525  0.4327E-01  0.9279E+00
     15.620  0.4624E-01  0.9323E+00
     15.714  0.3456E-01  0.9356E+00
     15.808  0.2051E-01  0.9375E+00
     15.902  0.1697E-01  0.9391E+00
     15.996  0.2149E-01  0.9411E+00
     16.091  0.2289E-01  0.9433E+00
     16.185  0.1652E-01  0.9448E+00
     16.279  0.8026E-02  0.9456E+00
     16.373  0.3915E-02  0.9460E+00
     16.468  0.6809E-02  0.9466E+00
     16.562  0.1831E-01  0.9483E+00
     16.656  0.3755E-01  0.9519E+00
     16.750  0.5625E-01  0.9572E+00
     16.844  0.6130E-01  0.9629E+00
     16.939  0.4804E-01  0.9675E+00
     17.033  0.2816E-01  0.9701E+00
     17.127  0.1612E-01  0.9716E+00
     17.221  0.1313E-01  0.9729E+00
     17.316  0.1189E-01  0.9740E+00
     17.410  0.1098E-01  0.9750E+00
     17.504  0.1920E-01  0.9768E+00
     17.598  0.4703E-01  0.9813E+00
     17.693  0.8838E-01  0.9896E+00
     17.787  0.1124E+00  0.1000E+01
     17.881  0.9567E-01  0.1009E+01
     17.975  0.5588E-01  0.1014E+01
     18.069  0.2833E-01  0.1017E+01
     18.164  0.2748E-01  0.1020E+01
     18.258  0.4758E-01  0.1024E+01
     18.352  0.7642E-01  0.1031E+01
     18.446  0.9636E-01  0.1040E+01
     18.541  0.9004E-01  0.1049E+01
     18.635  0.6004E-01  0.1055E+01
     18.729  0.2796E-01  0.1057E+01
     18.823  0.8998E-02  0.1058E+01
     18.918  0.1984E-02  0.1058E+01
     19.012  0.2972E-03  0.1058E+01
     19.106  0.2995E-04  0.1058E+01
     19.200  0.2013E-05  0.1058E+01
     19.294  0.9899E-07  0.1058E+01
     19.389  0.2736E-06  0.1058E+01
     19.483  0.4983E-05  0.1058E+01
     19.577  0.5946E-04  0.1058E+01
     19.671  0.4609E-03  0.1058E+01
     19.766  0.2323E-02  0.1059E+01
     19.860  0.7624E-02  0.1059E+01
     19.954  0.1630E-01  0.1061E+01
     20.048  0.2271E-01  0.1063E+01
     20.143  0.2063E-01  0.1065E+01
     20.237  0.1221E-01  0.1066E+01
     20.331  0.4713E-02  0.1067E+01
     20.425  0.1184E-02  0.1067E+01
     20.519  0.1936E-03  0.1067E+01
     20.614  0.2058E-04  0.1067E+01
     20.708  0.1420E-05  0.1067E+01
     20.802  0.6358E-07  0.1067E+01
     20.896  0.1844E-08  0.1067E+01
     20.991  0.3461E-10  0.1067E+01
     21.085  0.4200E-12  0.1067E+01
     21.179  0.3289E-14  0.1067E+01
     21.273  0.1964E-16  0.1067E+01
     21.368  0.0000E+00  0.1067E+01
     21.462  0.0000E+00  0.1067E+01
     21.556  0.0000E+00  0.1067E+01
     21.650  0.0000E+00  0.1067E+01
     21.744  0.0000E+00  0.1067E+01
     21.839  0.0000E+00  0.1067E+01
     21.933  0.0000E+00  0.1067E+01
     22.027  0.0000E+00  0.1067E+01
