   2   2   0   0
  0.1529437E+02  0.3691622E-09  0.3691622E-09  0.3691622E-09  0.5000000E-15
  1.000000000000000E-004
  CAR 
 unknown system                          
     22.67422217     -6.30019368  301      8.64803410      1.00000000
     -6.300  0.0000E+00  0.0000E+00
     -6.204  0.0000E+00  0.0000E+00
     -6.107  0.0000E+00  0.0000E+00
     -6.010  0.0000E+00  0.0000E+00
     -5.914  0.0000E+00  0.0000E+00
     -5.817  0.0000E+00  0.0000E+00
     -5.721  0.0000E+00  0.0000E+00
     -5.624  0.0000E+00  0.0000E+00
     -5.528  0.0000E+00  0.0000E+00
     -5.431  0.5748E-16  0.5551E-17
     -5.334  0.1123E-13  0.1090E-14
     -5.238  0.1438E-11  0.1400E-12
     -5.141  0.1164E-09  0.1138E-10
     -5.045  0.5963E-08  0.5873E-09
     -4.948  0.1935E-06  0.1928E-07
     -4.851  0.3982E-05  0.4039E-06
     -4.755  0.5205E-04  0.5431E-05
     -4.658  0.4327E-03  0.4722E-04
     -4.562  0.2290E-02  0.2684E-03
     -4.465  0.7724E-02  0.1014E-02
     -4.369  0.1662E-01  0.2620E-02
     -4.272  0.2284E-01  0.4826E-02
     -4.175  0.2004E-01  0.6761E-02
     -4.079  0.1134E-01  0.7857E-02
     -3.982  0.4741E-02  0.8315E-02
     -3.886  0.3733E-02  0.8675E-02
     -3.789  0.7068E-02  0.9358E-02
     -3.692  0.1090E-01  0.1041E-01
     -3.596  0.1091E-01  0.1146E-01
     -3.499  0.6986E-02  0.1214E-01
     -3.403  0.2864E-02  0.1242E-01
     -3.306  0.8758E-03  0.1250E-01
     -3.210  0.1175E-02  0.1261E-01
     -3.113  0.5362E-02  0.1313E-01
     -3.016  0.1756E-01  0.1483E-01
     -2.920  0.3807E-01  0.1850E-01
     -2.823  0.5751E-01  0.2406E-01
     -2.727  0.6662E-01  0.3049E-01
     -2.630  0.6434E-01  0.3671E-01
     -2.534  0.5055E-01  0.4159E-01
     -2.437  0.2952E-01  0.4444E-01
     -2.340  0.1384E-01  0.4578E-01
     -2.244  0.1281E-01  0.4701E-01
     -2.147  0.2610E-01  0.4954E-01
     -2.051  0.4237E-01  0.5363E-01
     -1.954  0.4464E-01  0.5794E-01
     -1.857  0.3006E-01  0.6084E-01
     -1.761  0.1292E-01  0.6209E-01
     -1.664  0.3544E-02  0.6243E-01
     -1.568  0.6212E-03  0.6249E-01
     -1.471  0.9786E-04  0.6250E-01
     -1.375  0.2738E-03  0.6253E-01
     -1.278  0.1589E-02  0.6268E-01
     -1.181  0.5983E-02  0.6326E-01
     -1.085  0.1437E-01  0.6465E-01
     -0.988  0.2203E-01  0.6678E-01
     -0.892  0.2161E-01  0.6886E-01
     -0.795  0.1401E-01  0.7022E-01
     -0.698  0.8971E-02  0.7108E-01
     -0.602  0.1691E-01  0.7272E-01
     -0.505  0.4352E-01  0.7692E-01
     -0.409  0.7790E-01  0.8444E-01
     -0.312  0.9052E-01  0.9318E-01
     -0.216  0.6801E-01  0.9975E-01
     -0.119  0.3316E-01  0.1030E+00
     -0.022  0.1161E-01  0.1041E+00
      0.074  0.8569E-02  0.1049E+00
      0.171  0.2206E-01  0.1070E+00
      0.267  0.4962E-01  0.1118E+00
      0.364  0.7994E-01  0.1195E+00
      0.461  0.9924E-01  0.1291E+00
      0.557  0.1081E+00  0.1396E+00
      0.654  0.1119E+00  0.1504E+00
      0.750  0.1005E+00  0.1601E+00
      0.847  0.6782E-01  0.1666E+00
      0.943  0.3148E-01  0.1697E+00
      1.040  0.9693E-02  0.1706E+00
      1.137  0.1949E-02  0.1708E+00
      1.233  0.2561E-03  0.1708E+00
      1.330  0.5263E-04  0.1708E+00
      1.426  0.2959E-03  0.1709E+00
      1.523  0.1793E-02  0.1710E+00
      1.619  0.7138E-02  0.1717E+00
      1.716  0.1912E-01  0.1736E+00
      1.813  0.3631E-01  0.1771E+00
      1.909  0.5280E-01  0.1822E+00
      2.006  0.6220E-01  0.1882E+00
      2.102  0.5796E-01  0.1938E+00
      2.199  0.3992E-01  0.1976E+00
      2.296  0.2067E-01  0.1996E+00
      2.392  0.1198E-01  0.2008E+00
      2.489  0.1252E-01  0.2020E+00
      2.585  0.1541E-01  0.2035E+00
      2.682  0.1899E-01  0.2053E+00
      2.778  0.2359E-01  0.2076E+00
      2.875  0.2492E-01  0.2100E+00
      2.972  0.2258E-01  0.2122E+00
      3.068  0.2678E-01  0.2148E+00
      3.165  0.4339E-01  0.2190E+00
      3.261  0.6179E-01  0.2249E+00
      3.358  0.7003E-01  0.2317E+00
      3.455  0.7132E-01  0.2386E+00
      3.551  0.7243E-01  0.2456E+00
      3.648  0.7219E-01  0.2526E+00
      3.744  0.6837E-01  0.2592E+00
      3.841  0.5792E-01  0.2648E+00
      3.937  0.3896E-01  0.2685E+00
      4.034  0.2108E-01  0.2706E+00
      4.131  0.1756E-01  0.2722E+00
      4.227  0.2998E-01  0.2751E+00
      4.324  0.4428E-01  0.2794E+00
      4.420  0.4325E-01  0.2836E+00
      4.517  0.2833E-01  0.2863E+00
      4.614  0.1782E-01  0.2881E+00
      4.710  0.2438E-01  0.2904E+00
      4.807  0.4382E-01  0.2946E+00
      4.903  0.6018E-01  0.3005E+00
      5.000  0.6394E-01  0.3066E+00
      5.096  0.6231E-01  0.3126E+00
      5.193  0.6362E-01  0.3188E+00
      5.290  0.6640E-01  0.3252E+00
      5.386  0.7276E-01  0.3322E+00
      5.483  0.8719E-01  0.3407E+00
      5.579  0.9582E-01  0.3499E+00
      5.676  0.8201E-01  0.3578E+00
      5.772  0.5326E-01  0.3630E+00
      5.869  0.2870E-01  0.3657E+00
      5.966  0.2202E-01  0.3679E+00
      6.062  0.3981E-01  0.3717E+00
      6.159  0.7281E-01  0.3787E+00
      6.255  0.9114E-01  0.3876E+00
      6.352  0.7577E-01  0.3949E+00
      6.449  0.4770E-01  0.3995E+00
      6.545  0.4008E-01  0.4033E+00
      6.642  0.5937E-01  0.4091E+00
      6.738  0.8776E-01  0.4176E+00
      6.835  0.1054E+00  0.4277E+00
      6.931  0.1006E+00  0.4375E+00
      7.028  0.7336E-01  0.4445E+00
      7.125  0.3903E-01  0.4483E+00
      7.221  0.1743E-01  0.4500E+00
      7.318  0.2035E-01  0.4520E+00
      7.414  0.5500E-01  0.4573E+00
      7.511  0.1141E+00  0.4683E+00
      7.608  0.1559E+00  0.4833E+00
      7.704  0.1389E+00  0.4968E+00
      7.801  0.8062E-01  0.5046E+00
      7.897  0.3043E-01  0.5075E+00
      7.994  0.7659E-02  0.5082E+00
      8.090  0.2808E-02  0.5085E+00
      8.187  0.7607E-02  0.5092E+00
      8.284  0.2230E-01  0.5114E+00
      8.380  0.4447E-01  0.5157E+00
      8.477  0.6322E-01  0.5218E+00
      8.573  0.6979E-01  0.5285E+00
      8.670  0.6255E-01  0.5346E+00
      8.767  0.4336E-01  0.5388E+00
      8.863  0.2134E-01  0.5408E+00
      8.960  0.7022E-02  0.5415E+00
      9.056  0.1501E-02  0.5416E+00
      9.153  0.2081E-03  0.5417E+00
      9.249  0.4943E-04  0.5417E+00
      9.346  0.2929E-03  0.5417E+00
      9.443  0.1814E-02  0.5419E+00
      9.539  0.7627E-02  0.5426E+00
      9.636  0.2181E-01  0.5447E+00
      9.732  0.4228E-01  0.5488E+00
      9.829  0.5535E-01  0.5541E+00
      9.925  0.5034E-01  0.5590E+00
     10.022  0.4068E-01  0.5629E+00
     10.119  0.5260E-01  0.5680E+00
     10.215  0.8973E-01  0.5767E+00
     10.312  0.1227E+00  0.5885E+00
     10.408  0.1237E+00  0.6005E+00
     10.505  0.9696E-01  0.6098E+00
     10.602  0.6777E-01  0.6164E+00
     10.698  0.5650E-01  0.6218E+00
     10.795  0.6348E-01  0.6280E+00
     10.891  0.7356E-01  0.6351E+00
     10.988  0.7483E-01  0.6423E+00
     11.084  0.6513E-01  0.6486E+00
     11.181  0.4993E-01  0.6534E+00
     11.278  0.3980E-01  0.6573E+00
     11.374  0.3964E-01  0.6611E+00
     11.471  0.4642E-01  0.6656E+00
     11.567  0.5231E-01  0.6706E+00
     11.664  0.4710E-01  0.6752E+00
     11.761  0.3383E-01  0.6784E+00
     11.857  0.3103E-01  0.6814E+00
     11.954  0.4939E-01  0.6862E+00
     12.050  0.8082E-01  0.6940E+00
     12.147  0.1109E+00  0.7047E+00
     12.243  0.1278E+00  0.7171E+00
     12.340  0.1230E+00  0.7290E+00
     12.437  0.9931E-01  0.7385E+00
     12.533  0.6815E-01  0.7451E+00
     12.630  0.4345E-01  0.7493E+00
     12.726  0.4103E-01  0.7533E+00
     12.823  0.6485E-01  0.7596E+00
     12.920  0.9490E-01  0.7687E+00
     13.016  0.1053E+00  0.7789E+00
     13.113  0.9381E-01  0.7879E+00
     13.209  0.7671E-01  0.7954E+00
     13.306  0.6396E-01  0.8015E+00
     13.402  0.5867E-01  0.8072E+00
     13.499  0.6004E-01  0.8130E+00
     13.596  0.6355E-01  0.8191E+00
     13.692  0.7380E-01  0.8263E+00
     13.789  0.9383E-01  0.8353E+00
     13.885  0.1070E+00  0.8457E+00
     13.982  0.9980E-01  0.8553E+00
     14.078  0.7768E-01  0.8628E+00
     14.175  0.4958E-01  0.8676E+00
     14.272  0.2400E-01  0.8699E+00
     14.368  0.9888E-02  0.8709E+00
     14.465  0.1206E-01  0.8720E+00
     14.561  0.3490E-01  0.8754E+00
     14.658  0.7777E-01  0.8829E+00
     14.755  0.1218E+00  0.8947E+00
     14.851  0.1438E+00  0.9086E+00
     14.948  0.1401E+00  0.9221E+00
     15.044  0.1163E+00  0.9333E+00
     15.141  0.7710E-01  0.9408E+00
     15.237  0.3718E-01  0.9444E+00
     15.334  0.1230E-01  0.9455E+00
     15.431  0.3363E-02  0.9459E+00
     15.527  0.4337E-02  0.9463E+00
     15.624  0.1402E-01  0.9476E+00
     15.720  0.3147E-01  0.9507E+00
     15.817  0.4530E-01  0.9551E+00
     15.914  0.4261E-01  0.9592E+00
     16.010  0.3084E-01  0.9622E+00
     16.107  0.3229E-01  0.9653E+00
     16.203  0.5495E-01  0.9706E+00
     16.300  0.7801E-01  0.9781E+00
     16.396  0.7535E-01  0.9854E+00
     16.493  0.5361E-01  0.9906E+00
     16.590  0.4180E-01  0.9946E+00
     16.686  0.4722E-01  0.9992E+00
     16.783  0.5186E-01  0.1004E+01
     16.879  0.4603E-01  0.1009E+01
     16.976  0.3615E-01  0.1012E+01
     17.073  0.2566E-01  0.1015E+01
     17.169  0.1434E-01  0.1016E+01
     17.266  0.5802E-02  0.1017E+01
     17.362  0.3354E-02  0.1017E+01
     17.459  0.9363E-02  0.1018E+01
     17.555  0.2821E-01  0.1020E+01
     17.652  0.5832E-01  0.1026E+01
     17.749  0.8217E-01  0.1034E+01
     17.845  0.7954E-01  0.1042E+01
     17.942  0.5284E-01  0.1047E+01
     18.038  0.2385E-01  0.1049E+01
     18.135  0.7199E-02  0.1050E+01
     18.231  0.1432E-02  0.1050E+01
     18.328  0.1852E-03  0.1050E+01
     18.425  0.1544E-04  0.1050E+01
     18.521  0.8243E-06  0.1050E+01
     18.618  0.2805E-07  0.1050E+01
     18.714  0.6065E-09  0.1050E+01
     18.811  0.8313E-11  0.1050E+01
     18.908  0.7211E-13  0.1050E+01
     19.004  0.3832E-15  0.1050E+01
     19.101  0.0000E+00  0.1050E+01
     19.197  0.2586E-15  0.1050E+01
     19.294  0.4614E-13  0.1050E+01
     19.390  0.5192E-11  0.1050E+01
     19.487  0.3694E-09  0.1050E+01
     19.584  0.1664E-07  0.1050E+01
     19.680  0.4748E-06  0.1050E+01
     19.777  0.8598E-05  0.1050E+01
     19.873  0.9893E-04  0.1050E+01
     19.970  0.7240E-03  0.1050E+01
     20.067  0.3376E-02  0.1050E+01
     20.163  0.1004E-01  0.1051E+01
     20.260  0.1915E-01  0.1053E+01
     20.356  0.2394E-01  0.1056E+01
     20.453  0.2182E-01  0.1058E+01
     20.549  0.2001E-01  0.1060E+01
     20.646  0.2280E-01  0.1062E+01
     20.743  0.2339E-01  0.1064E+01
     20.839  0.1669E-01  0.1066E+01
     20.936  0.7730E-02  0.1066E+01
     21.032  0.2290E-02  0.1067E+01
     21.129  0.4327E-03  0.1067E+01
     21.226  0.5205E-04  0.1067E+01
     21.322  0.3982E-05  0.1067E+01
     21.419  0.1935E-06  0.1067E+01
     21.515  0.5963E-08  0.1067E+01
     21.612  0.1164E-09  0.1067E+01
     21.708  0.1438E-11  0.1067E+01
     21.805  0.1123E-13  0.1067E+01
     21.902  0.5748E-16  0.1067E+01
     21.998  0.0000E+00  0.1067E+01
     22.095  0.0000E+00  0.1067E+01
     22.191  0.0000E+00  0.1067E+01
     22.288  0.0000E+00  0.1067E+01
     22.384  0.0000E+00  0.1067E+01
     22.481  0.0000E+00  0.1067E+01
     22.578  0.0000E+00  0.1067E+01
     22.674  0.0000E+00  0.1067E+01
