    2    2   15    1
  0.1529437E+02  0.3691622E-09  0.3691622E-09  0.3691622E-09  0.5000000E-15
  1.000000000000000E-004
  CAR 
 unknown system                          
      8     11      8
 
  0.1250000E+00  0.1250000E+00  0.1250000E+00  0.1250000E+00
    1       -2.486782   1.000000
    2        3.231831   1.000000
    3        8.087006   1.000000
    4        9.601750   0.010678
    5       11.248783   0.000000
    6       11.351122   0.000000
    7       14.436505   0.000000
    8       15.131380   0.000000
 
  0.3750000E+00  0.1250000E+00  0.1250000E+00  0.1250000E+00
    1        2.410815   1.000000
    2        2.931986   1.000000
    3        5.318263   1.000000
    4        5.573155   1.000000
    5       10.605986   0.000000
    6       12.382715   0.000000
    7       13.919048   0.000000
    8       14.552453   0.000000
 
 -0.1250000E+00  0.1250000E+00  0.1250000E+00  0.6250000E-01
    1       -4.241791   1.000000
    2        3.758316   1.000000
    3        5.181747   1.000000
    4        9.368317   0.257520
    5       12.509859   0.000000
    6       12.941303   0.000000
    7       17.694432   0.000000
    8       18.246980   0.000000
 
  0.3750000E+00  0.3750000E+00  0.1250000E+00  0.6250000E-01
    1       -0.296292   1.000000
    2       -0.296290   1.000000
    3        9.446636   0.114138
    4        9.446664   0.114101
    5       11.211314   0.000000
    6       11.211372   0.000000
    7       12.764947   0.000000
    8       12.764981   0.000000
 
 -0.3750000E+00  0.3750000E+00  0.1250000E+00  0.1250000E+00
    1       -2.764922   1.000000
    2        0.123927   1.000000
    3        6.091726   1.000000
    4        8.885671   0.997126
    5       11.797934   0.000000
    6       14.532978   0.000000
    7       17.781941   0.000000
    8       18.438034   0.000000
 
 -0.1250000E+00  0.3750000E+00  0.1250000E+00  0.1250000E+00
    1       -1.756347   1.000000
    2        3.275199   1.000000
    3        4.940421   1.000000
    4        8.828303   0.999231
    5        9.807837   0.000085
    6       13.897049   0.000000
    7       14.903651   0.000000
    8       15.550568   0.000000
 
 -0.3750000E+00 -0.3750000E+00  0.1250000E+00  0.1250000E+00
    1        0.384905   1.000000
    2        0.398466   1.000000
    3        6.373628   1.000000
    4        6.373807   1.000000
    5        8.321086   1.000000
    6       14.067464   0.000000
    7       16.816674   0.000000
    8       17.741479   0.000000
 
 -0.1250000E+00 -0.3750000E+00  0.1250000E+00  0.1250000E+00
    1        1.220540   1.000000
    2        4.087693   1.000000
    3        6.156304   1.000000
    4        7.516370   1.000000
    5        8.482202   1.000000
    6       10.910173   0.000000
    7       11.340326   0.000000
    8       14.855447   0.000000
 
 -0.1250000E+00 -0.1250000E+00  0.1250000E+00  0.3125000E-01
    1       -3.224912   1.000000
    2        7.445884   1.000000
    3        7.470952   1.000000
    4        7.470978   1.000000
    5       12.069657   0.000000
    6       12.125830   0.000000
    7       12.509259   0.000000
    8       14.792273   0.000000
 
 -0.3750000E+00  0.3750000E+00  0.3750000E+00  0.6250000E-01
    1       -1.338799   1.000000
    2        0.836675   1.000000
    3        2.640039   1.000000
    4        4.777453   1.000000
    5       16.019523   0.000000
    6       16.667822   0.000000
    7       18.526840   0.000000
    8       20.027131   0.000000
 
 -0.3750000E+00 -0.3750000E+00  0.3750000E+00  0.3125000E-01
    1        1.803328   1.000000
    2        1.837627   1.000000
    3        3.611345   1.000000
    4        3.611352   1.000000
    5        7.632677   1.000000
    6       17.222801   0.000000
    7       18.408298   0.000000
    8       18.408328   0.000000
