       N       E                     dE             d eps       ncg     rms          rms(c)
DAV:   1    -0.503422518746E+01   -0.50342E+01   -0.17765E+03   184   0.299E+02
DAV:   2    -0.985810101870E+01   -0.48239E+01   -0.43968E+01   272   0.378E+01
DAV:   3    -0.988332844249E+01   -0.25227E-01   -0.25220E-01   208   0.347E+00
DAV:   4    -0.988334567537E+01   -0.17233E-04   -0.17233E-04   272   0.847E-02
DAV:   5    -0.988334567754E+01   -0.21654E-08   -0.29062E-08   184   0.617E-04    0.150E+00
DAV:   6    -0.987527023459E+01    0.80754E-02   -0.16793E-03   224   0.255E-01    0.934E-01
DAV:   7    -0.986895886457E+01    0.63114E-02   -0.48792E-03   184   0.452E-01    0.357E-02
DAV:   8    -0.986893423642E+01    0.24628E-04   -0.95227E-05    88   0.659E-02
   1 F= -.98689342E+01 E0= -.98619616E+01  d E =-.986893E+01
