<?xml version="1.0" encoding="ISO-8859-1"?>
<modeling>
 <generator>
  <i name="program" type="string">vasp </i>
  <i name="version" type="string">5.4.4.18Apr17-6-g9f103f2a35  </i>
  <i name="subversion" type="string">(build Dec 09 2018 21:25:21) complex            parallel </i>
  <i name="platform" type="string">IFC18.0.1.163_CrayMPICH7.7.0_MKL18.0.1.163 </i>
  <i name="date" type="string">2019 03 19 </i>
  <i name="time" type="string">13:03:09 </i>
 </generator>
 <incar>
  <i type="string" name="PREC">normal</i>
  <i type="int" name="IBRION">     2</i>
  <i name="EDIFF">      0.00040000</i>
  <i name="EDIFFG">     -0.01000000</i>
  <i type="int" name="NSW">    15</i>
  <i type="int" name="ISIF">     2</i>
  <i name="ENCUT">    150.00000000</i>
  <i type="int" name="NBANDS">     8</i>
  <i type="logical" name="LREAL"> F  </i>
  <i type="int" name="ISMEAR">     0</i>
  <i name="SIGMA">      0.20000000</i>
  <v type="int" name="KPOINT_BSE">    -1     0     0     0</v>
 </incar>
 <structure name="primitive_cell" >
  <crystal>
   <varray name="basis" >
    <v>      -2.45000000       2.45000000       1.27400000 </v>
    <v>       2.45000000      -2.45000000       1.27400000 </v>
    <v>       2.45000000       2.45000000      -1.27400000 </v>
   </varray>
   <i name="volume">     30.58874000 </i>
   <varray name="rec_basis" >
    <v>       0.00000000       0.20408163       0.39246468 </v>
    <v>       0.20408163       0.00000000       0.39246468 </v>
    <v>       0.20408163       0.20408163      -0.00000000 </v>
   </varray>
  </crystal>
  <varray name="positions" >
   <v>       0.25000000      -0.25000000      -0.50000000 </v>
   <v>       0.00000000       0.00000000       0.00000000 </v>
  </varray>
 </structure>
 <varray name="primitive_index" >
  <v type="int" >        1 </v>
  <v type="int" >        2 </v>
 </varray>
 <kpoints>
  <generation param="Monkhorst-Pack">
   <v type="int" name="divisions">       4        4        4 </v>
   <v name="usershift">      0.00000000       0.00000000       0.00000000 </v>
   <v name="genvec1">      0.25000000       0.00000000      -0.00000000 </v>
   <v name="genvec2">      0.00000000       0.25000000      -0.00000000 </v>
   <v name="genvec3">      0.00000000      -0.00000000       0.25000000 </v>
   <v name="shift">      0.50000000       0.50000000       0.50000000 </v>
  </generation>
  <varray name="kpointlist" >
   <v>       0.12500000       0.12500000       0.12500000 </v>
   <v>       0.37500000       0.12500000       0.12500000 </v>
   <v>      -0.12500000       0.12500000       0.12500000 </v>
   <v>       0.37500000       0.37500000       0.12500000 </v>
   <v>      -0.37500000       0.37500000       0.12500000 </v>
   <v>      -0.12500000       0.37500000       0.12500000 </v>
   <v>      -0.37500000      -0.37500000       0.12500000 </v>
   <v>      -0.12500000      -0.37500000       0.12500000 </v>
   <v>      -0.12500000      -0.12500000       0.12500000 </v>
   <v>      -0.37500000       0.37500000       0.37500000 </v>
   <v>      -0.37500000      -0.37500000       0.37500000 </v>
  </varray>
  <varray name="weights" >
   <v>       0.12500000 </v>
   <v>       0.12500000 </v>
   <v>       0.06250000 </v>
   <v>       0.06250000 </v>
   <v>       0.12500000 </v>
   <v>       0.12500000 </v>
   <v>       0.12500000 </v>
   <v>       0.12500000 </v>
   <v>       0.03125000 </v>
   <v>       0.06250000 </v>
   <v>       0.03125000 </v>
  </varray>
 </kpoints>
 <parameters>
  <separator name="general" >
   <i type="string" name="SYSTEM">unknown system</i>
   <i type="logical" name="LCOMPAT"> F  </i>
  </separator>
  <separator name="electronic" >
   <i type="string" name="PREC">normal</i>
   <i name="ENMAX">    150.00000000</i>
   <i name="ENAUG">    322.06900000</i>
   <i name="EDIFF">      0.00040000</i>
   <i type="int" name="IALGO">    38</i>
   <i type="int" name="IWAVPR">    11</i>
   <i type="int" name="NBANDS">     8</i>
   <i name="NELECT">      8.00000000</i>
   <i type="int" name="TURBO">     0</i>
   <i type="int" name="IRESTART">     0</i>
   <i type="int" name="NREBOOT">     0</i>
   <i type="int" name="NMIN">     0</i>
   <i name="EREF">      0.00000000</i>
   <separator name="electronic smearing" >
    <i type="int" name="ISMEAR">     0</i>
    <i name="SIGMA">      0.20000000</i>
    <i name="KSPACING">      0.50000000</i>
    <i type="logical" name="KGAMMA"> T  </i>
   </separator>
   <separator name="electronic projectors" >
    <i type="logical" name="LREAL"> F  </i>
    <v name="ROPT">      0.00000000</v>
    <i type="int" name="LMAXPAW">  -100</i>
    <i type="int" name="LMAXMIX">     2</i>
    <i type="logical" name="NLSPLINE"> F  </i>
   </separator>
   <separator name="electronic startup" >
    <i type="int" name="ISTART">     1</i>
    <i type="int" name="ICHARG">     0</i>
    <i type="int" name="INIWAV">     1</i>
   </separator>
   <separator name="electronic spin" >
    <i type="int" name="ISPIN">     1</i>
    <i type="logical" name="LNONCOLLINEAR"> F  </i>
    <v name="MAGMOM">      1.00000000      1.00000000</v>
    <i name="NUPDOWN">     -1.00000000</i>
    <i type="logical" name="LSORBIT"> F  </i>
    <v name="SAXIS">      0.00000000      0.00000000      1.00000000</v>
    <i type="logical" name="LSPIRAL"> F  </i>
    <v name="QSPIRAL">      0.00000000      0.00000000      0.00000000</v>
    <i type="logical" name="LZEROZ"> F  </i>
   </separator>
   <separator name="electronic exchange-correlation" >
    <i type="logical" name="LASPH"> F  </i>
    <i type="logical" name="LMETAGGA"> F  </i>
   </separator>
   <separator name="electronic convergence" >
    <i type="int" name="NELM">    60</i>
    <i type="int" name="NELMDL">     0</i>
    <i type="int" name="NELMIN">     2</i>
    <i name="ENINI">    150.00000000</i>
    <separator name="electronic convergence detail" >
     <i type="logical" name="LDIAG"> T  </i>
     <i type="logical" name="LSUBROT"> F  </i>
     <i name="WEIMIN">      0.00100000</i>
     <i name="EBREAK">      0.00001250</i>
     <i name="DEPER">      0.30000000</i>
     <i type="int" name="NRMM">     4</i>
     <i name="TIME">      0.40000000</i>
    </separator>
   </separator>
   <separator name="electronic mixer" >
    <i name="AMIX">      0.40000000</i>
    <i name="BMIX">      1.00000000</i>
    <i name="AMIN">      0.10000000</i>
    <i name="AMIX_MAG">      1.60000000</i>
    <i name="BMIX_MAG">      1.00000000</i>
    <separator name="electronic mixer details" >
     <i type="int" name="IMIX">     4</i>
     <i type="logical" name="MIXFIRST"> F  </i>
     <i type="int" name="MAXMIX">   -45</i>
     <i name="WC">    100.00000000</i>
     <i type="int" name="INIMIX">     1</i>
     <i type="int" name="MIXPRE">     1</i>
     <i type="int" name="MREMOVE">     5</i>
    </separator>
   </separator>
   <separator name="electronic dipolcorrection" >
    <i type="logical" name="LDIPOL"> F  </i>
    <i type="logical" name="LMONO"> F  </i>
    <i type="int" name="IDIPOL">     0</i>
    <i name="EPSILON">      1.00000000</i>
    <v name="DIPOL">   -100.00000000   -100.00000000   -100.00000000</v>
    <i name="EFIELD">      0.00000000</i>
   </separator>
  </separator>
  <separator name="grids" >
   <i type="int" name="NGX">    12</i>
   <i type="int" name="NGY">    12</i>
   <i type="int" name="NGZ">    12</i>
   <i type="int" name="NGXF">    24</i>
   <i type="int" name="NGYF">    24</i>
   <i type="int" name="NGZF">    24</i>
   <i type="logical" name="ADDGRID"> F  </i>
  </separator>
  <separator name="ionic" >
   <i type="int" name="NSW">    15</i>
   <i type="int" name="IBRION">     2</i>
   <i type="int" name="MDALGO">     0</i>
   <i type="int" name="ISIF">     2</i>
   <i name="PSTRESS">      0.00000000</i>
   <i name="EDIFFG">     -0.01000000</i>
   <i type="int" name="NFREE">     1</i>
   <i name="POTIM">      0.50000000</i>
   <i name="SMASS">     -3.00000000</i>
   <i name="SCALEE">      1.00000000</i>
  </separator>
  <separator name="ionic md" >
   <i name="TEBEG">      0.00010000</i>
   <i name="TEEND">      0.00010000</i>
   <i type="int" name="NBLOCK">     1</i>
   <i type="int" name="KBLOCK">    15</i>
   <i type="int" name="NPACO">   256</i>
   <i name="APACO">     16.00000000</i>
  </separator>
  <separator name="symmetry" >
   <i type="int" name="ISYM">     2</i>
   <i name="SYMPREC">      0.00001000</i>
  </separator>
  <separator name="dos" >
   <i type="int" name="LORBIT">     0</i>
   <v name="RWIGS">     -1.00000000</v>
   <i type="int" name="NEDOS">   301</i>
   <i name="EMIN">     10.00000000</i>
   <i name="EMAX">    -10.00000000</i>
   <i name="EFERMI">      0.00000000</i>
  </separator>
  <separator name="writing" >
   <i type="int" name="NWRITE">     2</i>
   <i type="logical" name="LWAVE"> T  </i>
   <i type="logical" name="LDOWNSAMPLE"> F  </i>
   <i type="logical" name="LCHARG"> T  </i>
   <i type="logical" name="LPARD"> F  </i>
   <i type="logical" name="LVTOT"> F  </i>
   <i type="logical" name="LVHAR"> F  </i>
   <i type="logical" name="LELF"> F  </i>
   <i type="logical" name="LOPTICS"> F  </i>
   <v name="STM">      0.00000000      0.00000000      0.00000000      0.00000000      0.00000000      0.00000000      0.00000000</v>
  </separator>
  <separator name="performance" >
   <i type="int" name="NPAR">     8</i>
   <i type="int" name="NSIM">     4</i>
   <i type="int" name="NBLK">    -1</i>
   <i type="logical" name="LPLANE"> T  </i>
   <i type="logical" name="LSCALAPACK"> T  </i>
   <i type="logical" name="LSCAAWARE"> F  </i>
   <i type="logical" name="LSCALU"> F  </i>
   <i type="logical" name="LASYNC"> F  </i>
   <i type="logical" name="LORBITALREAL"> F  </i>
  </separator>
  <separator name="miscellaneous" >
   <i type="int" name="IDIOT">     3</i>
   <i type="int" name="ISPECIAL">     0</i>
   <i type="logical" name="LMUSIC"> F  </i>
   <v name="POMASS">     28.08500000</v>
   <v name="DARWINR">      0.00000000</v>
   <v name="DARWINV">      1.00000000</v>
   <i type="logical" name="LCORR"> T  </i>
  </separator>
  <i type="logical" name="GGA_COMPAT"> T  </i>
  <i type="logical" name="LBERRY"> F  </i>
  <i type="int" name="ICORELEVEL">     0</i>
  <i type="logical" name="LDAU"> F  </i>
  <i type="int" name="I_CONSTRAINED_M">     0</i>
  <separator name="electronic exchange-correlation" >
   <i type="string" name="GGA">--</i>
   <i type="int" name="VOSKOWN">     0</i>
   <i type="logical" name="LHFCALC"> F  </i>
   <i type="string" name="PRECFOCK"></i>
   <i type="logical" name="LSYMGRAD"> F  </i>
   <i type="logical" name="LHFONE"> F  </i>
   <i type="logical" name="LRHFCALC"> F  </i>
   <i type="logical" name="LTHOMAS"> F  </i>
   <i type="logical" name="LMODELHF"> F  </i>
   <i name="ENCUT4O">     -1.00000000</i>
   <i type="int" name="EXXOEP">     0</i>
   <i type="int" name="FOURORBIT">     0</i>
   <i name="AEXX">      0.00000000</i>
   <i name="HFALPHA">      0.00000000</i>
   <i name="MCALPHA">      0.00000000</i>
   <i name="ALDAX">      1.00000000</i>
   <i name="AGGAX">      1.00000000</i>
   <i name="ALDAC">      1.00000000</i>
   <i name="AGGAC">      1.00000000</i>
   <i type="int" name="NKREDX">     1</i>
   <i type="int" name="NKREDY">     1</i>
   <i type="int" name="NKREDZ">     1</i>
   <i type="logical" name="SHIFTRED"> F  </i>
   <i type="logical" name="ODDONLY"> F  </i>
   <i type="logical" name="EVENONLY"> F  </i>
   <i type="int" name="LMAXFOCK">     0</i>
   <i type="int" name="NMAXFOCKAE">     0</i>
   <i type="logical" name="LFOCKAEDFT"> F  </i>
   <i name="HFSCREEN">      0.00000000</i>
   <i name="HFSCREENC">      0.00000000</i>
   <i type="int" name="NBANDSGWLOW">     0</i>
  </separator>
  <separator name="vdW DFT" >
   <i type="logical" name="LUSE_VDW"> F  </i>
   <i name="Zab_VDW">     -0.84910000</i>
   <i name="PARAM1">      0.12340000</i>
   <i name="PARAM2">      1.00000000</i>
   <i name="PARAM3">      0.00000000</i>
  </separator>
  <separator name="model GW" >
   <i type="int" name="MODEL_GW">     0</i>
   <i name="MODEL_EPS0">      9.17662200</i>
   <i name="MODEL_ALPHA">      1.00000000</i>
  </separator>
  <separator name="linear response parameters" >
   <i type="logical" name="LEPSILON"> F  </i>
   <i type="logical" name="LRPA"> F  </i>
   <i type="logical" name="LNABLA"> F  </i>
   <i type="logical" name="LVEL"> F  </i>
   <i type="int" name="KINTER">     0</i>
   <i name="CSHIFT">      0.10000000</i>
   <i name="OMEGAMAX">     -1.00000000</i>
   <i name="DEG_THRESHOLD">      0.00200000</i>
   <i name="RTIME">     -0.10000000</i>
   <i name="WPLASMAI">      0.00000000</i>
   <v name="DFIELD">      0.00000000      0.00000000      0.00000000</v>
   <v name="WPLASMA">      0.00000000      0.00000000      0.00000000      0.00000000      0.00000000      0.00000000      0.00000000      0.00000000      0.00000000</v>
  </separator>
  <separator name="orbital magnetization" >
   <i type="logical" name="NUCIND"> F  </i>
   <v name="MAGPOS">      0.00000000      0.00000000      0.00000000</v>
   <i type="logical" name="LNICSALL"> T  </i>
   <i type="logical" name="ORBITALMAG"> F  </i>
   <i type="logical" name="LMAGBLOCH"> F  </i>
   <i type="logical" name="LCHIMAG"> F  </i>
   <i type="logical" name="LGAUGE"> T  </i>
   <i type="int" name="MAGATOM">     0</i>
   <v name="MAGDIPOL">      0.00000000      0.00000000      0.00000000</v>
   <v name="AVECCONST">      0.00000000      0.00000000      0.00000000</v>
  </separator>
  <separator name="response functions" >
   <i type="logical" name="LADDER"> F  </i>
   <i type="logical" name="LRPAFORCE"> F  </i>
   <i type="logical" name="LFXC"> F  </i>
   <i type="logical" name="LHARTREE"> T  </i>
   <i type="int" name="IBSE">     0</i>
   <v type="int" name="KPOINT">    -1     0     0     0</v>
   <i type="logical" name="LTCTE"> F  </i>
   <i type="logical" name="LTETE"> F  </i>
   <i type="logical" name="LTRIPLET"> F  </i>
   <i type="logical" name="LFXCEPS"> F  </i>
   <i type="logical" name="LFXHEG"> F  </i>
   <i type="int" name="NATURALO">     2</i>
   <i type="logical" name="L2ORDER"> F  </i>
   <i type="logical" name="LMP2LT"> F  </i>
   <i type="logical" name="LUSEW"> F  </i>
   <i name="ENCUTGW">     -2.00000000</i>
   <i name="ENCUTGWSOFT">     -2.00000000</i>
   <i name="ENCUTLF">     -1.00000000</i>
   <i type="int" name="LMAXMP2">    -1</i>
   <i name="SCISSOR">      0.00000000</i>
   <i type="int" name="NOMEGA">     0</i>
   <i type="int" name="NOMEGAR">     0</i>
   <i type="int" name="NBANDSGW">    -1</i>
   <i type="int" name="NBANDSO">    -1</i>
   <i type="int" name="NBANDSV">    -1</i>
   <i type="int" name="NELM">     1</i>
   <i type="int" name="NELMHF">     1</i>
   <i type="int" name="DIM">     3</i>
   <i type="int" name="ANTIRES">     0</i>
   <i name="OMEGAMAX">    -30.00000000</i>
   <i name="OMEGAMIN">    -30.00000000</i>
   <i name="OMEGATL">   -200.00000000</i>
   <i type="int" name="OMEGAGRID">   140</i>
   <i name="CSHIFT">     -0.10000000</i>
   <i type="logical" name="SELFENERGY"> F  </i>
   <i type="logical" name="LSPECTRAL"> F  </i>
   <i type="logical" name="LSPECTRALGW"> F  </i>
   <i type="logical" name="LSINGLES"> F  </i>
   <i type="logical" name="LFERMIGW"> F  </i>
   <i type="logical" name="ODDONLYGW"> F  </i>
   <i type="logical" name="EVENONLYGW"> F  </i>
   <i type="int" name="NKREDLFX">     1</i>
   <i type="int" name="NKREDLFY">     1</i>
   <i type="int" name="NKREDLFZ">     1</i>
   <i type="int" name="MAXMEM">  2800</i>
   <i type="int" name="TELESCOPE">     0</i>
   <i type="int" name="TAUPAR">     1</i>
   <i type="int" name="OMEGAPAR">    -1</i>
   <i name="LAMBDA">      1.00000000</i>
  </separator>
  <separator name="External order field" >
   <i name="OFIELD_KAPPA">      0.00000000</i>
   <v name="OFIELD_K">      0.00000000      0.00000000      0.00000000</v>
   <i name="OFIELD_Q6_NEAR">      0.00000000</i>
   <i name="OFIELD_Q6_FAR">      0.00000000</i>
   <i name="OFIELD_A">      0.00000000</i>
  </separator>
 </parameters>
 <atominfo>
  <atoms>       2 </atoms>
  <types>       1 </types>
  <array name="atoms" >
   <dimension dim="1">ion</dimension>
   <field type="string">element</field>
   <field type="int">atomtype</field>
   <set>
    <rc><c>Si</c><c>   1</c></rc>
    <rc><c>Si</c><c>   1</c></rc>
   </set>
  </array>
  <array name="atomtypes" >
   <dimension dim="1">type</dimension>
   <field type="int">atomspertype</field>
   <field type="string">element</field>
   <field>mass</field>
   <field>valence</field>
   <field type="string">pseudopotential</field>
   <set>
    <rc><c>   2</c><c>Si</c><c>     28.08500000</c><c>      4.00000000</c><c> PAW_PBE Si 05Jan2001                   </c></rc>
   </set>
  </array>
 </atominfo>
 <structure name="initialpos" >
  <crystal>
   <varray name="basis" >
    <v>      -2.45000000       2.45000000       1.27400000 </v>
    <v>       2.45000000      -2.45000000       1.27400000 </v>
    <v>       2.45000000       2.45000000      -1.27400000 </v>
   </varray>
   <i name="volume">     30.58874000 </i>
   <varray name="rec_basis" >
    <v>       0.00000000       0.20408163       0.39246468 </v>
    <v>       0.20408163       0.00000000       0.39246468 </v>
    <v>       0.20408163       0.20408163      -0.00000000 </v>
   </varray>
  </crystal>
  <varray name="positions" >
   <v>       0.25000000       0.75000000       0.50000000 </v>
   <v>       0.00000000       0.00000000       0.00000000 </v>
  </varray>
 </structure>
 <calculation>
  <scstep>
   <time name="dav">    0.05    0.05</time>
   <time name="total">    0.09    0.11</time>
   <energy>
    <i name="alphaZ">      4.40202223 </i>
    <i name="ewald">   -265.18101312 </i>
    <i name="hartreedc">     -2.52769795 </i>
    <i name="XCdc">    -17.53589146 </i>
    <i name="pawpsdc">     72.39004520 </i>
    <i name="pawaedc">    -37.31767666 </i>
    <i name="eentropy">     -0.01394460 </i>
    <i name="bandstr">     29.82338526 </i>
    <i name="atom">    206.09183643 </i>
    <i name="e_fr_energy">     -9.86893467 </i>
    <i name="e_wo_entrp">     -9.85499006 </i>
    <i name="e_0_energy">     -9.86196237 </i>
   </energy>
  </scstep>
  <scstep>
   <time name="dav">    0.04    0.04</time>
   <time name="total">    0.07    0.08</time>
   <energy>
    <i name="alphaZ">      4.40202223 </i>
    <i name="ewald">   -265.18101312 </i>
    <i name="hartreedc">     -2.52787819 </i>
    <i name="XCdc">    -17.53585360 </i>
    <i name="pawpsdc">     72.39059383 </i>
    <i name="pawaedc">    -37.31823049 </i>
    <i name="eentropy">     -0.01394462 </i>
    <i name="bandstr">     29.82353281 </i>
    <i name="atom">    206.09183643 </i>
    <i name="e_fr_energy">     -9.86893471 </i>
    <i name="e_wo_entrp">     -9.85499009 </i>
    <i name="e_0_energy">     -9.86196240 </i>
   </energy>
  </scstep>
  <structure>
   <crystal>
    <varray name="basis" >
     <v>      -2.45000000       2.45000000       1.27400000 </v>
     <v>       2.45000000      -2.45000000       1.27400000 </v>
     <v>       2.45000000       2.45000000      -1.27400000 </v>
    </varray>
    <i name="volume">     30.58874000 </i>
    <varray name="rec_basis" >
     <v>       0.00000000       0.20408163       0.39246468 </v>
     <v>       0.20408163       0.00000000       0.39246468 </v>
     <v>       0.20408163       0.20408163      -0.00000000 </v>
    </varray>
   </crystal>
   <varray name="positions" >
    <v>       0.25000000       0.75000000       0.50000000 </v>
    <v>       0.00000000       0.00000000       0.00000000 </v>
   </varray>
  </structure>
  <varray name="forces" >
   <v>       0.00000000      -0.00000000      -0.00000000 </v>
   <v>      -0.00000000       0.00000000       0.00000000 </v>
  </varray>
  <varray name="stress" >
   <v>     -52.25611382       0.00000000       0.00000000 </v>
   <v>       0.00000000     -52.25611382      -0.00000000 </v>
   <v>       0.00000000       0.00000000     163.80324108 </v>
  </varray>
  <energy>
   <i name="e_fr_energy">     -9.86893471 </i>
   <i name="e_wo_entrp">     -9.86196240 </i>
   <i name="e_0_energy">     -0.01394462 </i>
  </energy>
  <time name="totalsc">    0.59    0.90</time>
  <eigenvalues>
   <array>
    <dimension dim="1">band</dimension>
    <dimension dim="2">kpoint</dimension>
    <dimension dim="3">spin</dimension>
    <field>eigene</field>
    <field>occ</field>
    <set>
     <set comment="spin 1">
      <set comment="kpoint 1">
       <r>   -2.4865    1.0000 </r>
       <r>    3.2320    1.0000 </r>
       <r>    8.0873    1.0000 </r>
       <r>    9.6019    0.0107 </r>
       <r>   11.2489    0.0000 </r>
       <r>   11.3515    0.0000 </r>
       <r>   14.4368    0.0000 </r>
       <r>   15.1317    0.0000 </r>
      </set>
      <set comment="kpoint 2">
       <r>    2.4112    1.0000 </r>
       <r>    2.9322    1.0000 </r>
       <r>    5.3186    1.0000 </r>
       <r>    5.5733    1.0000 </r>
       <r>   10.6063    0.0000 </r>
       <r>   12.3830    0.0000 </r>
       <r>   13.9193    0.0000 </r>
       <r>   14.5528    0.0000 </r>
      </set>
      <set comment="kpoint 3">
       <r>   -4.2415    1.0000 </r>
       <r>    3.7584    1.0000 </r>
       <r>    5.1821    1.0000 </r>
       <r>    9.3684    0.2577 </r>
       <r>   12.5105    0.0000 </r>
       <r>   12.9416    0.0000 </r>
       <r>   17.6946    0.0000 </r>
       <r>   18.2472    0.0000 </r>
      </set>
      <set comment="kpoint 4">
       <r>   -0.2960    1.0000 </r>
       <r>   -0.2960    1.0000 </r>
       <r>    9.4469    0.1140 </r>
       <r>    9.4469    0.1140 </r>
       <r>   11.2115    0.0000 </r>
       <r>   11.2115    0.0000 </r>
       <r>   12.7653    0.0000 </r>
       <r>   12.7653    0.0000 </r>
      </set>
      <set comment="kpoint 5">
       <r>   -2.7647    1.0000 </r>
       <r>    0.1242    1.0000 </r>
       <r>    6.0920    1.0000 </r>
       <r>    8.8860    0.9971 </r>
       <r>   11.7982    0.0000 </r>
       <r>   14.5332    0.0000 </r>
       <r>   17.7823    0.0000 </r>
       <r>   18.4382    0.0000 </r>
      </set>
      <set comment="kpoint 6">
       <r>   -1.7561    1.0000 </r>
       <r>    3.2753    1.0000 </r>
       <r>    4.9409    1.0000 </r>
       <r>    8.8286    0.9992 </r>
       <r>    9.8081    0.0001 </r>
       <r>   13.8971    0.0000 </r>
       <r>   14.9039    0.0000 </r>
       <r>   15.5510    0.0000 </r>
      </set>
      <set comment="kpoint 7">
       <r>    0.3851    1.0000 </r>
       <r>    0.3987    1.0000 </r>
       <r>    6.3739    1.0000 </r>
       <r>    6.3742    1.0000 </r>
       <r>    8.3213    1.0000 </r>
       <r>   14.0677    0.0000 </r>
       <r>   16.8169    0.0000 </r>
       <r>   17.7417    0.0000 </r>
      </set>
      <set comment="kpoint 8">
       <r>    1.2208    1.0000 </r>
       <r>    4.0879    1.0000 </r>
       <r>    6.1564    1.0000 </r>
       <r>    7.5168    1.0000 </r>
       <r>    8.4824    1.0000 </r>
       <r>   10.9104    0.0000 </r>
       <r>   11.3407    0.0000 </r>
       <r>   14.8556    0.0000 </r>
      </set>
      <set comment="kpoint 9">
       <r>   -3.2246    1.0000 </r>
       <r>    7.4458    1.0000 </r>
       <r>    7.4712    1.0000 </r>
       <r>    7.4713    1.0000 </r>
       <r>   12.0704    0.0000 </r>
       <r>   12.1259    0.0000 </r>
       <r>   12.5095    0.0000 </r>
       <r>   14.7926    0.0000 </r>
      </set>
      <set comment="kpoint 10">
       <r>   -1.3386    1.0000 </r>
       <r>    0.8368    1.0000 </r>
       <r>    2.6405    1.0000 </r>
       <r>    4.7778    1.0000 </r>
       <r>   16.0197    0.0000 </r>
       <r>   16.6680    0.0000 </r>
       <r>   18.5270    0.0000 </r>
       <r>   20.0273    0.0000 </r>
      </set>
      <set comment="kpoint 11">
       <r>    1.8035    1.0000 </r>
       <r>    1.8377    1.0000 </r>
       <r>    3.6118    1.0000 </r>
       <r>    3.6118    1.0000 </r>
       <r>    7.6329    1.0000 </r>
       <r>   17.2228    0.0000 </r>
       <r>   18.4086    0.0000 </r>
       <r>   18.4086    0.0000 </r>
      </set>
     </set>
    </set>
   </array>
  </eigenvalues>
  <separator name="orbital magnetization" >
   <v name="MAGDIPOLOUT">      0.00000000      0.00000000      0.00000000</v>
  </separator>
  <dos>
   <i name="efermi">      9.27645361 </i>
   <total>
    <array>
     <dimension dim="1">gridpoints</dimension>
     <dimension dim="2">spin</dimension>
     <field>energy</field>
     <field>total</field>
     <field>integrated</field>
     <set>
      <set comment="spin 1">
       <r>    -6.2415     0.0000     0.0000 </r>
       <r>    -6.1473     0.0000     0.0000 </r>
       <r>    -6.0531     0.0000     0.0000 </r>
       <r>    -5.9588     0.0000     0.0000 </r>
       <r>    -5.8646     0.0000     0.0000 </r>
       <r>    -5.7704     0.0000     0.0000 </r>
       <r>    -5.6761     0.0000     0.0000 </r>
       <r>    -5.5819     0.0000     0.0000 </r>
       <r>    -5.4877     0.0000     0.0000 </r>
       <r>    -5.3935     0.0000     0.0000 </r>
       <r>    -5.2992     0.0000     0.0000 </r>
       <r>    -5.2050     0.0000     0.0000 </r>
       <r>    -5.1108     0.0000     0.0000 </r>
       <r>    -5.0165     0.0000     0.0000 </r>
       <r>    -4.9223     0.0000     0.0000 </r>
       <r>    -4.8281     0.0000     0.0000 </r>
       <r>    -4.7339     0.0003     0.0000 </r>
       <r>    -4.6396     0.0029     0.0003 </r>
       <r>    -4.5454     0.0178     0.0020 </r>
       <r>    -4.4512     0.0707     0.0086 </r>
       <r>    -4.3569     0.1832     0.0259 </r>
       <r>    -4.2627     0.3094     0.0551 </r>
       <r>    -4.1685     0.3406     0.0872 </r>
       <r>    -4.0742     0.2445     0.1102 </r>
       <r>    -3.9800     0.1144     0.1210 </r>
       <r>    -3.8858     0.0349     0.1243 </r>
       <r>    -3.7916     0.0069     0.1249 </r>
       <r>    -3.6973     0.0011     0.1250 </r>
       <r>    -3.6031     0.0023     0.1252 </r>
       <r>    -3.5089     0.0123     0.1264 </r>
       <r>    -3.4146     0.0447     0.1306 </r>
       <r>    -3.3204     0.1060     0.1406 </r>
       <r>    -3.2262     0.1649     0.1561 </r>
       <r>    -3.1319     0.1757     0.1727 </r>
       <r>    -3.0377     0.1667     0.1884 </r>
       <r>    -2.9435     0.2501     0.2119 </r>
       <r>    -2.8493     0.4808     0.2573 </r>
       <r>    -2.7550     0.7344     0.3265 </r>
       <r>    -2.6608     0.8535     0.4069 </r>
       <r>    -2.5666     0.8688     0.4888 </r>
       <r>    -2.4723     0.8371     0.5676 </r>
       <r>    -2.3781     0.6756     0.6313 </r>
       <r>    -2.2839     0.3943     0.6685 </r>
       <r>    -2.1897     0.1575     0.6833 </r>
       <r>    -2.0954     0.0589     0.6888 </r>
       <r>    -2.0012     0.0952     0.6978 </r>
       <r>    -1.9070     0.2700     0.7233 </r>
       <r>    -1.8127     0.5348     0.7736 </r>
       <r>    -1.7185     0.6952     0.8391 </r>
       <r>    -1.6243     0.6065     0.8963 </r>
       <r>    -1.5300     0.4080     0.9347 </r>
       <r>    -1.4358     0.3242     0.9653 </r>
       <r>    -1.3416     0.3526     0.9985 </r>
       <r>    -1.2474     0.3344     1.0300 </r>
       <r>    -1.1531     0.2187     1.0506 </r>
       <r>    -1.0589     0.0941     1.0595 </r>
       <r>    -0.9647     0.0264     1.0620 </r>
       <r>    -0.8704     0.0049     1.0624 </r>
       <r>    -0.7762     0.0014     1.0626 </r>
       <r>    -0.6820     0.0076     1.0633 </r>
       <r>    -0.5878     0.0435     1.0674 </r>
       <r>    -0.4935     0.1638     1.0828 </r>
       <r>    -0.3993     0.4019     1.1207 </r>
       <r>    -0.3051     0.6447     1.1814 </r>
       <r>    -0.2108     0.6892     1.2464 </r>
       <r>    -0.1166     0.5489     1.2981 </r>
       <r>    -0.0224     0.4898     1.3443 </r>
       <r>     0.0719     0.6577     1.4062 </r>
       <r>     0.1661     0.9334     1.4942 </r>
       <r>     0.2603     1.2152     1.6087 </r>
       <r>     0.3545     1.4739     1.7476 </r>
       <r>     0.4488     1.4920     1.8882 </r>
       <r>     0.5430     1.1125     1.9930 </r>
       <r>     0.6372     0.6216     2.0516 </r>
       <r>     0.7315     0.3757     2.0870 </r>
       <r>     0.8257     0.3632     2.1212 </r>
       <r>     0.9199     0.3782     2.1568 </r>
       <r>     1.0142     0.3772     2.1924 </r>
       <r>     1.1084     0.4778     2.2374 </r>
       <r>     1.2026     0.6547     2.2991 </r>
       <r>     1.2968     0.6844     2.3636 </r>
       <r>     1.3911     0.4828     2.4091 </r>
       <r>     1.4853     0.2325     2.4310 </r>
       <r>     1.5795     0.1145     2.4418 </r>
       <r>     1.6738     0.1537     2.4562 </r>
       <r>     1.7680     0.2731     2.4820 </r>
       <r>     1.8622     0.3438     2.5144 </r>
       <r>     1.9564     0.2867     2.5414 </r>
       <r>     2.0507     0.1678     2.5572 </r>
       <r>     2.1449     0.1206     2.5686 </r>
       <r>     2.2391     0.2333     2.5906 </r>
       <r>     2.3334     0.4943     2.6371 </r>
       <r>     2.4276     0.7454     2.7074 </r>
       <r>     2.5218     0.8112     2.7838 </r>
       <r>     2.6161     0.7149     2.8512 </r>
       <r>     2.7103     0.6132     2.9090 </r>
       <r>     2.8045     0.6233     2.9677 </r>
       <r>     2.8987     0.7472     3.0381 </r>
       <r>     2.9930     0.8733     3.1204 </r>
       <r>     3.0872     0.9980     3.2144 </r>
       <r>     3.1814     1.2401     3.3313 </r>
       <r>     3.2757     1.4429     3.4673 </r>
       <r>     3.3699     1.2910     3.5889 </r>
       <r>     3.4641     0.8925     3.6730 </r>
       <r>     3.5583     0.6381     3.7331 </r>
       <r>     3.6526     0.6195     3.7915 </r>
       <r>     3.7468     0.6368     3.8515 </r>
       <r>     3.8410     0.5792     3.9061 </r>
       <r>     3.9353     0.5506     3.9580 </r>
       <r>     4.0295     0.6455     4.0188 </r>
       <r>     4.1237     0.7223     4.0869 </r>
       <r>     4.2180     0.5927     4.1427 </r>
       <r>     4.3122     0.3264     4.1735 </r>
       <r>     4.4064     0.1227     4.1850 </r>
       <r>     4.5006     0.0573     4.1904 </r>
       <r>     4.5949     0.1177     4.2015 </r>
       <r>     4.6891     0.3032     4.2301 </r>
       <r>     4.7833     0.5876     4.2854 </r>
       <r>     4.8776     0.8598     4.3665 </r>
       <r>     4.9718     0.9805     4.4589 </r>
       <r>     5.0660     0.9453     4.5479 </r>
       <r>     5.1603     0.9250     4.6351 </r>
       <r>     5.2545     1.0114     4.7304 </r>
       <r>     5.3487     1.0805     4.8322 </r>
       <r>     5.4429     1.0439     4.9306 </r>
       <r>     5.5372     0.9628     5.0213 </r>
       <r>     5.6314     0.8253     5.0991 </r>
       <r>     5.7256     0.5756     5.1533 </r>
       <r>     5.8199     0.3497     5.1863 </r>
       <r>     5.9141     0.3861     5.2227 </r>
       <r>     6.0083     0.7761     5.2958 </r>
       <r>     6.1025     1.3345     5.4215 </r>
       <r>     6.1968     1.7426     5.5857 </r>
       <r>     6.2910     1.8937     5.7642 </r>
       <r>     6.3852     1.8157     5.9353 </r>
       <r>     6.4795     1.4288     6.0699 </r>
       <r>     6.5737     0.8233     6.1475 </r>
       <r>     6.6679     0.3239     6.1780 </r>
       <r>     6.7622     0.0844     6.1860 </r>
       <r>     6.8564     0.0144     6.1873 </r>
       <r>     6.9506     0.0020     6.1875 </r>
       <r>     7.0448     0.0041     6.1879 </r>
       <r>     7.1391     0.0283     6.1906 </r>
       <r>     7.2333     0.1340     6.2032 </r>
       <r>     7.3275     0.4222     6.2430 </r>
       <r>     7.4218     0.8899     6.3268 </r>
       <r>     7.5160     1.2627     6.4458 </r>
       <r>     7.6102     1.2192     6.5607 </r>
       <r>     7.7044     0.8182     6.6378 </r>
       <r>     7.7987     0.4231     6.6777 </r>
       <r>     7.8929     0.2973     6.7057 </r>
       <r>     7.9871     0.4612     6.7492 </r>
       <r>     8.0814     0.7524     6.8200 </r>
       <r>     8.1756     0.9818     6.9126 </r>
       <r>     8.2698     1.1296     7.0190 </r>
       <r>     8.3641     1.2460     7.1364 </r>
       <r>     8.4583     1.2513     7.2543 </r>
       <r>     8.5525     1.0767     7.3558 </r>
       <r>     8.6467     0.8973     7.4403 </r>
       <r>     8.7410     0.9920     7.5338 </r>
       <r>     8.8352     1.2919     7.6555 </r>
       <r>     8.9294     1.3545     7.7832 </r>
       <r>     9.0237     0.9906     7.8765 </r>
       <r>     9.1179     0.5372     7.9271 </r>
       <r>     9.2121     0.3879     7.9637 </r>
       <r>     9.3063     0.6293     8.0230 </r>
       <r>     9.4006     1.0710     8.1239 </r>
       <r>     9.4948     1.4111     8.2569 </r>
       <r>     9.5890     1.4853     8.3968 </r>
       <r>     9.6833     1.3665     8.5256 </r>
       <r>     9.7775     1.1785     8.6366 </r>
       <r>     9.8717     0.9219     8.7235 </r>
       <r>     9.9660     0.5802     8.7782 </r>
       <r>    10.0602     0.2637     8.8030 </r>
       <r>    10.1544     0.0832     8.8109 </r>
       <r>    10.2486     0.0300     8.8137 </r>
       <r>    10.3429     0.0701     8.8203 </r>
       <r>    10.4371     0.2255     8.8415 </r>
       <r>    10.5313     0.4922     8.8879 </r>
       <r>    10.6256     0.7282     8.9566 </r>
       <r>    10.7198     0.8009     9.0320 </r>
       <r>    10.8140     0.8023     9.1076 </r>
       <r>    10.9083     0.8569     9.1884 </r>
       <r>    11.0025     0.9605     9.2789 </r>
       <r>    11.0967     1.2411     9.3958 </r>
       <r>    11.1909     1.8548     9.5706 </r>
       <r>    11.2852     2.4688     9.8032 </r>
       <r>    11.3794     2.4636    10.0354 </r>
       <r>    11.4736     1.7614    10.2014 </r>
       <r>    11.5679     0.9586    10.2917 </r>
       <r>    11.6621     0.5939    10.3476 </r>
       <r>    11.7563     0.6461    10.4085 </r>
       <r>    11.8505     0.7469    10.4789 </r>
       <r>    11.9448     0.6825    10.5432 </r>
       <r>    12.0390     0.5600    10.5960 </r>
       <r>    12.1332     0.5221    10.6452 </r>
       <r>    12.2275     0.6062    10.7023 </r>
       <r>    12.3217     0.8279    10.7803 </r>
       <r>    12.4159     1.0880    10.8828 </r>
       <r>    12.5102     1.1790    10.9939 </r>
       <r>    12.6044     1.0818    11.0959 </r>
       <r>    12.6986     0.9954    11.1897 </r>
       <r>    12.7928     0.9888    11.2829 </r>
       <r>    12.8871     0.9176    11.3693 </r>
       <r>    12.9813     0.7013    11.4354 </r>
       <r>    13.0755     0.4201    11.4750 </r>
       <r>    13.1698     0.1891    11.4928 </r>
       <r>    13.2640     0.0608    11.4985 </r>
       <r>    13.3582     0.0137    11.4998 </r>
       <r>    13.4524     0.0052    11.5003 </r>
       <r>    13.5467     0.0257    11.5027 </r>
       <r>    13.6409     0.1323    11.5152 </r>
       <r>    13.7351     0.4537    11.5580 </r>
       <r>    13.8294     1.0416    11.6561 </r>
       <r>    13.9236     1.6353    11.8102 </r>
       <r>    14.0178     1.8137    11.9811 </r>
       <r>    14.1121     1.4893    12.1214 </r>
       <r>    14.2063     1.0196    12.2175 </r>
       <r>    14.3005     0.8739    12.2999 </r>
       <r>    14.3947     1.2463    12.4173 </r>
       <r>    14.4890     1.8223    12.5890 </r>
       <r>    14.5832     2.0508    12.7823 </r>
       <r>    14.6774     1.8431    12.9559 </r>
       <r>    14.7717     1.6653    13.1129 </r>
       <r>    14.8659     1.7308    13.2759 </r>
       <r>    14.9601     1.7261    13.4386 </r>
       <r>    15.0544     1.4757    13.5777 </r>
       <r>    15.1486     1.1324    13.6844 </r>
       <r>    15.2428     0.7952    13.7593 </r>
       <r>    15.3370     0.5394    13.8101 </r>
       <r>    15.4313     0.5065    13.8578 </r>
       <r>    15.5255     0.6485    13.9190 </r>
       <r>    15.6197     0.6938    13.9843 </r>
       <r>    15.7140     0.5191    14.0333 </r>
       <r>    15.8082     0.3083    14.0623 </r>
       <r>    15.9024     0.2549    14.0863 </r>
       <r>    15.9966     0.3225    14.1167 </r>
       <r>    16.0909     0.3434    14.1491 </r>
       <r>    16.1851     0.2477    14.1724 </r>
       <r>    16.2793     0.1203    14.1837 </r>
       <r>    16.3736     0.0587    14.1893 </r>
       <r>    16.4678     0.1021    14.1989 </r>
       <r>    16.5620     0.2746    14.2248 </r>
       <r>    16.6563     0.5633    14.2779 </r>
       <r>    16.7505     0.8438    14.3574 </r>
       <r>    16.8447     0.9194    14.4440 </r>
       <r>    16.9389     0.7207    14.5119 </r>
       <r>    17.0332     0.4226    14.5517 </r>
       <r>    17.1274     0.2420    14.5745 </r>
       <r>    17.2216     0.1970    14.5931 </r>
       <r>    17.3159     0.1783    14.6099 </r>
       <r>    17.4101     0.1645    14.6254 </r>
       <r>    17.5043     0.2877    14.6525 </r>
       <r>    17.5985     0.7051    14.7190 </r>
       <r>    17.6928     1.3251    14.8438 </r>
       <r>    17.7870     1.6859    15.0027 </r>
       <r>    17.8812     1.4353    15.1379 </r>
       <r>    17.9755     0.8387    15.2170 </r>
       <r>    18.0697     0.4253    15.2570 </r>
       <r>    18.1639     0.4124    15.2959 </r>
       <r>    18.2582     0.7137    15.3631 </r>
       <r>    18.3524     1.1464    15.4712 </r>
       <r>    18.4466     1.4454    15.6074 </r>
       <r>    18.5408     1.3507    15.7346 </r>
       <r>    18.6351     0.9005    15.8195 </r>
       <r>    18.7293     0.4194    15.8590 </r>
       <r>    18.8235     0.1349    15.8717 </r>
       <r>    18.9178     0.0297    15.8745 </r>
       <r>    19.0120     0.0045    15.8750 </r>
       <r>    19.1062     0.0004    15.8750 </r>
       <r>    19.2005     0.0000    15.8750 </r>
       <r>    19.2947     0.0000    15.8750 </r>
       <r>    19.3889     0.0000    15.8750 </r>
       <r>    19.4831     0.0001    15.8750 </r>
       <r>    19.5774     0.0009    15.8751 </r>
       <r>    19.6716     0.0069    15.8757 </r>
       <r>    19.7658     0.0349    15.8790 </r>
       <r>    19.8601     0.1144    15.8898 </r>
       <r>    19.9543     0.2445    15.9128 </r>
       <r>    20.0485     0.3406    15.9449 </r>
       <r>    20.1427     0.3094    15.9741 </r>
       <r>    20.2370     0.1832    15.9914 </r>
       <r>    20.3312     0.0707    15.9980 </r>
       <r>    20.4254     0.0178    15.9997 </r>
       <r>    20.5197     0.0029    16.0000 </r>
       <r>    20.6139     0.0003    16.0000 </r>
       <r>    20.7081     0.0000    16.0000 </r>
       <r>    20.8024     0.0000    16.0000 </r>
       <r>    20.8966     0.0000    16.0000 </r>
       <r>    20.9908     0.0000    16.0000 </r>
       <r>    21.0850     0.0000    16.0000 </r>
       <r>    21.1793     0.0000    16.0000 </r>
       <r>    21.2735     0.0000    16.0000 </r>
       <r>    21.3677     0.0000    16.0000 </r>
       <r>    21.4620     0.0000    16.0000 </r>
       <r>    21.5562     0.0000    16.0000 </r>
       <r>    21.6504     0.0000    16.0000 </r>
       <r>    21.7446     0.0000    16.0000 </r>
       <r>    21.8389     0.0000    16.0000 </r>
       <r>    21.9331     0.0000    16.0000 </r>
       <r>    22.0273     0.0000    16.0000 </r>
      </set>
     </set>
    </array>
   </total>
  </dos>
 </calculation>
 <structure name="finalpos" >
  <crystal>
   <varray name="basis" >
    <v>      -2.45000000       2.45000000       1.27400000 </v>
    <v>       2.45000000      -2.45000000       1.27400000 </v>
    <v>       2.45000000       2.45000000      -1.27400000 </v>
   </varray>
   <i name="volume">     30.58874000 </i>
   <varray name="rec_basis" >
    <v>       0.00000000       0.20408163       0.39246468 </v>
    <v>       0.20408163       0.00000000       0.39246468 </v>
    <v>       0.20408163       0.20408163      -0.00000000 </v>
   </varray>
  </crystal>
  <varray name="positions" >
   <v>       0.25000000       0.75000000       0.50000000 </v>
   <v>       0.00000000       0.00000000       0.00000000 </v>
  </varray>
 </structure>
</modeling>
