<?xml version="1.0" encoding="ISO-8859-1"?>
<modeling>
 <generator>
  <i name="program" type="string">vasp </i>
  <i name="version" type="string">5.4.4.18Apr17-6-g9f103f2a35  </i>
  <i name="subversion" type="string">(build Dec 09 2018 21:25:21) complex            parallel </i>
  <i name="platform" type="string">IFC18.0.1.163_CrayMPICH7.7.0_MKL18.0.1.163 </i>
  <i name="date" type="string">2019 03 18 </i>
  <i name="time" type="string">04:28:24 </i>
 </generator>
 <incar>
  <i type="string" name="PREC">normal</i>
  <i type="int" name="IBRION">     2</i>
  <i name="EDIFF">      0.00040000</i>
  <i name="EDIFFG">     -0.01000000</i>
  <i type="int" name="NSW">    15</i>
  <i type="int" name="ISIF">     2</i>
  <i name="ENCUT">    150.00000000</i>
  <i type="int" name="NBANDS">     8</i>
  <i type="logical" name="LREAL"> F  </i>
  <i type="int" name="ISMEAR">     0</i>
  <i name="SIGMA">      0.20000000</i>
  <v type="int" name="KPOINT_BSE">    -1     0     0     0</v>
 </incar>
 <structure name="primitive_cell" >
  <crystal>
   <varray name="basis" >
    <v>      -2.45000000       2.45000000       1.27400000 </v>
    <v>       2.45000000      -2.45000000       1.27400000 </v>
    <v>       2.45000000       2.45000000      -1.27400000 </v>
   </varray>
   <i name="volume">     30.58874000 </i>
   <varray name="rec_basis" >
    <v>       0.00000000       0.20408163       0.39246468 </v>
    <v>       0.20408163       0.00000000       0.39246468 </v>
    <v>       0.20408163       0.20408163      -0.00000000 </v>
   </varray>
  </crystal>
  <varray name="positions" >
   <v>       0.25000000      -0.25000000      -0.50000000 </v>
   <v>       0.00000000       0.00000000       0.00000000 </v>
  </varray>
 </structure>
 <varray name="primitive_index" >
  <v type="int" >        1 </v>
  <v type="int" >        2 </v>
 </varray>
 <kpoints>
  <generation param="Monkhorst-Pack">
   <v type="int" name="divisions">       4        4        4 </v>
   <v name="usershift">      0.00000000       0.00000000       0.00000000 </v>
   <v name="genvec1">      0.25000000       0.00000000      -0.00000000 </v>
   <v name="genvec2">      0.00000000       0.25000000      -0.00000000 </v>
   <v name="genvec3">      0.00000000      -0.00000000       0.25000000 </v>
   <v name="shift">      0.50000000       0.50000000       0.50000000 </v>
  </generation>
  <varray name="kpointlist" >
   <v>       0.12500000       0.12500000       0.12500000 </v>
   <v>       0.37500000       0.12500000       0.12500000 </v>
   <v>      -0.12500000       0.12500000       0.12500000 </v>
   <v>       0.37500000       0.37500000       0.12500000 </v>
   <v>      -0.37500000       0.37500000       0.12500000 </v>
   <v>      -0.12500000       0.37500000       0.12500000 </v>
   <v>      -0.37500000      -0.37500000       0.12500000 </v>
   <v>      -0.12500000      -0.37500000       0.12500000 </v>
   <v>      -0.12500000      -0.12500000       0.12500000 </v>
   <v>      -0.37500000       0.37500000       0.37500000 </v>
   <v>      -0.37500000      -0.37500000       0.37500000 </v>
  </varray>
  <varray name="weights" >
   <v>       0.12500000 </v>
   <v>       0.12500000 </v>
   <v>       0.06250000 </v>
   <v>       0.06250000 </v>
   <v>       0.12500000 </v>
   <v>       0.12500000 </v>
   <v>       0.12500000 </v>
   <v>       0.12500000 </v>
   <v>       0.03125000 </v>
   <v>       0.06250000 </v>
   <v>       0.03125000 </v>
  </varray>
 </kpoints>
 <parameters>
  <separator name="general" >
   <i type="string" name="SYSTEM">unknown system</i>
   <i type="logical" name="LCOMPAT"> F  </i>
  </separator>
  <separator name="electronic" >
   <i type="string" name="PREC">normal</i>
   <i name="ENMAX">    150.00000000</i>
   <i name="ENAUG">    322.06900000</i>
   <i name="EDIFF">      0.00040000</i>
   <i type="int" name="IALGO">    38</i>
   <i type="int" name="IWAVPR">    11</i>
   <i type="int" name="NBANDS">     8</i>
   <i name="NELECT">      8.00000000</i>
   <i type="int" name="TURBO">     0</i>
   <i type="int" name="IRESTART">     0</i>
   <i type="int" name="NREBOOT">     0</i>
   <i type="int" name="NMIN">     0</i>
   <i name="EREF">      0.00000000</i>
   <separator name="electronic smearing" >
    <i type="int" name="ISMEAR">     0</i>
    <i name="SIGMA">      0.20000000</i>
    <i name="KSPACING">      0.50000000</i>
    <i type="logical" name="KGAMMA"> T  </i>
   </separator>
   <separator name="electronic projectors" >
    <i type="logical" name="LREAL"> F  </i>
    <v name="ROPT">      0.00000000</v>
    <i type="int" name="LMAXPAW">  -100</i>
    <i type="int" name="LMAXMIX">     2</i>
    <i type="logical" name="NLSPLINE"> F  </i>
   </separator>
   <separator name="electronic startup" >
    <i type="int" name="ISTART">     0</i>
    <i type="int" name="ICHARG">     2</i>
    <i type="int" name="INIWAV">     1</i>
   </separator>
   <separator name="electronic spin" >
    <i type="int" name="ISPIN">     1</i>
    <i type="logical" name="LNONCOLLINEAR"> F  </i>
    <v name="MAGMOM">      1.00000000      1.00000000</v>
    <i name="NUPDOWN">     -1.00000000</i>
    <i type="logical" name="LSORBIT"> F  </i>
    <v name="SAXIS">      0.00000000      0.00000000      1.00000000</v>
    <i type="logical" name="LSPIRAL"> F  </i>
    <v name="QSPIRAL">      0.00000000      0.00000000      0.00000000</v>
    <i type="logical" name="LZEROZ"> F  </i>
   </separator>
   <separator name="electronic exchange-correlation" >
    <i type="logical" name="LASPH"> F  </i>
    <i type="logical" name="LMETAGGA"> F  </i>
   </separator>
   <separator name="electronic convergence" >
    <i type="int" name="NELM">    60</i>
    <i type="int" name="NELMDL">     0</i>
    <i type="int" name="NELMIN">     2</i>
    <i name="ENINI">    150.00000000</i>
    <separator name="electronic convergence detail" >
     <i type="logical" name="LDIAG"> T  </i>
     <i type="logical" name="LSUBROT"> F  </i>
     <i name="WEIMIN">      0.00100000</i>
     <i name="EBREAK">      0.00001250</i>
     <i name="DEPER">      0.30000000</i>
     <i type="int" name="NRMM">     4</i>
     <i name="TIME">      0.40000000</i>
    </separator>
   </separator>
   <separator name="electronic mixer" >
    <i name="AMIX">      0.40000000</i>
    <i name="BMIX">      1.00000000</i>
    <i name="AMIN">      0.10000000</i>
    <i name="AMIX_MAG">      1.60000000</i>
    <i name="BMIX_MAG">      1.00000000</i>
    <separator name="electronic mixer details" >
     <i type="int" name="IMIX">     4</i>
     <i type="logical" name="MIXFIRST"> F  </i>
     <i type="int" name="MAXMIX">   -45</i>
     <i name="WC">    100.00000000</i>
     <i type="int" name="INIMIX">     1</i>
     <i type="int" name="MIXPRE">     1</i>
     <i type="int" name="MREMOVE">     5</i>
    </separator>
   </separator>
   <separator name="electronic dipolcorrection" >
    <i type="logical" name="LDIPOL"> F  </i>
    <i type="logical" name="LMONO"> F  </i>
    <i type="int" name="IDIPOL">     0</i>
    <i name="EPSILON">      1.00000000</i>
    <v name="DIPOL">   -100.00000000   -100.00000000   -100.00000000</v>
    <i name="EFIELD">      0.00000000</i>
   </separator>
  </separator>
  <separator name="grids" >
   <i type="int" name="NGX">    12</i>
   <i type="int" name="NGY">    12</i>
   <i type="int" name="NGZ">    12</i>
   <i type="int" name="NGXF">    24</i>
   <i type="int" name="NGYF">    24</i>
   <i type="int" name="NGZF">    24</i>
   <i type="logical" name="ADDGRID"> F  </i>
  </separator>
  <separator name="ionic" >
   <i type="int" name="NSW">    15</i>
   <i type="int" name="IBRION">     2</i>
   <i type="int" name="MDALGO">     0</i>
   <i type="int" name="ISIF">     2</i>
   <i name="PSTRESS">      0.00000000</i>
   <i name="EDIFFG">     -0.01000000</i>
   <i type="int" name="NFREE">     1</i>
   <i name="POTIM">      0.50000000</i>
   <i name="SMASS">     -3.00000000</i>
   <i name="SCALEE">      1.00000000</i>
  </separator>
  <separator name="ionic md" >
   <i name="TEBEG">      0.00010000</i>
   <i name="TEEND">      0.00010000</i>
   <i type="int" name="NBLOCK">     1</i>
   <i type="int" name="KBLOCK">    15</i>
   <i type="int" name="NPACO">   256</i>
   <i name="APACO">     16.00000000</i>
  </separator>
  <separator name="symmetry" >
   <i type="int" name="ISYM">     2</i>
   <i name="SYMPREC">      0.00001000</i>
  </separator>
  <separator name="dos" >
   <i type="int" name="LORBIT">     0</i>
   <v name="RWIGS">     -1.00000000</v>
   <i type="int" name="NEDOS">   301</i>
   <i name="EMIN">     10.00000000</i>
   <i name="EMAX">    -10.00000000</i>
   <i name="EFERMI">      0.00000000</i>
  </separator>
  <separator name="writing" >
   <i type="int" name="NWRITE">     2</i>
   <i type="logical" name="LWAVE"> T  </i>
   <i type="logical" name="LDOWNSAMPLE"> F  </i>
   <i type="logical" name="LCHARG"> T  </i>
   <i type="logical" name="LPARD"> F  </i>
   <i type="logical" name="LVTOT"> F  </i>
   <i type="logical" name="LVHAR"> F  </i>
   <i type="logical" name="LELF"> F  </i>
   <i type="logical" name="LOPTICS"> F  </i>
   <v name="STM">      0.00000000      0.00000000      0.00000000      0.00000000      0.00000000      0.00000000      0.00000000</v>
  </separator>
  <separator name="performance" >
   <i type="int" name="NPAR">     8</i>
   <i type="int" name="NSIM">     4</i>
   <i type="int" name="NBLK">    -1</i>
   <i type="logical" name="LPLANE"> T  </i>
   <i type="logical" name="LSCALAPACK"> T  </i>
   <i type="logical" name="LSCAAWARE"> F  </i>
   <i type="logical" name="LSCALU"> F  </i>
   <i type="logical" name="LASYNC"> F  </i>
   <i type="logical" name="LORBITALREAL"> F  </i>
  </separator>
  <separator name="miscellaneous" >
   <i type="int" name="IDIOT">     3</i>
   <i type="int" name="ISPECIAL">     0</i>
   <i type="logical" name="LMUSIC"> F  </i>
   <v name="POMASS">     28.08500000</v>
   <v name="DARWINR">      0.00000000</v>
   <v name="DARWINV">      1.00000000</v>
   <i type="logical" name="LCORR"> T  </i>
  </separator>
  <i type="logical" name="GGA_COMPAT"> T  </i>
  <i type="logical" name="LBERRY"> F  </i>
  <i type="int" name="ICORELEVEL">     0</i>
  <i type="logical" name="LDAU"> F  </i>
  <i type="int" name="I_CONSTRAINED_M">     0</i>
  <separator name="electronic exchange-correlation" >
   <i type="string" name="GGA">--</i>
   <i type="int" name="VOSKOWN">     0</i>
   <i type="logical" name="LHFCALC"> F  </i>
   <i type="string" name="PRECFOCK"></i>
   <i type="logical" name="LSYMGRAD"> F  </i>
   <i type="logical" name="LHFONE"> F  </i>
   <i type="logical" name="LRHFCALC"> F  </i>
   <i type="logical" name="LTHOMAS"> F  </i>
   <i type="logical" name="LMODELHF"> F  </i>
   <i name="ENCUT4O">     -1.00000000</i>
   <i type="int" name="EXXOEP">     0</i>
   <i type="int" name="FOURORBIT">     0</i>
   <i name="AEXX">      0.00000000</i>
   <i name="HFALPHA">      0.00000000</i>
   <i name="MCALPHA">      0.00000000</i>
   <i name="ALDAX">      1.00000000</i>
   <i name="AGGAX">      1.00000000</i>
   <i name="ALDAC">      1.00000000</i>
   <i name="AGGAC">      1.00000000</i>
   <i type="int" name="NKREDX">     1</i>
   <i type="int" name="NKREDY">     1</i>
   <i type="int" name="NKREDZ">     1</i>
   <i type="logical" name="SHIFTRED"> F  </i>
   <i type="logical" name="ODDONLY"> F  </i>
   <i type="logical" name="EVENONLY"> F  </i>
   <i type="int" name="LMAXFOCK">     0</i>
   <i type="int" name="NMAXFOCKAE">     0</i>
   <i type="logical" name="LFOCKAEDFT"> F  </i>
   <i name="HFSCREEN">      0.00000000</i>
   <i name="HFSCREENC">      0.00000000</i>
   <i type="int" name="NBANDSGWLOW">     0</i>
  </separator>
  <separator name="vdW DFT" >
   <i type="logical" name="LUSE_VDW"> F  </i>
   <i name="Zab_VDW">     -0.84910000</i>
   <i name="PARAM1">      0.12340000</i>
   <i name="PARAM2">      1.00000000</i>
   <i name="PARAM3">      0.00000000</i>
  </separator>
  <separator name="model GW" >
   <i type="int" name="MODEL_GW">     0</i>
   <i name="MODEL_EPS0">      9.17662200</i>
   <i name="MODEL_ALPHA">      1.00000000</i>
  </separator>
  <separator name="linear response parameters" >
   <i type="logical" name="LEPSILON"> F  </i>
   <i type="logical" name="LRPA"> F  </i>
   <i type="logical" name="LNABLA"> F  </i>
   <i type="logical" name="LVEL"> F  </i>
   <i type="int" name="KINTER">     0</i>
   <i name="CSHIFT">      0.10000000</i>
   <i name="OMEGAMAX">     -1.00000000</i>
   <i name="DEG_THRESHOLD">      0.00200000</i>
   <i name="RTIME">     -0.10000000</i>
   <i name="WPLASMAI">      0.00000000</i>
   <v name="DFIELD">      0.00000000      0.00000000      0.00000000</v>
   <v name="WPLASMA">      0.00000000      0.00000000      0.00000000      0.00000000      0.00000000      0.00000000      0.00000000      0.00000000      0.00000000</v>
  </separator>
  <separator name="orbital magnetization" >
   <i type="logical" name="NUCIND"> F  </i>
   <v name="MAGPOS">      0.00000000      0.00000000      0.00000000</v>
   <i type="logical" name="LNICSALL"> T  </i>
   <i type="logical" name="ORBITALMAG"> F  </i>
   <i type="logical" name="LMAGBLOCH"> F  </i>
   <i type="logical" name="LCHIMAG"> F  </i>
   <i type="logical" name="LGAUGE"> T  </i>
   <i type="int" name="MAGATOM">     0</i>
   <v name="MAGDIPOL">      0.00000000      0.00000000      0.00000000</v>
   <v name="AVECCONST">      0.00000000      0.00000000      0.00000000</v>
  </separator>
  <separator name="response functions" >
   <i type="logical" name="LADDER"> F  </i>
   <i type="logical" name="LRPAFORCE"> F  </i>
   <i type="logical" name="LFXC"> F  </i>
   <i type="logical" name="LHARTREE"> T  </i>
   <i type="int" name="IBSE">     0</i>
   <v type="int" name="KPOINT">    -1     0     0     0</v>
   <i type="logical" name="LTCTE"> F  </i>
   <i type="logical" name="LTETE"> F  </i>
   <i type="logical" name="LTRIPLET"> F  </i>
   <i type="logical" name="LFXCEPS"> F  </i>
   <i type="logical" name="LFXHEG"> F  </i>
   <i type="int" name="NATURALO">     2</i>
   <i type="logical" name="L2ORDER"> F  </i>
   <i type="logical" name="LMP2LT"> F  </i>
   <i type="logical" name="LUSEW"> F  </i>
   <i name="ENCUTGW">     -2.00000000</i>
   <i name="ENCUTGWSOFT">     -2.00000000</i>
   <i name="ENCUTLF">     -1.00000000</i>
   <i type="int" name="LMAXMP2">    -1</i>
   <i name="SCISSOR">      0.00000000</i>
   <i type="int" name="NOMEGA">     0</i>
   <i type="int" name="NOMEGAR">     0</i>
   <i type="int" name="NBANDSGW">    -1</i>
   <i type="int" name="NBANDSO">    -1</i>
   <i type="int" name="NBANDSV">    -1</i>
   <i type="int" name="NELM">     1</i>
   <i type="int" name="NELMHF">     1</i>
   <i type="int" name="DIM">     3</i>
   <i type="int" name="ANTIRES">     0</i>
   <i name="OMEGAMAX">    -30.00000000</i>
   <i name="OMEGAMIN">    -30.00000000</i>
   <i name="OMEGATL">   -200.00000000</i>
   <i type="int" name="OMEGAGRID">   140</i>
   <i name="CSHIFT">     -0.10000000</i>
   <i type="logical" name="SELFENERGY"> F  </i>
   <i type="logical" name="LSPECTRAL"> F  </i>
   <i type="logical" name="LSPECTRALGW"> F  </i>
   <i type="logical" name="LSINGLES"> F  </i>
   <i type="logical" name="LFERMIGW"> F  </i>
   <i type="logical" name="ODDONLYGW"> F  </i>
   <i type="logical" name="EVENONLYGW"> F  </i>
   <i type="int" name="NKREDLFX">     1</i>
   <i type="int" name="NKREDLFY">     1</i>
   <i type="int" name="NKREDLFZ">     1</i>
   <i type="int" name="MAXMEM">  2800</i>
   <i type="int" name="TELESCOPE">     0</i>
   <i type="int" name="TAUPAR">     1</i>
   <i type="int" name="OMEGAPAR">    -1</i>
   <i name="LAMBDA">      1.00000000</i>
  </separator>
  <separator name="External order field" >
   <i name="OFIELD_KAPPA">      0.00000000</i>
   <v name="OFIELD_K">      0.00000000      0.00000000      0.00000000</v>
   <i name="OFIELD_Q6_NEAR">      0.00000000</i>
   <i name="OFIELD_Q6_FAR">      0.00000000</i>
   <i name="OFIELD_A">      0.00000000</i>
  </separator>
 </parameters>
 <atominfo>
  <atoms>       2 </atoms>
  <types>       1 </types>
  <array name="atoms" >
   <dimension dim="1">ion</dimension>
   <field type="string">element</field>
   <field type="int">atomtype</field>
   <set>
    <rc><c>Si</c><c>   1</c></rc>
    <rc><c>Si</c><c>   1</c></rc>
   </set>
  </array>
  <array name="atomtypes" >
   <dimension dim="1">type</dimension>
   <field type="int">atomspertype</field>
   <field type="string">element</field>
   <field>mass</field>
   <field>valence</field>
   <field type="string">pseudopotential</field>
   <set>
    <rc><c>   2</c><c>Si</c><c>     28.08500000</c><c>      4.00000000</c><c> PAW_PBE Si 05Jan2001                   </c></rc>
   </set>
  </array>
 </atominfo>
 <structure name="initialpos" >
  <crystal>
   <varray name="basis" >
    <v>      -2.45000000       2.45000000       1.27400000 </v>
    <v>       2.45000000      -2.45000000       1.27400000 </v>
    <v>       2.45000000       2.45000000      -1.27400000 </v>
   </varray>
   <i name="volume">     30.58874000 </i>
   <varray name="rec_basis" >
    <v>       0.00000000       0.20408163       0.39246468 </v>
    <v>       0.20408163       0.00000000       0.39246468 </v>
    <v>       0.20408163       0.20408163      -0.00000000 </v>
   </varray>
  </crystal>
  <varray name="positions" >
   <v>       0.25000000       0.75000000       0.50000000 </v>
   <v>       0.00000000       0.00000000       0.00000000 </v>
  </varray>
 </structure>
 <calculation>
  <scstep>
   <time name="dav">    0.09    0.10</time>
   <time name="total">    0.13    0.14</time>
   <energy>
    <i name="alphaZ">      4.40202223 </i>
    <i name="ewald">   -265.18101312 </i>
    <i name="hartreedc">     -2.30415367 </i>
    <i name="XCdc">    -17.81530915 </i>
    <i name="pawpsdc">     65.95520812 </i>
    <i name="pawaedc">    -30.76852678 </i>
    <i name="eentropy">     -0.01982468 </i>
    <i name="bandstr">     34.60553544 </i>
    <i name="atom">    206.09183643 </i>
    <i name="e_fr_energy">     -5.03422519 </i>
    <i name="e_wo_entrp">     -5.01440051 </i>
    <i name="e_0_energy">     -5.02431285 </i>
   </energy>
  </scstep>
  <scstep>
   <time name="dav">    0.13    0.14</time>
   <time name="total">    0.14    0.14</time>
   <energy>
    <i name="e_fr_energy">     -9.85810102 </i>
    <i name="e_wo_entrp">     -9.84415963 </i>
    <i name="e_0_energy">     -9.85113032 </i>
   </energy>
  </scstep>
  <scstep>
   <time name="dav">    0.10    0.10</time>
   <time name="total">    0.10    0.10</time>
   <energy>
    <i name="e_fr_energy">     -9.88332844 </i>
    <i name="e_wo_entrp">     -9.86932750 </i>
    <i name="e_0_energy">     -9.87632797 </i>
   </energy>
  </scstep>
  <scstep>
   <time name="dav">    0.13    0.13</time>
   <time name="total">    0.13    0.14</time>
   <energy>
    <i name="e_fr_energy">     -9.88334568 </i>
    <i name="e_wo_entrp">     -9.86934453 </i>
    <i name="e_0_energy">     -9.87634510 </i>
   </energy>
  </scstep>
  <scstep>
   <time name="dav">    0.09    0.09</time>
   <time name="total">    0.10    0.10</time>
   <energy>
    <i name="e_fr_energy">     -9.88334568 </i>
    <i name="e_wo_entrp">     -9.86934453 </i>
    <i name="e_0_energy">     -9.87634510 </i>
   </energy>
  </scstep>
  <scstep>
   <time name="dav">    0.10    0.10</time>
   <time name="total">    0.14    0.14</time>
   <energy>
    <i name="e_fr_energy">     -9.87527023 </i>
    <i name="e_wo_entrp">     -9.86128727 </i>
    <i name="e_0_energy">     -9.86827875 </i>
   </energy>
  </scstep>
  <scstep>
   <time name="dav">    0.08    0.08</time>
   <time name="total">    0.11    0.12</time>
   <energy>
    <i name="e_fr_energy">     -9.86895886 </i>
    <i name="e_wo_entrp">     -9.85501683 </i>
    <i name="e_0_energy">     -9.86198785 </i>
   </energy>
  </scstep>
  <scstep>
   <time name="dav">    0.04    0.04</time>
   <time name="total">    0.07    0.07</time>
   <energy>
    <i name="alphaZ">      4.40202223 </i>
    <i name="ewald">   -265.18101312 </i>
    <i name="hartreedc">     -2.52410133 </i>
    <i name="XCdc">    -17.53760371 </i>
    <i name="pawpsdc">     72.38758267 </i>
    <i name="pawaedc">    -37.31519715 </i>
    <i name="eentropy">     -0.01394529 </i>
    <i name="bandstr">     29.82148502 </i>
    <i name="atom">    206.09183643 </i>
    <i name="e_fr_energy">     -9.86893424 </i>
    <i name="e_wo_entrp">     -9.85498895 </i>
    <i name="e_0_energy">     -9.86196159 </i>
   </energy>
  </scstep>
  <structure>
   <crystal>
    <varray name="basis" >
     <v>      -2.45000000       2.45000000       1.27400000 </v>
     <v>       2.45000000      -2.45000000       1.27400000 </v>
     <v>       2.45000000       2.45000000      -1.27400000 </v>
    </varray>
    <i name="volume">     30.58874000 </i>
    <varray name="rec_basis" >
     <v>       0.00000000       0.20408163       0.39246468 </v>
     <v>       0.20408163       0.00000000       0.39246468 </v>
     <v>       0.20408163       0.20408163      -0.00000000 </v>
    </varray>
   </crystal>
   <varray name="positions" >
    <v>       0.25000000       0.75000000       0.50000000 </v>
    <v>       0.00000000       0.00000000       0.00000000 </v>
   </varray>
  </structure>
  <varray name="forces" >
   <v>      -0.00000000       0.00000000      -0.00000000 </v>
   <v>       0.00000000      -0.00000000       0.00000000 </v>
  </varray>
  <varray name="stress" >
   <v>     -52.37760795       0.00000000       0.00000000 </v>
   <v>       0.00000000     -52.37760795      -0.00000000 </v>
   <v>       0.00000000      -0.00000000     163.94908157 </v>
  </varray>
  <energy>
   <i name="e_fr_energy">     -9.86893424 </i>
   <i name="e_wo_entrp">     -9.86196159 </i>
   <i name="e_0_energy">     -0.01394529 </i>
  </energy>
  <time name="totalsc">    1.34    1.67</time>
  <eigenvalues>
   <array>
    <dimension dim="1">band</dimension>
    <dimension dim="2">kpoint</dimension>
    <dimension dim="3">spin</dimension>
    <field>eigene</field>
    <field>occ</field>
    <set>
     <set comment="spin 1">
      <set comment="kpoint 1">
       <r>   -2.4868    1.0000 </r>
       <r>    3.2318    1.0000 </r>
       <r>    8.0870    1.0000 </r>
       <r>    9.6018    0.0107 </r>
       <r>   11.2488    0.0000 </r>
       <r>   11.3511    0.0000 </r>
       <r>   14.4365    0.0000 </r>
       <r>   15.1314    0.0000 </r>
      </set>
      <set comment="kpoint 2">
       <r>    2.4108    1.0000 </r>
       <r>    2.9320    1.0000 </r>
       <r>    5.3183    1.0000 </r>
       <r>    5.5732    1.0000 </r>
       <r>   10.6060    0.0000 </r>
       <r>   12.3827    0.0000 </r>
       <r>   13.9190    0.0000 </r>
       <r>   14.5525    0.0000 </r>
      </set>
      <set comment="kpoint 3">
       <r>   -4.2418    1.0000 </r>
       <r>    3.7583    1.0000 </r>
       <r>    5.1817    1.0000 </r>
       <r>    9.3683    0.2575 </r>
       <r>   12.5099    0.0000 </r>
       <r>   12.9413    0.0000 </r>
       <r>   17.6944    0.0000 </r>
       <r>   18.2470    0.0000 </r>
      </set>
      <set comment="kpoint 4">
       <r>   -0.2963    1.0000 </r>
       <r>   -0.2963    1.0000 </r>
       <r>    9.4466    0.1141 </r>
       <r>    9.4467    0.1141 </r>
       <r>   11.2113    0.0000 </r>
       <r>   11.2114    0.0000 </r>
       <r>   12.7649    0.0000 </r>
       <r>   12.7650    0.0000 </r>
      </set>
      <set comment="kpoint 5">
       <r>   -2.7649    1.0000 </r>
       <r>    0.1239    1.0000 </r>
       <r>    6.0917    1.0000 </r>
       <r>    8.8857    0.9971 </r>
       <r>   11.7979    0.0000 </r>
       <r>   14.5330    0.0000 </r>
       <r>   17.7819    0.0000 </r>
       <r>   18.4380    0.0000 </r>
      </set>
      <set comment="kpoint 6">
       <r>   -1.7563    1.0000 </r>
       <r>    3.2752    1.0000 </r>
       <r>    4.9404    1.0000 </r>
       <r>    8.8283    0.9992 </r>
       <r>    9.8078    0.0001 </r>
       <r>   13.8970    0.0000 </r>
       <r>   14.9037    0.0000 </r>
       <r>   15.5506    0.0000 </r>
      </set>
      <set comment="kpoint 7">
       <r>    0.3849    1.0000 </r>
       <r>    0.3985    1.0000 </r>
       <r>    6.3736    1.0000 </r>
       <r>    6.3738    1.0000 </r>
       <r>    8.3211    1.0000 </r>
       <r>   14.0675    0.0000 </r>
       <r>   16.8167    0.0000 </r>
       <r>   17.7415    0.0000 </r>
      </set>
      <set comment="kpoint 8">
       <r>    1.2205    1.0000 </r>
       <r>    4.0877    1.0000 </r>
       <r>    6.1563    1.0000 </r>
       <r>    7.5164    1.0000 </r>
       <r>    8.4822    1.0000 </r>
       <r>   10.9102    0.0000 </r>
       <r>   11.3403    0.0000 </r>
       <r>   14.8554    0.0000 </r>
      </set>
      <set comment="kpoint 9">
       <r>   -3.2249    1.0000 </r>
       <r>    7.4459    1.0000 </r>
       <r>    7.4710    1.0000 </r>
       <r>    7.4710    1.0000 </r>
       <r>   12.0697    0.0000 </r>
       <r>   12.1258    0.0000 </r>
       <r>   12.5093    0.0000 </r>
       <r>   14.7923    0.0000 </r>
      </set>
      <set comment="kpoint 10">
       <r>   -1.3388    1.0000 </r>
       <r>    0.8367    1.0000 </r>
       <r>    2.6400    1.0000 </r>
       <r>    4.7775    1.0000 </r>
       <r>   16.0195    0.0000 </r>
       <r>   16.6678    0.0000 </r>
       <r>   18.5268    0.0000 </r>
       <r>   20.0271    0.0000 </r>
      </set>
      <set comment="kpoint 11">
       <r>    1.8033    1.0000 </r>
       <r>    1.8376    1.0000 </r>
       <r>    3.6113    1.0000 </r>
       <r>    3.6114    1.0000 </r>
       <r>    7.6327    1.0000 </r>
       <r>   17.2228    0.0000 </r>
       <r>   18.4083    0.0000 </r>
       <r>   18.4083    0.0000 </r>
      </set>
     </set>
    </set>
   </array>
  </eigenvalues>
  <separator name="orbital magnetization" >
   <v name="MAGDIPOLOUT">      0.00000000      0.00000000      0.00000000</v>
  </separator>
  <dos>
   <i name="efermi">      9.27625008 </i>
   <total>
    <array>
     <dimension dim="1">gridpoints</dimension>
     <dimension dim="2">spin</dimension>
     <field>energy</field>
     <field>total</field>
     <field>integrated</field>
     <set>
      <set comment="spin 1">
       <r>    -6.2418     0.0000     0.0000 </r>
       <r>    -6.1476     0.0000     0.0000 </r>
       <r>    -6.0533     0.0000     0.0000 </r>
       <r>    -5.9591     0.0000     0.0000 </r>
       <r>    -5.8649     0.0000     0.0000 </r>
       <r>    -5.7706     0.0000     0.0000 </r>
       <r>    -5.6764     0.0000     0.0000 </r>
       <r>    -5.5822     0.0000     0.0000 </r>
       <r>    -5.4880     0.0000     0.0000 </r>
       <r>    -5.3937     0.0000     0.0000 </r>
       <r>    -5.2995     0.0000     0.0000 </r>
       <r>    -5.2053     0.0000     0.0000 </r>
       <r>    -5.1110     0.0000     0.0000 </r>
       <r>    -5.0168     0.0000     0.0000 </r>
       <r>    -4.9226     0.0000     0.0000 </r>
       <r>    -4.8283     0.0000     0.0000 </r>
       <r>    -4.7341     0.0003     0.0000 </r>
       <r>    -4.6399     0.0029     0.0003 </r>
       <r>    -4.5457     0.0178     0.0020 </r>
       <r>    -4.4514     0.0707     0.0086 </r>
       <r>    -4.3572     0.1832     0.0259 </r>
       <r>    -4.2630     0.3094     0.0551 </r>
       <r>    -4.1687     0.3406     0.0872 </r>
       <r>    -4.0745     0.2445     0.1102 </r>
       <r>    -3.9803     0.1144     0.1210 </r>
       <r>    -3.8860     0.0349     0.1243 </r>
       <r>    -3.7918     0.0069     0.1249 </r>
       <r>    -3.6976     0.0011     0.1250 </r>
       <r>    -3.6034     0.0023     0.1252 </r>
       <r>    -3.5091     0.0123     0.1264 </r>
       <r>    -3.4149     0.0447     0.1306 </r>
       <r>    -3.3207     0.1060     0.1406 </r>
       <r>    -3.2264     0.1649     0.1561 </r>
       <r>    -3.1322     0.1757     0.1727 </r>
       <r>    -3.0380     0.1667     0.1884 </r>
       <r>    -2.9438     0.2501     0.2119 </r>
       <r>    -2.8495     0.4808     0.2573 </r>
       <r>    -2.7553     0.7344     0.3265 </r>
       <r>    -2.6611     0.8535     0.4069 </r>
       <r>    -2.5668     0.8688     0.4888 </r>
       <r>    -2.4726     0.8371     0.5676 </r>
       <r>    -2.3784     0.6756     0.6313 </r>
       <r>    -2.2841     0.3943     0.6685 </r>
       <r>    -2.1899     0.1575     0.6833 </r>
       <r>    -2.0957     0.0589     0.6888 </r>
       <r>    -2.0015     0.0952     0.6978 </r>
       <r>    -1.9072     0.2700     0.7233 </r>
       <r>    -1.8130     0.5348     0.7736 </r>
       <r>    -1.7188     0.6951     0.8391 </r>
       <r>    -1.6245     0.6065     0.8963 </r>
       <r>    -1.5303     0.4079     0.9347 </r>
       <r>    -1.4361     0.3242     0.9653 </r>
       <r>    -1.3418     0.3526     0.9985 </r>
       <r>    -1.2476     0.3344     1.0300 </r>
       <r>    -1.1534     0.2188     1.0506 </r>
       <r>    -1.0592     0.0941     1.0595 </r>
       <r>    -0.9649     0.0264     1.0620 </r>
       <r>    -0.8707     0.0049     1.0624 </r>
       <r>    -0.7765     0.0014     1.0626 </r>
       <r>    -0.6822     0.0076     1.0633 </r>
       <r>    -0.5880     0.0435     1.0674 </r>
       <r>    -0.4938     0.1638     1.0828 </r>
       <r>    -0.3995     0.4018     1.1207 </r>
       <r>    -0.3053     0.6447     1.1814 </r>
       <r>    -0.2111     0.6892     1.2464 </r>
       <r>    -0.1169     0.5489     1.2981 </r>
       <r>    -0.0226     0.4897     1.3442 </r>
       <r>     0.0716     0.6576     1.4062 </r>
       <r>     0.1658     0.9334     1.4942 </r>
       <r>     0.2601     1.2152     1.6087 </r>
       <r>     0.3543     1.4739     1.7475 </r>
       <r>     0.4485     1.4920     1.8881 </r>
       <r>     0.5428     1.1126     1.9930 </r>
       <r>     0.6370     0.6216     2.0515 </r>
       <r>     0.7312     0.3756     2.0869 </r>
       <r>     0.8254     0.3631     2.1211 </r>
       <r>     0.9197     0.3783     2.1568 </r>
       <r>     1.0139     0.3774     2.1924 </r>
       <r>     1.1081     0.4780     2.2374 </r>
       <r>     1.2024     0.6548     2.2991 </r>
       <r>     1.2966     0.6844     2.3636 </r>
       <r>     1.3908     0.4827     2.4091 </r>
       <r>     1.4850     0.2324     2.4310 </r>
       <r>     1.5793     0.1143     2.4418 </r>
       <r>     1.6735     0.1535     2.4562 </r>
       <r>     1.7677     0.2729     2.4819 </r>
       <r>     1.8620     0.3438     2.5143 </r>
       <r>     1.9562     0.2869     2.5414 </r>
       <r>     2.0504     0.1680     2.5572 </r>
       <r>     2.1447     0.1208     2.5686 </r>
       <r>     2.2389     0.2336     2.5906 </r>
       <r>     2.3331     0.4946     2.6372 </r>
       <r>     2.4273     0.7457     2.7075 </r>
       <r>     2.5216     0.8113     2.7839 </r>
       <r>     2.6158     0.7148     2.8513 </r>
       <r>     2.7100     0.6129     2.9090 </r>
       <r>     2.8043     0.6228     2.9677 </r>
       <r>     2.8985     0.7467     3.0381 </r>
       <r>     2.9927     0.8731     3.1203 </r>
       <r>     3.0870     0.9978     3.2144 </r>
       <r>     3.1812     1.2398     3.3312 </r>
       <r>     3.2754     1.4428     3.4671 </r>
       <r>     3.3696     1.2914     3.5888 </r>
       <r>     3.4639     0.8932     3.6730 </r>
       <r>     3.5581     0.6385     3.7332 </r>
       <r>     3.6523     0.6194     3.7915 </r>
       <r>     3.7466     0.6365     3.8515 </r>
       <r>     3.8408     0.5789     3.9061 </r>
       <r>     3.9350     0.5506     3.9579 </r>
       <r>     4.0293     0.6455     4.0188 </r>
       <r>     4.1235     0.7224     4.0868 </r>
       <r>     4.2177     0.5927     4.1427 </r>
       <r>     4.3119     0.3265     4.1735 </r>
       <r>     4.4062     0.1227     4.1850 </r>
       <r>     4.5004     0.0574     4.1904 </r>
       <r>     4.5946     0.1178     4.2015 </r>
       <r>     4.6889     0.3035     4.2301 </r>
       <r>     4.7831     0.5881     4.2855 </r>
       <r>     4.8773     0.8603     4.3666 </r>
       <r>     4.9715     0.9806     4.4590 </r>
       <r>     5.0658     0.9451     4.5481 </r>
       <r>     5.1600     0.9248     4.6352 </r>
       <r>     5.2542     1.0112     4.7305 </r>
       <r>     5.3485     1.0800     4.8323 </r>
       <r>     5.4427     1.0432     4.9306 </r>
       <r>     5.5369     0.9622     5.0212 </r>
       <r>     5.6312     0.8253     5.0990 </r>
       <r>     5.7254     0.5760     5.1533 </r>
       <r>     5.8196     0.3501     5.1863 </r>
       <r>     5.9138     0.3862     5.2226 </r>
       <r>     6.0081     0.7759     5.2958 </r>
       <r>     6.1023     1.3343     5.4215 </r>
       <r>     6.1965     1.7429     5.5857 </r>
       <r>     6.2908     1.8945     5.7642 </r>
       <r>     6.3850     1.8163     5.9354 </r>
       <r>     6.4792     1.4287     6.0700 </r>
       <r>     6.5735     0.8229     6.1476 </r>
       <r>     6.6677     0.3235     6.1780 </r>
       <r>     6.7619     0.0843     6.1860 </r>
       <r>     6.8561     0.0144     6.1873 </r>
       <r>     6.9504     0.0020     6.1875 </r>
       <r>     7.0446     0.0041     6.1879 </r>
       <r>     7.1388     0.0283     6.1906 </r>
       <r>     7.2331     0.1341     6.2032 </r>
       <r>     7.3273     0.4225     6.2430 </r>
       <r>     7.4215     0.8904     6.3269 </r>
       <r>     7.5158     1.2631     6.4459 </r>
       <r>     7.6100     1.2191     6.5608 </r>
       <r>     7.7042     0.8177     6.6379 </r>
       <r>     7.7984     0.4228     6.6777 </r>
       <r>     7.8927     0.2972     6.7057 </r>
       <r>     7.9869     0.4613     6.7492 </r>
       <r>     8.0811     0.7524     6.8201 </r>
       <r>     8.1754     0.9816     6.9126 </r>
       <r>     8.2696     1.1292     7.0190 </r>
       <r>     8.3638     1.2457     7.1364 </r>
       <r>     8.4580     1.2513     7.2543 </r>
       <r>     8.5523     1.0769     7.3558 </r>
       <r>     8.6465     0.8976     7.4403 </r>
       <r>     8.7407     0.9923     7.5338 </r>
       <r>     8.8350     1.2921     7.6556 </r>
       <r>     8.9292     1.3545     7.7832 </r>
       <r>     9.0234     0.9904     7.8765 </r>
       <r>     9.1177     0.5369     7.9271 </r>
       <r>     9.2119     0.3877     7.9637 </r>
       <r>     9.3061     0.6292     8.0230 </r>
       <r>     9.4003     1.0709     8.1239 </r>
       <r>     9.4946     1.4109     8.2568 </r>
       <r>     9.5888     1.4852     8.3968 </r>
       <r>     9.6830     1.3666     8.5256 </r>
       <r>     9.7773     1.1787     8.6366 </r>
       <r>     9.8715     0.9221     8.7235 </r>
       <r>     9.9657     0.5802     8.7782 </r>
       <r>    10.0600     0.2637     8.8030 </r>
       <r>    10.1542     0.0832     8.8109 </r>
       <r>    10.2484     0.0300     8.8137 </r>
       <r>    10.3426     0.0701     8.8203 </r>
       <r>    10.4369     0.2256     8.8416 </r>
       <r>    10.5311     0.4925     8.8880 </r>
       <r>    10.6253     0.7283     8.9566 </r>
       <r>    10.7196     0.8008     9.0321 </r>
       <r>    10.8138     0.8022     9.1076 </r>
       <r>    10.9080     0.8568     9.1884 </r>
       <r>    11.0023     0.9603     9.2789 </r>
       <r>    11.0965     1.2409     9.3958 </r>
       <r>    11.1907     1.8551     9.5706 </r>
       <r>    11.2849     2.4695     9.8033 </r>
       <r>    11.3792     2.4641    10.0355 </r>
       <r>    11.4734     1.7613    10.2015 </r>
       <r>    11.5676     0.9580    10.2917 </r>
       <r>    11.6619     0.5935    10.3477 </r>
       <r>    11.7561     0.6461    10.4085 </r>
       <r>    11.8503     0.7470    10.4789 </r>
       <r>    11.9445     0.6828    10.5433 </r>
       <r>    12.0388     0.5602    10.5961 </r>
       <r>    12.1330     0.5221    10.6453 </r>
       <r>    12.2272     0.6063    10.7024 </r>
       <r>    12.3215     0.8284    10.7804 </r>
       <r>    12.4157     1.0886    10.8830 </r>
       <r>    12.5099     1.1793    10.9941 </r>
       <r>    12.6042     1.0816    11.0961 </r>
       <r>    12.6984     0.9951    11.1898 </r>
       <r>    12.7926     0.9885    11.2830 </r>
       <r>    12.8868     0.9173    11.3694 </r>
       <r>    12.9811     0.7009    11.4354 </r>
       <r>    13.0753     0.4198    11.4750 </r>
       <r>    13.1695     0.1889    11.4928 </r>
       <r>    13.2638     0.0608    11.4985 </r>
       <r>    13.3580     0.0136    11.4998 </r>
       <r>    13.4522     0.0052    11.5003 </r>
       <r>    13.5465     0.0256    11.5027 </r>
       <r>    13.6407     0.1322    11.5152 </r>
       <r>    13.7349     0.4534    11.5579 </r>
       <r>    13.8291     1.0411    11.6560 </r>
       <r>    13.9234     1.6351    11.8101 </r>
       <r>    14.0176     1.8139    11.9810 </r>
       <r>    14.1118     1.4897    12.1214 </r>
       <r>    14.2061     1.0200    12.2175 </r>
       <r>    14.3003     0.8744    12.2999 </r>
       <r>    14.3945     1.2467    12.4174 </r>
       <r>    14.4888     1.8227    12.5891 </r>
       <r>    14.5830     2.0508    12.7824 </r>
       <r>    14.6772     1.8427    12.9560 </r>
       <r>    14.7714     1.6647    13.1129 </r>
       <r>    14.8657     1.7305    13.2759 </r>
       <r>    14.9599     1.7262    13.4386 </r>
       <r>    15.0541     1.4760    13.5777 </r>
       <r>    15.1484     1.1326    13.6844 </r>
       <r>    15.2426     0.7953    13.7593 </r>
       <r>    15.3368     0.5396    13.8102 </r>
       <r>    15.4310     0.5071    13.8580 </r>
       <r>    15.5253     0.6490    13.9191 </r>
       <r>    15.6195     0.6937    13.9845 </r>
       <r>    15.7137     0.5184    14.0333 </r>
       <r>    15.8080     0.3076    14.0623 </r>
       <r>    15.9022     0.2545    14.0863 </r>
       <r>    15.9964     0.3224    14.1167 </r>
       <r>    16.0907     0.3434    14.1491 </r>
       <r>    16.1849     0.2478    14.1724 </r>
       <r>    16.2791     0.1204    14.1837 </r>
       <r>    16.3733     0.0587    14.1893 </r>
       <r>    16.4676     0.1021    14.1989 </r>
       <r>    16.5618     0.2746    14.2248 </r>
       <r>    16.6560     0.5633    14.2779 </r>
       <r>    16.7503     0.8438    14.3574 </r>
       <r>    16.8445     0.9195    14.4440 </r>
       <r>    16.9387     0.7207    14.5119 </r>
       <r>    17.0330     0.4225    14.5517 </r>
       <r>    17.1272     0.2419    14.5745 </r>
       <r>    17.2214     0.1969    14.5931 </r>
       <r>    17.3156     0.1784    14.6099 </r>
       <r>    17.4099     0.1647    14.6254 </r>
       <r>    17.5041     0.2879    14.6525 </r>
       <r>    17.5983     0.7055    14.7190 </r>
       <r>    17.6926     1.3256    14.8439 </r>
       <r>    17.7868     1.6861    15.0028 </r>
       <r>    17.8810     1.4350    15.1380 </r>
       <r>    17.9753     0.8382    15.2170 </r>
       <r>    18.0695     0.4249    15.2570 </r>
       <r>    18.1637     0.4123    15.2959 </r>
       <r>    18.2579     0.7137    15.3631 </r>
       <r>    18.3522     1.1463    15.4712 </r>
       <r>    18.4464     1.4453    15.6074 </r>
       <r>    18.5406     1.3507    15.7346 </r>
       <r>    18.6349     0.9006    15.8195 </r>
       <r>    18.7291     0.4195    15.8590 </r>
       <r>    18.8233     0.1350    15.8717 </r>
       <r>    18.9175     0.0298    15.8745 </r>
       <r>    19.0118     0.0045    15.8750 </r>
       <r>    19.1060     0.0004    15.8750 </r>
       <r>    19.2002     0.0000    15.8750 </r>
       <r>    19.2945     0.0000    15.8750 </r>
       <r>    19.3887     0.0000    15.8750 </r>
       <r>    19.4829     0.0001    15.8750 </r>
       <r>    19.5772     0.0009    15.8751 </r>
       <r>    19.6714     0.0069    15.8757 </r>
       <r>    19.7656     0.0349    15.8790 </r>
       <r>    19.8598     0.1144    15.8898 </r>
       <r>    19.9541     0.2445    15.9128 </r>
       <r>    20.0483     0.3406    15.9449 </r>
       <r>    20.1425     0.3094    15.9741 </r>
       <r>    20.2368     0.1832    15.9914 </r>
       <r>    20.3310     0.0707    15.9980 </r>
       <r>    20.4252     0.0178    15.9997 </r>
       <r>    20.5195     0.0029    16.0000 </r>
       <r>    20.6137     0.0003    16.0000 </r>
       <r>    20.7079     0.0000    16.0000 </r>
       <r>    20.8021     0.0000    16.0000 </r>
       <r>    20.8964     0.0000    16.0000 </r>
       <r>    20.9906     0.0000    16.0000 </r>
       <r>    21.0848     0.0000    16.0000 </r>
       <r>    21.1791     0.0000    16.0000 </r>
       <r>    21.2733     0.0000    16.0000 </r>
       <r>    21.3675     0.0000    16.0000 </r>
       <r>    21.4618     0.0000    16.0000 </r>
       <r>    21.5560     0.0000    16.0000 </r>
       <r>    21.6502     0.0000    16.0000 </r>
       <r>    21.7444     0.0000    16.0000 </r>
       <r>    21.8387     0.0000    16.0000 </r>
       <r>    21.9329     0.0000    16.0000 </r>
       <r>    22.0271     0.0000    16.0000 </r>
      </set>
     </set>
    </array>
   </total>
  </dos>
 </calculation>
 <structure name="finalpos" >
  <crystal>
   <varray name="basis" >
    <v>      -2.45000000       2.45000000       1.27400000 </v>
    <v>       2.45000000      -2.45000000       1.27400000 </v>
    <v>       2.45000000       2.45000000      -1.27400000 </v>
   </varray>
   <i name="volume">     30.58874000 </i>
   <varray name="rec_basis" >
    <v>       0.00000000       0.20408163       0.39246468 </v>
    <v>       0.20408163       0.00000000       0.39246468 </v>
    <v>       0.20408163       0.20408163      -0.00000000 </v>
   </varray>
  </crystal>
  <varray name="positions" >
   <v>       0.25000000       0.75000000       0.50000000 </v>
   <v>       0.00000000       0.00000000       0.00000000 </v>
  </varray>
 </structure>
</modeling>
