       N       E                     dE             d eps       ncg     rms          rms(c)
DAV:   1    -0.351919500485E+01   -0.35192E+01   -0.20429E+03   912   0.382E+02
DAV:   2    -0.101198982473E+02   -0.66007E+01   -0.62924E+01  1408   0.468E+01
DAV:   3    -0.101641502018E+02   -0.44252E-01   -0.44211E-01  1024   0.472E+00
DAV:   4    -0.101642068301E+02   -0.56628E-04   -0.56629E-04  1464   0.172E-01
DAV:   5    -0.101642068412E+02   -0.11119E-07   -0.11392E-07   984   0.158E-03    0.149E+00
DAV:   6    -0.101577235537E+02    0.64833E-02   -0.18619E-03  1096   0.308E-01    0.929E-01
DAV:   7    -0.101527274035E+02    0.49962E-02   -0.54367E-03  1000   0.544E-01    0.342E-02
DAV:   8    -0.101527093136E+02    0.18090E-04   -0.79067E-05   528   0.672E-02
   1 F= -.10152709E+02 E0= -.10141782E+02  d E =-.101527E+02
       N       E                     dE             d eps       ncg     rms          rms(c)
DAV:   1    -0.102252196798E+02   -0.72492E-01   -0.15501E+00  1264   0.709E+00    0.747E-01
DAV:   2    -0.102095267453E+02    0.15693E-01   -0.31946E-02  1120   0.135E+00    0.418E-01
DAV:   3    -0.102019687551E+02    0.75580E-02   -0.20432E-02  1208   0.782E-01    0.365E-02
DAV:   4    -0.102020261083E+02   -0.57353E-04   -0.72288E-04   816   0.213E-01
   2 F= -.10202026E+02 E0= -.10191403E+02  d E =-.493168E-01
       N       E                     dE             d eps       ncg     rms          rms(c)
DAV:   1    -0.102520574745E+02   -0.50089E-01   -0.29790E+00  1248   0.978E+00    0.101E+00
DAV:   2    -0.102229431706E+02    0.29114E-01   -0.60898E-02  1056   0.187E+00    0.573E-01
DAV:   3    -0.102085252561E+02    0.14418E-01   -0.39022E-02  1224   0.107E+00    0.526E-02
DAV:   4    -0.102086183463E+02   -0.93090E-04   -0.12597E-03   944   0.280E-01
   3 F= -.10208618E+02 E0= -.10201456E+02  d E =-.559090E-01
       N       E                     dE             d eps       ncg     rms          rms(c)
DAV:   1    -0.102260939768E+02   -0.17569E-01   -0.57984E-01  1232   0.428E+00    0.471E-01
DAV:   2    -0.102199928588E+02    0.61011E-02   -0.11785E-02  1048   0.821E-01    0.266E-01
DAV:   3    -0.102169429311E+02    0.30499E-02   -0.82480E-03  1232   0.494E-01    0.238E-02
DAV:   4    -0.102169615983E+02   -0.18667E-04   -0.26528E-04   480   0.131E-01
   4 F= -.10216962E+02 E0= -.10207677E+02  d E =-.642523E-01
       N       E                     dE             d eps       ncg     rms          rms(c)
DAV:   1    -0.102169737595E+02   -0.30828E-04   -0.90050E-04   904   0.170E-01    0.218E-02
DAV:   2    -0.102169657373E+02    0.80222E-05   -0.23877E-05   448   0.383E-02
   5 F= -.10216966E+02 E0= -.10207731E+02  d E =-.642564E-01
       N       E                     dE             d eps       ncg     rms          rms(c)
DAV:   1    -0.102169613798E+02    0.12380E-04   -0.12023E-05   448   0.209E-02    0.153E-03
DAV:   2    -0.102169614598E+02   -0.79982E-07   -0.80539E-07   448   0.806E-03
   6 F= -.10216961E+02 E0= -.10207731E+02  d E =-.642521E-01
       N       E                     dE             d eps       ncg     rms          rms(c)
DAV:   1    -0.102169617586E+02   -0.37885E-06   -0.24950E-07   448   0.310E-03    0.289E-04
DAV:   2    -0.102169617591E+02   -0.49860E-09   -0.17030E-08   448   0.112E-03
   7 F= -.10216962E+02 E0= -.10207731E+02  d E =-.642524E-01
       N       E                     dE             d eps       ncg     rms          rms(c)
DAV:   1    -0.102169617671E+02   -0.84185E-08   -0.16533E-09   448   0.285E-04    0.324E-05
DAV:   2    -0.102169617664E+02    0.61110E-09   -0.11507E-10   448   0.783E-05
   8 F= -.10216962E+02 E0= -.10207731E+02  d E =-.642525E-01
       N       E                     dE             d eps       ncg     rms          rms(c)
DAV:   1    -0.102169617674E+02   -0.38463E-09   -0.24669E-11   448   0.303E-05    0.238E-05
DAV:   2    -0.102169617661E+02    0.13248E-08   -0.29352E-12   448   0.117E-05
   9 F= -.10216962E+02 E0= -.10207731E+02  d E =-.642525E-01
       N       E                     dE             d eps       ncg     rms          rms(c)
DAV:   1    -0.102212263367E+02   -0.42646E-02   -0.48962E+00  1256   0.126E+01    0.132E+00
DAV:   2    -0.101756982327E+02    0.45528E-01   -0.95630E-02  1128   0.238E+00    0.746E-01
DAV:   3    -0.101525572988E+02    0.23141E-01   -0.65211E-02  1240   0.141E+00    0.736E-02
DAV:   4    -0.101527199538E+02   -0.16266E-03   -0.23799E-03   968   0.390E-01
  10 F= -.10152720E+02 E0= -.10141784E+02  d E =-.106402E-04
