unknown system                          
   1.00000000000000     
     0.000000    2.744802    2.744802
     2.744802    0.000000    2.744802
     2.744802    2.744802   -0.000000
   Si
     2
Direct
  0.500000  0.500000  0.500000
  0.750000  0.750000  0.750000
 
   32   32   32
 0.87668     0.89832     0.96441      1.0786      1.2470      1.4777      1.7803      2.1641      2.6352      3.1923    
  3.8226      4.4978      5.1739      5.7941      6.2965      6.6246      6.7388      6.6246      6.2964      5.7940    
  5.1738      4.4977      3.8226      3.1924      2.6353      2.1642      1.7804      1.4778      1.2470      1.0786    
 0.96435     0.89828     0.89832     0.93568      1.0124      1.1323      1.3008      1.5246      1.8104      2.1640    
  2.5869      3.0737      3.6079      4.1608      4.6914      5.1511      5.4914      5.6727      5.6727      5.4914    
  5.1511      4.6913      4.1608      3.6080      3.0738      2.5871      2.1641      1.8105      1.5246      1.3008    
  1.1322      1.0123     0.93563     0.89830     0.96441      1.0124      1.0950      1.2158      1.3795      1.5911    
  1.8551      2.1740      2.5460      2.9622      3.4045      3.8451      4.2477      4.5729      4.7850      4.8587    
  4.7850      4.5729      4.2477      3.8451      3.4046      2.9623      2.5461      2.1741      1.8552      1.5911    
  1.3795      1.2157      1.0949      1.0123     0.96439     0.94868      1.0786      1.1323      1.2158      1.3325    
  1.4861      1.6805      1.9181      2.1990      2.5186      2.8661      3.2229      3.5633      3.8569      4.0735    
  4.1887      4.1887      4.0735      3.8569      3.5633      3.2230      2.8662      2.5187      2.1990      1.9181    
  1.6804      1.4861      1.3324      1.2158      1.1323      1.0786      1.0524      1.0524      1.2470      1.3008    
  1.3795      1.4861      1.6239      1.7957      2.0025      2.2424      2.5090      2.7905      3.0688      3.3217    
  3.5250      3.6572      3.7030      3.6571      3.5250      3.3217      3.0689      2.7905      2.5091      2.2424    
  2.0024      1.7956      1.6238      1.4860      1.3795      1.3008      1.2470      1.2157      1.2054      1.2156    
  1.4777      1.5246      1.5911      1.6805      1.7957      1.9388      2.1099      2.3057      2.5186      2.7368    
  2.9440      3.1218      3.2525      3.3218      3.3218      3.2525      3.1218      2.9440      2.7368      2.5187    
  2.3057      2.1099      1.9388      1.7956      1.6804      1.5911      1.5246      1.4777      1.4479      1.4334    
  1.4334      1.4479      1.7803      1.8104      1.8551      1.9181      2.0025      2.1099      2.2396      2.3876    
  2.5460      2.7037      2.8470      2.9621      3.0367      3.0625      3.0367      2.9621      2.8470      2.7037    
  2.5460      2.3876      2.2396      2.1098      2.0024      1.9180      1.8551      1.8105      1.7804      1.7614    
  1.7510      1.7477      1.7510      1.7613      2.1641      2.1640      2.1740      2.1990      2.2424      2.3057    
  2.3876      2.4838      2.5869      2.6875      2.7749      2.8395      2.8738      2.8738      2.8395      2.7749    
  2.6875      2.5870      2.4838      2.3876      2.3057      2.2423      2.1990      2.1740      2.1641      2.1642    
  2.1695      2.1755      2.1793      2.1793      2.1755      2.1694      2.6352      2.5869      2.5460      2.5186    
  2.5090      2.5186      2.5460      2.5869      2.6352      2.6833      2.7238      2.7507      2.7602      2.7508    
  2.7238      2.6833      2.6353      2.5870      2.5460      2.5187      2.5091      2.5187      2.5460      2.5870    
  2.6353      2.6833      2.7238      2.7508      2.7602      2.7507      2.7238      2.6833      3.1923      3.0737    
  2.9622      2.8661      2.7905      2.7368      2.7037      2.6875      2.6833      2.6857      2.6900      2.6931    
  2.6931      2.6901      2.6858      2.6834      2.6876      2.7037      2.7369      2.7906      2.8662      2.9623    
  3.0737      3.1924      3.3073      3.4069      3.4802      3.5190      3.5190      3.4802      3.4069      3.3074    
  3.8226      3.6079      3.4045      3.2229      3.0688      2.9440      2.8470      2.7749      2.7238      2.6900    
  2.6709      2.6647      2.6709      2.6902      2.7240      2.7751      2.8472      2.9441      3.0689      3.2230    
  3.4046      3.6079      3.8226      4.0335      4.2232      4.3739      4.4709      4.5044      4.4710      4.3740    
  4.2233      4.0336      4.4978      4.1608      3.8451      3.5633      3.3217      3.1218      2.9621      2.8395    
  2.7507      2.6931      2.6647      2.6647      2.6932      2.7509      2.8397      2.9623      3.1220      3.3218    
  3.5633      3.8451      4.1607      4.4977      4.8365      5.1525      5.4192      5.6123      5.7137      5.7138    
  5.6124      5.4193      5.1526      4.8366      5.1739      4.6914      4.2477      3.8569      3.5250      3.2525    
  3.0367      2.8738      2.7602      2.6931      2.6709      2.6932      2.7603      2.8740      3.0369      3.2527    
  3.5251      3.8569      4.2476      4.6913      5.1738      5.6714      6.1520      6.5785      6.9142      7.1288    
  7.2026      7.1288      6.9143      6.5786      6.1522      5.6715      5.7941      5.1511      4.5729      4.0735    
  3.6572      3.3218      3.0625      2.8738      2.7508      2.6901      2.6902      2.7509      2.8740      3.0627    
  3.3220      3.6572      4.0735      4.5728      5.1510      5.7940      6.4753      7.1558      7.7872      8.3179    
  8.7012      8.9022      8.9022      8.7013      8.3180      7.7872      7.1559      6.4754      6.2965      5.4914    
  4.7850      4.1887      3.7030      3.3218      3.0367      2.8395      2.7238      2.6858      2.7240      2.8397    
  3.0369      3.3220      3.7031      4.1887      4.7849      5.4913      6.2964      7.1735      8.0793      8.9555    
  9.7346      10.350      10.744      10.880      10.744      10.350      9.7345      8.9554      8.0794      7.1736    
  6.6246      5.6727      4.8587      4.1887      3.6571      3.2525      2.9621      2.7749      2.6833      2.6834    
  2.7751      2.9623      3.2527      3.6572      4.1887      4.8587      5.6726      6.6245      7.6914      8.8297    
  9.9754      11.048      11.958      12.621      12.971      12.971      12.621      11.958      11.047      9.9753    
  8.8297      7.6915      6.7388      5.6727      4.7850      4.0735      3.5250      3.1218      2.8470      2.6875    
  2.6353      2.6876      2.8472      3.1220      3.5251      4.0735      4.7849      5.6726      6.7387      7.9676    
  9.3212      10.736      12.123      13.378      14.384      15.038      15.264      15.038      14.384      13.378    
  12.123      10.736      9.3212      7.9677      6.6246      5.4914      4.5729      3.8569      3.3217      2.9440    
  2.7037      2.5870      2.5870      2.7037      2.9441      3.3218      3.8569      4.5728      5.4913      6.6245    
  7.9676      9.4924      11.143      12.833      14.448      15.847      16.875      17.418      17.418      16.875    
  15.847      14.448      12.833      11.143      9.4924      7.9677      6.2964      5.1511      4.2477      3.5633    
  3.0689      2.7368      2.5460      2.4838      2.5460      2.7369      3.0689      3.5633      4.2476      5.1510    
  6.2964      7.6914      9.3212      11.143      13.081      15.026      16.816      18.254      19.183      19.503    
  19.183      18.254      16.816      15.026      13.081      11.143      9.3212      7.6914      5.7940      4.6913    
  3.8451      3.2230      2.7905      2.5187      2.3876      2.3876      2.5187      2.7906      3.2230      3.8451    
  4.6913      5.7940      7.1735      8.8297      10.736      12.833      15.026      17.155      18.994      20.342    
  21.053      21.053      20.342      18.994      17.156      15.026      12.833      10.736      8.8297      7.1735    
  5.1738      4.1608      3.4046      2.8662      2.5091      2.3057      2.2396      2.3057      2.5091      2.8662    
  3.4046      4.1607      5.1738      6.4753      8.0793      9.9754      12.123      14.448      16.816      18.994    
  20.746      21.881      22.274      21.881      20.746      18.994      16.816      14.448      12.123      9.9753    
  8.0792      6.4752      4.4977      3.6080      2.9623      2.5187      2.2424      2.1099      2.1098      2.2423    
  2.5187      2.9623      3.6079      4.4977      5.6714      7.1558      8.9555      11.048      13.378      15.847    
  18.254      20.342      21.881      22.699      22.699      21.881      20.342      18.254      15.847      13.378    
  11.047      8.9553      7.1557      5.6713      3.8226      3.0738      2.5461      2.1990      2.0024      1.9388    
  2.0024      2.1990      2.5460      3.0737      3.8226      4.8365      6.1520      7.7872      9.7346      11.958    
  14.384      16.875      19.183      21.053      22.274      22.699      22.274      21.053      19.183      16.875    
  14.384      11.958      9.7344      7.7870      6.1519      4.8364      3.1924      2.5871      2.1741      1.9181    
  1.7956      1.7956      1.9180      2.1740      2.5870      3.1924      4.0335      5.1525      6.5785      8.3179    
  10.350      12.621      15.038      17.418      19.503      21.053      21.881      21.881      21.053      19.503    
  17.418      15.038      12.621      10.350      8.3178      6.5784      5.1524      4.0334      2.6353      2.1641    
  1.8552      1.6804      1.6238      1.6804      1.8551      2.1641      2.6353      3.3073      4.2232      5.4192    
  6.9142      8.7012      10.744      12.971      15.264      17.418      19.183      20.342      20.746      20.342    
  19.183      17.418      15.264      12.971      10.744      8.7011      6.9140      5.4191      4.2231      3.3073    
  2.1642      1.8105      1.5911      1.4861      1.4860      1.5911      1.8105      2.1642      2.6833      3.4069    
  4.3739      5.6123      7.1288      8.9022      10.880      12.971      15.038      16.875      18.254      18.994    
  18.994      18.254      16.875      15.038      12.971      10.880      8.9020      7.1286      5.6122      4.3739    
  3.4069      2.6834      1.7804      1.5246      1.3795      1.3324      1.3795      1.5246      1.7804      2.1695    
  2.7238      3.4802      4.4709      5.7137      7.2026      8.9022      10.744      12.621      14.384      15.847    
  16.816      17.156      16.816      15.847      14.384      12.621      10.744      8.9020      7.2025      5.7136    
  4.4709      3.4802      2.7239      2.1695      1.4778      1.3008      1.2157      1.2158      1.3008      1.4777    
  1.7614      2.1755      2.7508      3.5190      4.5044      5.7138      7.1288      8.7013      10.350      11.958    
  13.378      14.448      15.026      15.026      14.448      13.378      11.958      10.350      8.7011      7.1286    
  5.7136      4.5043      3.5190      2.7508      2.1756      1.7615      1.2470      1.1322      1.0949      1.1323    
  1.2470      1.4479      1.7510      2.1793      2.7602      3.5190      4.4710      5.6124      6.9143      8.3180    
  9.7345      11.047      12.123      12.833      13.081      12.833      12.123      11.047      9.7344      8.3178    
  6.9140      5.6122      4.4709      3.5190      2.7603      2.1794      1.7511      1.4480      1.0786      1.0123    
  1.0123      1.0786      1.2157      1.4334      1.7477      2.1793      2.7507      3.4802      4.3740      5.4193    
  6.5786      7.7872      8.9554      9.9753      10.736      11.143      11.143      10.736      9.9753      8.9553    
  7.7870      6.5784      5.4191      4.3739      3.4802      2.7508      2.1794      1.7478      1.4335      1.2157    
 0.96435     0.93563     0.96439      1.0524      1.2054      1.4334      1.7510      2.1755      2.7238      3.4069    
  4.2233      5.1526      6.1522      7.1559      8.0794      8.8297      9.3212      9.4924      9.3212      8.8297    
  8.0792      7.1557      6.1519      5.1524      4.2231      3.4069      2.7239      2.1756      1.7511      1.4335    
  1.2054      1.0524     0.89828     0.89830     0.94868      1.0524      1.2156      1.4479      1.7613      2.1694    
  2.6833      3.3074      4.0336      4.8366      5.6715      6.4754      7.1736      7.6915      7.9677      7.9677    
  7.6914      7.1735      6.4752      5.6713      4.8364      4.0334      3.3073      2.6834      2.1695      1.7615    
  1.4480      1.2157      1.0524     0.94862     0.89832     0.93568      1.0124      1.1323      1.3008      1.5246    
  1.8104      2.1640      2.5869      3.0737      3.6079      4.1608      4.6914      5.1511      5.4915      5.6727    
  5.6727      5.4914      5.1511      4.6913      4.1608      3.6080      3.0738      2.5871      2.1641      1.8105    
  1.5246      1.3008      1.1322      1.0123     0.93563     0.89830     0.93568     0.98249      1.0632      1.1814    
  1.3417      1.5490      1.8077      2.1199      2.4838      2.8907      3.3229      3.7533      4.1466      4.4645    
  4.6717      4.7438      4.6717      4.4644      4.1466      3.7533      3.3230      2.8908      2.4839      2.1200    
  1.8077      1.5490      1.3417      1.1813      1.0631     0.98245     0.93566     0.92035      1.0124      1.0632    
  1.1425      1.2538      1.4007      1.5866      1.8140      2.0824      2.3876      2.7190      3.0591      3.3836    
  3.6637      3.8705      3.9806      3.9806      3.8705      3.6637      3.3836      3.0591      2.7191      2.3877    
  2.0825      1.8140      1.5866      1.4006      1.2537      1.1425      1.0631      1.0124     0.98766     0.98766    
  1.1323      1.1814      1.2538      1.3525      1.4808      1.6410      1.8339      2.0574      2.3057      2.5675    
  2.8265      3.0621      3.2517      3.3752      3.4180      3.3751      3.2517      3.0621      2.8266      2.5676    
  2.3057      2.0575      1.8339      1.6409      1.4807      1.3525      1.2537      1.1814      1.1323      1.1039    
  1.0947      1.1039      1.3008      1.3417      1.4007      1.4808      1.5850      1.7150      1.8706      2.0486    
  2.2424      2.4409      2.6297      2.7922      2.9117      2.9752      2.9752      2.9117      2.7921      2.6297    
  2.4409      2.2424      2.0487      1.8706      1.7149      1.5849      1.4807      1.4006      1.3417      1.3008    
  1.2752      1.2629      1.2629      1.2752      1.5246      1.5490      1.5866      1.6410      1.7150      1.8101    
  1.9255      2.0574      2.1990      2.3402      2.4689      2.5725      2.6399      2.6632      2.6399      2.5725    
  2.4689      2.3402      2.1990      2.0574      1.9255      1.8101      1.7149      1.6409      1.5866      1.5490    
  1.5246      1.5099      1.5021      1.4997      1.5021      1.5098      1.8104      1.8077      1.8140      1.8339    
  1.8706      1.9255      1.9974      2.0824      2.1740      2.2636      2.3418      2.3997      2.4306      2.4306    
  2.3997      2.3418      2.2637      2.1741      2.0825      1.9974      1.9254      1.8705      1.8338      1.8140    
  1.8077      1.8105      1.8176      1.8249      1.8293      1.8293      1.8248      1.8175      2.1640      2.1199    
  2.0824      2.0574      2.0486      2.0574      2.0824      2.1199      2.1640      2.2080      2.2451      2.2698    
  2.2785      2.2698      2.2451      2.2080      2.1640      2.1199      2.0825      2.0574      2.0486      2.0574    
  2.0824      2.1199      2.1640      2.2080      2.2451      2.2698      2.2785      2.2698      2.2451      2.2080    
  2.5869      2.4838      2.3876      2.3057      2.2424      2.1990      2.1740      2.1640      2.1641      2.1694    
  2.1755      2.1793      2.1793      2.1755      2.1695      2.1642      2.1641      2.1740      2.1990      2.2423    
  2.3057      2.3876      2.4838      2.5870      2.6875      2.7749      2.8395      2.8738      2.8738      2.8395    
  2.7749      2.6875      3.0737      2.8907      2.7190      2.5675      2.4409      2.3402      2.2636      2.2080    
  2.1694      2.1444      2.1304      2.1259      2.1305      2.1445      2.1695      2.2081      2.2637      2.3401    
  2.4408      2.5675      2.7190      2.8907      3.0737      3.2551      3.4195      3.5509      3.6360      3.6654    
  3.6360      3.5510      3.4195      3.2551      3.6079      3.3229      3.0591      2.8265      2.6297      2.4689    
  2.3418      2.2451      2.1755      2.1304      2.1082      2.1083      2.1305      2.1756      2.2452      2.3419    
  2.4689      2.6296      2.8265      3.0590      3.3229      3.6079      3.8978      4.1712      4.4041      4.5742    
  4.6640      4.6640      4.5743      4.4042      4.1712      3.8979      4.1608      3.7533      3.3836      3.0621    
  2.7922      2.5725      2.3997      2.2698      2.1793      2.1259      2.1083      2.1260      2.1795      2.2700    
  2.3998      2.5725      2.7921      3.0620      3.3835      3.7532      4.1607      4.5869      5.0043      5.3795    
  5.6781      5.8706      5.9371      5.8707      5.6782      5.3796      5.0044      4.5871      4.6914      4.1466    
  3.6637      3.2517      2.9117      2.6399      2.4306      2.2785      2.1793      2.1305      2.1305      2.1795    
  2.2786      2.4307      2.6399      2.9116      3.2516      3.6635      4.1465      4.6913      5.2775      5.8724    
  6.4327      6.9101      7.2586      7.4426      7.4426      7.2586      6.9101      6.4328      5.8725      5.2776    
  5.1511      4.4645      3.8705      3.3752      2.9752      2.6632      2.4306      2.2698      2.1755      2.1445    
  2.1756      2.2700      2.4307      2.6632      2.9751      3.3750      3.8704      4.4643      5.1510      5.9113    
  6.7095      7.4942      8.2021      8.7677      9.1334      9.2600      9.1334      8.7677      8.2022      7.4942    
  6.7096      5.9114      5.4915      4.6717      3.9806      3.4180      2.9752      2.6399      2.3997      2.2451    
  2.1695      2.1695      2.2452      2.3998      2.6399      2.9751      3.4179      3.9804      4.6716      5.4913    
  6.4248      7.4376      8.4735      9.4571      10.302      10.923      11.252      11.252      10.923      10.302    
  9.4570      8.4735      7.4377      6.4249      5.6727      4.7438      3.9806      3.3751      2.9117      2.5725    
  2.3418      2.2080      2.1642      2.2081      2.3419      2.5725      2.9116      3.3750      3.9804      4.7436    
  5.6726      6.7602      7.9780      9.2708      10.557      11.731      12.680      13.300      13.515      13.300    
  12.680      11.731      10.556      9.2708      7.9780      6.7604      5.6727      4.6717      3.8705      3.2517    
  2.7921      2.4689      2.2637      2.1640      2.1641      2.2637      2.4689      2.7921      3.2516      3.8704    
  4.6716      5.6726      6.8769      8.2663      9.7936      11.378      12.906      14.239      15.233      15.766    
  15.766      15.233      14.239      12.906      11.378      9.7936      8.2664      6.8770      5.4914      4.4644    
  3.6637      3.0621      2.6297      2.3402      2.1741      2.1199      2.1740      2.3401      2.6296      3.0620    
  3.6635      4.4643      5.4913      6.7602      8.2663      9.9758      11.819      13.683      15.417      16.844    
  17.788      18.118      17.788      16.844      15.417      13.683      11.819      9.9759      8.2664      6.7603    
  5.1511      4.1466      3.3836      2.8266      2.4409      2.1990      2.0825      2.0825      2.1990      2.4408    
  2.8265      3.3835      4.1465      5.1510      6.4248      7.9780      9.7936      11.819      13.955      16.054    
  17.920      19.330      20.090      20.090      19.330      17.920      16.054      13.955      11.819      9.7936    
  7.9780      6.4249      4.6913      3.7533      3.0591      2.5676      2.2424      2.0574      1.9974      2.0574    
  2.2423      2.5675      3.0590      3.7532      4.6913      5.9113      7.4376      9.2708      11.378      13.683    
  16.054      18.298      20.166      21.407      21.841      21.407      20.167      18.298      16.054      13.683    
  11.378      9.2708      7.4376      5.9113      4.1608      3.3230      2.7191      2.3057      2.0487      1.9255    
  1.9254      2.0486      2.3057      2.7190      3.3229      4.1607      5.2775      6.7095      8.4735      10.557    
  12.906      15.417      17.920      20.166      21.870      22.789      22.789      21.870      20.167      17.920    
  15.417      12.906      10.557      8.4735      6.7095      5.2775      3.6080      2.8908      2.3877      2.0575    
  1.8706      1.8101      1.8705      2.0574      2.3876      2.8907      3.6079      4.5869      5.8724      7.4942    
  9.4571      11.731      14.239      16.844      19.330      21.407      22.789      23.275      22.789      21.407    
  19.330      16.844      14.239      11.731      9.4570      7.4941      5.8723      4.5870      3.0738      2.4839    
  2.0825      1.8339      1.7149      1.7149      1.8338      2.0824      2.4838      3.0737      3.8978      5.0043    
  6.4327      8.2021      10.302      12.680      15.233      17.788      20.090      21.841      22.789      22.789    
  21.841      20.090      17.787      15.233      12.680      10.302      8.2020      6.4326      5.0043      3.8978    
  2.5871      2.1200      1.8140      1.6409      1.5849      1.6409      1.8140      2.1199      2.5870      3.2551    
  4.1712      5.3795      6.9101      8.7677      10.923      13.300      15.766      18.118      20.090      21.407    
  21.870      21.407      20.090      18.118      15.765      13.300      10.923      8.7676      6.9100      5.3794    
  4.1712      3.2552      2.1641      1.8077      1.5866      1.4807      1.4807      1.5866      1.8077      2.1640    
  2.6875      3.4195      4.4041      5.6781      7.2586      9.1334      11.252      13.515      15.766      17.788    
  19.330      20.167      20.167      19.330      17.787      15.765      13.515      11.252      9.1333      7.2585    
  5.6781      4.4042      3.4196      2.6876      1.8105      1.5490      1.4006      1.3525      1.4006      1.5490    
  1.8105      2.2080      2.7749      3.5509      4.5742      5.8706      7.4426      9.2600      11.252      13.300    
  15.233      16.844      17.920      18.298      17.920      16.844      15.233      13.300      11.252      9.2599    
  7.4425      5.8706      4.5743      3.5511      2.7751      2.2081      1.5246      1.3417      1.2537      1.2537    
  1.3417      1.5246      1.8176      2.2451      2.8395      3.6360      4.6640      5.9371      7.4426      9.1334    
  10.923      12.680      14.239      15.417      16.054      16.054      15.417      14.239      12.680      10.923    
  9.1333      7.4425      5.9371      4.6641      3.6361      2.8397      2.2453      1.8177      1.3008      1.1813    
  1.1425      1.1814      1.3008      1.5099      1.8249      2.2698      2.8738      3.6654      4.6640      5.8707    
  7.2586      8.7677      10.302      11.731      12.906      13.683      13.955      13.683      12.906      11.731    
  10.302      8.7676      7.2585      5.8706      4.6641      3.6655      2.8740      2.2700      1.8250      1.5099    
  1.1322      1.0631      1.0631      1.1323      1.2752      1.5021      1.8293      2.2785      2.8738      3.6360    
  4.5743      5.6782      6.9101      8.2022      9.4570      10.556      11.378      11.819      11.819      11.378    
  10.557      9.4570      8.2020      6.9100      5.6781      4.5743      3.6361      2.8740      2.2786      1.8294    
  1.5021      1.2752      1.0123     0.98245      1.0124      1.1039      1.2629      1.4997      1.8293      2.2698    
  2.8395      3.5510      4.4042      5.3796      6.4328      7.4942      8.4735      9.2708      9.7936      9.9759    
  9.7936      9.2708      8.4735      7.4941      6.4326      5.3794      4.4042      3.5511      2.8397      2.2700    
  1.8294      1.4998      1.2629      1.1039     0.93563     0.93566     0.98766      1.0947      1.2629      1.5021    
  1.8248      2.2451      2.7749      3.4195      4.1712      5.0044      5.8725      6.7096      7.4377      7.9780    
  8.2664      8.2664      7.9780      7.4376      6.7095      5.8723      5.0043      4.1712      3.4196      2.7751    
  2.2453      1.8250      1.5021      1.2629      1.0946     0.98760     0.89830     0.92035     0.98766      1.1039    
  1.2752      1.5098      1.8175      2.2080      2.6875      3.2551      3.8979      4.5871      5.2776      5.9114    
  6.4249      6.7604      6.8770      6.7603      6.4249      5.9113      5.2775      4.5870      3.8978      3.2552    
  2.6876      2.2081      1.8177      1.5099      1.2752      1.1039     0.98760     0.92030     0.96441      1.0124    
  1.0950      1.2158      1.3795      1.5911      1.8551      2.1740      2.5460      2.9622      3.4045      3.8451    
  4.2477      4.5729      4.7850      4.8587      4.7850      4.5729      4.2476      3.8451      3.4046      2.9623    
  2.5461      2.1741      1.8552      1.5911      1.3795      1.2158      1.0949      1.0123     0.96439     0.94868    
  1.0124      1.0632      1.1425      1.2538      1.4007      1.5866      1.8140      2.0824      2.3876      2.7190    
  3.0591      3.3836      3.6637      3.8705      3.9806      3.9806      3.8705      3.6636      3.3836      3.0591    
  2.7191      2.3877      2.0825      1.8140      1.5866      1.4006      1.2537      1.1425      1.0631      1.0124    
 0.98766     0.98766      1.0950      1.1425      1.2128      1.3091      1.4343      1.5908      1.7792      1.9974    
  2.2396      2.4950      2.7477      2.9776      3.1628      3.2834      3.3253      3.2834      3.1628      2.9776    
  2.7478      2.4951      2.2397      1.9975      1.7792      1.5907      1.4342      1.3090      1.2128      1.1425    
  1.0950      1.0676      1.0586      1.0676      1.2158      1.2538      1.3091      1.3848      1.4839      1.6077    
  1.7559      1.9255      2.1099      2.2989      2.4788      2.6338      2.7480      2.8087      2.8087      2.7480    
  2.6338      2.4788      2.2990      2.1100      1.9255      1.7559      1.6076      1.4838      1.3848      1.3090    
  1.2537      1.2158      1.1923      1.1811      1.1811      1.1923      1.3795      1.4007      1.4343      1.4839    
  1.5522      1.6404      1.7478      1.8706      2.0025      2.1342      2.2545      2.3516      2.4148      2.4368    
  2.4148      2.3516      2.2545      2.1342      2.0025      1.8706      1.7478      1.6404      1.5521      1.4838    
  1.4342      1.4006      1.3795      1.3674      1.3613      1.3595      1.3613      1.3673      1.5911      1.5866    
  1.5908      1.6077      1.6404      1.6902      1.7559      1.8339      1.9181      2.0008      2.0732      2.1270    
  2.1557      2.1557      2.1270      2.0732      2.0008      1.9181      1.8339      1.7559      1.6902      1.6404    
  1.6076      1.5907      1.5866      1.5911      1.5996      1.6078      1.6128      1.6128      1.6078      1.5996    
  1.8551      1.8140      1.7792      1.7559      1.7478      1.7559      1.7792      1.8140      1.8551      1.8963    
  1.9312      1.9545      1.9626      1.9545      1.9312      1.8963      1.8552      1.8140      1.7791      1.7559    
  1.7477      1.7559      1.7791      1.8140      1.8552      1.8963      1.9312      1.9545      1.9626      1.9545    
  1.9312      1.8963      2.1740      2.0824      1.9974      1.9255      1.8706      1.8339      1.8140      1.8077    
  1.8104      1.8175      1.8248      1.8293      1.8293      1.8249      1.8176      1.8105      1.8077      1.8140    
  1.8338      1.8705      1.9254      1.9974      2.0825      2.1741      2.2637      2.3418      2.3997      2.4306    
  2.4306      2.3997      2.3418      2.2636      2.5460      2.3876      2.2396      2.1099      2.0025      1.9181    
  1.8551      1.8104      1.7803      1.7613      1.7510      1.7477      1.7510      1.7614      1.7804      1.8105    
  1.8551      1.9180      2.0024      2.1098      2.2396      2.3876      2.5460      2.7037      2.8470      2.9621    
  3.0367      3.0625      3.0367      2.9621      2.8470      2.7037      2.9622      2.7190      2.4950      2.2989    
  2.1342      2.0008      1.8963      1.8175      1.7613      1.7251      1.7074      1.7075      1.7252      1.7614    
  1.8176      1.8963      2.0007      2.1341      2.2988      2.4950      2.7189      2.9622      3.2108      3.4464    
  3.6481      3.7960      3.8742      3.8742      3.7960      3.6482      3.4464      3.2108      3.4045      3.0591    
  2.7477      2.4788      2.2545      2.0732      1.9312      1.8248      1.7510      1.7074      1.6931      1.7075    
  1.7511      1.8249      1.9312      2.0731      2.2544      2.4787      2.7476      3.0590      3.4045      3.7683    
  4.1267      4.4509      4.7103      4.8782      4.9363      4.8782      4.7103      4.4509      4.1268      3.7683    
  3.8451      3.3836      2.9776      2.6338      2.3516      2.1270      1.9545      1.8293      1.7477      1.7075    
  1.7075      1.7478      1.8293      1.9545      2.1269      2.3515      2.6336      2.9774      3.3834      3.8450    
  4.3457      4.8578      5.3437      5.7604      6.0661      6.2281      6.2281      6.0662      5.7604      5.3437    
  4.8578      4.3457      4.2477      3.6637      3.1628      2.7480      2.4148      2.1557      1.9626      1.8293    
  1.7510      1.7252      1.7511      1.8293      1.9627      2.1556      2.4147      2.7478      3.1626      3.6635    