unknown system                          
   1.00000000000000     
     0.000000    2.715000    2.715000
     2.715000    0.000000    2.715000
     2.715000    2.715000    0.000000
   Si
     2
Direct
  0.500000  0.500000  0.500000
  0.750000  0.750000  0.750000
 
   32   32   32
 0.69784904035E+00 0.71887621164E+00 0.78373848937E+00 0.89743317683E+00 0.10674248454E+01
 0.13028145816E+01 0.16135055516E+01 0.20088539745E+01 0.24950053669E+01 0.30706696123E+01
 0.37223074186E+01 0.44206181140E+01 0.51200628834E+01 0.57622543127E+01 0.62832445999E+01
 0.66240823378E+01 0.67427587637E+01 0.66240207879E+01 0.62831835124E+01 0.57622532832E+01
 0.51201245495E+01 0.44206974701E+01 0.37223599204E+01 0.30706819435E+01 0.24949901075E+01
 0.20088293774E+01 0.16134829783E+01 0.13027979634E+01 0.10674155225E+01 0.89743226987E+00
 0.78374442117E+00 0.71888255405E+00 0.71887621164E+00 0.75488495275E+00 0.83001046654E+00
 0.94979558716E+00 0.11212173611E+01 0.13517180694E+01 0.16482551235E+01 0.20159071131E+01
 0.24555285367E+01 0.29605158940E+01 0.35135810762E+01 0.40849007849E+01 0.46328509467E+01
 0.51079859181E+01 0.54602161375E+01 0.56481343482E+01 0.56481412037E+01 0.54602170241E+01
 0.51079547695E+01 0.46328034737E+01 0.40848827166E+01 0.35136094536E+01 0.29605554407E+01
 0.24555345155E+01 0.20158758967E+01 0.16482207094E+01 0.13517090580E+01 0.11212318007E+01
 0.94981459528E+00 0.83002187801E+00 0.75488888852E+00 0.71887690661E+00 0.78373848937E+00
 0.83001046654E+00 0.91151315081E+00 0.10336711199E+01 0.12023309267E+01 0.14228696867E+01
 0.16993470029E+01 0.20332293509E+01 0.24214224501E+01 0.28539119365E+01 0.33117955820E+01
 0.37666553503E+01 0.41821183873E+01 0.45181069508E+01 0.47375117695E+01 0.48138553030E+01
 0.47375155615E+01 0.45181240759E+01 0.41821480990E+01 0.37666768984E+01 0.33117879650E+01
 0.28538803370E+01 0.24213925823E+01 0.20332147292E+01 0.16993369851E+01 0.14228553701E+01
 0.12023244454E+01 0.10336848300E+01 0.91153470733E+00 0.83001865280E+00 0.78373435860E+00
 0.76878740463E+00 0.89743317683E+00 0.94979558716E+00 0.10336711199E+01 0.11537561072E+01
 0.13144153598E+01 0.15190505916E+01 0.17693939323E+01 0.20643182811E+01 0.23981696099E+01
 0.27591052707E+01 0.31281205030E+01 0.34793968357E+01 0.37824767884E+01 0.40064674252E+01
 0.41257591627E+01 0.41257449987E+01 0.40064436149E+01 0.37824785951E+01 0.34794334521E+01
 0.31281566184E+01 0.27590952036E+01 0.23981097565E+01 0.20642529729E+01 0.17693660682E+01
 0.15190609374E+01 0.13144365710E+01 0.11537697386E+01 0.10336772359E+01 0.94979819698E+00
 0.89743335694E+00 0.87247035103E+00 0.87247082123E+00 0.10674248454E+01 0.11212173611E+01
 0.12023309267E+01 0.13144153598E+01 0.14604629451E+01 0.16424438834E+01 0.18605851946E+01
 0.21121239053E+01 0.23898985724E+01 0.26813752390E+01 0.29685730235E+01 0.32291640864E+01
 0.34389317674E+01 0.35755502803E+01 0.36230476918E+01 0.35755767916E+01 0.34389390766E+01
 0.32291235170E+01 0.29685094480E+01 0.26813310085E+01 0.23898824901E+01 0.21121143157E+01
 0.18605707918E+01 0.16424389043E+01 0.14604818696E+01 0.13144495030E+01 0.12023572579E+01
 0.11212225169E+01 0.10674145459E+01 0.10371543371E+01 0.10274555566E+01 0.10371649942E+01
 0.13028145816E+01 0.13517180694E+01 0.14228696867E+01 0.15190505916E+01 0.16424438834E+01
 0.17943185167E+01 0.19740946230E+01 0.21780209812E+01 0.23981690306E+01 0.26222654509E+01
 0.28344034878E+01 0.30165099473E+01 0.31506168577E+01 0.32219113118E+01 0.32219272366E+01
 0.31506517591E+01 0.30165298911E+01 0.28343763177E+01 0.26221965769E+01 0.23981077136E+01
 0.21780148137E+01 0.19741401447E+01 0.17943702382E+01 0.16424681491E+01 0.15190535870E+01
 0.14228721109E+01 0.13517223015E+01 0.13028090598E+01 0.12729148996E+01 0.12589538611E+01
 0.12589623576E+01 0.12729300680E+01 0.16135055516E+01 0.16482551235E+01 0.16993470029E+01
 0.17693939323E+01 0.18605851946E+01 0.19740946230E+01 0.21089011659E+01 0.22606674003E+01
 0.24214219159E+01 0.25801803970E+01 0.27240805144E+01 0.28397381368E+01 0.29149935783E+01
 0.29411375869E+01 0.29149878616E+01 0.28397443563E+01 0.27241073513E+01 0.25802154997E+01
 0.24214483400E+01 0.22606801699E+01 0.21089063178E+01 0.19741018692E+01 0.18605997976E+01
 0.17694066844E+01 0.16993383547E+01 0.16482211542E+01 0.16134713350E+01 0.15921332391E+01
 0.15810640163E+01 0.15777017560E+01 0.15810560442E+01 0.15921424135E+01 0.20088539745E+01
 0.20159071131E+01 0.20332293509E+01 0.20643182811E+01 0.21121239053E+01 0.21780209812E+01
 0.22606674003E+01 0.23555506439E+01 0.24555277938E+01 0.25519101738E+01 0.26354885442E+01
 0.26974428400E+01 0.27305198583E+01 0.27305231653E+01 0.26974480001E+01 0.26354913701E+01
 0.25519217222E+01 0.24555654286E+01 0.23556070005E+01 0.22607011240E+01 0.21779971502E+01
 0.21120580064E+01 0.20642589946E+01 0.20332003860E+01 0.20158911730E+01 0.20088346982E+01
 0.20084386549E+01 0.20110573900E+01 0.20133867591E+01 0.20133814267E+01 0.20110538626E+01
 0.20084511160E+01 0.24950053669E+01 0.24555285367E+01 0.24214224501E+01 0.23981696099E+01
 0.23898985724E+01 0.23981690306E+01 0.24214219159E+01 0.24555277938E+01 0.24950034436E+01
 0.25340688027E+01 0.25671861844E+01 0.25894536647E+01 0.25973196958E+01 0.25894663518E+01
 0.25672130153E+01 0.25340954082E+01 0.24950029500E+01 0.24554910166E+01 0.24213708617E+01
 0.23981288793E+01 0.23898662367E+01 0.23981247850E+01 0.24213643748E+01 0.24554836452E+01
 0.24949955478E+01 0.25340893258E+01 0.25672098010E+01 0.25894660699E+01 0.25973210505E+01
 0.25894558466E+01 0.25671891372E+01 0.25340718371E+01 0.30706696123E+01 0.29605158940E+01
 0.28539119365E+01 0.27591052707E+01 0.26813752390E+01 0.26222654509E+01 0.25801803970E+01
 0.25519101738E+01 0.25340688027E+01 0.25237557736E+01 0.25185652533E+01 0.25165585671E+01
 0.25165687414E+01 0.25185894017E+01 0.25237820956E+01 0.25340830156E+01 0.25518869989E+01
 0.25800995720E+01 0.26221521074E+01 0.26812958865E+01 0.27590992372E+01 0.28539467293E+01
 0.29605339179E+01 0.30706593326E+01 0.31747424362E+01 0.32632585023E+01 0.33277714050E+01
 0.33618095186E+01 0.33617950519E+01 0.33277402821E+01 0.32632384287E+01 0.31747482900E+01
 0.37223074186E+01 0.35135810762E+01 0.33117955820E+01 0.31281205030E+01 0.29685730235E+01
 0.28344034878E+01 0.27240805144E+01 0.26354885442E+01 0.25671861844E+01 0.25185652533E+01
 0.24894590587E+01 0.24797903751E+01 0.24894932088E+01 0.25185802075E+01 0.25671573414E+01
 0.26354443314E+01 0.27240427388E+01 0.28343620891E+01 0.29685285627E+01 0.31280983895E+01
 0.33118065785E+01 0.35136112658E+01 0.37223501089E+01 0.39232695100E+01 0.41005074447E+01
 0.42393711727E+01 0.43279665076E+01 0.43584376777E+01 0.43279912337E+01 0.42393739054E+01
 0.41004677323E+01 0.39232154504E+01 0.44206181140E+01 0.40849007849E+01 0.37666553503E+01
 0.34793968357E+01 0.32291640864E+01 0.30165099473E+01 0.28397381368E+01 0.26974428400E+01
 0.25894536647E+01 0.25165585671E+01 0.24797903751E+01 0.24798062567E+01 0.25165790660E+01
 0.25894347451E+01 0.26973786231E+01 0.28396615974E+01 0.30164604886E+01 0.32291653556E+01
 0.34794387708E+01 0.37666902034E+01 0.40848930661E+01 0.44206007723E+01 0.47535321436E+01
 0.50595212182E+01 0.53143694295E+01 0.54971768177E+01 0.55926621925E+01 0.55926990872E+01
 0.54972281956E+01 0.53143519792E+01 0.50594553201E+01 0.47535000157E+01 0.51200628834E+01
 0.46328509467E+01 0.41821183873E+01 0.37824767884E+01 0.34389317674E+01 0.31506168577E+01
 0.29149935783E+01 0.27305198583E+01 0.25973196958E+01 0.25165687414E+01 0.24894932088E+01
 0.25165790660E+01 0.25973058291E+01 0.27304668446E+01 0.29149286961E+01 0.31505694954E+01
 0.34389010704E+01 0.37824563360E+01 0.41821253985E+01 0.46329006347E+01 0.51201260635E+01
 0.56185932881E+01 0.60951935290E+01 0.65138391031E+01 0.68407079809E+01 0.70485733923E+01
 0.71198814370E+01 0.70485887661E+01 0.68407559415E+01 0.65139101990E+01 0.60952385346E+01
 0.56185736837E+01 0.57622543127E+01 0.51079859181E+01 0.45181069508E+01 0.40064674252E+01
 0.35755502803E+01 0.32219113118E+01 0.29411375869E+01 0.27305231653E+01 0.25894663518E+01
 0.25185894017E+01 0.25185802075E+01 0.25894347451E+01 0.27304668446E+01 0.29410732200E+01
 0.32218680442E+01 0.35755341877E+01 0.40064504919E+01 0.45180771159E+01 0.51079868800E+01
 0.57623266412E+01 0.64527560608E+01 0.71378900008E+01 0.77686697602E+01 0.82953334489E+01
 0.86739868614E+01 0.88720044266E+01 0.88720140426E+01 0.86740410022E+01 0.82954421036E+01
 0.77687581665E+01 0.71378745518E+01 0.64526611540E+01 0.62832445999E+01 0.54602161375E+01
 0.47375117695E+01 0.41257591627E+01 0.36230476918E+01 0.32219272366E+01 0.29149878616E+01
 0.26974480001E+01 0.25672130153E+01 0.25237820956E+01 0.25671573414E+01 0.26973786231E+01
 0.29149286961E+01 0.32218680442E+01 0.36229917676E+01 0.41257406277E+01 0.47375474893E+01
 0.54602759534E+01 0.62832865176E+01 0.71782390602E+01 0.80984277500E+01 0.89831692121E+01
 0.97654294738E+01 0.10380391914E+02 0.10773741128E+02 0.10909124283E+02 0.10773727263E+02
 0.10380382323E+02 0.97654348859E+01 0.89831827041E+01 0.80984359159E+01 0.71782277893E+01
 0.66240823378E+01 0.56481343482E+01 0.48138553030E+01 0.41257449987E+01 0.35755767916E+01
 0.31506517591E+01 0.28397443563E+01 0.26354913701E+01 0.25340954082E+01 0.25340830156E+01
 0.26354443314E+01 0.28396615974E+01 0.31505694954E+01 0.35755341877E+01 0.41257406277E+01
 0.48138698271E+01 0.56481750286E+01 0.66241574384E+01 0.77172273606E+01 0.88798101659E+01
 0.10043969534E+02 0.11127962561E+02 0.12044724612E+02 0.12711911468E+02 0.13063855885E+02
 0.13063759539E+02 0.12711720271E+02 0.12044619333E+02 0.11128007775E+02 0.10044065813E+02
 0.88798339701E+01 0.77171656657E+01 0.67427587637E+01 0.56481412037E+01 0.47375155615E+01
 0.40064436149E+01 0.34389390766E+01 0.30165298911E+01 0.27241073513E+01 0.25519217222E+01
 0.24950029500E+01 0.25518869989E+01 0.27240427388E+01 0.30164604886E+01 0.34389010704E+01
 0.40064504919E+01 0.47375474893E+01 0.56481750286E+01 0.67427903719E+01 0.80050267541E+01
 0.93921766657E+01 0.10835478287E+02 0.12244725576E+02 0.13514601558E+02 0.14533136734E+02
 0.15195279469E+02 0.15424822197E+02 0.15195173455E+02 0.14533006551E+02 0.13514527073E+02
 0.12244715098E+02 0.10835485040E+02 0.93921646893E+01 0.80049983718E+01 0.66240207879E+01
 0.54602170241E+01 0.45181240759E+01 0.37824785951E+01 0.32291235170E+01 0.28343763177E+01
 0.25802154997E+01 0.24555654286E+01 0.24554910166E+01 0.25800995720E+01 0.28343620891E+01
 0.32291653556E+01 0.37824563360E+01 0.45180771159E+01 0.54602759534E+01 0.66241574384E+01
 0.80050267541E+01 0.95707376461E+01 0.11259520359E+02 0.12982000946E+02 0.14623939865E+02
 0.16047171100E+02 0.17097324843E+02 0.17654181909E+02 0.17654225367E+02 0.17097358852E+02
 0.16047050985E+02 0.14623704113E+02 0.12981853110E+02 0.11259561503E+02 0.95708258961E+01
 0.80049835396E+01 0.62831835124E+01 0.51079547695E+01 0.41821480990E+01 0.34794334521E+01
 0.29685094480E+01 0.26221965769E+01 0.24214483400E+01 0.23556070005E+01 0.24213708617E+01
 0.26221521074E+01 0.29685285627E+01 0.34794387708E+01 0.41821253985E+01 0.51079868800E+01
 0.62832865176E+01 0.77172273606E+01 0.93921766657E+01 0.11259520359E+02 0.13240004784E+02
 0.15223323948E+02 0.17053572146E+02 0.18533946656E+02 0.19497291709E+02 0.19831673636E+02
 0.19497227016E+02 0.18533857731E+02 0.17053472724E+02 0.15223214011E+02 0.13239927829E+02
 0.11259508783E+02 0.93921682375E+01 0.77171486875E+01 0.57622532832E+01 0.46328034737E+01
 0.37666768984E+01 0.31281566184E+01 0.26813310085E+01 0.23981077136E+01 0.22606801699E+01
 0.22607011240E+01 0.23981288793E+01 0.26812958865E+01 0.31280983895E+01 0.37666902034E+01
 0.46329006347E+01 0.57623266412E+01 0.71782390602E+01 0.88798101659E+01 0.10835478287E+02
 0.12982000946E+02 0.15223323948E+02 0.17406537221E+02 0.19308662303E+02 0.20719403925E+02
 0.21472253675E+02 0.21472163770E+02 0.20719270108E+02 0.19308670730E+02 0.17406628485E+02
 0.15223301160E+02 0.12981847153E+02 0.10835365074E+02 0.88798167669E+01 0.71782543967E+01
 0.51201245495E+01 0.40848827166E+01 0.33117879650E+01 0.27590952036E+01 0.23898824901E+01
 0.21780148137E+01 0.21089063178E+01 0.21779971502E+01 0.23898662367E+01 0.27590992372E+01
 0.33118065785E+01 0.40848930661E+01 0.51201260635E+01 0.64527560608E+01 0.80984277500E+01
 0.10043969534E+02 0.12244725576E+02 0.14623939865E+02 0.17053572146E+02 0.19308662303E+02
 0.21148043412E+02 0.22357465768E+02 0.22780236121E+02 0.22357551983E+02 0.21148089680E+02
 0.19308601352E+02 0.17053477114E+02 0.14623895399E+02 0.12244717968E+02 0.10043946583E+02
 0.80983905385E+01 0.64527378714E+01 0.44206974701E+01 0.35136094536E+01 0.28538803370E+01
 0.23981097565E+01 0.21121143157E+01 0.19741401447E+01 0.19741018692E+01 0.21120580064E+01
 0.23981247850E+01 0.28539467293E+01 0.35136112658E+01 0.44206007723E+01 0.56185932881E+01
 0.71378900008E+01 0.89831692121E+01 0.11127962561E+02 0.13514601558E+02 0.16047171100E+02
 0.18533946656E+02 0.20719403925E+02 0.22357465768E+02 0.23239146231E+02 0.23239227845E+02
 0.22357550407E+02 0.20719282110E+02 0.18533715811E+02 0.16047086201E+02 0.13514684080E+02
 0.11128010592E+02 0.89831004891E+01 0.71378423879E+01 0.56186661945E+01 0.37223599204E+01
 0.29605554407E+01 0.24213925823E+01 0.20642529729E+01 0.18605707918E+01 0.17943702382E+01
 0.18605997976E+01 0.20642589946E+01 0.24213643748E+01 0.29605339179E+01 0.37223501089E+01
 0.47535321436E+01 0.60951935290E+01 0.77686697602E+01 0.97654294738E+01 0.12044724612E+02
 0.14533136734E+02 0.17097324843E+02 0.19497291709E+02 0.21472253675E+02 0.22780236121E+02
 0.23239227845E+02 0.22780188869E+02 0.21472182396E+02 0.19497228992E+02 0.17097279800E+02
 0.14533086740E+02 0.12044668000E+02 0.97654150502E+01 0.77687280711E+01 0.60952779443E+01
 0.47535763649E+01 0.30706819435E+01 0.24555345155E+01 0.20332147292E+01 0.17693660682E+01
 0.16424389043E+01 0.16424681491E+01 0.17694066844E+01 0.20332003860E+01 0.24554836452E+01
 0.30706593326E+01 0.39232695100E+01 0.50595212182E+01 0.65138391031E+01 0.82953334489E+01
 0.10380391914E+02 0.12711911468E+02 0.15195279469E+02 0.17654181909E+02 0.19831673636E+02
 0.21472163770E+02 0.22357551983E+02 0.22357550407E+02 0.21472182396E+02 0.19831726565E+02
 0.17654213094E+02 0.15195225510E+02 0.12711810328E+02 0.10380359983E+02 0.82954153205E+01
 0.65139508486E+01 0.50595690923E+01 0.39232681721E+01 0.24949901075E+01 0.20158758967E+01
 0.16993369851E+01 0.15190609374E+01 0.14604818696E+01 0.15190535870E+01 0.16993383547E+01
 0.20158911730E+01 0.24949955478E+01 0.31747424362E+01 0.41005074447E+01 0.53143694295E+01
 0.68407079809E+01 0.86739868614E+01 0.10773741128E+02 0.13063855885E+02 0.15424822197E+02
 0.17654225367E+02 0.19497227016E+02 0.20719270108E+02 0.21148089680E+02 0.20719282110E+02
 0.19497228992E+02 0.17654213094E+02 0.15424818502E+02 0.13063874292E+02 0.10773773023E+02
 0.86740266377E+01 0.68407682835E+01 0.53144536912E+01 0.41005853014E+01 0.31747786142E+01
 0.20088293774E+01 0.16482207094E+01 0.14228553701E+01 0.13144365710E+01 0.13144495030E+01
 0.14228721109E+01 0.16482211542E+01 0.20088346982E+01 0.25340893258E+01 0.32632585023E+01
 0.42393711727E+01 0.54971768177E+01 0.70485733923E+01 0.88720044266E+01 0.10909124283E+02
 0.13063759539E+02 0.15195173455E+02 0.17097358852E+02 0.18533857731E+02 0.19308670730E+02
 0.19308601352E+02 0.18533715811E+02 0.17097279800E+02 0.15195225510E+02 0.13063874292E+02
 0.10909192546E+02 0.88720183689E+01 0.70486187982E+01 0.54972886062E+01 0.42394760373E+01
 0.32632900320E+01 0.25340755557E+01 0.16134829783E+01 0.13517090580E+01 0.12023244454E+01
 0.11537697386E+01 0.12023572579E+01 0.13517223015E+01 0.16134713350E+01 0.20084386549E+01
 0.25672098010E+01 0.33277714050E+01 0.43279665076E+01 0.55926621925E+01 0.71198814370E+01
 0.88720140426E+01 0.10773727263E+02 0.12711720271E+02 0.14533006551E+02 0.16047050985E+02
 0.17053472724E+02 0.17406628485E+02 0.17053477114E+02 0.16047086201E+02 0.14533086740E+02
 0.12711810328E+02 0.10773773023E+02 0.88720183689E+01 0.71199127227E+01 0.55927546722E+01
 0.43280566189E+01 0.33277873797E+01 0.25671764282E+01 0.20084267283E+01 0.13027979634E+01
 0.11212318007E+01 0.10336848300E+01 0.10336772359E+01 0.11212225169E+01 0.13028090598E+01
 0.15921332391E+01 0.20110573900E+01 0.25894660699E+01 0.33618095186E+01 0.43584376777E+01
 0.55926990872E+01 0.70485887661E+01 0.86740410022E+01 0.10380382323E+02 0.12044619333E+02
 0.13514527073E+02 0.14623704113E+02 0.15223214011E+02 0.15223301160E+02 0.14623895399E+02
 0.13514684080E+02 0.12044668000E+02 0.10380359983E+02 0.86740266377E+01 0.70486187982E+01
 0.55927546722E+01 0.43584846394E+01 0.33618288135E+01 0.25894544339E+01 0.20110241261E+01
 0.15921004829E+01 0.10674155225E+01 0.94981459528E+00 0.91153470733E+00 0.94979819698E+00
 0.10674145459E+01 0.12729148996E+01 0.15810640163E+01 0.20133867591E+01 0.25973210505E+01
 0.33617950519E+01 0.43279912337E+01 0.54972281956E+01 0.68407559415E+01 0.82954421036E+01
 0.97654348859E+01 0.11128007775E+02 0.12244715098E+02 0.12981853110E+02 0.13239927829E+02
 0.12981847153E+02 0.12244717968E+02 0.11128010592E+02 0.97654150502E+01 0.82954153205E+01
 0.68407682835E+01 0.54972886062E+01 0.43280566189E+01 0.33618288135E+01 0.25973240977E+01
 0.20133694330E+01 0.15810323717E+01 0.12728886157E+01 0.89743226987E+00 0.83002187801E+00
 0.83001865280E+00 0.89743335694E+00 0.10371543371E+01 0.12589538611E+01 0.15777017560E+01
 0.20133814267E+01 0.25894558466E+01 0.33277402821E+01 0.42393739054E+01 0.53143519792E+01
 0.65139101990E+01 0.77687581665E+01 0.89831827041E+01 0.10044065813E+02 0.10835485040E+02
 0.11259561503E+02 0.11259508783E+02 0.10835365074E+02 0.10043946583E+02 0.89831004891E+01
 0.77687280711E+01 0.65139508486E+01 0.53144536912E+01 0.42394760373E+01 0.33277873797E+01
 0.25894544339E+01 0.20133694330E+01 0.15776908803E+01 0.12589368246E+01 0.10371394472E+01
 0.78374442117E+00 0.75488888852E+00 0.78373435860E+00 0.87247035103E+00 0.10274555566E+01
 0.12589623576E+01 0.15810560442E+01 0.20110538626E+01 0.25671891372E+01 0.32632384287E+01
 0.41004677323E+01 0.50594553201E+01 0.60952385346E+01 0.71378745518E+01 0.80984359159E+01
 0.88798339701E+01 0.93921646893E+01 0.95708258961E+01 0.93921682375E+01 0.88798167669E+01
 0.80983905385E+01 0.71378423879E+01 0.60952779443E+01 0.50595690923E+01 0.41005853014E+01
 0.32632900320E+01 0.25671764282E+01 0.20110241261E+01 0.15810323717E+01 0.12589368246E+01
 0.10274321382E+01 0.87246649359E+00 0.71888255405E+00 0.71887690661E+00 0.76878740463E+00
 0.87247082123E+00 0.10371649942E+01 0.12729300680E+01 0.15921424135E+01 0.20084511160E+01
 0.25340718371E+01 0.31747482900E+01 0.39232154504E+01 0.47535000157E+01 0.56185736837E+01
 0.64526611540E+01 0.71782277893E+01 0.77171656657E+01 0.80049983718E+01 0.80049835396E+01
 0.77171486875E+01 0.71782543967E+01 0.64527378714E+01 0.56186661945E+01 0.47535763649E+01
 0.39232681721E+01 0.31747786142E+01 0.25340755557E+01 0.20084267283E+01 0.15921004829E+01
 0.12728886157E+01 0.10371394472E+01 0.87246649359E+00 0.76879604815E+00 0.71887912410E+00
 0.75488755447E+00 0.83001173692E+00 0.94979644447E+00 0.11212189433E+01 0.13517196973E+01
 0.16482558584E+01 0.20159076802E+01 0.24555297861E+01 0.29605170547E+01 0.35135814753E+01
 0.40849015472E+01 0.46328529883E+01 0.51079880010E+01 0.54602169904E+01 0.56481350527E+01
 0.56481434239E+01 0.54602204701E+01 0.51079583384E+01 0.46328071398E+01 0.40848862090E+01
 0.35136107522E+01 0.29605527852E+01 0.24555285710E+01 0.20158682305E+01 0.16482118737E+01
 0.13516999936E+01 0.11212251209E+01 0.94981214263E+00 0.83002246826E+00 0.75489040286E+00
 0.71887900106E+00 0.75488755447E+00 0.79971472405E+00 0.87879619434E+00 0.99755603608E+00
 0.11619059791E+01 0.13773178907E+01 0.16478880130E+01 0.19750265712E+01 0.23555510508E+01
 0.27794354057E+01 0.32279514138E+01 0.36731418617E+01 0.40794335751E+01 0.44077962516E+01
 0.46221533807E+01 0.46967402587E+01 0.46221571064E+01 0.44077715703E+01 0.40793841904E+01
 0.36731202048E+01 0.32279818867E+01 0.27794675108E+01 0.23555232997E+01 0.19749511354E+01
 0.16478339548E+01 0.13773226305E+01 0.11619404240E+01 0.99757723245E+00 0.87879917865E+00
 0.79971824681E+00 0.75489515432E+00 0.74042482527E+00 0.83001173692E+00 0.87879619434E+00
 0.95734780582E+00 0.10705170850E+01 0.12228796612E+01 0.14179822860E+01 0.16575510522E+01
 0.19403473995E+01 0.22606676534E+01 0.26068781790E+01 0.29605774271E+01 0.32969745876E+01
 0.35869737866E+01 0.38011587656E+01 0.39151892918E+01 0.39151877533E+01 0.38011576992E+01
 0.35869813083E+01 0.32969938183E+01 0.29605963802E+01 0.26068765220E+01 0.22606392276E+01
 0.19403100056E+01 0.16575281335E+01 0.14179808916E+01 0.12228910575E+01 0.10705309787E+01
 0.95735815516E+00 0.87879952311E+00 0.83000912165E+00 0.80683034198E+00 0.80683256112E+00
 0.94979644447E+00 0.99755603608E+00 0.10705170850E+01 0.11727106106E+01 0.13074553706E+01
 0.14768298872E+01 0.16809738777E+01 0.19170384961E+01 0.21780218971E+01 0.24519638423E+01
 0.27218989859E+01 0.29668366984E+01 0.31640033758E+01 0.32923874988E+01 0.33369836687E+01
 0.32923526994E+01 0.31639872571E+01 0.29668703735E+01 0.27219443375E+01 0.24519605196E+01
 0.21779650538E+01 0.19169847900E+01 0.16809717880E+01 0.14768673848E+01 0.13074850001E+01
 0.11727082545E+01 0.10704995358E+01 0.99754950380E+00 0.94980610692E+00 0.92321700512E+00
 0.91472906869E+00 0.92320525290E+00 0.11212189433E+01 0.11619059791E+01 0.12228796612E+01
 0.13074553706E+01 0.14181433436E+01 0.15562335016E+01 0.17210232817E+01 0.19088114224E+01
 0.21121244554E+01 0.23195585229E+01 0.25163297005E+01 0.26855460099E+01 0.28103222905E+01
 0.28766967503E+01 0.28766911037E+01 0.28103146318E+01 0.26855473934E+01 0.25163311444E+01
 0.23195417293E+01 0.21120898393E+01 0.19087813313E+01 0.17210169834E+01 0.15562488119E+01
 0.14181633448E+01 0.13074654691E+01 0.12228768670E+01 0.11618975771E+01 0.11212142502E+01
 0.10970831112E+01 0.10860677695E+01 0.10860660743E+01 0.10970818904E+01 0.13517196973E+01
 0.13773178907E+01 0.14179822860E+01 0.14768298872E+01 0.15562335016E+01 0.16572928682E+01
 0.17789237511E+01 0.19170379156E+01 0.20643178702E+01 0.22106532237E+01 0.23440049389E+01
 0.24516324809E+01 0.25218594627E+01 0.25463059317E+01 0.25218949851E+01 0.24516745934E+01
 0.23440134899E+01 0.22106158160E+01 0.20642730178E+01 0.19170379045E+01 0.17789708011E+01
 0.16573349358E+01 0.15562306021E+01 0.14768008051E+01 0.14179702759E+01 0.13773301056E+01
 0.13517246526E+01 0.13375221005E+01 0.13310069456E+01 0.13292301454E+01 0.13310342569E+01
 0.13375439306E+01 0.16482558584E+01 0.16478880130E+01 0.16575510522E+01 0.16809738777E+01
 0.17210232817E+01 0.17789237511E+01 0.18534004760E+01 0.19403472055E+01 0.20332290687E+01
 0.21238779645E+01 0.22033093047E+01 0.22626481333E+01 0.22944785893E+01 0.22944906944E+01
 0.22626759805E+01 0.22033323309E+01 0.21238806874E+01 0.20332204798E+01 0.19403540983E+01
 0.18534338514E+01 0.17789620117E+01 0.17210384365E+01 0.16809646457E+01 0.16575374879E+01
 0.16478814113E+01 0.16482490124E+01 0.16544257320E+01 0.16619971786E+01 0.16670007105E+01
 0.16670087842E+01 0.16620151196E+01 0.16544408268E+01 0.20159076802E+01 0.19750265712E+01
 0.19403473995E+01 0.19170384961E+01 0.19088114224E+01 0.19170379156E+01 0.19403472055E+01
 0.19750268303E+01 0.20159075827E+01 0.20571405524E+01 0.20926821636E+01 0.21168727810E+01
 0.21254748888E+01 0.21168792389E+01 0.20926769072E+01 0.20571246234E+01 0.20159083754E+01
 0.19750545569E+01 0.19403688090E+01 0.19170182444E+01 0.19087663126E+01 0.19170180000E+01
 0.19403688348E+01 0.19750541024E+01 0.20159056646E+01 0.20571192105E+01 0.20926702241E+01
 0.21168727588E+01 0.21254693336E+01 0.21168689733E+01 0.20926807426E+01 0.20571406914E+01
 0.24555297861E+01 0.23555510508E+01 0.22606676534E+01 0.21780218971E+01 0.21121244554E+01
 0.20643178702E+01 0.20332290687E+01 0.20159075827E+01 0.20088543037E+01 0.20084512656E+01
 0.20110557407E+01 0.20133861995E+01 0.20133931345E+01 0.20110637760E+01 0.20084448536E+01
 0.20088402845E+01 0.20158945095E+01 0.20332006627E+01 0.20642572174E+01 0.21120547938E+01
 0.21779916915E+01 0.22606934467E+01 0.23555989989E+01 0.24555584122E+01 0.25519151722E+01
 0.26354853188E+01 0.26974442815E+01 0.27305228860E+01 0.27305217395E+01 0.26974453435E+01
 0.26354915376E+01 0.25519133544E+01 0.29605170547E+01 0.27794354057E+01 0.26068781790E+01
 0.24519638423E+01 0.23195585229E+01 0.22106532237E+01 0.21238779645E+01 0.20571405524E+01
 0.20084512656E+01 0.19758977717E+01 0.19575035678E+01 0.19515914171E+01 0.19574925219E+01
 0.19758982381E+01 0.20084709600E+01 0.20571393498E+01 0.21237992185E+01 0.22105075136E+01
 0.23194473545E+01 0.24519804282E+01 0.26069992216E+01 0.27795519913E+01 0.29605613560E+01
 0.31376778395E+01 0.32967542893E+01 0.34235240698E+01 0.35054585552E+01 0.35338164965E+01
 0.35054418308E+01 0.34235055535E+01 0.32967525895E+01 0.31376807587E+01 0.35135814753E+01
 0.32279514138E+01 0.29605774271E+01 0.27218989859E+01 0.25163297005E+01 0.23440049389E+01
 0.22033093047E+01 0.20926821636E+01 0.20110557407E+01 0.19575035678E+01 0.19310585409E+01
 0.19310431424E+01 0.19574811144E+01 0.20110576369E+01 0.20926808787E+01 0.22032292169E+01
 0.23438292656E+01 0.25161708417E+01 0.27219042267E+01 0.29607602923E+01 0.32281705174E+01
 0.35137011354E+01 0.38011068545E+01 0.40698951814E+01 0.42978280247E+01 0.44639026713E+01
 0.45515410074E+01 0.45515287443E+01 0.44638734138E+01 0.42978064341E+01 0.40698970778E+01
 0.38010882034E+01 0.40849015472E+01 0.36731418617E+01 0.32969745876E+01 0.29668366984E+01
 0.26855460099E+01 0.24516324809E+01 0.22626481333E+01 0.21168727810E+01 0.20133861995E+01
 0.19515914171E+01 0.19310431424E+01 0.19515818960E+01 0.20133893693E+01 0.21168547903E+01
 0.22625253560E+01 0.24514027773E+01 0.26853585567E+01 0.29668577398E+01 0.32971962998E+01
 0.36733887279E+01 0.40850286487E+01 0.45127748246E+01 0.49292764966E+01 0.53022117316E+01
 0.55986075671E+01 0.57897170471E+01 0.58557842292E+01 0.57897285700E+01 0.55986003920E+01
 0.53021893628E+01 0.49292690726E+01 0.45127529017E+01 0.46328529883E+01 0.40794335751E+01
 0.35869737866E+01 0.31640033758E+01 0.28103222905E+01 0.25218594627E+01 0.22944785893E+01
 0.21254748888E+01 0.20133931345E+01 0.19574925219E+01 0.19574811144E+01 0.20133893693E+01
 0.21254763523E+01 0.22943724203E+01 0.25215830718E+01 0.28100442604E+01 0.31639866990E+01
 0.35872554994E+01 0.40797680234E+01 0.46330012301E+01 0.52264698202E+01 0.58270290307E+01
 0.63915449301E+01 0.68722135910E+01 0.72234178774E+01 0.74090627893E+01 0.74090870294E+01
 0.72234535767E+01 0.68722178162E+01 0.63915526402E+01 0.58270869699E+01 0.52265022618E+01
 0.51079880010E+01 0.44077962516E+01 0.38011587656E+01 0.32923874988E+01 0.28766967503E+01
 0.25463059317E+01 0.22944906944E+01 0.21168792389E+01 0.20110637760E+01 0.19758982381E+01
 0.20110576369E+01 0.21168547903E+01 0.22943724203E+01 0.25460401743E+01 0.28764126402E+01
 0.32923359385E+01 0.38014247685E+01 0.44081715261E+01 0.51081998694E+01 0.58826429967E+01
 0.66951794371E+01 0.74932586719E+01 0.82133748361E+01 0.87893345078E+01 0.91623792130E+01
 0.92916407133E+01 0.91624077614E+01 0.87893537044E+01 0.82133801811E+01 0.74933005199E+01
 0.66952654020E+01 0.58826514510E+01 0.54602169904E+01 0.46221533807E+01 0.39151892918E+01
 0.33369836687E+01 0.28766911037E+01 0.25218949851E+01 0.22626759805E+01 0.20926769072E+01
 0.20084448536E+01 0.20084709600E+01 0.20926808787E+01 0.22625253560E+01 0.25215830718E+01
 0.28764126402E+01 0.33369776807E+01 0.39154880894E+01 0.46225306027E+01 0.54604143303E+01
 0.64154778378E+01 0.74523767698E+01 0.85128636387E+01 0.95197031463E+01 0.10385003645E+02
 0.11022212191E+02 0.11360802846E+02 0.11360805741E+02 0.11022200431E+02 0.10384955329E+02
 0.95196563846E+01 0.85128935912E+01 0.74524784998E+01 0.64155066500E+01 0.56481350527E+01
 0.46967402587E+01 0.39151877533E+01 0.32923526994E+01 0.28103146318E+01 0.24516745934E+01
 0.22033323309E+01 0.20571246234E+01 0.20088402845E+01 0.20571393498E+01 0.22032292169E+01
 0.24514027773E+01 0.28100442604E+01 0.32923359385E+01 0.39154880894E+01 0.46971467433E+01
 0.56483620790E+01 0.67643230841E+01 0.80159046230E+01 0.93452582505E+01 0.10666927695E+02
 0.11874278494E+02 0.12851230061E+02 0.13489877575E+02 0.13712294569E+02 0.13489858770E+02
 0.12851159103E+02 0.11874171856E+02 0.10666884645E+02 0.93453605034E+01 0.80160827922E+01
 0.67643716713E+01 0.56481434239E+01 0.46221571064E+01 0.38011576992E+01 0.31639872571E+01
 0.26855473934E+01 0.23440134899E+01 0.21238806874E+01 0.20159083754E+01 0.20158945095E+01
 0.21237992185E+01 0.23438292656E+01 0.26853585567E+01 0.31639866990E+01 0.38014247685E+01
 0.46225306027E+01 0.56483620790E+01 0.68859069724E+01 0.83173366977E+01 0.98924012983E+01
 0.11525981305E+02 0.13100747091E+02 0.14475464046E+02 0.15501972482E+02 0.16052697890E+02
 0.16052690427E+02 0.15501949622E+02 0.14475422402E+02 0.13100698902E+02 0.11525983630E+02
 0.98925119955E+01 0.83175011487E+01 0.68859444215E+01 0.54602204701E+01 0.44077715703E+01
 0.35869813083E+01 0.29668703735E+01 0.25163311444E+01 0.22106158160E+01 0.20332204798E+01
 0.19750545569E+01 0.20332006627E+01 0.22105075136E+01 0.25161708417E+01 0.29668577398E+01
 0.35872554994E+01 0.44081715261E+01 0.54604143303E+01 0.67643230841E+01 0.83173366977E+01
 0.10083484879E+02 0.11987416921E+02 0.13912749801E+02 0.15704587089E+02 0.17180835812E+02
 0.18159770163E+02 0.18503248729E+02 0.18159736205E+02 0.17180870715E+02 0.15704671169E+02
 0.13912742894E+02 0.11987325542E+02 0.10083503681E+02 0.83175264099E+01 0.67644412912E+01
 0.51079583384E+01 0.40793841904E+01 0.32969938183E+01 0.27219443375E+01 0.23195417293E+01
 0.20642730178E+01 0.19403540983E+01 0.19403688090E+01 0.20642572174E+01 0.23194473545E+01
 0.27219042267E+01 0.32971962998E+01 0.40797680234E+01 0.51081998694E+01 0.64154778378E+01
 0.80159046230E+01 0.98924012983E+01 0.11987416921E+02 0.14197451774E+02 0.16369671241E+02
 0.18304275857E+02 0.19771938621E+02 0.20565451918E+02 0.20565416636E+02 0.19771946927E+02
 0.18304440263E+02 0.16369837583E+02 0.14197415283E+02 0.11987280040E+02 0.98924439964E+01