unknown system                          
   1.00000000000000     
    -2.450000    2.450000    1.274000
     2.450000   -2.450000    1.274000
     2.450000    2.450000   -1.274000
   Si
     2
Direct
  0.250000  0.750000  0.500000
  0.000000  0.000000  0.000000
 
   32   32   32
 -5.3478     -4.1715     -1.0131      3.1724      7.2268      10.202      11.630      11.574      10.500      9.0311    
  7.5831      6.3010      5.2578      4.4748      3.9411      3.6339      3.5340      3.6339      3.9411      4.4748    
  5.2578      6.3010      7.5831      9.0311      10.500      11.574      11.630      10.202      7.2268      3.1725    
 -1.0131     -4.1716     -4.1716     -4.7809     -3.1130     0.30487      4.4486      8.1997      10.729      11.710    
  11.323      10.088      8.6083      7.2000      5.9815      5.0107      4.2984      3.8292      3.5802      3.5342    
  3.6874      4.0503      4.6441      5.4903      6.5941      7.9238      9.3934      10.826      11.734      11.512    
  9.7724      6.5675      2.4811     -1.4749     -1.0131     -3.1130     -3.1603     -1.1460      2.2878      6.1156    
  9.3229      11.240      11.693      10.965      9.6058      8.1422      6.7909      5.6492      4.7591      4.1222    
  3.7194      3.5283      3.5347      3.7383      4.1524      4.7990      5.6975      6.8472      8.2070      9.6804    
  11.059      11.824      11.414      9.5321      6.3345      2.4811      3.1725     0.30486     -1.1461     -.71279    
  1.4548      4.6556      7.9283      10.413      11.623      11.534      10.504      9.0769      7.6511      6.3725    
  5.3176      4.5135      3.9532      3.6157      3.4800      3.5353      3.7842      4.2425      4.9322      5.8699    
  7.0489      8.4198      9.8792      11.199      11.863      11.376      9.5321      6.5675      7.2268      4.4487    
  2.2878      1.4548      2.2289      4.3406      7.0899      9.6351      11.304      11.794      11.212      9.9594    
  8.5230      7.1545      5.9614      4.9997      4.2826      3.7973      3.5216      3.4369      3.5355      3.8231    
  4.3168      5.0379      5.9995      7.1891      8.5518      9.9810      11.245      11.863      11.414      9.7724    
  10.202      8.1997      6.1156      4.6556      4.3406      5.2850      7.1495      9.2905      11.024      11.876    
  11.714      10.742      9.3717      7.9660      6.6722      5.5733      4.7067      4.0746      3.6596      3.4401    
  3.4001      3.5352      3.8533      4.3721      5.1110      6.0797      7.2611      8.5966      9.9810      11.199    
  11.824      11.512      11.630      10.729      9.3228      7.9283      7.0899      7.1495      8.0957      9.5704    
  11.028      11.960      12.079      11.395      10.172      8.7795      7.4289      6.2228      5.2223      4.4488    
  3.8959      3.5443      3.3737      3.3711      3.5346      3.8739      4.4061      5.1485      6.1069      7.2611    
  8.5518      9.8792      11.059      11.734      11.574      11.710      11.240      10.413      9.6351      9.2905    
  9.5704      10.382      11.391      12.176      12.400      11.936      10.898      9.5717      8.2104      6.9344    
  5.8238      4.9205      4.2337      3.7518      3.4548      3.3246      3.3508      3.5340      3.8843      4.4176    
  5.1485      6.0797      7.1891      8.4198      9.6804      10.826      10.500      11.323      11.693      11.623    
  11.304      11.024      11.028      11.391      11.983      12.525      12.723      12.393      11.533      10.321    
  8.9951      7.6919      6.5030      5.4891      4.6770      4.0676      3.6462      3.3937      3.2943      3.3405    
  3.5338      3.8843      4.4061      5.1110      5.9995      7.0489      8.2070      9.3934      9.0311      10.088    
  10.965      11.534      11.794      11.876      11.960      12.176      12.525      12.871      13.007      12.757    
  12.059      10.997      9.7569      8.4749      7.2483      6.1516      5.2297      4.4989      3.9546      3.5817    
  3.3627      3.2842      3.3405      3.5340      3.8739      4.3721      5.0379      5.8699      6.8472      7.9238    
  7.5831      8.6083      9.6058      10.504      11.212      11.714      12.079      12.400      12.723      13.007    
  13.134      12.971      12.438      11.561      10.460      9.2549      8.0403      6.8994      5.8925      5.0530    
  4.3903      3.8975      3.5601      3.3627      3.2943      3.3508      3.5346      3.8533      4.3168      4.9322    
  5.6975      6.5941      6.3010      7.2000      8.1422      9.0769      9.9594      10.742      11.395      11.936    
  12.393      12.757      12.971      12.946      12.611      11.958      11.057      9.9912      8.8485      7.7142    
  6.6595      5.7341      4.9637      4.3539      3.8975      3.5817      3.3937      3.3246      3.3711      3.5352    
  3.8231      4.2425      4.7990      5.4903      5.2578      5.9815      6.7910      7.6511      8.5230      9.3717    
  10.172      10.898      11.533      12.059      12.438      12.611      12.518      12.137      11.491      10.631    
  9.6287      8.5635      7.5124      6.5375      5.6809      4.9637      4.3903      3.9546      3.6462      3.4548    
  3.3737      3.4001      3.5355      3.7842      4.1524      4.6441      4.4748      5.0106      5.6492      6.3725    
  7.1545      7.9660      8.7795      9.5717      10.321      10.997      11.561      11.958      12.137      12.059    
  11.712      11.118      10.325      9.4001      8.4169      7.4442      6.5375      5.7341      5.0530      4.4989    
  4.0676      3.7518      3.5443      3.4401      3.4369      3.5353      3.7383      4.0503      3.9411      4.2984    
  4.7591      5.3176      5.9614      6.6722      7.4289      8.2104      8.9951      9.7569      10.460      11.057    
  11.491      11.712      11.684      11.399      10.878      10.165      9.3221      8.4169      7.5124      6.6595    
  5.8925      5.2297      4.6770      4.2337      3.8959      3.6596      3.5216      3.4800      3.5347      3.6874    
  3.6339      3.8292      4.1222      4.5135      4.9997      5.5733      6.2228      6.9344      7.6919      8.4750    
  9.2549      9.9912      10.631      11.118      11.399      11.441      11.234      10.795      10.165      9.4001    
  8.5635      7.7142      6.8994      6.1516      5.4891      4.9205      4.4488      4.0746      3.7973      3.6157    
  3.5283      3.5342      3.5340      3.5802      3.7194      3.9532      4.2826      4.7067      5.2223      5.8238    
  6.5030      7.2483      8.0403      8.8485      9.6287      10.325      10.878      11.234      11.357      11.234    
  10.878      10.325      9.6287      8.8485      8.0403      7.2483      6.5030      5.8238      5.2223      4.7067    
  4.2826      3.9532      3.7194      3.5802      3.6339      3.5343      3.5283      3.6157      3.7973      4.0746    
  4.4488      4.9205      5.4891      6.1516      6.8994      7.7142      8.5635      9.4001      10.165      10.795    
  11.234      11.441      11.399      11.118      10.631      9.9912      9.2549      8.4749      7.6919      6.9344    
  6.2228      5.5733      4.9997      4.5135      4.1222      3.8292      3.9411      3.6875      3.5348      3.4801    
  3.5216      3.6596      3.8959      4.2337      4.6770      5.2297      5.8925      6.6595      7.5124      8.4169    
  9.3221      10.165      10.878      11.399      11.684      11.712      11.491      11.057      10.460      9.7569    
  8.9951      8.2104      7.4289      6.6722      5.9614      5.3176      4.7591      4.2984      4.4748      4.0504    
  3.7383      3.5353      3.4369      3.4401      3.5443      3.7518      4.0676      4.4988      5.0530      5.7341    
  6.5375      7.4442      8.4169      9.4001      10.325      11.118      11.712      12.059      12.137      11.958    
  11.561      10.997      10.321      9.5717      8.7795      7.9660      7.1545      6.3725      5.6492      5.0107    
  5.2578      4.6441      4.1524      3.7843      3.5355      3.4001      3.3737      3.4548      3.6461      3.9546    
  4.3903      4.9637      5.6809      6.5375      7.5124      8.5635      9.6287      10.631      11.491      12.137    
  12.518      12.611      12.438      12.059      11.533      10.898      10.172      9.3717      8.5230      7.6511    
  6.7909      5.9815      6.3010      5.4903      4.7990      4.2426      3.8231      3.5352      3.3711      3.3246    
  3.3937      3.5817      3.8975      4.3539      4.9637      5.7341      6.6595      7.7142      8.8485      9.9912    
  11.057      11.958      12.611      12.946      12.971      12.757      12.393      11.936      11.395      10.742    
  9.9594      9.0769      8.1422      7.2000      7.5831      6.5941      5.6975      4.9322      4.3168      3.8533    
  3.5346      3.3508      3.2943      3.3626      3.5600      3.8975      4.3903      5.0530      5.8925      6.8994    
  8.0403      9.2549      10.460      11.561      12.438      12.971      13.134      13.007      12.723      12.400    
  12.079      11.714      11.212      10.504      9.6058      8.6083      9.0311      7.9238      6.8472      5.8699    
  5.0379      4.3721      3.8739      3.5340      3.3404      3.2841      3.3626      3.5817      3.9546      4.4988    
  5.2297      6.1516      7.2483      8.4750      9.7569      10.997      12.059      12.757      13.007      12.871    
  12.525      12.176      11.960      11.876      11.794      11.534      10.965      10.088      10.500      9.3934    
  8.2070      7.0489      5.9994      5.1110      4.4060      3.8843      3.5338      3.3404      3.2943      3.3937    
  3.6461      4.0676      4.6770      5.4891      6.5030      7.6919      8.9951      10.321      11.533      12.393    
  12.723      12.525      11.983      11.391      11.028      11.024      11.304      11.623      11.693      11.323    
  11.574      10.826      9.6804      8.4198      7.1891      6.0797      5.1484      4.4175      3.8843      3.5340    
  3.3508      3.3246      3.4548      3.7518      4.2337      4.9205      5.8238      6.9344      8.2104      9.5717    
  10.898      11.936      12.400      12.176      11.391      10.382      9.5704      9.2905      9.6351      10.413    
  11.240      11.710      11.630      11.734      11.059      9.8792      8.5518      7.2611      6.1069      5.1484    
  4.4060      3.8739      3.5346      3.3711      3.3737      3.5443      3.8959      4.4488      5.2223      6.2228    
  7.4289      8.7795      10.172      11.395      12.079      11.960      11.028      9.5704      8.0957      7.1495    
  7.0899      7.9283      9.3229      10.729      10.202      11.512      11.824      11.199      9.9810      8.5966    
  7.2611      6.0797      5.1110      4.3721      3.8533      3.5352      3.4001      3.4401      3.6596      4.0746    
  4.7067      5.5733      6.6722      7.9660      9.3717      10.742      11.714      11.876      11.024      9.2905    
  7.1495      5.2850      4.3406      4.6556      6.1156      8.1997      7.2268      9.7724      11.414      11.863    
  11.245      9.9810      8.5518      7.1891      5.9994      5.0379      4.3168      3.8231      3.5355      3.4369    
  3.5216      3.7973      4.2826      4.9997      5.9614      7.1545      8.5230      9.9594      11.212      11.794    
  11.304      9.6351      7.0899      4.3406      2.2289      1.4548      2.2878      4.4486      3.1724      6.5675    
  9.5321      11.376      11.863      11.199      9.8792      8.4198      7.0489      5.8699      4.9322      4.2426    
  3.7843      3.5353      3.4801      3.6157      3.9532      4.5135      5.3176      6.3725      7.6511      9.0769    
  10.504      11.534      11.623      10.413      7.9283      4.6556      1.4548     -.71279     -1.1460     0.30487    
 -1.0131      2.4811      6.3344      9.5321      11.414      11.824      11.059      9.6804      8.2070      6.8472    
  5.6975      4.7990      4.1524      3.7383      3.5348      3.5283      3.7194      4.1222      4.7591      5.6492    
  6.7910      8.1422      9.6058      10.965      11.693      11.240      9.3228      6.1156      2.2878     -1.1461    
 -3.1603     -3.1130     -4.1715     -1.4749      2.4811      6.5675      9.7724      11.512      11.734      10.826    
  9.3934      7.9238      6.5941      5.4903      4.6441      4.0504      3.6875      3.5343      3.5802      3.8292    
  4.2984      5.0106      5.9815      7.2000      8.6083      10.088      11.323      11.710      10.729      8.1997    
  4.4487     0.30486     -3.1130     -4.7809     -4.1714     -3.3078     -.52612      3.3238      7.1535      10.031    
  11.457      11.445      10.412      8.9562      7.5055      6.2117      5.1518      4.3499      3.7959      3.4664    
  3.3405      3.4091      3.6776      4.1645      4.8938      5.8805      7.1106      8.5211      9.9861      11.163    
  11.455      10.383      7.8262      4.1634     0.24432     -2.8467     -3.3078     -4.1715     -2.8468     0.24434    
  4.1634      7.8262      10.383      11.455      11.163      9.9861      8.5210      7.1106      5.8805      4.8938    
  4.1645      3.6775      3.4091      3.3406      3.4664      3.7958      4.3498      5.1518      6.2118      7.5055    
  8.9561      10.412      11.446      11.457      10.031      7.1535      3.3239     -.52603     -.43208     -2.7447    
 -3.1129     -1.4290      1.7627      5.4930      8.7444      10.797      11.408      10.803      9.5018      8.0513    
  6.6970      5.5436      4.6389      3.9873      3.5697      3.3627      3.3509      3.5325      3.9201      4.5362    
  5.4026      6.5238      7.8657      9.3401      10.767      11.665      11.467      9.8325      6.8521      3.1104    
  3.5615     0.51511     -1.2373     -1.1461     0.74200      3.8050      7.1041      9.7430      11.163      11.266    
  10.361      8.9794      7.5638      6.2803      5.2138      4.3968      3.8245      3.4758      3.3287      3.3711    
  3.6048      4.0453      4.7157      5.6356      6.8033      8.1758      9.6565      11.042      11.836      11.523    
  9.8472      6.9830      7.5319      4.6114      2.1786      1.0014      1.4548      3.3637      6.0807      8.7542    
  10.650      11.385      10.994      9.8451      8.4388      7.0759      5.8758      4.9030      4.1754      3.6816    
  3.3990      3.3081      3.4001      3.6804      4.1665      4.8811      5.8406      7.0371      8.4210      9.8908    
  11.232      11.966      11.643      10.087      10.513      8.4112      6.1024      4.3214      3.6640      4.3405    
  6.0879      8.2858      10.214      11.322      11.398      10.588      9.2851      7.8983      6.6049      5.4977    
  4.6216      3.9821      3.5628      3.3414      3.3011      3.4368      3.7565      4.2787      5.0250      6.0078    
  7.2140      8.5890      10.030      11.330      12.051      11.814      12.001      11.047      9.4778      7.8145    
  6.6484      6.4023      7.1495      8.5841      10.158      11.309      11.673      11.187      10.075      8.7181    
  7.3773      6.1676      5.1590      4.3786      3.8225      3.4714      3.3045      3.3080      3.4799      3.8302    
  4.3774      5.1409      6.1292      7.3247      8.6705      10.067      11.328      12.076      12.019      12.148    
  11.582      10.560      9.5052      8.8597      8.8902      9.5703      10.595      11.520      11.949      11.684    
  10.783      9.5130      8.1699      6.8962      5.7800      4.8706      4.1811      3.7009      3.4100      3.2895    
  3.3287      3.5281      3.8990      4.4586      5.2235      6.1986      7.3632      8.6605      9.9971      11.219    
  10.999      11.856      12.196      12.009      11.489      10.954      10.703      10.877      11.391      11.976    
  12.304      12.134      11.408      10.265      8.9615      7.6654      6.4744      5.4557      4.6415      4.0345    
  3.6206      3.3801      3.2967      3.3626      3.5801      3.9601      4.5184      5.2687      6.2123      7.3268    
  8.5582      9.8221      9.5495      10.669      11.569      12.095      12.237      12.133      11.999      12.012    
  12.224      12.525      12.703      12.548      11.949      10.950      9.7287      8.4547      7.2283      6.1288    
  5.2057      4.4782      3.9427      3.5835      3.3827      3.3264      3.4090      3.6338      4.0111      4.5544    
  5.2741      6.1690      7.2169      8.3684      8.0998      9.1911      10.241      11.155      11.819      12.214    
  12.420      12.564      12.731      12.914      13.007      12.865      12.377      11.533      10.440      9.2369    
  8.0220      6.8795      5.8727      5.0378      4.3852      3.9080      3.5909      3.4178      3.3777      3.4664    
  3.6874      4.0496      4.5642      5.2389      6.0708      7.0388      6.8011      7.7652      8.7628      9.7359    
  10.629      11.373      11.935      12.348      12.664      12.907      13.037      12.971      12.624      11.965    
  11.049      9.9738      8.8258      7.6886      6.6348      5.7154      4.9569      4.3650      3.9314      3.6425    
  3.4847      3.4491      3.5326      3.7383      4.0737      4.5473      5.1648      5.9222      5.7307      6.5156    
  7.3803      8.2835      9.1797      10.028      10.794      11.446      11.978      12.392      12.669      12.762    
  12.611      12.183      11.499      10.614      9.5964      8.5243      7.4732      6.5052      5.6624      4.9656    
  4.4182      4.0127      3.7374      3.5816      3.5381      3.6049      3.7843      4.0819      4.5042      5.0550    
  4.9151      5.5056      6.1956      6.9624      7.7743      8.5965      9.3967      10.150      10.834      11.424    
  11.891      12.195      12.289      12.137      11.733      11.098      10.279      9.3400      8.3537      7.3876    
  6.4963      5.7160      5.0643      4.5443      4.1503      3.8734      3.7056      3.6419      3.6806      3.8232    
  4.0737      4.4368      4.3485      4.7519      5.2574      5.8558      6.5303      7.2574      8.0117      8.7688    
  9.5063      10.200      10.821      11.327      11.672      11.810      11.712      11.373      10.813      10.077    
  9.2266      8.3262      7.4377      6.6100      5.8758      5.2513      4.7408      4.3411      4.0469      3.8532    
  3.7568      3.7566      3.8534      4.0497      4.0111      4.2436      4.5729      4.9975      5.5111      6.1020    
  6.7546      7.4515      8.1743      8.9030      9.6118      10.265      10.818      11.219      11.422      11.399    
  11.144      10.674      10.030      9.2672      8.4462      7.6233      6.8439      6.1382      5.5226      5.0031    
  4.5804      4.2530      4.0195      3.8789      3.8304      3.8740      3.8844      3.9601      4.1271      4.3862    
  4.7367      5.1753      5.6950      6.2867      6.9396      7.6407      8.3717      9.1052      9.8021      10.413    
  10.884      11.168      11.234      11.072      10.697      10.144      9.4624      8.7098      7.9387      7.1914    
  6.4966      5.8712      5.3244      4.8614      4.4856      4.1993      4.0038      3.8990      3.9601      3.8844    
  3.8990      4.0038      4.1993      4.4856      4.8614      5.3245      5.8712      6.4965      7.1914      7.9387    
  8.7098      9.4624      10.144      10.697      11.072      11.234      11.168      10.884      10.413      9.8021    
  9.1052      8.3717      7.6407      6.9396      6.2866      5.6949      5.1753      4.7368      4.3861      4.1270    
  4.2436      4.0111      3.8740      3.8303      3.8789      4.0196      4.2530      4.5804      5.0031      5.5226    
  6.1382      6.8439      7.6233      8.4462      9.2672      10.030      10.674      11.144      11.399      11.422    
  11.219      10.818      10.265      9.6118      8.9029      8.1742      7.4515      6.7547      6.1020      5.5110    
  4.9974      4.5729      4.7519      4.3485      4.0496      3.8534      3.7567      3.7568      3.8531      4.0468    
  4.3411      4.7408      5.2513      5.8757      6.6100      7.4377      8.3262      9.2266      10.077      10.813    
  11.373      11.712      11.810      11.672      11.327      10.821      10.200      9.5062      8.7688      8.0118    
  7.2574      6.5302      5.8558      5.2574      5.5055      4.9151      4.4368      4.0736      3.8231      3.6805    
  3.6419      3.7056      3.8734      4.1503      4.5443      5.0643      5.7160      6.4963      7.3876      8.3537    
  9.3400      10.279      11.098      11.733      12.137      12.289      12.195      11.891      11.424      10.834    
  10.150      9.3967      8.5964      7.7744      6.9624      6.1956      6.5156      5.7307      5.0551      4.5042    
  4.0818      3.7842      3.6049      3.5381      3.5816      3.7374      4.0127      4.4182      4.9656      5.6624    
  6.5052      7.4732      8.5243      9.5964      10.614      11.499      12.183      12.611      12.762      12.669    
  12.392      11.978      11.446      10.794      10.028      9.1798      8.2836      7.3802      7.7652      6.8012    
  5.9222      5.1647      4.5473      4.0736      3.7383      3.5325      3.4490      3.4847      3.6425      3.9314    
  4.3649      4.9569      5.7154      6.6348      7.6886      8.8257      9.9738      11.049      11.965      12.624    
  12.971      13.037      12.907      12.664      12.348      11.935      11.373      10.629      9.7359      8.7628    
  9.1912      8.0998      7.0388      6.0708      5.2389      4.5642      4.0496      3.6873      3.4664      3.3777    
  3.4179      3.5909      3.9080      4.3852      5.0378      5.8727      6.8795      8.0220      9.2370      10.440    
  11.533      12.377      12.865      13.007      12.914      12.731      12.564      12.420      12.214      11.819    
  11.155      10.241      10.669      9.5495      8.3684      7.2169      6.1690      5.2740      4.5543      4.0111    
  3.6338      3.4090      3.3264      3.3827      3.5836      3.9427      4.4782      5.2057      6.1288      7.2283    
  8.4547      9.7287      10.950      11.949      12.548      12.703      12.525      12.224      12.012      11.999    
  12.133      12.237      12.095      11.569      11.856      10.999      9.8222      8.5583      7.3268      6.2122    
  5.2687      4.5185      3.9601      3.5800      3.3627      3.2968      3.3801      3.6206      4.0345      4.6415    
  5.4557      6.4744      7.6654      8.9615      10.265      11.408      12.134      12.304      11.976      11.391    
  10.877      10.703      10.954      11.489      12.009      12.196      12.148      12.019      11.219      9.9971    
  8.6604      7.3632      6.1986      5.2235      4.4585      3.8990      3.5282      3.3287      3.2895      3.4100    
  3.7009      4.1811      4.8706      5.7800      6.8962      8.1700      9.5131      10.783      11.684      11.949    
  11.520      10.595      9.5703      8.8902      8.8597      9.5052      10.560      11.582      11.047      12.001    
  12.076      11.328      10.067      8.6706      7.3247      6.1292      5.1409      4.3775      3.8303      3.4799    
  3.3080      3.3046      3.4715      3.8225      4.3786      5.1590      6.1676      7.3773      8.7181      10.075    
  11.187      11.673      11.309      10.158      8.5841      7.1495      6.4024      6.6484      7.8145      9.4778    
  8.4113      10.513      11.814      12.051      11.330      10.030      8.5890      7.2140      6.0078      5.0250    
  4.2788      3.7566      3.4369      3.3011      3.3414      3.5628      3.9821      4.6216      5.4977      6.6049    
  7.8983      9.2851      10.588      11.398      11.322      10.214      8.2858      6.0879      4.3406      3.6640    
  4.3215      6.1024      4.6113      7.5319      10.087      11.643      11.966      11.232      9.8908      8.4210    
  7.0371      5.8405      4.8811      4.1665      3.6805      3.4001      3.3080      3.3990      3.6816      4.1754    
  4.9030      5.8758      7.0759      8.4389      9.8451      10.994      11.385      10.650      8.7542      6.0807    
  3.3637      1.4549      1.0016      2.1787     0.51510      3.5616      6.9831      9.8472      11.523      11.836    
  11.042      9.6565      8.1757      6.8032      5.6356      4.7158      4.0453      3.6048      3.3711      3.3288    
  3.4758      3.8245      4.3967      5.2138      6.2803      7.5638      8.9794      10.361      11.266      11.163    
  9.7430      7.1040      3.8051     0.74215     -1.1460     -1.2373     -2.7446     -.43197      3.1104      6.8520    
  9.8325      11.467      11.665      10.767      9.3400      7.8657      6.5238      5.4026      4.5361      3.9201    
  3.5326      3.3510      3.3627      3.5696      3.9873      4.6390      5.5436      6.6969      8.0513      9.5019    
  10.803      11.408      10.797      8.7445      5.4931      1.7627     -1.4291     -3.1129     -1.0128     -.43189    
  1.8081      5.0011      8.2036      10.586      11.691      11.517      10.433      8.9797      7.5384      6.2487    
  5.1851      4.3723      3.8011      3.4489      3.2943      3.3264      3.5483      3.9765      4.6342      5.5391    
  6.6856      8.0246      9.4520      10.733      11.357      10.849      9.0296      6.1557      2.9163     0.24447    
 -.52595     -1.4747     -.52593      2.0101      5.3343      8.4814      10.670      11.531      11.152      9.9651    
  8.5153      7.1177      5.8931      4.9043      4.1663      3.6652      3.3776      3.2842      3.3776      3.6652    
  4.1663      4.9043      5.8931      7.1177      8.5153      9.9651      11.152      11.531      10.670      8.4814    
  5.3343      2.0101      1.8081     -.43190     -1.0128     0.24449      2.9164      6.1557      9.0296      10.849    
  11.357      10.733      9.4520      8.0245      6.6856      5.5391      4.6342      3.9765      3.5483      3.3264    
  3.2944      3.4490      3.8011      4.3723      5.1852      6.2487      7.5384      8.9797      10.433      11.517    
  11.691      10.586      8.2036      5.0011      5.2220      2.3473     0.51524     0.30501      1.7628      4.3824    
  7.3200      9.7267      11.041      11.131      10.257      8.9128      7.5244      6.2577      5.1994      4.3842    
  3.8091      3.4539      3.2967      3.3246      3.5381      3.9513      4.5870      5.4662      6.5920      7.9311    
  9.3995      10.839      11.832      11.871      10.655      8.2677      8.6808      5.9717      3.5513      2.1787    
  2.2879      3.8051      6.1824      8.6301      10.426      11.159      10.819      9.7291      8.3654      7.0312    
  5.8486      4.8853      4.1621      3.6691      3.3849      3.2895      3.3737      3.6418      4.1105      4.8025    
  5.7360      6.9083      8.2784      9.7559      11.170      12.099      12.083      10.896      11.284      9.3845    
  7.1390      5.2450      4.3215      4.6556      6.0807      8.0513      9.8765      10.989      11.134      10.407    
  9.1697      7.8254      6.5604      5.4711      4.6063      3.9744      3.5604      3.3428      3.3045      3.4401    
  3.7568      4.2727      5.0099      5.9829      7.1831      8.5635      10.030      11.412      12.308      12.319    
  12.547      11.756      10.267      8.5487      7.1863      6.6484      7.0897      8.2857      9.7356      10.878    
  11.313      10.929      9.9082      8.6097      7.3092      6.1268      5.1369      4.3705      3.8260      3.4856    
  3.3286      3.3414      3.5216      3.8789      4.4318      5.2005      6.1953      7.4025      8.7708      10.207    
  11.549      12.442      12.477      12.719      12.225      11.183      9.9926      9.1100      8.8596      9.2904    
  10.158      11.039      11.518      11.354      10.558      9.3630      8.0709      6.8343      5.7448      4.8560    
  4.1842      3.7208      3.4465      3.3428      3.3990      3.6157      4.0039      4.5815      5.3658      6.3629    
  7.5547      8.8883      10.274      11.570      11.462      12.390      12.783      12.594      11.985      11.269    
  10.775      10.703      11.028      11.520      11.854      11.758      11.130      10.071      8.8250      7.5741    
  6.4178      5.4268      4.6366      4.0524      3.6613      3.4441      3.3849      3.4758      3.7194      4.1271    
  4.7152      5.4978      6.4767      7.6310      8.9080      10.224      10.058      11.224      12.162      12.692    
  12.780      12.547      12.216      12.005      12.012      12.176      12.304      12.174      11.643      10.718    
  9.5530      8.3267      7.1410      6.0758      5.1833      4.4849      3.9784      3.6489      3.4786      3.4541    
  3.5697      3.8292      4.2437      4.8271      5.5898      6.5304      7.6263      8.8275      8.6501      9.7838    
  10.864      11.788      12.422      12.729      12.790      12.744      12.713      12.731      12.723      12.548    
  12.081      11.282      10.230      9.0687      7.8953      6.7917      5.8215      5.0221      4.4053      3.9644    
  3.6844      3.5495      3.5484      3.6776      3.9411      4.3486      4.9114      5.6369      6.5207      7.5403    
  7.3770      8.3842      9.4134      10.400      11.281      11.971      12.431      12.695      12.838      12.912    
  12.907      12.757      12.377      11.719      10.816      9.7671      8.6540      7.5557      6.5424      5.6645    
  4.9486      4.4002      4.0111      3.7672      3.6550      3.6654      3.7959      4.0504      4.4368      4.9640    
  5.6362      6.4477      6.3148      7.1447      8.0434      8.9648      9.8575      10.674      11.373      11.917    
  12.308      12.565      12.694      12.669      12.438      11.965      11.258      10.375      9.3784      8.3387    