 vasp.5.4.4.18Apr17-6-g9f103f2a35 (build Dec 09 2018 21:25:21) complex          
  
 executed on IFC18.0.1.163_CrayMP date 2019.03.19  14:01:55
 running on    8 total cores
 distrk:  each k-point on    8 cores,    1 groups
 distr:  one band on NCORES_PER_BAND=   1 cores,    8 groups


--------------------------------------------------------------------------------------------------------


 INCAR:
 POTCAR:   PAW_PBE Si 05Jan2001                   

 ----------------------------------------------------------------------------- 
|                                                                             |
|           W    W    AA    RRRRR   N    N  II  N    N   GGGG   !!!           |
|           W    W   A  A   R    R  NN   N  II  NN   N  G    G  !!!           |
|           W    W  A    A  R    R  N N  N  II  N N  N  G       !!!           |
|           W WW W  AAAAAA  RRRRR   N  N N  II  N  N N  G  GGG   !            |
|           WW  WW  A    A  R   R   N   NN  II  N   NN  G    G                |
|           W    W  A    A  R    R  N    N  II  N    N   GGGG   !!!           |
|                                                                             |
|      For optimal performance we recommend to set                            |
|        NCORE= 4 - approx SQRT( number of cores)                             |
|      NCORE specifies how many cores store one orbital (NPAR=cpu/NCORE).     |
|      This setting can  greatly improve the performance of VASP for DFT.     |
|      The default,   NCORE=1            might be grossly inefficient         |
|      on modern multi-core architectures or massively parallel machines.     |
|      Do your own testing !!!!                                               |
|      Unfortunately you need to use the default for GW and RPA calculations. |
|      (for HF NCORE is supported but not extensively tested yet)             |
|                                                                             |
 ----------------------------------------------------------------------------- 

 POTCAR:   PAW_PBE Si 05Jan2001                   
   VRHFIN =Si: s2p2                                                             
   LEXCH  = PE                                                                  
   EATOM  =   103.0669 eV,    7.5752 Ry                                         
                                                                                
   TITEL  = PAW_PBE Si 05Jan2001                                                
   LULTRA =        F    use ultrasoft PP ?                                      
   IUNSCR =        1    unscreen: 0-lin 1-nonlin 2-no                           
   RPACOR =    1.500    partial core radius                                     
   POMASS =   28.085; ZVAL   =    4.000    mass and valenz                      
   RCORE  =    1.900    outmost cutoff radius                                   
   RWIGS  =    2.480; RWIGS  =    1.312    wigner-seitz radius (au A)           
   ENMAX  =  245.345; ENMIN  =  184.009 eV                                      
   ICORE  =        2    local potential                                         
   LCOR   =        T    correct aug charges                                     
   LPAW   =        T    paw PP                                                  
   EAUG   =  322.069                                                            
   DEXC   =    -.007                                                            
   RMAX   =    2.944    core radius for proj-oper                               
   RAUG   =    1.300    factor for augmentation sphere                          
   RDEP   =    1.993    radius for radial grids                                 
   QCUT   =   -4.246; QGAM   =    8.493    optimization parameters              
                                                                                
   Description                                                                  
     l     E      TYP  RCUT    TYP  RCUT                                        
     0   .000     23  1.900                                                     
     0   .000     23  1.900                                                     
     1   .000     23  1.900                                                     
     1   .000     23  1.900                                                     
     2   .000      7  1.900                                                     
  local pseudopotential read in
  partial core-charges read in
  atomic valenz-charges read in
  non local Contribution for L=           0  read in
    real space projection operators read in
  non local Contribution for L=           0  read in
    real space projection operators read in
  non local Contribution for L=           1  read in
    real space projection operators read in
  non local Contribution for L=           1  read in
    real space projection operators read in
    PAW grid and wavefunctions read in
 
   number of l-projection  operators is LMAX  =           4
   number of lm-projection operators is LMMAX =           8
 
 PAW_PBE Si 05Jan2001                   :
 energy of atom  1       EATOM= -103.0669
 kinetic energy error for atom=    0.0013 (will be added to EATOM!!)
 
 
 POSCAR: Si2                                     
  positions in direct lattice
  No initial velocities read in
 exchange correlation table for  LEXCH =        8
   RHO(1)=    0.500       N(1)  =     2000
   RHO(2)=  100.500       N(2)  =     4000
 


--------------------------------------------------------------------------------------------------------


 ion  position               nearest neighbor table
   1  0.500  0.500  0.500-   2 2.35   2 2.35   2 2.35   2 2.35
   2  0.750  0.750  0.750-   1 2.35   1 2.35   1 2.35   1 2.35
 
  LATTYP: Found a face centered cubic cell.
 ALAT       =     5.4300000000
  
  Lattice vectors:
  
 A1 = (   0.0000000000,   2.7150000000,   2.7150000000)
 A2 = (   2.7150000000,   0.0000000000,   2.7150000000)
 A3 = (   2.7150000000,   2.7150000000,   0.0000000000)


Analysis of symmetry for initial positions (statically):
=====================================================================
 Subroutine PRICEL returns:
 Original cell was already a primitive cell.
 

 Routine SETGRP: Setting up the symmetry group for a 
 face centered cubic supercell.


 Subroutine GETGRP returns: Found 48 space group operations
 (whereof 24 operations were pure point group operations)
 out of a pool of 48 trial point group operations.


The static configuration has the point symmetry T_d .
 The point group associated with its full space group is O_h .


Analysis of symmetry for dynamics (positions and initial velocities):
=====================================================================
 Subroutine PRICEL returns:
 Original cell was already a primitive cell.
 

 Routine SETGRP: Setting up the symmetry group for a 
 face centered cubic supercell.


 Subroutine GETGRP returns: Found 48 space group operations
 (whereof 24 operations were pure point group operations)
 out of a pool of 48 trial point group operations.


The dynamic configuration has the point symmetry T_d .
 The point group associated with its full space group is O_h .


 Subroutine INISYM returns: Found 48 space group operations
 (whereof 24 operations are pure point group operations),
 and found     1 'primitive' translations

 
 
 KPOINTS: Automatic kpoint scheme                 

Automatic generation of k-mesh.
Space group operators:
 irot       det(A)        alpha          n_x          n_y          n_z        tau_x        tau_y        tau_z
    1     1.000000     0.000001     1.000000     0.000000     0.000000     0.000000     0.000000     0.000000
    2     1.000000   120.000000    -0.577350    -0.577350    -0.577350     0.000000     0.000000     0.000000
    3     1.000000   120.000000     0.577350     0.577350     0.577350     0.000000     0.000000     0.000000
    4    -1.000000    90.000000    -0.000000    -0.000000    -1.000000     0.000000     0.000000     0.000000
    5    -1.000000   180.000000    -0.000000     0.707107     0.707107     0.000000     0.000000     0.000000
    6    -1.000000    90.000000    -0.000000     1.000000    -0.000000     0.000000     0.000000     0.000000
    7     1.000000   180.000000     0.000000     0.000000    -1.000000     0.000000     0.000000     0.000000
    8     1.000000   120.000000    -0.577350     0.577350     0.577350     0.000000     0.000000     0.000000
    9     1.000000   120.000000    -0.577350     0.577350    -0.577350     0.000000     0.000000     0.000000
   10    -1.000000    90.000000     0.000000     0.000000     1.000000     0.000000     0.000000     0.000000
   11    -1.000000    90.000000    -1.000000     0.000000    -0.000000     0.000000     0.000000     0.000000
   12    -1.000000   180.000000     0.707107     0.000000     0.707107     0.000000     0.000000     0.000000
   13     1.000000   120.000000     0.577350    -0.577350     0.577350     0.000000     0.000000     0.000000
   14     1.000000   120.000000    -0.577350    -0.577350     0.577350     0.000000     0.000000     0.000000
   15     1.000000   180.000000     1.000000     0.000000     0.000000     0.000000     0.000000     0.000000
   16    -1.000000    90.000000     0.000000    -1.000000     0.000000     0.000000     0.000000     0.000000
   17    -1.000000   180.000000     0.707107     0.707107    -0.000000     0.000000     0.000000     0.000000
   18    -1.000000    90.000000     1.000000     0.000000     0.000000     0.000000     0.000000     0.000000
   19     1.000000   120.000000     0.577350    -0.577350    -0.577350     0.000000     0.000000     0.000000
   20     1.000000   180.000000     0.000000    -1.000000     0.000000     0.000000     0.000000     0.000000
   21     1.000000   120.000000     0.577350     0.577350    -0.577350     0.000000     0.000000     0.000000
   22    -1.000000   180.000000    -0.000000    -0.707107     0.707107     0.000000     0.000000     0.000000
   23    -1.000000   180.000000     0.707107    -0.707107    -0.000000     0.000000     0.000000     0.000000
   24    -1.000000   180.000000    -0.707107     0.000000     0.707107     0.000000     0.000000     0.000000
   25    -1.000000     0.000001     1.000000     0.000000     0.000000     0.250000     0.250000     0.250000
   26    -1.000000   120.000000    -0.577350    -0.577350    -0.577350     0.250000     0.250000     0.250000
   27    -1.000000   120.000000     0.577350     0.577350     0.577350     0.250000     0.250000     0.250000
   28     1.000000    90.000000    -0.000000    -0.000000    -1.000000     0.250000     0.250000     0.250000
   29     1.000000   180.000000    -0.000000     0.707107     0.707107     0.250000     0.250000     0.250000
   30     1.000000    90.000000    -0.000000     1.000000    -0.000000     0.250000     0.250000     0.250000
   31    -1.000000   180.000000     0.000000     0.000000    -1.000000     0.250000     0.250000     0.250000
   32    -1.000000   120.000000    -0.577350     0.577350     0.577350     0.250000     0.250000     0.250000
   33    -1.000000   120.000000    -0.577350     0.577350    -0.577350     0.250000     0.250000     0.250000
   34     1.000000    90.000000     0.000000     0.000000     1.000000     0.250000     0.250000     0.250000
   35     1.000000    90.000000    -1.000000     0.000000    -0.000000     0.250000     0.250000     0.250000
   36     1.000000   180.000000     0.707107     0.000000     0.707107     0.250000     0.250000     0.250000
   37    -1.000000   120.000000     0.577350    -0.577350     0.577350     0.250000     0.250000     0.250000
   38    -1.000000   120.000000    -0.577350    -0.577350     0.577350     0.250000     0.250000     0.250000
   39    -1.000000   180.000000     1.000000     0.000000     0.000000     0.250000     0.250000     0.250000
   40     1.000000    90.000000     0.000000    -1.000000     0.000000     0.250000     0.250000     0.250000
   41     1.000000   180.000000     0.707107     0.707107    -0.000000     0.250000     0.250000     0.250000
   42     1.000000    90.000000     1.000000     0.000000     0.000000     0.250000     0.250000     0.250000
   43    -1.000000   120.000000     0.577350    -0.577350    -0.577350     0.250000     0.250000     0.250000
   44    -1.000000   180.000000     0.000000    -1.000000     0.000000     0.250000     0.250000     0.250000
   45    -1.000000   120.000000     0.577350     0.577350    -0.577350     0.250000     0.250000     0.250000
   46     1.000000   180.000000    -0.000000    -0.707107     0.707107     0.250000     0.250000     0.250000
   47     1.000000   180.000000     0.707107    -0.707107    -0.000000     0.250000     0.250000     0.250000
   48     1.000000   180.000000    -0.707107     0.000000     0.707107     0.250000     0.250000     0.250000
 
 Subroutine IBZKPT returns following result:
 ===========================================
 
 Found     28 irreducible k-points:
 
 Following reciprocal coordinates:
            Coordinates               Weight
  0.083333  0.083333  0.083333     96.000000
  0.250000  0.083333  0.083333    288.000000
  0.416667  0.083333  0.083333    288.000000
 -0.416667  0.083333  0.083333    288.000000
 -0.250000  0.083333  0.083333    288.000000
 -0.083333  0.083333  0.083333    288.000000
  0.250000  0.250000  0.083333    288.000000
  0.416667  0.250000  0.083333    576.000000
 -0.416667  0.250000  0.083333    576.000000
 -0.250000  0.250000  0.083333    576.000000
 -0.083333  0.250000  0.083333    576.000000
  0.416667  0.416667  0.083333    288.000000
 -0.416667  0.416667  0.083333    576.000000
 -0.250000  0.416667  0.083333    576.000000
 -0.083333  0.416667  0.083333    576.000000
 -0.416667 -0.416667  0.083333    288.000000
 -0.250000 -0.416667  0.083333    576.000000
 -0.250000 -0.250000  0.083333    288.000000
  0.250000  0.250000  0.250000     96.000000
  0.416667  0.250000  0.250000    288.000000
 -0.416667  0.250000  0.250000    288.000000
 -0.250000  0.250000  0.250000    288.000000
  0.416667  0.416667  0.250000    288.000000
 -0.416667  0.416667  0.250000    576.000000
 -0.250000  0.416667  0.250000    576.000000
 -0.416667 -0.416667  0.250000    288.000000
  0.416667  0.416667  0.416667     96.000000
 -0.416667  0.416667  0.416667    288.000000
 
 Following cartesian coordinates:
            Coordinates               Weight
  0.015347  0.015347  0.015347     96.000000
 -0.015347  0.046041  0.046041    288.000000
 -0.046041  0.076734  0.076734    288.000000
  0.107428 -0.076734 -0.076734    288.000000
  0.076734 -0.046041 -0.046041    288.000000
  0.046041 -0.015347 -0.015347    288.000000
  0.015347  0.015347  0.076734    288.000000
 -0.015347  0.046041  0.107428    576.000000
  0.138122 -0.107428 -0.046041    576.000000
  0.107428 -0.076734 -0.015347    576.000000
  0.076734 -0.046041  0.015347    576.000000
  0.015347  0.015347  0.138122    288.000000
  0.168815 -0.138122 -0.015347    576.000000
  0.138122 -0.107428  0.015347    576.000000
  0.107428 -0.076734  0.046041    576.000000
  0.015347  0.015347 -0.168815    288.000000
 -0.015347  0.046041 -0.138122    576.000000
  0.015347  0.015347 -0.107428    288.000000
  0.046041  0.046041  0.046041     96.000000
  0.015347  0.076734  0.076734    288.000000
  0.168815 -0.076734 -0.076734    288.000000
  0.138122 -0.046041 -0.046041    288.000000
  0.046041  0.046041  0.107428    288.000000
  0.199509 -0.107428 -0.046041    576.000000
  0.168815 -0.076734 -0.015347    576.000000
  0.046041  0.046041 -0.199509    288.000000
  0.076734  0.076734  0.076734     96.000000
  0.230203 -0.076734 -0.076734    288.000000
 


--------------------------------------------------------------------------------------------------------




 Dimension of arrays:
   k-points           NKPTS =     28   k-points in BZ     NKDIM =     28   number of bands    NBANDS=      8
   number of dos      NEDOS =    301   number of ions     NIONS =      2
   non local maximal  LDIM  =      4   non local SUM 2l+1 LMDIM =      8
   total plane-waves  NPLWV =   5832
   max r-space proj   IRMAX =      1   max aug-charges    IRDMAX=   5071
   dimension x,y,z NGX =    18 NGY =   18 NGZ =   18
   dimension x,y,z NGXF=    36 NGYF=   36 NGZF=   36
   support grid    NGXF=    36 NGYF=   36 NGZF=   36
   ions per type =               2
   NGX,Y,Z   is equivalent  to a cutoff of   7.79,  7.79,  7.79 a.u.
   NGXF,Y,Z  is equivalent  to a cutoff of  15.59, 15.59, 15.59 a.u.

 SYSTEM =  unknown system                          
 POSCAR =  Si2                                     

 Startparameter for this run:
   NWRITE =      2    write-flag & timer
   PREC   = normal    normal or accurate (medium, high low for compatibility)
   ISTART =      0    job   : 0-new  1-cont  2-samecut
   ICHARG =      2    charge: 1-file 2-atom 10-const
   ISPIN  =      1    spin polarized calculation?
   LNONCOLLINEAR =      F non collinear calculations
   LSORBIT =      F    spin-orbit coupling
   INIWAV =      1    electr: 0-lowe 1-rand  2-diag
   LASPH  =      F    aspherical Exc in radial PAW
   METAGGA=      F    non-selfconsistent MetaGGA calc.

 Electronic Relaxation 1
   ENCUT  =  350.0 eV  25.72 Ry    5.07 a.u.   5.86  5.86  5.86*2*pi/ulx,y,z
   ENINI  =  350.0     initial cutoff
   ENAUG  =  322.1 eV  augmentation charge cutoff
   NELM   =     60;   NELMIN=  2; NELMDL= -5     # of ELM steps 
   EDIFF  = 0.4E-03   stopping-criterion for ELM
   LREAL  =      F    real-space projection
   NLSPLINE    = F    spline interpolate recip. space projectors
   LCOMPAT=      F    compatible to vasp.4.4
   GGA_COMPAT  = T    GGA compatible to vasp.4.4-vasp.4.6
   LMAXPAW     = -100 max onsite density
   LMAXMIX     =    2 max onsite mixed and CHGCAR
   VOSKOWN=      0    Vosko Wilk Nusair interpolation
   ROPT   =    0.00000
 Ionic relaxation
   EDIFFG = -.1E-01   stopping-criterion for IOM
   NSW    =     15    number of steps for IOM
   NBLOCK =      1;   KBLOCK =     15    inner block; outer block 
   IBRION =      2    ionic relax: 0-MD 1-quasi-New 2-CG
   NFREE  =      1    steps in history (QN), initial steepest desc. (CG)
   ISIF   =      2    stress and relaxation
   IWAVPR =     11    prediction:  0-non 1-charg 2-wave 3-comb
   ISYM   =      2    0-nonsym 1-usesym 2-fastsym
   LCORR  =      T    Harris-Foulkes like correction to forces

   POTIM  = 0.5000    time-step for ionic-motion
   TEIN   =    0.0    initial temperature
   TEBEG  =    0.0;   TEEND  =   0.0 temperature during run
   SMASS  =  -3.00    Nose mass-parameter (am)
   estimated Nose-frequenzy (Omega)   =  0.10E-29 period in steps =****** mass=  -0.337E-27a.u.
   SCALEE = 1.0000    scale energy and forces
   NPACO  =    256;   APACO  = 16.0  distance and # of slots for P.C.
   PSTRESS=    0.0 pullay stress

  Mass of Ions in am
   POMASS =  28.09
  Ionic Valenz
   ZVAL   =   4.00
  Atomic Wigner-Seitz radii
   RWIGS  =  -1.00
  virtual crystal weights 
   VCA    =   1.00
   NELECT =       8.0000    total number of electrons
   NUPDOWN=      -1.0000    fix difference up-down

 DOS related values:
   EMIN   =  10.00;   EMAX   =-10.00  energy-range for DOS
   EFERMI =   0.00
   ISMEAR =     0;   SIGMA  =   0.20  broadening in eV -4-tet -1-fermi 0-gaus

 Electronic relaxation 2 (details)
   IALGO  =     38    algorithm
   LDIAG  =      T    sub-space diagonalisation (order eigenvalues)
   LSUBROT=      F    optimize rotation matrix (better conditioning)
   TURBO    =      0    0=normal 1=particle mesh
   IRESTART =      0    0=no restart 2=restart with 2 vectors
   NREBOOT  =      0    no. of reboots
   NMIN     =      0    reboot dimension
   EREF     =   0.00    reference energy to select bands
   IMIX   =      4    mixing-type and parameters
     AMIX     =   0.40;   BMIX     =  1.00
     AMIX_MAG =   1.60;   BMIX_MAG =  1.00
     AMIN     =   0.10
     WC   =   100.;   INIMIX=   1;  MIXPRE=   1;  MAXMIX= -45

 Intra band minimization:
   WEIMIN = 0.0010     energy-eigenvalue tresh-hold
   EBREAK =  0.13E-04  absolut break condition
   DEPER  =   0.30     relativ break condition  

   TIME   =   0.40     timestep for ELM

  volume/ion in A,a.u.               =      20.01       135.05
  Fermi-wavevector in a.u.,A,eV,Ry     =   0.957176  1.808800 12.465458  0.916185
  Thomas-Fermi vector in A             =   2.086170
 
 Write flags
   LWAVE        =      T    write WAVECAR
   LDOWNSAMPLE  =      F    k-point downsampling of WAVECAR
   LCHARG       =      T    write CHGCAR
   LVTOT        =      F    write LOCPOT, total local potential
   LVHAR        =      F    write LOCPOT, Hartree potential only
   LELF         =      F    write electronic localiz. function (ELF)
   LORBIT       =      0    0 simple, 1 ext, 2 COOP (PROOUT), +10 PAW based schemes


 Dipole corrections
   LMONO  =      F    monopole corrections only (constant potential shift)
   LDIPOL =      F    correct potential (dipole corrections)
   IDIPOL =      0    1-x, 2-y, 3-z, 4-all directions 
   EPSILON=  1.0000000 bulk dielectric constant

 Exchange correlation treatment:
   GGA     =    --    GGA type
   LEXCH   =     8    internal setting for exchange type
   VOSKOWN=      0    Vosko Wilk Nusair interpolation
   LHFCALC =     F    Hartree Fock is set to
   LHFONE  =     F    Hartree Fock one center treatment
   AEXX    =    0.0000 exact exchange contribution

 Linear response parameters
   LEPSILON=     F    determine dielectric tensor
   LRPA    =     F    only Hartree local field effects (RPA)
   LNABLA  =     F    use nabla operator in PAW spheres
   LVEL    =     F    velocity operator in full k-point grid
   LINTERFAST=   F  fast interpolation
   KINTER  =     0    interpolate to denser k-point grid
   CSHIFT  =0.1000    complex shift for real part using Kramers Kronig
   OMEGAMAX=  -1.0    maximum frequency
   DEG_THRESHOLD= 0.2000000E-02 threshold for treating states as degnerate
   RTIME   =   -0.100 relaxation time in fs
  (WPLASMAI=    0.000 imaginary part of plasma frequency in eV, 0.658/RTIME)
   DFIELD  = 0.0000000 0.0000000 0.0000000 field for delta impulse in time
 
 Orbital magnetization related:
   ORBITALMAG=     F  switch on orbital magnetization
   LCHIMAG   =     F  perturbation theory with respect to B field
   DQ        =  0.001000  dq finite difference perturbation B field
   LLRAUG    =     F  two centre corrections for induced B field



--------------------------------------------------------------------------------------------------------


 conjugate gradient relaxation of ions
 charge density and potential will be updated during run
 non-spin polarized calculation
 Variant of blocked Davidson
 Davidson routine will perform the subspace rotation
 perform sub-space diagonalisation
    after iterative eigenvector-optimisation
 modified Broyden-mixing scheme, WC =      100.0
 initial mixing is a Kerker type mixing with AMIX =  0.4000 and BMIX =      1.0000
 Hartree-type preconditioning will be used
 using additional bands            4
 reciprocal scheme for non local part
 use partial core corrections
 calculate Harris-corrections to forces 
   (improved forces if not selfconsistent)
 use gradient corrections 
 use of overlap-Matrix (Vanderbilt PP)
 Gauss-broadening in eV      SIGMA  =   0.20


--------------------------------------------------------------------------------------------------------


  energy-cutoff  :      350.00
  volume of cell :       40.03
      direct lattice vectors                 reciprocal lattice vectors
     0.000000000  2.715000000  2.715000000    -0.184162063  0.184162063  0.184162063
     2.715000000  0.000000000  2.715000000     0.184162063 -0.184162063  0.184162063
     2.715000000  2.715000000  0.000000000     0.184162063  0.184162063 -0.184162063

  length of vectors
     3.839589822  3.839589822  3.839589822     0.318978049  0.318978049  0.318978049


 
 k-points in units of 2pi/SCALE and weight: Automatic kpoint scheme                 
   0.01534684  0.01534684  0.01534684       0.009
  -0.01534684  0.04604052  0.04604052       0.028
  -0.04604052  0.07673419  0.07673419       0.028
   0.10742787 -0.07673419 -0.07673419       0.028
   0.07673419 -0.04604052 -0.04604052       0.028
   0.04604052 -0.01534684 -0.01534684       0.028
   0.01534684  0.01534684  0.07673419       0.028
  -0.01534684  0.04604052  0.10742787       0.056
   0.13812155 -0.10742787 -0.04604052       0.056
   0.10742787 -0.07673419 -0.01534684       0.056
   0.07673419 -0.04604052  0.01534684       0.056
   0.01534684  0.01534684  0.13812155       0.028
   0.16881522 -0.13812155 -0.01534684       0.056
   0.13812155 -0.10742787  0.01534684       0.056
   0.10742787 -0.07673419  0.04604052       0.056
   0.01534684  0.01534684 -0.16881522       0.028
  -0.01534684  0.04604052 -0.13812155       0.056
   0.01534684  0.01534684 -0.10742787       0.028
   0.04604052  0.04604052  0.04604052       0.009
   0.01534684  0.07673419  0.07673419       0.028
   0.16881522 -0.07673419 -0.07673419       0.028
   0.13812155 -0.04604052 -0.04604052       0.028
   0.04604052  0.04604052  0.10742787       0.028
   0.19950890 -0.10742787 -0.04604052       0.056
   0.16881522 -0.07673419 -0.01534684       0.056
   0.04604052  0.04604052 -0.19950890       0.028
   0.07673419  0.07673419  0.07673419       0.009
   0.23020258 -0.07673419 -0.07673419       0.028
 
 k-points in reciprocal lattice and weights: Automatic kpoint scheme                 
   0.08333333  0.08333333  0.08333333       0.009
   0.25000000  0.08333333  0.08333333       0.028
   0.41666667  0.08333333  0.08333333       0.028
  -0.41666667  0.08333333  0.08333333       0.028
  -0.25000000  0.08333333  0.08333333       0.028
  -0.08333333  0.08333333  0.08333333       0.028
   0.25000000  0.25000000  0.08333333       0.028
   0.41666667  0.25000000  0.08333333       0.056
  -0.41666667  0.25000000  0.08333333       0.056
  -0.25000000  0.25000000  0.08333333       0.056
  -0.08333333  0.25000000  0.08333333       0.056
   0.41666667  0.41666667  0.08333333       0.028
  -0.41666667  0.41666667  0.08333333       0.056
  -0.25000000  0.41666667  0.08333333       0.056
  -0.08333333  0.41666667  0.08333333       0.056
  -0.41666667 -0.41666667  0.08333333       0.028
  -0.25000000 -0.41666667  0.08333333       0.056
  -0.25000000 -0.25000000  0.08333333       0.028
   0.25000000  0.25000000  0.25000000       0.009
   0.41666667  0.25000000  0.25000000       0.028
  -0.41666667  0.25000000  0.25000000       0.028
  -0.25000000  0.25000000  0.25000000       0.028
   0.41666667  0.41666667  0.25000000       0.028
  -0.41666667  0.41666667  0.25000000       0.056
  -0.25000000  0.41666667  0.25000000       0.056
  -0.41666667 -0.41666667  0.25000000       0.028
   0.41666667  0.41666667  0.41666667       0.009
  -0.41666667  0.41666667  0.41666667       0.028
 
 position of ions in fractional coordinates (direct lattice) 
   0.50000000  0.50000000  0.50000000
   0.75000000  0.75000000  0.75000000
 
 position of ions in cartesian coordinates  (Angst):
   2.71500000  2.71500000  2.71500000
   4.07250000  4.07250000  4.07250000
 


--------------------------------------------------------------------------------------------------------


 k-point  1 :   0.0833 0.0833 0.0833  plane waves:     585
 k-point  2 :   0.2500 0.0833 0.0833  plane waves:     586
 k-point  3 :   0.4167 0.0833 0.0833  plane waves:     601
 k-point  4 :  -0.4167 0.0833 0.0833  plane waves:     592
 k-point  5 :  -0.2500 0.0833 0.0833  plane waves:     598
 k-point  6 :  -0.0833 0.0833 0.0833  plane waves:     586
 k-point  7 :   0.2500 0.2500 0.0833  plane waves:     586
 k-point  8 :   0.4167 0.2500 0.0833  plane waves:     599
 k-point  9 :  -0.4167 0.2500 0.0833  plane waves:     592
 k-point 10 :  -0.2500 0.2500 0.0833  plane waves:     594
 k-point 11 :  -0.0833 0.2500 0.0833  plane waves:     597
 k-point 12 :   0.4167 0.4167 0.0833  plane waves:     599
 k-point 13 :  -0.4167 0.4167 0.0833  plane waves:     600
 k-point 14 :  -0.2500 0.4167 0.0833  plane waves:     596
 k-point 15 :  -0.0833 0.4167 0.0833  plane waves:     597
 k-point 16 :  -0.4167-0.4167 0.0833  plane waves:     604
 k-point 17 :  -0.2500-0.4167 0.0833  plane waves:     594
 k-point 18 :  -0.2500-0.2500 0.0833  plane waves:     597
 k-point 19 :   0.2500 0.2500 0.2500  plane waves:     589
 k-point 20 :   0.4167 0.2500 0.2500  plane waves:     597
 k-point 21 :  -0.4167 0.2500 0.2500  plane waves:     595
 k-point 22 :  -0.2500 0.2500 0.2500  plane waves:     598
 k-point 23 :   0.4167 0.4167 0.2500  plane waves:     595
 k-point 24 :  -0.4167 0.4167 0.2500  plane waves:     593
 k-point 25 :  -0.2500 0.4167 0.2500  plane waves:     598
 k-point 26 :  -0.4167-0.4167 0.2500  plane waves:     600
 k-point 27 :   0.4167 0.4167 0.4167  plane waves:     595
 k-point 28 :  -0.4167 0.4167 0.4167  plane waves:     592

 maximum and minimum number of plane-waves per node :       604      585

 maximum number of plane-waves:       604
 maximum index in each direction: 
   IXMAX=    6   IYMAX=    6   IZMAX=    5
   IXMIN=   -6   IYMIN=   -6   IZMIN=   -6


 serial   3D FFT for wavefunctions
 parallel 3D FFT for charge:
    minimum data exchange during FFTs selected (reduces bandwidth)


 total amount of memory used by VASP MPI-rank0    32201. kBytes
=======================================================================

   base      :      30000. kBytes
   nonl-proj :       1108. kBytes
   fftplans  :        247. kBytes
   grid      :        561. kBytes
   one-center:          6. kBytes
   wavefun   :        279. kBytes
 
     INWAV:  cpu time    0.0000: real time    0.0008
 Broyden mixing: mesh for mixing (old mesh)
   NGX = 11   NGY = 11   NGZ = 11
  (NGX  = 36   NGY  = 36   NGZ  = 36)
  gives a total of   1331 points

 initial charge density was supplied:
 charge density of overlapping atoms calculated
 number of electron       8.0000000 magnetization 
 keeping initial charge density in first step


--------------------------------------------------------------------------------------------------------


 Maximum index for augmentation-charges          689 (set IRDMAX)


--------------------------------------------------------------------------------------------------------


 First call to EWALD:  gamma=   0.518
 Maximum number of real-space cells 3x 3x 3
 Maximum number of reciprocal cells 3x 3x 3

    FEWALD:  cpu time    0.0080: real time    0.0074


--------------------------------------- Iteration      1(   1)  ---------------------------------------


    POTLOK:  cpu time    0.0360: real time    0.0708
    SETDIJ:  cpu time    0.0120: real time    0.0099
     EDDAV:  cpu time    0.3720: real time    0.3807
       DOS:  cpu time    0.0040: real time    0.0027
    --------------------------------------------
      LOOP:  cpu time    0.4240: real time    0.4647

 eigenvalue-minimisations  :   448
 total energy-change (2. order) : 0.5546174E+01  (-0.2889555E+03)
 number of electron       8.0000000 magnetization 
 augmentation part        8.0000000 magnetization 

 Free energy of the ion-electron system (eV)
  ---------------------------------------------------
  alpha Z        PSCENC =         3.36414203
  Ewald energy   TEWEN  =      -228.56352493
  -Hartree energ DENC   =       -11.00108243
  -exchange      EXHF   =         0.00000000
  -V(xc)+E(xc)   XCENC  =       -18.60185131
  PAW double counting   =        65.95520812      -30.76852678
  entropy T*S    EENTRO =        -0.01146144
  eigenvalues    EBANDS =        19.04201623
  atomic energy  EATOM  =       206.13125414
  Solvation  Ediel_sol  =         0.00000000
  ---------------------------------------------------
  free energy    TOTEN  =         5.54617363 eV

  energy without entropy =        5.55763507  energy(sigma->0) =        5.55190435


--------------------------------------------------------------------------------------------------------




--------------------------------------- Iteration      1(   2)  ---------------------------------------


     EDDAV:  cpu time    0.5920: real time    0.6007
       DOS:  cpu time    0.0000: real time    0.0021
    --------------------------------------------
      LOOP:  cpu time    0.5960: real time    0.6032

 eigenvalue-minimisations  :   728
 total energy-change (2. order) :-0.1638342E+02  (-0.1583354E+02)
 number of electron       8.0000000 magnetization 
 augmentation part        8.0000000 magnetization 

 Free energy of the ion-electron system (eV)
  ---------------------------------------------------
  alpha Z        PSCENC =         3.36414203
  Ewald energy   TEWEN  =      -228.56352493
  -Hartree energ DENC   =       -11.00108243
  -exchange      EXHF   =         0.00000000
  -V(xc)+E(xc)   XCENC  =       -18.60185131
  PAW double counting   =        65.95520812      -30.76852678
  entropy T*S    EENTRO =        -0.00000037
  eigenvalues    EBANDS =         2.64713383
  atomic energy  EATOM  =       206.13125414
  Solvation  Ediel_sol  =         0.00000000
  ---------------------------------------------------
  free energy    TOTEN  =       -10.83724771 eV

  energy without entropy =      -10.83724734  energy(sigma->0) =      -10.83724752


--------------------------------------------------------------------------------------------------------




--------------------------------------- Iteration      1(   3)  ---------------------------------------


     EDDAV:  cpu time    0.4240: real time    0.4316
       DOS:  cpu time    0.0040: real time    0.0032
    --------------------------------------------
      LOOP:  cpu time    0.4240: real time    0.4345

 eigenvalue-minimisations  :   512
 total energy-change (2. order) :-0.1845045E+00  (-0.1845045E+00)
 number of electron       8.0000000 magnetization 
 augmentation part        8.0000000 magnetization 

 Free energy of the ion-electron system (eV)
  ---------------------------------------------------
  alpha Z        PSCENC =         3.36414203
  Ewald energy   TEWEN  =      -228.56352493
  -Hartree energ DENC   =       -11.00108243
  -exchange      EXHF   =         0.00000000
  -V(xc)+E(xc)   XCENC  =       -18.60185131
  PAW double counting   =        65.95520812      -30.76852678
  entropy T*S    EENTRO =        -0.00000047
  eigenvalues    EBANDS =         2.46262946
  atomic energy  EATOM  =       206.13125414
  Solvation  Ediel_sol  =         0.00000000
  ---------------------------------------------------
  free energy    TOTEN  =       -11.02175218 eV

  energy without entropy =      -11.02175171  energy(sigma->0) =      -11.02175194


--------------------------------------------------------------------------------------------------------




--------------------------------------- Iteration      1(   4)  ---------------------------------------


     EDDAV:  cpu time    0.6160: real time    0.6230
       DOS:  cpu time    0.0000: real time    0.0021
    --------------------------------------------
      LOOP:  cpu time    0.6160: real time    0.6253

 eigenvalue-minimisations  :   752
 total energy-change (2. order) :-0.9221636E-03  (-0.9221637E-03)
 number of electron       8.0000000 magnetization 
 augmentation part        8.0000000 magnetization 

 Free energy of the ion-electron system (eV)
  ---------------------------------------------------
  alpha Z        PSCENC =         3.36414203
  Ewald energy   TEWEN  =      -228.56352493
  -Hartree energ DENC   =       -11.00108243
  -exchange      EXHF   =         0.00000000
  -V(xc)+E(xc)   XCENC  =       -18.60185131
  PAW double counting   =        65.95520812      -30.76852678
  entropy T*S    EENTRO =        -0.00000047
  eigenvalues    EBANDS =         2.46170729
  atomic energy  EATOM  =       206.13125414
  Solvation  Ediel_sol  =         0.00000000
  ---------------------------------------------------
  free energy    TOTEN  =       -11.02267434 eV

  energy without entropy =      -11.02267387  energy(sigma->0) =      -11.02267411


--------------------------------------------------------------------------------------------------------




--------------------------------------- Iteration      1(   5)  ---------------------------------------


     EDDAV:  cpu time    0.4640: real time    0.4716
       DOS:  cpu time    0.0000: real time    0.0023
    CHARGE:  cpu time    0.0400: real time    0.0370
    MIXING:  cpu time    0.0000: real time    0.0023
    --------------------------------------------
      LOOP:  cpu time    0.5040: real time    0.5132

 eigenvalue-minimisations  :   568
 total energy-change (2. order) :-0.1120225E-05  (-0.1120342E-05)
 number of electron       7.9999993 magnetization 
 augmentation part       -0.4707932 magnetization 

 Broyden mixing:
  rms(total) = 0.30093E+00    rms(broyden)= 0.30091E+00
  rms(prec ) = 0.87295E+00
  weight for this iteration     100.00

 Free energy of the ion-electron system (eV)
  ---------------------------------------------------
  alpha Z        PSCENC =         3.36414203
  Ewald energy   TEWEN  =      -228.56352493
  -Hartree energ DENC   =       -11.00108243
  -exchange      EXHF   =         0.00000000
  -V(xc)+E(xc)   XCENC  =       -18.60185131
  PAW double counting   =        65.95520812      -30.76852678
  entropy T*S    EENTRO =        -0.00000047
  eigenvalues    EBANDS =         2.46170617
  atomic energy  EATOM  =       206.13125414
  Solvation  Ediel_sol  =         0.00000000
  ---------------------------------------------------
  free energy    TOTEN  =       -11.02267546 eV

  energy without entropy =      -11.02267499  energy(sigma->0) =      -11.02267523


--------------------------------------------------------------------------------------------------------




--------------------------------------- Iteration      1(   6)  ---------------------------------------


    POTLOK:  cpu time    0.0280: real time    0.0382
    SETDIJ:  cpu time    0.0080: real time    0.0089
     EDDAV:  cpu time    0.4480: real time    0.4480
       DOS:  cpu time    0.0040: real time    0.0023
    CHARGE:  cpu time    0.0320: real time    0.0357
    MIXING:  cpu time    0.0040: real time    0.0022
    --------------------------------------------
      LOOP:  cpu time    0.5240: real time    0.5351

 eigenvalue-minimisations  :   552
 total energy-change (2. order) : 0.1247396E+00  (-0.8259859E-02)
 number of electron       7.9999993 magnetization 
 augmentation part       -0.4649224 magnetization 

 Broyden mixing:
  rms(total) = 0.17821E+00    rms(broyden)= 0.17821E+00
  rms(prec ) = 0.51350E+00
  weight for this iteration     100.00

 eigenvalues of (default mixing * dielectric matrix)
  average eigenvalue GAMMA=   2.4316
  2.4316

 Free energy of the ion-electron system (eV)
  ---------------------------------------------------
  alpha Z        PSCENC =         3.36414203
  Ewald energy   TEWEN  =      -228.56352493
  -Hartree energ DENC   =       -12.49839423
  -exchange      EXHF   =         0.00000000
  -V(xc)+E(xc)   XCENC  =       -18.36440427
  PAW double counting   =        69.96375358      -34.88811968
  entropy T*S    EENTRO =        -0.00000376
  eigenvalues    EBANDS =         3.95736128
  atomic energy  EATOM  =       206.13125414
  Solvation  Ediel_sol  =         0.00000000
  ---------------------------------------------------
  free energy    TOTEN  =       -10.89793583 eV

  energy without entropy =      -10.89793207  energy(sigma->0) =      -10.89793395


--------------------------------------------------------------------------------------------------------




--------------------------------------- Iteration      1(   7)  ---------------------------------------


    POTLOK:  cpu time    0.0280: real time    0.0384
    SETDIJ:  cpu time    0.0080: real time    0.0089
     EDDAV:  cpu time    0.4600: real time    0.4594
       DOS:  cpu time    0.0000: real time    0.0025
    CHARGE:  cpu time    0.0360: real time    0.0350
    MIXING:  cpu time    0.0000: real time    0.0018
    --------------------------------------------
      LOOP:  cpu time    0.5320: real time    0.5462

 eigenvalue-minimisations  :   568
 total energy-change (2. order) : 0.5687387E-01  (-0.1516012E-01)
 number of electron       7.9999993 magnetization 
 augmentation part       -0.4578825 magnetization 

 Broyden mixing:
  rms(total) = 0.15392E-01    rms(broyden)= 0.15392E-01
  rms(prec ) = 0.40073E-01
  weight for this iteration     100.00

 eigenvalues of (default mixing * dielectric matrix)
  average eigenvalue GAMMA=   2.4596
  2.4596  2.4596

 Free energy of the ion-electron system (eV)
  ---------------------------------------------------
  alpha Z        PSCENC =         3.36414203
  Ewald energy   TEWEN  =      -228.56352493
  -Hartree energ DENC   =       -14.90175210
  -exchange      EXHF   =         0.00000000
  -V(xc)+E(xc)   XCENC  =       -17.97576545
  PAW double counting   =        75.26234069      -40.32841858
  entropy T*S    EENTRO =        -0.00003651
  eigenvalues    EBANDS =         6.17069875
  atomic energy  EATOM  =       206.13125414
  Solvation  Ediel_sol  =         0.00000000
  ---------------------------------------------------
  free energy    TOTEN  =       -10.84106196 eV

  energy without entropy =      -10.84102545  energy(sigma->0) =      -10.84104371


--------------------------------------------------------------------------------------------------------




--------------------------------------- Iteration      1(   8)  ---------------------------------------


    POTLOK:  cpu time    0.0280: real time    0.0372
    SETDIJ:  cpu time    0.0120: real time    0.0088
     EDDAV:  cpu time    0.4160: real time    0.4186
       DOS:  cpu time    0.0040: real time    0.0022
    CHARGE:  cpu time    0.0320: real time    0.0349
    MIXING:  cpu time    0.0040: real time    0.0019
    --------------------------------------------
      LOOP:  cpu time    0.4960: real time    0.5036

 eigenvalue-minimisations  :   512
 total energy-change (2. order) :-0.1323717E-02  (-0.4182699E-03)
 number of electron       7.9999993 magnetization 
 augmentation part       -0.4588748 magnetization 

 Broyden mixing:
  rms(total) = 0.25021E-02    rms(broyden)= 0.25012E-02
  rms(prec ) = 0.82739E-02
  weight for this iteration     100.00

 eigenvalues of (default mixing * dielectric matrix)
  average eigenvalue GAMMA=   2.1184
  1.3598  2.7932  2.2022

 Free energy of the ion-electron system (eV)
  ---------------------------------------------------
  alpha Z        PSCENC =         3.36414203
  Ewald energy   TEWEN  =      -228.56352493
  -Hartree energ DENC   =       -14.86845633
  -exchange      EXHF   =         0.00000000
  -V(xc)+E(xc)   XCENC  =       -17.96735464
  PAW double counting   =        74.37440453      -39.41210873
  entropy T*S    EENTRO =        -0.00002775
  eigenvalues    EBANDS =         6.09928599
  atomic energy  EATOM  =       206.13125414
  Solvation  Ediel_sol  =         0.00000000
  ---------------------------------------------------
  free energy    TOTEN  =       -10.84238568 eV

  energy without entropy =      -10.84235793  energy(sigma->0) =      -10.84237180


--------------------------------------------------------------------------------------------------------




--------------------------------------- Iteration      1(   9)  ---------------------------------------


    POTLOK:  cpu time    0.0280: real time    0.0371
    SETDIJ:  cpu time    0.0080: real time    0.0087
     EDDAV:  cpu time    0.3720: real time    0.3744
       DOS:  cpu time    0.0040: real time    0.0022
    --------------------------------------------
      LOOP:  cpu time    0.4120: real time    0.4222

 eigenvalue-minimisations  :   432
 total energy-change (2. order) :-0.9268815E-04  (-0.9945199E-05)
 number of electron       7.9999993 magnetization 
 augmentation part       -0.4588748 magnetization 

 Free energy of the ion-electron system (eV)
  ---------------------------------------------------
  alpha Z        PSCENC =         3.36414203
  Ewald energy   TEWEN  =      -228.56352493
  -Hartree energ DENC   =       -14.90689073
  -exchange      EXHF   =         0.00000000
  -V(xc)+E(xc)   XCENC  =       -17.96091018
  PAW double counting   =        74.36674821      -39.40452375
  entropy T*S    EENTRO =        -0.00002750
  eigenvalues    EBANDS =         6.13125433
  atomic energy  EATOM  =       206.13125414
  Solvation  Ediel_sol  =         0.00000000
  ---------------------------------------------------
  free energy    TOTEN  =       -10.84247837 eV

  energy without entropy =      -10.84245087  energy(sigma->0) =      -10.84246462


--------------------------------------------------------------------------------------------------------




 average (electrostatic) potential at core
  the test charge radii are     0.9892
  (the norm of the test charge is              1.0000)
       1 -83.2487       2 -83.2487
 
 
 
 E-fermi :   6.1350     XC(G=0):  -9.4136     alpha+bet :-11.9845


 k-point     1 :       0.0833    0.0833    0.0833
  band No.  band energies     occupation 
      1      -6.0407      2.00000
      2       4.9717      2.00000
      3       5.6856      1.99851
      4       5.6856      1.99851
      5       8.4418      0.00000
      6       8.6083      0.00000
      7       8.6083      0.00000
      8       9.8667      0.00000

 k-point     2 :       0.2500    0.0833    0.0833
  band No.  band energies     occupation 
      1      -5.5622      2.00000
      2       2.8885      2.00000
      3       4.4445      2.00000
      4       5.4761      2.00000
      5       8.5513      0.00000
      6       9.0042      0.00000
      7       9.3642      0.00000
      8      11.5761      0.00000

 k-point     3 :       0.4167    0.0833    0.0833
  band No.  band energies     occupation 
      1      -4.4650      2.00000
      2       0.1146      2.00000
      3       3.9811      2.00000
      4       4.8371      2.00000
      5       8.0421      0.00000
      6       9.3842      0.00000
      7       9.4235      0.00000
      8      13.3195      0.00000

 k-point     4 :      -0.4167    0.0833    0.0833
  band No.  band energies     occupation 
      1      -3.7618      2.00000
      2      -1.0360      2.00000
      3       4.0493      2.00000
      4       4.4546      2.00000
      5       7.8817      0.00000
      6       9.0979      0.00000
      7       9.5265      0.00000
      8      13.7514      0.00000

 k-point     5 :      -0.2500    0.0833    0.0833
  band No.  band energies     occupation 
      1      -4.8789      2.00000
      2       0.9649      2.00000
      3       4.5134      2.00000
      4       4.5506      2.00000
      5       8.1267      0.00000
      6       9.1312      0.00000
      7       9.9223      0.00000
      8      11.8015      0.00000

 k-point     6 :      -0.0833    0.0833    0.0833
  band No.  band energies     occupation 
      1      -5.7992      2.00000
      2       3.9036      2.00000
      3       5.0360      2.00000
      4       5.2268      2.00000
      5       8.1435      0.00000
      6       9.0603      0.00000
      7       9.5141      0.00000
      8      10.7374      0.00000

 k-point     7 :       0.2500    0.2500    0.0833
  band No.  band energies     occupation 
      1      -5.3202      2.00000
      2       2.7061      2.00000
      3       4.2903      2.00000
      4       4.3031      2.00000
      5       7.5557      0.00000
      6       9.7308      0.00000
      7      10.5146      0.00000
      8      10.7416      0.00000

 k-point     8 :       0.4167    0.2500    0.0833
  band No.  band energies     occupation 
      1      -4.4060      2.00000
      2       0.8607      2.00000
      3       2.9637      2.00000
      4       3.9152      2.00000
      5       7.9540      0.00000
      6       9.5789      0.00000
      7      10.3954      0.00000
      8      11.8564      0.00000

 k-point     9 :      -0.4167    0.2500    0.0833
  band No.  band energies     occupation 
      1      -3.2829      2.00000
      2      -0.9015      2.00000
      3       2.3616      2.00000
      4       3.6862      2.00000
      5       8.2034      0.00000
      6       9.7685      0.00000
      7      11.7296      0.00000
      8      12.1135      0.00000

 k-point    10 :      -0.2500    0.2500    0.0833
  band No.  band energies     occupation 
      1      -4.0094      2.00000
      2       0.1636      2.00000
      3       2.3169      2.00000
      4       4.1760      2.00000
      5       8.8136      0.00000
      6       9.4371      0.00000
      7      11.1257      0.00000
      8      11.5993      0.00000

 k-point    11 :      -0.0833    0.2500    0.0833
  band No.  band energies     occupation 
      1      -5.0937      2.00000
      2       1.8629      2.00000
      3       3.6643      2.00000
      4       4.8489      2.00000
      5       8.4507      0.00000
      6       9.3502      0.00000
      7      10.3960      0.00000
      8      10.7263      0.00000

 k-point    12 :       0.4167    0.4167    0.0833
  band No.  band energies     occupation 
      1      -3.6918      2.00000
      2       0.0347      2.00000
      3       2.9272      2.00000
      4       3.2707      2.00000
      5       6.7190      0.00004
      6       7.6917      0.00000
      7      13.4243      0.00000
      8      13.4683      0.00000

 k-point    13 :      -0.4167    0.4167    0.0833
  band No.  band energies     occupation 
      1      -2.4900      2.00000
      2      -1.3103      2.00000
      3       2.0783      2.00000
      4       2.8601      2.00000
      5       7.3435      0.00000
      6       8.4710      0.00000
      7      12.9549      0.00000
      8      14.4422      0.00000

 k-point    14 :      -0.2500    0.4167    0.0833
  band No.  band energies     occupation 
      1      -2.8611      2.00000
      2      -0.9767      2.00000
      3       1.5929      2.00000
      4       3.4086      2.00000
      5       7.9678      0.00000
      6      10.8889      0.00000
      7      11.8856      0.00000
      8      12.5703      0.00000

 k-point    15 :      -0.0833    0.4167    0.0833
  band No.  band energies     occupation 
      1      -3.8961      2.00000
      2      -0.5298      2.00000
      3       3.2680      2.00000
      4       4.2749      2.00000
      5       8.4377      0.00000
      6       9.0327      0.00000
      7      10.3724      0.00000
      8      12.5939      0.00000

 k-point    16 :      -0.4167   -0.4167    0.0833
  band No.  band energies     occupation 
      1      -2.5830      2.00000
      2      -1.3188      2.00000
      3       2.6562      2.00000
      4       3.0547      2.00000
      5       6.6020      0.00096
      6       7.1715      0.00000
      7      14.9095      0.00000
      8      15.0108      0.00000

 k-point    17 :      -0.2500   -0.4167    0.0833
  band No.  band energies     occupation 
      1      -3.5220      2.00000
      2      -0.1903      2.00000
      3       2.4032      2.00000
      4       3.2020      2.00000
      5       7.5571      0.00000
      6       8.8393      0.00000
      7      11.5969      0.00000
      8      13.4171      0.00000

 k-point    18 :      -0.2500   -0.2500    0.0833
  band No.  band energies     occupation 
      1      -4.6126      2.00000
      2       1.4044      2.00000
      3       3.4753      2.00000
      4       3.6944      2.00000
      5       7.0443      0.00000
      6       8.6096      0.00000
      7      11.8797      0.00000
      8      12.0730      0.00000

 k-point    19 :       0.2500    0.2500    0.2500
  band No.  band energies     occupation 
      1      -5.3318      2.00000
      2       1.9039      2.00000
      3       5.0703      2.00000
      4       5.0703      2.00000
      5       7.8624      0.00000
      6       9.3392      0.00000
      7       9.3392      0.00000
      8      12.7544      0.00000

 k-point    20 :       0.4167    0.2500    0.2500
  band No.  band energies     occupation 
      1      -4.6497      2.00000
      2       0.9720      2.00000
      3       2.9275      2.00000
      4       4.9011      2.00000
      5       8.6176      0.00000
      6       9.8358      0.00000
      7      10.0080      0.00000
      8      11.9671      0.00000

 k-point    21 :      -0.4167    0.2500    0.2500
  band No.  band energies     occupation 
      1      -3.4647      2.00000
      2      -0.4721      2.00000
      3       1.8137      2.00000
      4       4.1106      2.00000
      5       7.8549      0.00000
      6      11.1565      0.00000
      7      11.2702      0.00000
      8      13.0167      0.00000

 k-point    22 :      -0.2500    0.2500    0.2500
  band No.  band energies     occupation 
      1      -3.4126      2.00000
      2      -0.5516      2.00000
      3       2.2964      2.00000
      4       3.6259      2.00000
      5       7.3502      0.00000
      6      10.2786      0.00000
      7      11.5797      0.00000
      8      11.7527      0.00000

 k-point    23 :       0.4167    0.4167    0.2500
  band No.  band energies     occupation 
      1      -4.2237      2.00000
      2       0.1598      2.00000
      3       3.3986      2.00000
      4       4.0007      2.00000
      5       7.8414      0.00000
      6      10.0919      0.00000
      7      10.7279      0.00000
      8      10.8831      0.00000

 k-point    24 :      -0.4167    0.4167    0.2500
  band No.  band energies     occupation 
      1      -3.2169      2.00000
      2      -0.5827      2.00000
      3       1.9139      2.00000
      4       3.1986      2.00000
      5       9.0582      0.00000
      6       9.5981      0.00000
      7      10.5885      0.00000
      8      13.3290      0.00000

 k-point    25 :      -0.2500    0.4167    0.2500
  band No.  band energies     occupation 
      1      -2.3818      2.00000
      2      -1.3181      2.00000
      3       1.7464      2.00000
      4       2.5266      2.00000
      5       8.8542      0.00000
      6      10.1160      0.00000
      7      10.9444      0.00000
      8      12.3303      0.00000

 k-point    26 :      -0.4167   -0.4167    0.2500
  band No.  band energies     occupation 
      1      -2.5931      2.00000
      2      -1.2255      2.00000
      3       1.6195      2.00000
      4       3.4306      2.00000
      5       7.0698      0.00000
      6       9.9943      0.00000
      7      12.9350      0.00000
      8      13.1491      0.00000

 k-point    27 :       0.4167    0.4167    0.4167
  band No.  band energies     occupation 
      1      -4.1336      2.00000
      2      -0.6336      2.00000
      3       4.6815      2.00000
      4       4.6815      2.00000
      5       7.4278      0.00000
      6       9.2270      0.00000
      7       9.2270      0.00000
      8      13.6381      0.00000

 k-point    28 :      -0.4167    0.4167    0.4167
  band No.  band energies     occupation 
      1      -3.5253      2.00000
      2      -0.9348      2.00000
      3       2.8400      2.00000
      4       4.2383      2.00000
      5       8.0184      0.00000
      6       9.9001      0.00000
      7      10.2286      0.00000
      8      13.8113      0.00000


--------------------------------------------------------------------------------------------------------


 soft charge-density along one line, spin component           1
         0         1         2         3         4         5         6         7         8         9
 total charge-density along one line
 
 pseudopotential strength for first ion, spin component:           1
 18.414  -0.001  -0.000  -0.000  -0.000   0.000   0.000   0.000
 -0.001   0.006   0.000   0.000   0.000  -0.000  -0.000  -0.000
 -0.000   0.000   4.178  -0.000  -0.000  -0.005   0.000   0.000
 -0.000   0.000  -0.000   4.178  -0.000   0.000  -0.005   0.000
 -0.000   0.000  -0.000  -0.000   4.178   0.000   0.000  -0.005
  0.000  -0.000  -0.005   0.000   0.000   0.005  -0.000  -0.000
  0.000  -0.000   0.000  -0.005   0.000  -0.000   0.005  -0.000
  0.000  -0.000   0.000   0.000  -0.005  -0.000  -0.000   0.005
 total augmentation occupancy for first ion, spin component:           1
  1.492  -0.792  -0.000  -0.000   0.000   0.000   0.000   0.000
 -0.792   0.791   0.000   0.000  -0.000   0.000   0.000   0.000
 -0.000   0.000   1.031  -0.000   0.000  -0.572   0.000  -0.000
 -0.000   0.000  -0.000   1.031   0.000   0.000  -0.572  -0.000
  0.000  -0.000   0.000   0.000   1.031  -0.000  -0.000  -0.572
  0.000   0.000  -0.572   0.000  -0.000   0.374  -0.000   0.000
  0.000   0.000   0.000  -0.572  -0.000  -0.000   0.374   0.000
  0.000   0.000  -0.000  -0.000  -0.572   0.000   0.000   0.374


------------------------ aborting loop because EDIFF is reached ----------------------------------------


    CHARGE:  cpu time    0.0360: real time    0.0340
    FORLOC:  cpu time    0.0000: real time    0.0009
    FORNL :  cpu time    0.0160: real time    0.0146
    STRESS:  cpu time    0.1360: real time    0.1369
    FORCOR:  cpu time    0.0200: real time    0.0216
    FORHAR:  cpu time    0.0080: real time    0.0055
    MIXING:  cpu time    0.0000: real time    0.0015
    OFIELD:  cpu time    0.0000: real time    0.0005

  FORCE on cell =-STRESS in cart. coord.  units (eV):
  Direction    XX          YY          ZZ          XY          YZ          ZX
  --------------------------------------------------------------------------------------
  Alpha Z     3.36414     3.36414     3.36414
  Ewald     -76.18788   -76.18788   -76.18788    -0.00000    -0.00000     0.00000
  Hartree     4.97207     4.97207     4.97207     0.00000     0.00000     0.00000
  E(xc)     -25.36940   -25.36940   -25.36940    -0.00000    -0.00000    -0.00000
  Local     -29.23795   -29.23795   -29.23795     0.00004     0.00004     0.00004
  n-local    77.54807    80.26735    75.80162     0.97948    -1.24505     0.07998
  augment   -11.65546   -11.65546   -11.65546    -0.00003    -0.00003    -0.00003
  Kinetic    58.11500    56.11508    55.96022     0.62136    -0.93880     0.07895
  Fock        0.00000     0.00000     0.00000     0.00000     0.00000     0.00000
  -------------------------------------------------------------------------------------
  Total       0.48796     0.48796     0.48796     0.00000     0.00000    -0.00000
  in kB      19.53253    19.53253    19.53253     0.00000     0.00000    -0.00000
  external pressure =       19.53 kB  Pullay stress =        0.00 kB


 VOLUME and BASIS-vectors are now :
 -----------------------------------------------------------------------------
  energy-cutoff  :      350.00
  volume of cell :       40.03
      direct lattice vectors                 reciprocal lattice vectors
     0.000000000  2.715000000  2.715000000    -0.184162063  0.184162063  0.184162063
     2.715000000  0.000000000  2.715000000     0.184162063 -0.184162063  0.184162063
     2.715000000  2.715000000  0.000000000     0.184162063  0.184162063 -0.184162063

  length of vectors
     3.839589822  3.839589822  3.839589822     0.318978049  0.318978049  0.318978049


 FORCES acting on ions
    electron-ion (+dipol)            ewald-force                    non-local-force                 convergence-correction
 -----------------------------------------------------------------------------------------------
   0.133E-05 0.133E-05 0.137E-05   -.476E-15 -.149E-14 0.391E-14   0.657E-17 -.371E-18 0.111E-16   -.424E-06 -.424E-06 -.424E-06
   -.133E-05 -.133E-05 -.137E-05   0.623E-15 0.106E-14 -.375E-14   -.529E-17 -.885E-19 -.999E-17   0.424E-06 0.424E-06 0.424E-06
 -----------------------------------------------------------------------------------------------
   -.937E-13 -.109E-12 -.659E-13   0.147E-15 -.426E-15 0.164E-15   0.128E-17 -.460E-18 0.108E-17   0.616E-14 0.463E-14 0.372E-15
 
 
 POSITION                                       TOTAL-FORCE (eV/Angst)
 -----------------------------------------------------------------------------------
      2.71500      2.71500      2.71500         0.000000      0.000000      0.000000
      4.07250      4.07250      4.07250        -0.000000     -0.000000     -0.000000
 -----------------------------------------------------------------------------------
    total drift:                               -0.000000     -0.000000     -0.000000


--------------------------------------------------------------------------------------------------------



  FREE ENERGIE OF THE ION-ELECTRON SYSTEM (eV)
  ---------------------------------------------------
  free  energy   TOTEN  =       -10.84247837 eV

  energy  without entropy=      -10.84245087  energy(sigma->0) =      -10.84246462
 


--------------------------------------------------------------------------------------------------------


    POTLOK:  cpu time    0.0400: real time    0.0534


--------------------------------------------------------------------------------------------------------




--------------------------------------------------------------------------------------------------------


  
 reached required accuracy - stopping structural energy minimisation
 writing wavefunctions
     LOOP+:  cpu time    5.9200: real time    7.3157
    4ORBIT:  cpu time    0.0000: real time    0.0000

 total amount of memory used by VASP MPI-rank0    32201. kBytes
=======================================================================

   base      :      30000. kBytes
   nonl-proj :       1108. kBytes
   fftplans  :        247. kBytes
   grid      :        561. kBytes
   one-center:          6. kBytes
   wavefun   :        279. kBytes
 
  
  
 General timing and accounting informations for this job:
 ========================================================
  
                  Total CPU time used (sec):       11.068
                            User time (sec):        8.936
                          System time (sec):        2.132
                         Elapsed time (sec):       15.318
  
                   Maximum memory used (kb):        9748.
                   Average memory used (kb):           0.
  
                          Minor page faults:        38170
                          Major page faults:           21
                 Voluntary context switches:        37784
