unknown system                          
   1.00000000000000     
    -2.450000    2.450000    1.274000
     2.450000   -2.450000    1.274000
     2.450000    2.450000   -1.274000
   Si
     2
Direct
  0.250000  0.750000  0.500000
  0.000000  0.000000  0.000000
 
   36   36   36
 -.52474437124E+01 -.43192817349E+01 -.17696115453E+01 0.17782056221E+01 0.55177276299E+01
 0.87000624331E+01 0.10820360394E+02 0.11702064983E+02 0.11478823761E+02 0.10502293577E+02
 0.92095888408E+01 0.79090191573E+01 0.67169649016E+01 0.57008948197E+01 0.48907940163E+01
 0.42879403496E+01 0.38777762576E+01 0.36415386132E+01 0.35646064304E+01 0.36415380933E+01
 0.38777840321E+01 0.42879538559E+01 0.48908006502E+01 0.57008939149E+01 0.67169675566E+01
 0.79090262037E+01 0.92095899362E+01 0.10502288103E+02 0.11478821732E+02 0.11702067423E+02
 0.10820359409E+02 0.87000596360E+01 0.55177313174E+01 0.17782112049E+01 -.17696160590E+01
 -.43192920079E+01 -.43192920079E+01 -.48029323687E+01 -.34775098364E+01 -.68016551117E+00
 0.29105925864E+01 0.64946416255E+01 0.93807705561E+01 0.11147949955E+02 0.11702552422E+02
 0.11240136503E+02 0.10142244221E+02 0.88339625342E+01 0.75576148027E+01 0.64106701358E+01
 0.54504525772E+01 0.46984459200E+01 0.41506256976E+01 0.37903518388E+01 0.35992152308E+01
 0.35644958815E+01 0.36833389678E+01 0.39635939659E+01 0.44212799088E+01 0.50748521989E+01
 0.59361544419E+01 0.69983025102E+01 0.82233228093E+01 0.95353266074E+01 0.10794302291E+02
 0.11644749087E+02 0.11659303175E+02 0.10528262633E+02 0.81838641146E+01 0.48777285167E+01
 0.11766092121E+01 -.21470783359E+01 -.17696160590E+01 -.34775175933E+01 -.35187823893E+01
 -.18877385240E+01 0.99822942775E+00 0.44418264301E+01 0.76871520558E+01 0.10129382708E+02
 0.11445908964E+02 0.11627093857E+02 0.10921286887E+02 0.97246413655E+01 0.84205429367E+01
 0.71812958676E+01 0.60903426613E+01 0.51937361712E+01 0.45044957056E+01 0.40139546205E+01
 0.37041754065E+01 0.35577468133E+01 0.35642121961E+01 0.37233021317E+01 0.40449252571E+01
 0.45459583709E+01 0.52439498875E+01 0.61475607124E+01 0.72443558963E+01 0.84894131239E+01
 0.98005798039E+01 0.11013461704E+02 0.11749965390E+02 0.11607953507E+02 0.10327729407E+02
 0.79058852041E+01 0.46550270003E+01 0.11766092121E+01 0.17782112049E+01 -.68016804231E+00
 -.18877421062E+01 -.15365390115E+01 0.27514279474E+00 0.30792986242E+01 0.61973375408E+01
 0.89506120094E+01 0.10841227945E+02 0.11651235959E+02 0.11449412077E+02 0.10523426924E+02
 0.92659894979E+01 0.79825300810E+01 0.67927813078E+01 0.57669403231E+01 0.49394034008E+01
 0.43153195984E+01 0.38823172694E+01 0.36220048518E+01 0.35185288939E+01 0.35638897059E+01
 0.37602252270E+01 0.41190552105E+01 0.46575515170E+01 0.53918381224E+01 0.63271617302E+01
 0.74459681032E+01 0.86978046205E+01 0.99964498808E+01 0.11158762422E+02 0.11806932216E+02
 0.11574870852E+02 0.10256462540E+02 0.79058852041E+01 0.48777285167E+01 0.55177313174E+01
 0.29105954109E+01 0.99822938410E+00 0.27514369294E+00 0.92938095199E+00 0.27792850958E+01
 0.53396606008E+01 0.79848855740E+01 0.10138362260E+02 0.11419950715E+02 0.11714259054E+02
 0.11157117710E+02 0.10058893618E+02 0.87820020648E+01 0.75338067905E+01 0.64047460733E+01
 0.54509105067E+01 0.46954394239E+01 0.41366808928E+01 0.37596632316E+01 0.35463526839E+01
 0.34828694433E+01 0.35636810502E+01 0.37930123018E+01 0.41834908209E+01 0.47520511031E+01
 0.55129939993E+01 0.64681524497E+01 0.75955986230E+01 0.88410290951E+01 0.10116373410E+02
 0.11230980788E+02 0.11824805940E+02 0.11574870852E+02 0.10327729407E+02 0.81838641146E+01
 0.87000596360E+01 0.64946413429E+01 0.44418262290E+01 0.30793007336E+01 0.27792894770E+01
 0.36216188892E+01 0.53685402239E+01 0.75505216718E+01 0.96221013638E+01 0.11123260049E+02
 0.11792588105E+02 0.11607794605E+02 0.10755966620E+02 0.95517850165E+01 0.82872248435E+01
 0.70884746022E+01 0.60292935486E+01 0.51517532467E+01 0.44688488385E+01 0.39735256308E+01
 0.36493581672E+01 0.34793677231E+01 0.34518842037E+01 0.35636855059E+01 0.38206682270E+01
 0.42360523612E+01 0.48260571299E+01 0.56028927325E+01 0.65651977525E+01 0.76876609182E+01
 0.89139486413E+01 0.10156726753E+02 0.11230980788E+02 0.11806932216E+02 0.11607953507E+02
 0.10528262633E+02 0.10820359409E+02 0.93807687546E+01 0.76871484369E+01 0.61973348928E+01
 0.53396639190E+01 0.53685463071E+01 0.62761622097E+01 0.77984002938E+01 0.95094900297E+01
 0.10961721504E+02 0.11815565625E+02 0.11920613969E+02 0.11332485846E+02 0.10270870465E+02
 0.90295673318E+01 0.77971518340E+01 0.66603462264E+01 0.56775122160E+01 0.48777257369E+01
 0.42654865246E+01 0.38298843504E+01 0.35541073612E+01 0.34227550493E+01 0.34264194009E+01
 0.35639024740E+01 0.38423081551E+01 0.42749475498E+01 0.48769137676E+01 0.56581942518E+01
 0.66146457215E+01 0.77187322079E+01 0.89139486413E+01 0.10116373410E+02 0.11158762422E+02
 0.11749965390E+02 0.11659303175E+02 0.11702067423E+02 0.11147952827E+02 0.10129382331E+02
 0.89506066862E+01 0.79848816124E+01 0.75505250809E+01 0.77984062271E+01 0.86586589200E+01
 0.98686453353E+01 0.11066658402E+02 0.11909997060E+02 0.12174084864E+02 0.11805012236E+02
 0.10917247304E+02 0.97431462412E+01 0.85111111237E+01 0.73276599360E+01 0.62624163357E+01
 0.53591445059E+01 0.46356970889E+01 0.40900221837E+01 0.37088737826E+01 0.34759501059E+01
 0.33777527350E+01 0.34070283828E+01 0.35642317855E+01 0.38571919445E+01 0.42988380298E+01
 0.49028032482E+01 0.56768568259E+01 0.66146457215E+01 0.76876609182E+01 0.88410290951E+01
 0.99964498808E+01 0.11013461704E+02 0.11644749087E+02 0.11478821732E+02 0.11702555072E+02
 0.11445914505E+02 0.10841229154E+02 0.10138357115E+02 0.96220973441E+01 0.95094926590E+01
 0.98686497838E+01 0.10593976452E+02 0.11446752002E+02 0.12140525967E+02 0.12435441695E+02
 0.12208981571E+02 0.11484636563E+02 0.10414672263E+02 0.92137895842E+01 0.80150689654E+01
 0.68942145408E+01 0.59063617923E+01 0.50823823768E+01 0.44311360031E+01 0.39460101809E+01
 0.36127759339E+01 0.34163169107E+01 0.33451700468E+01 0.33940087986E+01 0.35645205300E+01
 0.38647779277E+01 0.43068951215E+01 0.49028032482E+01 0.56581942518E+01 0.65651977525E+01
 0.75955986230E+01 0.86978046205E+01 0.98005798039E+01 0.10794302291E+02 0.10502288103E+02
 0.11240131720E+02 0.11627095869E+02 0.11651242441E+02 0.11419953247E+02 0.11123256502E+02
 0.10961718412E+02 0.11066659856E+02 0.11446754409E+02 0.11983980708E+02 0.12478633930E+02
 0.12721966420E+02 0.12567325735E+02 0.11976357912E+02 0.11028359950E+02 0.98901557177E+01
 0.87073955529E+01 0.75601140733E+01 0.65110092084E+01 0.56021405524E+01 0.48537907474E+01
 0.42681972726E+01 0.38360241208E+01 0.35431628026E+01 0.33761299378E+01 0.33254728597E+01
 0.33874824876E+01 0.35646344417E+01 0.38647779277E+01 0.42988380298E+01 0.48769137676E+01
 0.56028927325E+01 0.64681524497E+01 0.74459681032E+01 0.84894131239E+01 0.95353266074E+01
 0.92095899362E+01 0.10142238593E+02 0.10921280839E+02 0.11449412853E+02 0.11714264786E+02
 0.11792591309E+02 0.11815564252E+02 0.11909995394E+02 0.12140526309E+02 0.12478634437E+02
 0.12811707265E+02 0.12986476980E+02 0.12867085015E+02 0.12385242761E+02 0.11566079923E+02
 0.10522358388E+02 0.93884997479E+01 0.82465904075E+01 0.71635302194E+01 0.61902231294E+01
 0.53577507946E+01 0.46783454802E+01 0.41498665688E+01 0.37618146931E+01 0.35010332454E+01
 0.33559184665E+01 0.33188856319E+01 0.33874824876E+01 0.35645205300E+01 0.38571919445E+01
 0.42749475498E+01 0.48260571299E+01 0.55129939993E+01 0.63271617302E+01 0.72443558963E+01
 0.82233228093E+01 0.79090262037E+01 0.88339656757E+01 0.97246372927E+01 0.10523421217E+02
 0.11157117130E+02 0.11607798411E+02 0.11920617034E+02 0.12174085442E+02 0.12435441452E+02
 0.12721965985E+02 0.12986476149E+02 0.13133204132E+02 0.13055927576E+02 0.12681552427E+02
 0.12002279128E+02 0.11085239317E+02 0.10037517420E+02 0.89370889787E+01 0.78521264105E+01
 0.68400373584E+01 0.59415472438E+01 0.51791750159E+01 0.45595566762E+01 0.40781236924E+01
 0.37244560813E+01 0.34869326079E+01 0.33559184665E+01 0.33254728597E+01 0.33940087986E+01
 0.35642317855E+01 0.38423081551E+01 0.42360523612E+01 0.47520511031E+01 0.53918381224E+01
 0.61475607124E+01 0.69983025102E+01 0.67169675566E+01 0.75576214189E+01 0.84205473982E+01
 0.92659879377E+01 0.10058889513E+02 0.10755965022E+02 0.11332487291E+02 0.11805014502E+02
 0.12208983402E+02 0.12567326548E+02 0.12867084196E+02 0.13055926089E+02 0.13060229573E+02
 0.12816102979E+02 0.12299748831E+02 0.11544867645E+02 0.10625699194E+02 0.96086932039E+01
 0.85601165218E+01 0.75412948940E+01 0.66010835385E+01 0.57720310806E+01 0.50704801198E+01
 0.44996328434E+01 0.40540889111E+01 0.37244560813E+01 0.35010332454E+01 0.33761299378E+01
 0.33451700468E+01 0.34070283828E+01 0.35639024740E+01 0.38206682270E+01 0.41834908209E+01
 0.46575515170E+01 0.52439498875E+01 0.59361544419E+01 0.57008939149E+01 0.64106705770E+01
 0.71813004308E+01 0.79825347136E+01 0.87820030255E+01 0.95517831340E+01 0.10270868424E+02
 0.10917246656E+02 0.11484637745E+02 0.11976360205E+02 0.12385244087E+02 0.12681551531E+02
 0.12816101439E+02 0.12737596082E+02 0.12416121624E+02 0.11861877436E+02 0.11116343940E+02
 0.10229931442E+02 0.92629098625E+01 0.82770535198E+01 0.73270644037E+01 0.64546364761E+01
 0.56861842239E+01 0.50339966457E+01 0.44996328434E+01 0.40781236924E+01 0.37618146931E+01
 0.35431628026E+01 0.34163169107E+01 0.33777527350E+01 0.34264194009E+01 0.35636855059E+01
 0.37930123018E+01 0.41190552105E+01 0.45459583709E+01 0.50748521989E+01 0.48908006502E+01
 0.54504514880E+01 0.60903408923E+01 0.67927829000E+01 0.75338104302E+01 0.82872275888E+01
 0.90295675824E+01 0.97431443006E+01 0.10414670250E+02 0.11028360167E+02 0.11566082034E+02
 0.12002280415E+02 0.12299748049E+02 0.12416120473E+02 0.12318847706E+02 0.11998960624E+02
 0.11468911968E+02 0.10761695460E+02 0.99265470417E+01 0.90209354987E+01 0.81017762295E+01
 0.72178880142E+01 0.64053187713E+01 0.56861842239E+01 0.50704801198E+01 0.45595566762E+01
 0.41498665688E+01 0.38360241208E+01 0.36127759339E+01 0.34759501059E+01 0.34227550493E+01
 0.34518842037E+01 0.35636810502E+01 0.37602252270E+01 0.40449252571E+01 0.44212799088E+01
 0.42879538559E+01 0.46984521266E+01 0.51937352239E+01 0.57669369478E+01 0.64047446463E+01
 0.70884764964E+01 0.77971553096E+01 0.85111128676E+01 0.92137880712E+01 0.98901532195E+01
 0.10522358015E+02 0.11085240818E+02 0.11544868451E+02 0.11861876870E+02 0.11998960134E+02
 0.11929826521E+02 0.11646383480E+02 0.11161880021E+02 0.10509374325E+02 0.97362795106E+01
 0.88965506698E+01 0.80424565328E+01 0.72178880142E+01 0.64546364761E+01 0.57720310806E+01
 0.51791750159E+01 0.46783454802E+01 0.42681972726E+01 0.39460101809E+01 0.37088737826E+01
 0.35541073612E+01 0.34793677231E+01 0.34828694433E+01 0.35638897059E+01 0.37233021317E+01
 0.39635939659E+01 0.38777840321E+01 0.41506333865E+01 0.45044999544E+01 0.49394026905E+01
 0.54509063797E+01 0.60292898190E+01 0.66603462706E+01 0.73276631871E+01 0.80150713075E+01
 0.87073945492E+01 0.93884975324E+01 0.10037516866E+02 0.10625699842E+02 0.11116343993E+02
 0.11468911669E+02 0.11646383739E+02 0.11623426869E+02 0.11392656853E+02 0.10967121021E+02
 0.10378469157E+02 0.96714948425E+01 0.88965506698E+01 0.81017762295E+01 0.73270644037E+01
 0.66010835385E+01 0.59415472438E+01 0.53577507946E+01 0.48537907474E+01 0.44311360031E+01
 0.40900221837E+01 0.38298843504E+01 0.36493581672E+01 0.35463526839E+01 0.35185288939E+01
 0.35642121961E+01 0.36833389678E+01 0.36415380933E+01 0.37903503296E+01 0.40139547306E+01
 0.43153207574E+01 0.46954387666E+01 0.51517491603E+01 0.56775073673E+01 0.62624150259E+01
 0.68942169566E+01 0.75601161716E+01 0.82465898352E+01 0.89370875451E+01 0.96086927425E+01
 0.10229931145E+02 0.10761694690E+02 0.11161879988E+02 0.11392657761E+02 0.11428157140E+02
 0.11260200778E+02 0.10900451690E+02 0.10378469157E+02 0.97362795106E+01 0.90209354987E+01
 0.82770535198E+01 0.75412948940E+01 0.68400373584E+01 0.61902231294E+01 0.56021405524E+01
 0.50823823768E+01 0.46356970889E+01 0.42654865246E+01 0.39735256308E+01 0.37596632316E+01
 0.36220048518E+01 0.35577468133E+01 0.35644958815E+01 0.35646064304E+01 0.35992078729E+01
 0.37041651775E+01 0.38823100333E+01 0.41366786546E+01 0.44688479647E+01 0.48777222819E+01
 0.53591398199E+01 0.59063599469E+01 0.65110105615E+01 0.71635315036E+01 0.78521261456E+01
 0.85601160589E+01 0.92629095869E+01 0.99265458634E+01 0.10509372864E+02 0.10967121189E+02
 0.11260202064E+02 0.11361167603E+02 0.11260200778E+02 0.10967121021E+02 0.10509374325E+02
 0.99265470417E+01 0.92629098625E+01 0.85601165218E+01 0.78521264105E+01 0.71635302194E+01
 0.65110092084E+01 0.59063617923E+01 0.53591445059E+01 0.48777257369E+01 0.44688488385E+01
 0.41366808928E+01 0.38823172694E+01 0.37041754065E+01 0.35992152308E+01 0.36415386132E+01
 0.35644910565E+01 0.35577344023E+01 0.36219886256E+01 0.37596508509E+01 0.39735207583E+01
 0.42654853805E+01 0.46356946728E+01 0.50823789082E+01 0.56021389629E+01 0.61902234772E+01
 0.68400376105E+01 0.75412948353E+01 0.82770539442E+01 0.90209353766E+01 0.97362776969E+01
 0.10378467303E+02 0.10900451934E+02 0.11260202064E+02 0.11428157140E+02 0.11392656853E+02
 0.11161880021E+02 0.10761695460E+02 0.10229931442E+02 0.96086932039E+01 0.89370889787E+01
 0.82465904075E+01 0.75601140733E+01 0.68942145408E+01 0.62624163357E+01 0.56775122160E+01
 0.51517532467E+01 0.46954394239E+01 0.43153195984E+01 0.40139546205E+01 0.37903518388E+01
 0.38777762576E+01 0.36833324250E+01 0.35642035502E+01 0.35185143035E+01 0.35463346153E+01
 0.36493442462E+01 0.38298785652E+01 0.40900211125E+01 0.44311349068E+01 0.48537891142E+01
 0.53577499637E+01 0.59415467952E+01 0.66010828521E+01 0.73270644797E+01 0.81017772616E+01
 0.88965506245E+01 0.96714927959E+01 0.10378467303E+02 0.10967121189E+02 0.11392657761E+02
 0.11623426869E+02 0.11646383480E+02 0.11468911968E+02 0.11116343940E+02 0.10625699194E+02
 0.10037517420E+02 0.93884997479E+01 0.87073955529E+01 0.80150689654E+01 0.73276599360E+01
 0.66603462264E+01 0.60292935486E+01 0.54509105067E+01 0.49394034008E+01 0.45044957056E+01
 0.41506256976E+01 0.42879403496E+01 0.39635787487E+01 0.37232901283E+01 0.35638792318E+01
 0.34828560698E+01 0.34793523703E+01 0.35540959149E+01 0.37088692443E+01 0.39460098214E+01
 0.42681976416E+01 0.46783457902E+01 0.51791750626E+01 0.57720300974E+01 0.64546351555E+01
 0.72178881606E+01 0.80424577796E+01 0.88965506245E+01 0.97362776969E+01 0.10509372864E+02
 0.11161879988E+02 0.11646383739E+02 0.11929826521E+02 0.11998960624E+02 0.11861877436E+02
 0.11544867645E+02 0.11085239317E+02 0.10522358388E+02 0.98901557177E+01 0.92137895842E+01
 0.85111111237E+01 0.77971518340E+01 0.70884746022E+01 0.64047460733E+01 0.57669403231E+01
 0.51937361712E+01 0.46984459200E+01 0.48907940163E+01 0.44212638562E+01 0.40449064977E+01
 0.37602110429E+01 0.35636715181E+01 0.34518753139E+01 0.34227462569E+01 0.34759444018E+01
 0.36127744562E+01 0.38360250531E+01 0.41498683276E+01 0.45595585704E+01 0.50704808308E+01
 0.56861829751E+01 0.64053172288E+01 0.72178881606E+01 0.81017772616E+01 0.90209353766E+01
 0.99265458634E+01 0.10761694690E+02 0.11468911669E+02 0.11998960134E+02 0.12318847706E+02
 0.12416121624E+02 0.12299748831E+02 0.12002279128E+02 0.11566079923E+02 0.11028359950E+02
 0.10414672263E+02 0.97431462412E+01 0.90295673318E+01 0.82872248435E+01 0.75338067905E+01
 0.67927813078E+01 0.60903426613E+01 0.54504525772E+01 0.57008948197E+01 0.50748466462E+01
 0.45459437107E+01 0.41190379324E+01 0.37930001654E+01 0.35636798805E+01 0.34264174057E+01
 0.33777526706E+01 0.34163184881E+01 0.35431651174E+01 0.37618170469E+01 0.40781264682E+01
 0.44996356195E+01 0.50339976007E+01 0.56861829751E+01 0.64546351555E+01 0.73270644797E+01
 0.82770539442E+01 0.92629095869E+01 0.10229931145E+02 0.11116343993E+02 0.11861876870E+02
 0.12416120473E+02 0.12737596082E+02 0.12816102979E+02 0.12681552427E+02 0.12385242761E+02
 0.11976357912E+02 0.11484636563E+02 0.10917247304E+02 0.10270870465E+02 0.95517850165E+01
 0.87820020648E+01 0.79825300810E+01 0.71812958676E+01 0.64106701358E+01 0.67169649016E+01
 0.59361548410E+01 0.52439466002E+01 0.46575418737E+01 0.41834798191E+01 0.38206620684E+01
 0.35639029972E+01 0.34070341612E+01 0.33451786286E+01 0.33761381218E+01 0.35010386524E+01
 0.37244593656E+01 0.40540920621E+01 0.44996356195E+01 0.50704808308E+01 0.57720300974E+01
 0.66010828521E+01 0.75412948353E+01 0.85601160589E+01 0.96086927425E+01 0.10625699842E+02
 0.11544868451E+02 0.12299748049E+02 0.12816101439E+02 0.13060229573E+02 0.13055927576E+02
 0.12867085015E+02 0.12567325735E+02 0.12208981571E+02 0.11805012236E+02 0.11332485846E+02
 0.10755966620E+02 0.10058893618E+02 0.92659894979E+01 0.84205429367E+01 0.75576148027E+01
 0.79090191573E+01 0.69982983998E+01 0.61475605275E+01 0.53918377941E+01 0.47520489007E+01
 0.42360507876E+01 0.38423102190E+01 0.35642390545E+01 0.33940213112E+01 0.33254877499E+01
 0.33559305560E+01 0.34869392020E+01 0.37244593656E+01 0.40781264682E+01 0.45595585704E+01
 0.51791750626E+01 0.59415467952E+01 0.68400376105E+01 0.78521261456E+01 0.89370875451E+01
 0.10037516866E+02 0.11085240818E+02 0.12002280415E+02 0.12681551531E+02 0.13055926089E+02
 0.13133204132E+02 0.12986476980E+02 0.12721966420E+02 0.12435441695E+02 0.12174084864E+02
 0.11920613969E+02 0.11607794605E+02 0.11157117710E+02 0.10523426924E+02 0.97246413655E+01
 0.88339625342E+01 0.92095888408E+01 0.82233172335E+01 0.72443516562E+01 0.63271611853E+01
 0.55129967711E+01 0.48260630054E+01 0.42749558868E+01 0.38572018355E+01 0.35645330424E+01
 0.33874989084E+01 0.33189028288E+01 0.33559305560E+01 0.35010386524E+01 0.37618170469E+01
 0.41498683276E+01 0.46783457902E+01 0.53577499637E+01 0.61902234772E+01 0.71635315036E+01
 0.82465898352E+01 0.93884975324E+01 0.10522358015E+02 0.11566082034E+02 0.12385244087E+02
 0.12867084196E+02 0.12986476149E+02 0.12811707265E+02 0.12478633930E+02 0.12140525967E+02
 0.11909997060E+02 0.11815565625E+02 0.11792588105E+02 0.11714259054E+02 0.11449412077E+02
 0.10921286887E+02 0.10142244221E+02 0.10502293577E+02 0.95353276691E+01 0.84894106226E+01
 0.74459650980E+01 0.64681519112E+01 0.56028982034E+01 0.48769264188E+01 0.42988538361E+01
 0.38647925721E+01 0.35646489312E+01 0.33874989084E+01 0.33254877499E+01 0.33761381218E+01
 0.35431651174E+01 0.38360250531E+01 0.42681976416E+01 0.48537891142E+01 0.56021389629E+01
 0.65110105615E+01 0.75601161716E+01 0.87073945492E+01 0.98901532195E+01 0.11028360167E+02
 0.11976360205E+02 0.12567326548E+02 0.12721965985E+02 0.12478634437E+02 0.11983980708E+02
 0.11446752002E+02 0.11066658402E+02 0.10961721504E+02 0.11123260049E+02 0.11419950715E+02
 0.11651235959E+02 0.11627093857E+02 0.11240136503E+02 0.11478823761E+02 0.10794305739E+02
 0.98005826145E+01 0.86978059662E+01 0.75955976307E+01 0.65651974735E+01 0.56582015561E+01
 0.49028197483E+01 0.43069136999E+01 0.38647925721E+01 0.35645330424E+01 0.33940213112E+01
 0.33451786286E+01 0.34163184881E+01 0.36127744562E+01 0.39460098214E+01 0.44311349068E+01
 0.50823789082E+01 0.59063599469E+01 0.68942169566E+01 0.80150713075E+01 0.92137880712E+01
 0.10414670250E+02 0.11484637745E+02 0.12208983402E+02 0.12435441452E+02 0.12140526309E+02
 0.11446754409E+02 0.10593976452E+02 0.98686453353E+01 0.95094900297E+01 0.96221013638E+01
 0.10138362260E+02 0.10841227945E+02 0.11445908964E+02 0.11702552422E+02 0.11702064983E+02
 0.11644747459E+02 0.11013461864E+02 0.99964538048E+01 0.88410339302E+01 0.76876617419E+01
 0.66146456826E+01 0.56768647793E+01 0.49028197483E+01 0.42988538361E+01 0.38572018355E+01
 0.35642390545E+01 0.34070341612E+01 0.33777526706E+01 0.34759444018E+01 0.37088692443E+01
 0.40900211125E+01 0.46356946728E+01 0.53591398199E+01 0.62624150259E+01 0.73276631871E+01
 0.85111128676E+01 0.97431443006E+01 0.10917246656E+02 0.11805014502E+02 0.12174085442E+02
 0.11909995394E+02 0.11066659856E+02 0.98686497838E+01 0.86586589200E+01 0.77984002938E+01
 0.75505216718E+01 0.79848855740E+01 0.89506120094E+01 0.10129382708E+02 0.11147949955E+02
 0.10820360394E+02 0.11659301658E+02 0.11749960106E+02 0.11158759234E+02 0.10116377875E+02
 0.89139555428E+01 0.77187337570E+01 0.66146456826E+01 0.56582015561E+01 0.48769264188E+01
 0.42749558868E+01 0.38423102190E+01 0.35639029972E+01 0.34264174057E+01 0.34227462569E+01
 0.35540959149E+01 0.38298785652E+01 0.42654853805E+01 0.48777222819E+01 0.56775073673E+01
 0.66603462706E+01 0.77971553096E+01 0.90295675824E+01 0.10270868424E+02 0.11332487291E+02
 0.11920617034E+02 0.11815564252E+02 0.10961718412E+02 0.95094926590E+01 0.77984062271E+01
 0.62761622097E+01 0.53685402239E+01 0.53396606008E+01 0.61973375408E+01 0.76871520558E+01
 0.93807705561E+01 0.87000624331E+01 0.10528267656E+02 0.11607953141E+02 0.11806924244E+02
 0.11230975502E+02 0.10156731368E+02 0.89139555428E+01 0.76876617419E+01 0.65651974735E+01
 0.56028982034E+01 0.48260630054E+01 0.42360507876E+01 0.38206620684E+01 0.35636798805E+01
 0.34518753139E+01 0.34793523703E+01 0.36493442462E+01 0.39735207583E+01 0.44688479647E+01
 0.51517491603E+01 0.60292898190E+01 0.70884764964E+01 0.82872275888E+01 0.95517831340E+01
 0.10755965022E+02 0.11607798411E+02 0.11792591309E+02 0.11123256502E+02 0.96220973441E+01
 0.75505250809E+01 0.53685463071E+01 0.36216188892E+01 0.27792850958E+01 0.30792986242E+01
 0.44418264301E+01 0.64946416255E+01 0.55177276299E+01 0.81838674469E+01 0.10327737480E+02
 0.11574871265E+02 0.11824796982E+02 0.11230975502E+02 0.10116377875E+02 0.88410339302E+01
 0.75955976307E+01 0.64681519112E+01 0.55129967711E+01 0.47520489007E+01 0.41834798191E+01
 0.37930001654E+01 0.35636715181E+01 0.34828560698E+01 0.35463346153E+01 0.37596508509E+01
 0.41366786546E+01 0.46954387666E+01 0.54509063797E+01 0.64047446463E+01 0.75338104302E+01
 0.87820030255E+01 0.10058889513E+02 0.11157117130E+02 0.11714264786E+02 0.11419953247E+02
 0.10138357115E+02 0.79848816124E+01 0.53396639190E+01 0.27792894770E+01 0.92938095199E+00
 0.27514279474E+00 0.99822942775E+00 0.29105925864E+01 0.17782056221E+01 0.48777216245E+01
 0.79058887400E+01 0.10256471748E+02 0.11574871265E+02 0.11806924244E+02 0.11158759234E+02
 0.99964538048E+01 0.86978059662E+01 0.74459650980E+01 0.63271611853E+01 0.53918377941E+01
 0.46575418737E+01 0.41190379324E+01 0.37602110429E+01 0.35638792318E+01 0.35185143035E+01
 0.36219886256E+01 0.38823100333E+01 0.43153207574E+01 0.49394026905E+01 0.57669369478E+01
 0.67927829000E+01 0.79825347136E+01 0.92659879377E+01 0.10523421217E+02 0.11449412853E+02
 0.11651242441E+02 0.10841229154E+02 0.89506066862E+01 0.61973348928E+01 0.30793007336E+01
 0.27514369294E+00 -.15365390115E+01 -.18877385240E+01 -.68016551117E+00 -.17696115453E+01
 0.11766019858E+01 0.46550188807E+01 0.79058887400E+01 0.10327737480E+02 0.11607953141E+02
 0.11749960106E+02 0.11013461864E+02 0.98005826145E+01 0.84894106226E+01 0.72443516562E+01
 0.61475605275E+01 0.52439466002E+01 0.45459437107E+01 0.40449064977E+01 0.37232901283E+01
 0.35642035502E+01 0.35577344023E+01 0.37041651775E+01 0.40139547306E+01 0.45044999544E+01
 0.51937352239E+01 0.60903408923E+01 0.71813004308E+01 0.84205473982E+01 0.97246372927E+01
 0.10921280839E+02 0.11627095869E+02 0.11445914505E+02 0.10129382331E+02 0.76871484369E+01
 0.44418262290E+01 0.99822938410E+00 -.18877421062E+01 -.35187823893E+01 -.34775098364E+01
 -.43192817349E+01 -.21470730667E+01 0.11766019858E+01 0.48777216245E+01 0.81838674469E+01
 0.10528267656E+02 0.11659301658E+02 0.11644747459E+02 0.10794305739E+02 0.95353276691E+01
 0.82233172335E+01 0.69982983998E+01 0.59361548410E+01 0.50748466462E+01 0.44212638562E+01
 0.39635787487E+01 0.36833324250E+01 0.35644910565E+01 0.35992078729E+01 0.37903503296E+01
 0.41506333865E+01 0.46984521266E+01 0.54504514880E+01 0.64106705770E+01 0.75576214189E+01
 0.88339656757E+01 0.10142238593E+02 0.11240131720E+02 0.11702555072E+02 0.11147952827E+02
 0.93807687546E+01 0.64946413429E+01 0.29105954109E+01 -.68016804231E+00 -.34775175933E+01
 -.48029323687E+01 -.43192889836E+01 -.36308603609E+01 -.13660826764E+01 0.19179205421E+01
 0.54633235489E+01 0.85402140835E+01 0.10634045403E+02 0.11540278735E+02 0.11359660593E+02
 0.10417120083E+02 0.91364391289E+01 0.78357590011E+01 0.66366123712E+01 0.56087389521E+01
 0.47842944056E+01 0.41658265107E+01 0.37390631715E+01 0.34848008233E+01 0.33874579744E+01
 0.34402740912E+01 0.36473449030E+01 0.40224032620E+01 0.45843998327E+01 0.53497916742E+01
 0.63213539145E+01 0.74751409961E+01 0.87506650834E+01 0.10045621495E+02 0.11098696519E+02
 0.11487677465E+02 0.10852958050E+02 0.90329281431E+01 0.61581348931E+01 0.26761223778E+01
 -.71962578269E+00 -.32586329348E+01 -.36308695701E+01 -.43193005592E+01 -.32586431409E+01
 -.71963833939E+00 0.26761043031E+01 0.61581168348E+01 0.90329205087E+01 0.10852963678E+02
 0.11487687829E+02 0.11098702848E+02 0.10045624407E+02 0.87506688835E+01 0.74751442205E+01
 0.63213527442E+01 0.53497884976E+01 0.45843998273E+01 0.40224049417E+01 0.36473428953E+01
 0.34402698337E+01 0.33874583538E+01 0.34848064132E+01 0.37390671836E+01 0.41658263079E+01
 0.47842947515E+01 0.56087418413E+01 0.66366127717E+01 0.78357539927E+01 0.91364328208E+01
 0.10417115199E+02 0.11359653143E+02 0.11540266977E+02 0.10634037648E+02 0.85402199929E+01
 0.54633404637E+01 0.19179348456E+01 -.13660811393E+01 -.12959058998E+01 -.31836006777E+01
 -.34775350121E+01 -.21089061471E+01 0.56876144096E+00 0.39001849108E+01 0.71380180780E+01
 0.96554521894E+01 0.11090377540E+02 0.11391621615E+02 0.10776089269E+02 0.96250250906E+01
 0.83332316963E+01 0.70945786227E+01 0.59966512522E+01 0.50892160874E+01 0.43878055675E+01
 0.38848622370E+01 0.35624987980E+01 0.34026928763E+01 0.33939897832E+01 0.35350296801E+01
 0.38349572871E+01 0.43106809561E+01 0.49810045444E+01 0.58573912828E+01 0.69317638045E+01
 0.81645186205E+01 0.94786767197E+01 0.10730712805E+02 0.11566776780E+02 0.11579979769E+02
 0.10489432935E+02 0.82556536536E+01 0.51457897853E+01 0.17175222885E+01 0.21002673460E+01
 -.51661558138E+00 -.19669086301E+01 -.18877640847E+01 -.31037229502E+00 0.23519761390E+01
 0.54442519671E+01 0.82758653439E+01 0.10311063592E+02 0.11284481888E+02 0.11223264451E+02
 0.10389212658E+02 0.91692379018E+01 0.78965500416E+01 0.67062033113E+01 0.56730478058E+01
 0.48353505485E+01 0.42006014079E+01 0.37573256413E+01 0.34870455419E+01 0.33732512506E+01
 0.34070181297E+01 0.35896217254E+01 0.39321885439E+01 0.44523643411E+01 0.51679265320E+01
 0.60871069523E+01 0.71964835719E+01 0.84502085003E+01 0.97663377522E+01 0.10981218009E+02
 0.11728901318E+02 0.11632058251E+02 0.10458982667E+02 0.82268778481E+01 0.52493527839E+01
 0.57638797778E+01 0.30221944844E+01 0.88364572865E+00 -.11593061734E+00 0.27512131672E+00
 0.19389393706E+01 0.44307953257E+01 0.71293046394E+01 0.94286371422E+01 0.10900318690E+02
 0.11379025505E+02 0.10962898724E+02 0.99442661855E+01 0.86937204771E+01 0.74533838749E+01
 0.63219649879E+01 0.53605023852E+01 0.45958075173E+01 0.40282319046E+01 0.36434463968E+01
 0.34232061440E+01 0.33529718768E+01 0.34264190666E+01 0.36471840557E+01 0.40278735543E+01
 0.45862791381E+01 0.53386190406E+01 0.62896857663E+01 0.74212281877E+01 0.86826719551E+01
 0.99893337202E+01 0.11165119976E+02 0.11852070139E+02 0.11710820270E+02 0.10559759026E+02
 0.84638854874E+01 0.89379150695E+01 0.66271940431E+01 0.43765551859E+01 0.27484684153E+01
 0.21677365035E+01 0.27792696747E+01 0.43995057437E+01 0.65825167092E+01 0.87696471483E+01
 0.10459422846E+02 0.11337542371E+02 0.11334188598E+02 0.10605830777E+02 0.94582453144E+01
 0.82112849894E+01 0.70165619009E+01 0.59531911852E+01 0.50680085701E+01 0.43772096253E+01
 0.38753122256E+01 0.35462738579E+01 0.33728074592E+01 0.33426257368E+01 0.34518922447E+01
 0.37062064162E+01 0.41191114922E+01 0.47079813665E+01 0.54870538372E+01 0.64576955991E+01
 0.75976201275E+01 0.88532227770E+01 0.10139348726E+02 0.11278983625E+02 0.11936933816E+02
 0.11816563796E+02 0.10783355531E+02 0.11097353861E+02 0.95860008498E+01 0.77342136215E+01
 0.60088735203E+01 0.48749213846E+01 0.46441398036E+01 0.53685307490E+01 0.68244451810E+01
 0.85930563876E+01 0.10200076401E+02 0.11258132153E+02 0.11564839282E+02 0.11134592591E+02
 0.10165547878E+02 0.89566510405E+01 0.77353231664E+01 0.65986422299E+01 0.56102168053E+01
 0.48033218326E+01 0.41850239736E+01 0.37455302377E+01 0.34681755180E+01 0.33371897750E+01
 0.33426287710E+01 0.34828826484E+01 0.37650430502E+01 0.42030401409E+01 0.48133166746E+01
 0.56078373827E+01 0.65847682505E+01 0.77187896461E+01 0.89550298728E+01 0.10210275986E+02
 0.11318588711E+02 0.11977809584E+02 0.11935295657E+02 0.12041158994E+02 0.11450547913E+02
 0.10320395236E+02 0.89519901964E+01 0.77386337634E+01 0.70419399117E+01 0.70686142931E+01
 0.77983957306E+01 0.89940009132E+01 0.10286613094E+02 0.11298714556E+02 0.11757040413E+02
 0.11561007570E+02 0.10792796131E+02 0.96732723491E+01 0.84585603870E+01 0.72798172467E+01
 0.62115125623E+01 0.53020997132E+01 0.45728272501E+01 0.40235256925E+01 0.36416383771E+01
 0.34108127162E+01 0.33171543341E+01 0.33529807101E+01 0.35185440445E+01 0.38219246607E+01
 0.42769058842E+01 0.48985536232E+01 0.56964101418E+01 0.66658588187E+01 0.77796891926E+01
 0.89835062723E+01 0.10198246736E+02 0.11279032203E+02 0.11963496412E+02 0.11879635061E+02
 0.12101103233E+02 0.11781145166E+02 0.11041630239E+02 0.10138746515E+02 0.93846445726E+01
 0.90410204905E+01 0.92252523597E+01 0.98686447339E+01 0.10743865484E+02 0.11547375256E+02
 0.12001430764E+02 0.11938523862E+02 0.11343813105E+02 0.10347564587E+02 0.91704121203E+01
 0.79800926675E+01 0.68587569431E+01 0.58659787786E+01 0.50364517899E+01 0.43815420679E+01
 0.38958692729E+01 0.35655207454E+01 0.33751722303E+01 0.33129652197E+01 0.33732648691E+01
 0.35577619816E+01 0.38750149567E+01 0.43381579075E+01 0.49605234817E+01 0.57492387849E+01
 0.66974900952E+01 0.77773914592E+01 0.89366713947E+01 0.10102060459E+02 0.11155763263E+02
 0.10946312756E+02 0.11712177515E+02 0.12081088382E+02 0.12026830109E+02 0.11653459025E+02
 0.11164164576E+02 0.10790046789E+02 0.10703904489E+02 0.10954104197E+02 0.11446754816E+02