   2   2   0   0
  0.2001288E+02  0.3839590E-09  0.3839590E-09  0.3839590E-09  0.5000000E-15
  1.000000000000000E-004
  CAR 
 unknown system                          
     17.02237987     -8.04086763  301      6.13694733      1.00000000
     -8.041  0.0000E+00  0.0000E+00
     -7.957  0.0000E+00  0.0000E+00
     -7.874  0.0000E+00  0.0000E+00
     -7.790  0.0000E+00  0.0000E+00
     -7.707  0.0000E+00  0.0000E+00
     -7.623  0.0000E+00  0.0000E+00
     -7.540  0.0000E+00  0.0000E+00
     -7.456  0.0000E+00  0.0000E+00
     -7.373  0.0000E+00  0.0000E+00
     -7.289  0.0000E+00  0.0000E+00
     -7.205  0.1641E-17  0.1371E-18
     -7.122  0.1542E-15  0.1302E-16
     -7.038  0.1276E-13  0.1079E-14
     -6.955  0.7484E-12  0.6360E-13
     -6.871  0.3111E-10  0.2663E-11
     -6.788  0.9178E-09  0.7934E-10
     -6.704  0.1922E-07  0.1685E-08
     -6.621  0.2860E-06  0.2558E-07
     -6.537  0.3025E-05  0.2783E-06
     -6.454  0.2278E-04  0.2182E-05
     -6.370  0.1225E-03  0.1242E-04
     -6.286  0.4735E-03  0.5197E-04
     -6.203  0.1335E-02  0.1635E-03
     -6.119  0.2845E-02  0.4012E-03
     -6.036  0.4907E-02  0.8112E-03
     -5.952  0.7464E-02  0.1435E-02
     -5.869  0.1044E-01  0.2307E-02
     -5.785  0.1314E-01  0.3405E-02
     -5.702  0.1478E-01  0.4640E-02
     -5.618  0.1558E-01  0.5941E-02
     -5.535  0.1631E-01  0.7304E-02
     -5.451  0.1747E-01  0.8764E-02
     -5.367  0.1939E-01  0.1038E-01
     -5.284  0.2206E-01  0.1223E-01
     -5.200  0.2505E-01  0.1432E-01
     -5.117  0.2748E-01  0.1662E-01
     -5.033  0.2777E-01  0.1894E-01
     -4.950  0.2544E-01  0.2106E-01
     -4.866  0.2261E-01  0.2295E-01
     -4.783  0.2226E-01  0.2481E-01
     -4.699  0.2579E-01  0.2696E-01
     -4.616  0.3216E-01  0.2965E-01
     -4.532  0.3866E-01  0.3288E-01
     -4.448  0.4252E-01  0.3643E-01
     -4.365  0.4187E-01  0.3993E-01
     -4.281  0.3755E-01  0.4307E-01
     -4.198  0.3379E-01  0.4589E-01
     -4.114  0.3472E-01  0.4879E-01
     -4.031  0.4036E-01  0.5216E-01
     -3.947  0.4652E-01  0.5605E-01
     -3.864  0.4894E-01  0.6014E-01
     -3.780  0.4778E-01  0.6413E-01
     -3.697  0.4739E-01  0.6809E-01
     -3.613  0.5169E-01  0.7241E-01
     -3.529  0.5959E-01  0.7739E-01
     -3.446  0.6580E-01  0.8288E-01
     -3.362  0.6673E-01  0.8846E-01
     -3.279  0.6236E-01  0.9367E-01
     -3.195  0.5276E-01  0.9808E-01
     -3.112  0.3914E-01  0.1013E+00
     -3.028  0.2732E-01  0.1036E+00
     -2.945  0.2286E-01  0.1055E+00
     -2.861  0.2447E-01  0.1076E+00
     -2.778  0.2759E-01  0.1099E+00
     -2.694  0.3199E-01  0.1126E+00
     -2.610  0.4011E-01  0.1159E+00
     -2.527  0.4950E-01  0.1200E+00
     -2.443  0.5306E-01  0.1245E+00
     -2.360  0.4644E-01  0.1284E+00
     -2.276  0.3226E-01  0.1311E+00
     -2.193  0.1740E-01  0.1325E+00
     -2.109  0.7125E-02  0.1331E+00
     -2.026  0.2171E-02  0.1333E+00
     -1.942  0.4861E-03  0.1333E+00
     -1.859  0.9123E-04  0.1333E+00
     -1.775  0.1247E-03  0.1333E+00
     -1.692  0.7552E-03  0.1334E+00
     -1.608  0.3519E-02  0.1337E+00
     -1.524  0.1175E-01  0.1347E+00
     -1.441  0.2821E-01  0.1370E+00
     -1.357  0.4908E-01  0.1411E+00
     -1.274  0.6334E-01  0.1464E+00
     -1.190  0.6474E-01  0.1518E+00
     -1.107  0.6086E-01  0.1569E+00
     -1.023  0.6163E-01  0.1621E+00
     -0.940  0.6433E-01  0.1674E+00
     -0.856  0.6020E-01  0.1725E+00
     -0.773  0.5121E-01  0.1768E+00
     -0.689  0.4904E-01  0.1809E+00
     -0.605  0.5740E-01  0.1856E+00
     -0.522  0.6487E-01  0.1911E+00
     -0.438  0.5980E-01  0.1961E+00
     -0.355  0.4544E-01  0.1999E+00
     -0.271  0.3366E-01  0.2027E+00
     -0.188  0.2971E-01  0.2052E+00
     -0.104  0.3108E-01  0.2078E+00
     -0.021  0.3620E-01  0.2108E+00
      0.063  0.4457E-01  0.2145E+00
      0.146  0.5039E-01  0.2187E+00
      0.230  0.4590E-01  0.2225E+00
      0.314  0.3157E-01  0.2252E+00
      0.397  0.1599E-01  0.2265E+00
      0.481  0.6142E-02  0.2270E+00
      0.564  0.2977E-02  0.2273E+00
      0.648  0.5366E-02  0.2277E+00
      0.731  0.1320E-01  0.2288E+00
      0.815  0.2517E-01  0.2309E+00
      0.898  0.3575E-01  0.2339E+00
      0.982  0.3794E-01  0.2371E+00
      1.065  0.3030E-01  0.2396E+00
      1.149  0.1896E-01  0.2412E+00
      1.233  0.1161E-01  0.2422E+00
      1.316  0.1167E-01  0.2432E+00
      1.400  0.1827E-01  0.2447E+00
      1.483  0.2945E-01  0.2471E+00
      1.567  0.4343E-01  0.2508E+00
      1.650  0.5802E-01  0.2556E+00
      1.734  0.7103E-01  0.2615E+00
      1.817  0.7992E-01  0.2682E+00
      1.901  0.8095E-01  0.2750E+00
      1.984  0.7281E-01  0.2811E+00
      2.068  0.6101E-01  0.2862E+00
      2.152  0.5520E-01  0.2908E+00
      2.235  0.6137E-01  0.2959E+00
      2.319  0.7543E-01  0.3022E+00
      2.402  0.8492E-01  0.3093E+00
      2.486  0.8167E-01  0.3161E+00
      2.569  0.7042E-01  0.3220E+00
      2.653  0.6257E-01  0.3272E+00
      2.736  0.6587E-01  0.3327E+00
      2.820  0.7940E-01  0.3394E+00
      2.903  0.9360E-01  0.3472E+00
      2.987  0.9860E-01  0.3554E+00
      3.071  0.9608E-01  0.3635E+00
      3.154  0.9621E-01  0.3715E+00
      3.238  0.1018E+00  0.3800E+00
      3.321  0.1053E+00  0.3888E+00
      3.405  0.1013E+00  0.3973E+00
      3.488  0.9301E-01  0.4050E+00
      3.572  0.8709E-01  0.4123E+00
      3.655  0.8512E-01  0.4194E+00
      3.739  0.8280E-01  0.4263E+00
      3.822  0.7900E-01  0.4329E+00
      3.906  0.7841E-01  0.4395E+00
      3.989  0.8255E-01  0.4464E+00
      4.073  0.8823E-01  0.4537E+00
      4.157  0.9342E-01  0.4616E+00
      4.240  0.9638E-01  0.4696E+00
      4.324  0.9339E-01  0.4774E+00
      4.407  0.8349E-01  0.4844E+00
      4.491  0.7014E-01  0.4902E+00
      4.574  0.5712E-01  0.4950E+00
      4.658  0.4790E-01  0.4990E+00
      4.741  0.4624E-01  0.5029E+00
      4.825  0.5137E-01  0.5072E+00
      4.908  0.5592E-01  0.5118E+00
      4.992  0.5344E-01  0.5163E+00
      5.076  0.4461E-01  0.5200E+00
      5.159  0.3412E-01  0.5229E+00
      5.243  0.2531E-01  0.5250E+00
      5.326  0.1936E-01  0.5266E+00
      5.410  0.1638E-01  0.5280E+00
      5.493  0.1537E-01  0.5293E+00
      5.577  0.1454E-01  0.5305E+00
      5.660  0.1275E-01  0.5315E+00
      5.744  0.9896E-02  0.5324E+00
      5.827  0.6444E-02  0.5329E+00
      5.911  0.3306E-02  0.5332E+00
      5.995  0.1273E-02  0.5333E+00
      6.078  0.3619E-03  0.5333E+00
      6.162  0.1078E-03  0.5333E+00
      6.245  0.2307E-03  0.5334E+00
      6.329  0.9895E-03  0.5334E+00
      6.412  0.3227E-02  0.5337E+00
      6.496  0.7734E-02  0.5344E+00
      6.579  0.1377E-01  0.5355E+00
      6.663  0.1848E-01  0.5370E+00
      6.746  0.1933E-01  0.5387E+00
      6.830  0.1754E-01  0.5401E+00
      6.914  0.1773E-01  0.5416E+00
      6.997  0.2291E-01  0.5435E+00
      7.081  0.3097E-01  0.5461E+00
      7.164  0.3808E-01  0.5493E+00
      7.248  0.4373E-01  0.5529E+00
      7.331  0.4921E-01  0.5571E+00
      7.415  0.5376E-01  0.5615E+00
      7.498  0.5585E-01  0.5662E+00
      7.582  0.5550E-01  0.5709E+00
      7.665  0.5496E-01  0.5754E+00
      7.749  0.5953E-01  0.5804E+00
      7.833  0.7333E-01  0.5865E+00
      7.916  0.9170E-01  0.5942E+00
      8.000  0.1031E+00  0.6028E+00
      8.083  0.1008E+00  0.6112E+00
      8.167  0.8837E-01  0.6186E+00
      8.250  0.7629E-01  0.6250E+00
      8.334  0.7461E-01  0.6312E+00
      8.417  0.8500E-01  0.6383E+00
      8.501  0.9668E-01  0.6464E+00
      8.584  0.9788E-01  0.6546E+00
      8.668  0.9074E-01  0.6622E+00
      8.752  0.8729E-01  0.6695E+00
      8.835  0.9308E-01  0.6772E+00
      8.919  0.1031E+00  0.6858E+00
      9.002  0.1102E+00  0.6950E+00
      9.086  0.1099E+00  0.7042E+00
      9.169  0.1026E+00  0.7128E+00
      9.253  0.9703E-01  0.7209E+00
      9.336  0.1025E+00  0.7295E+00
      9.420  0.1151E+00  0.7391E+00
      9.503  0.1222E+00  0.7493E+00
      9.587  0.1176E+00  0.7591E+00
      9.670  0.1056E+00  0.7679E+00
      9.754  0.9407E-01  0.7758E+00
      9.838  0.8760E-01  0.7831E+00
      9.921  0.8503E-01  0.7902E+00
     10.005  0.8338E-01  0.7972E+00
     10.088  0.8131E-01  0.8040E+00
     10.172  0.8033E-01  0.8107E+00
     10.255  0.8383E-01  0.8177E+00
     10.339  0.9184E-01  0.8254E+00
     10.422  0.9767E-01  0.8335E+00
     10.506  0.9593E-01  0.8415E+00
     10.589  0.9110E-01  0.8491E+00
     10.673  0.9077E-01  0.8567E+00
     10.757  0.9451E-01  0.8646E+00
     10.840  0.9564E-01  0.8726E+00
     10.924  0.8990E-01  0.8801E+00
     11.007  0.7874E-01  0.8867E+00
     11.091  0.6647E-01  0.8923E+00
     11.174  0.5534E-01  0.8969E+00
     11.258  0.4459E-01  0.9006E+00
     11.341  0.3622E-01  0.9036E+00
     11.425  0.3755E-01  0.9068E+00
     11.508  0.5364E-01  0.9112E+00
     11.592  0.7875E-01  0.9178E+00
     11.676  0.1006E+00  0.9262E+00
     11.759  0.1123E+00  0.9356E+00
     11.843  0.1140E+00  0.9451E+00
     11.926  0.1060E+00  0.9540E+00
     12.010  0.9004E-01  0.9615E+00
     12.093  0.7151E-01  0.9675E+00
     12.177  0.5569E-01  0.9722E+00
     12.260  0.4478E-01  0.9759E+00
     12.344  0.3942E-01  0.9792E+00
     12.427  0.3972E-01  0.9825E+00
     12.511  0.4438E-01  0.9862E+00
     12.595  0.4858E-01  0.9903E+00
     12.678  0.4670E-01  0.9942E+00
     12.762  0.4051E-01  0.9976E+00
     12.845  0.3840E-01  0.1001E+01
     12.929  0.4334E-01  0.1004E+01
     13.012  0.4866E-01  0.1008E+01
     13.096  0.4891E-01  0.1013E+01
     13.179  0.4841E-01  0.1017E+01
     13.263  0.5457E-01  0.1021E+01
     13.346  0.6593E-01  0.1027E+01
     13.430  0.7162E-01  0.1033E+01
     13.514  0.6400E-01  0.1038E+01
     13.597  0.4806E-01  0.1042E+01
     13.681  0.3477E-01  0.1045E+01
     13.764  0.2811E-01  0.1047E+01
     13.848  0.2356E-01  0.1049E+01
     13.931  0.1694E-01  0.1051E+01
     14.015  0.9446E-02  0.1051E+01
     14.098  0.4301E-02  0.1052E+01
     14.182  0.3112E-02  0.1052E+01
     14.265  0.6121E-02  0.1053E+01
     14.349  0.1251E-01  0.1054E+01
     14.433  0.1888E-01  0.1055E+01
     14.516  0.2041E-01  0.1057E+01
     14.600  0.1607E-01  0.1058E+01
     14.683  0.1037E-01  0.1059E+01
     14.767  0.8548E-02  0.1060E+01
     14.850  0.1186E-01  0.1061E+01
     14.934  0.1708E-01  0.1062E+01
     15.017  0.1939E-01  0.1064E+01
     15.101  0.1648E-01  0.1065E+01
     15.184  0.1039E-01  0.1066E+01
     15.268  0.4838E-02  0.1066E+01
     15.351  0.1651E-02  0.1067E+01
     15.435  0.4105E-03  0.1067E+01
     15.519  0.7386E-04  0.1067E+01
     15.602  0.9570E-05  0.1067E+01
     15.686  0.8892E-06  0.1067E+01
     15.769  0.5907E-07  0.1067E+01
     15.853  0.2798E-08  0.1067E+01
     15.936  0.9434E-10  0.1067E+01
     16.020  0.2261E-11  0.1067E+01
     16.103  0.3847E-13  0.1067E+01
     16.187  0.4627E-15  0.1067E+01
     16.270  0.4922E-17  0.1067E+01
     16.354  0.0000E+00  0.1067E+01
     16.438  0.0000E+00  0.1067E+01
     16.521  0.0000E+00  0.1067E+01
     16.605  0.0000E+00  0.1067E+01
     16.688  0.0000E+00  0.1067E+01
     16.772  0.0000E+00  0.1067E+01
     16.855  0.0000E+00  0.1067E+01
     16.939  0.0000E+00  0.1067E+01
     17.022  0.0000E+00  0.1067E+01
