       N       E                     dE             d eps       ncg     rms          rms(c)
DAV:   1     0.228732528105E+01    0.22873E+01   -0.25241E+03   456   0.520E+02
DAV:   2    -0.108434880306E+02   -0.13131E+02   -0.12766E+02   696   0.676E+01
DAV:   3    -0.110175946075E+02   -0.17411E+00   -0.17411E+00   560   0.960E+00
DAV:   4    -0.110181259421E+02   -0.53133E-03   -0.53133E-03   736   0.595E-01
DAV:   5    -0.110181265927E+02   -0.65057E-06   -0.65056E-06   568   0.134E-02    0.301E+00
DAV:   6    -0.108936619634E+02    0.12446E+00   -0.82305E-02   528   0.149E+00    0.178E+00
DAV:   7    -0.108368201664E+02    0.56842E-01   -0.15127E-01   584   0.215E+00    0.154E-01
DAV:   8    -0.108381297041E+02   -0.13095E-02   -0.40971E-03   512   0.474E-01    0.252E-02
DAV:   9    -0.108382226827E+02   -0.92979E-04   -0.96810E-05   408   0.794E-02
   1 F= -.10838223E+02 E0= -.10838209E+02  d E =-.108382E+02
