<?xml version="1.0" encoding="ISO-8859-1"?>
<modeling>
 <generator>
  <i name="program" type="string">vasp </i>
  <i name="version" type="string">5.4.4.18Apr17-6-g9f103f2a35  </i>
  <i name="subversion" type="string">(build Dec 09 2018 21:25:21) complex            parallel </i>
  <i name="platform" type="string">IFC18.0.1.163_CrayMPICH7.7.0_MKL18.0.1.163 </i>
  <i name="date" type="string">2019 03 19 </i>
  <i name="time" type="string">13:39:27 </i>
 </generator>
 <incar>
  <i type="string" name="PREC">normal</i>
  <i type="int" name="IBRION">     2</i>
  <i name="EDIFF">      0.00040000</i>
  <i name="EDIFFG">     -0.01000000</i>
  <i type="int" name="NSW">    15</i>
  <i type="int" name="ISIF">     2</i>
  <i name="ENCUT">    300.00000000</i>
  <i type="int" name="NBANDS">     8</i>
  <i type="logical" name="LREAL"> F  </i>
  <i type="int" name="ISMEAR">     0</i>
  <i name="SIGMA">      0.20000000</i>
  <v type="int" name="KPOINT_BSE">    -1     0     0     0</v>
 </incar>
 <structure name="primitive_cell" >
  <crystal>
   <varray name="basis" >
    <v>       0.00000000       2.71500000       2.71500000 </v>
    <v>       2.71500000       0.00000000       2.71500000 </v>
    <v>       2.71500000       2.71500000       0.00000000 </v>
   </varray>
   <i name="volume">     40.02575175 </i>
   <varray name="rec_basis" >
    <v>      -0.18416206       0.18416206       0.18416206 </v>
    <v>       0.18416206      -0.18416206       0.18416206 </v>
    <v>       0.18416206       0.18416206      -0.18416206 </v>
   </varray>
  </crystal>
  <varray name="positions" >
   <v>      -0.50000000      -0.50000000      -0.50000000 </v>
   <v>      -0.25000000      -0.25000000      -0.25000000 </v>
  </varray>
 </structure>
 <varray name="primitive_index" >
  <v type="int" >        1 </v>
  <v type="int" >        2 </v>
 </varray>
 <kpoints>
  <generation param="Monkhorst-Pack">
   <v type="int" name="divisions">       6        6        6 </v>
   <v name="usershift">      0.00000000       0.00000000       0.00000000 </v>
   <v name="genvec1">      0.16666667      -0.00000000       0.00000000 </v>
   <v name="genvec2">     -0.00000000       0.16666667      -0.00000000 </v>
   <v name="genvec3">      0.00000000       0.00000000       0.16666667 </v>
   <v name="shift">      0.50000000       0.50000000       0.50000000 </v>
  </generation>
  <varray name="kpointlist" >
   <v>       0.08333333       0.08333333       0.08333333 </v>
   <v>       0.25000000       0.08333333       0.08333333 </v>
   <v>       0.41666667       0.08333333       0.08333333 </v>
   <v>      -0.41666667       0.08333333       0.08333333 </v>
   <v>      -0.25000000       0.08333333       0.08333333 </v>
   <v>      -0.08333333       0.08333333       0.08333333 </v>
   <v>       0.25000000       0.25000000       0.08333333 </v>
   <v>       0.41666667       0.25000000       0.08333333 </v>
   <v>      -0.41666667       0.25000000       0.08333333 </v>
   <v>      -0.25000000       0.25000000       0.08333333 </v>
   <v>      -0.08333333       0.25000000       0.08333333 </v>
   <v>       0.41666667       0.41666667       0.08333333 </v>
   <v>      -0.41666667       0.41666667       0.08333333 </v>
   <v>      -0.25000000       0.41666667       0.08333333 </v>
   <v>      -0.08333333       0.41666667       0.08333333 </v>
   <v>      -0.41666667      -0.41666667       0.08333333 </v>
   <v>      -0.25000000      -0.41666667       0.08333333 </v>
   <v>      -0.25000000      -0.25000000       0.08333333 </v>
   <v>       0.25000000       0.25000000       0.25000000 </v>
   <v>       0.41666667       0.25000000       0.25000000 </v>
   <v>      -0.41666667       0.25000000       0.25000000 </v>
   <v>      -0.25000000       0.25000000       0.25000000 </v>
   <v>       0.41666667       0.41666667       0.25000000 </v>
   <v>      -0.41666667       0.41666667       0.25000000 </v>
   <v>      -0.25000000       0.41666667       0.25000000 </v>
   <v>      -0.41666667      -0.41666667       0.25000000 </v>
   <v>       0.41666667       0.41666667       0.41666667 </v>
   <v>      -0.41666667       0.41666667       0.41666667 </v>
  </varray>
  <varray name="weights" >
   <v>       0.00925926 </v>
   <v>       0.02777778 </v>
   <v>       0.02777778 </v>
   <v>       0.02777778 </v>
   <v>       0.02777778 </v>
   <v>       0.02777778 </v>
   <v>       0.02777778 </v>
   <v>       0.05555556 </v>
   <v>       0.05555556 </v>
   <v>       0.05555556 </v>
   <v>       0.05555556 </v>
   <v>       0.02777778 </v>
   <v>       0.05555556 </v>
   <v>       0.05555556 </v>
   <v>       0.05555556 </v>
   <v>       0.02777778 </v>
   <v>       0.05555556 </v>
   <v>       0.02777778 </v>
   <v>       0.00925926 </v>
   <v>       0.02777778 </v>
   <v>       0.02777778 </v>
   <v>       0.02777778 </v>
   <v>       0.02777778 </v>
   <v>       0.05555556 </v>
   <v>       0.05555556 </v>
   <v>       0.02777778 </v>
   <v>       0.00925926 </v>
   <v>       0.02777778 </v>
  </varray>
 </kpoints>
 <parameters>
  <separator name="general" >
   <i type="string" name="SYSTEM">unknown system</i>
   <i type="logical" name="LCOMPAT"> F  </i>
  </separator>
  <separator name="electronic" >
   <i type="string" name="PREC">normal</i>
   <i name="ENMAX">    300.00000000</i>
   <i name="ENAUG">    322.06900000</i>
   <i name="EDIFF">      0.00040000</i>
   <i type="int" name="IALGO">    38</i>
   <i type="int" name="IWAVPR">    11</i>
   <i type="int" name="NBANDS">     8</i>
   <i name="NELECT">      8.00000000</i>
   <i type="int" name="TURBO">     0</i>
   <i type="int" name="IRESTART">     0</i>
   <i type="int" name="NREBOOT">     0</i>
   <i type="int" name="NMIN">     0</i>
   <i name="EREF">      0.00000000</i>
   <separator name="electronic smearing" >
    <i type="int" name="ISMEAR">     0</i>
    <i name="SIGMA">      0.20000000</i>
    <i name="KSPACING">      0.50000000</i>
    <i type="logical" name="KGAMMA"> T  </i>
   </separator>
   <separator name="electronic projectors" >
    <i type="logical" name="LREAL"> F  </i>
    <v name="ROPT">      0.00000000</v>
    <i type="int" name="LMAXPAW">  -100</i>
    <i type="int" name="LMAXMIX">     2</i>
    <i type="logical" name="NLSPLINE"> F  </i>
   </separator>
   <separator name="electronic startup" >
    <i type="int" name="ISTART">     0</i>
    <i type="int" name="ICHARG">     2</i>
    <i type="int" name="INIWAV">     1</i>
   </separator>
   <separator name="electronic spin" >
    <i type="int" name="ISPIN">     1</i>
    <i type="logical" name="LNONCOLLINEAR"> F  </i>
    <v name="MAGMOM">      1.00000000      1.00000000</v>
    <i name="NUPDOWN">     -1.00000000</i>
    <i type="logical" name="LSORBIT"> F  </i>
    <v name="SAXIS">      0.00000000      0.00000000      1.00000000</v>
    <i type="logical" name="LSPIRAL"> F  </i>
    <v name="QSPIRAL">      0.00000000      0.00000000      0.00000000</v>
    <i type="logical" name="LZEROZ"> F  </i>
   </separator>
   <separator name="electronic exchange-correlation" >
    <i type="logical" name="LASPH"> F  </i>
    <i type="logical" name="LMETAGGA"> F  </i>
   </separator>
   <separator name="electronic convergence" >
    <i type="int" name="NELM">    60</i>
    <i type="int" name="NELMDL">    -5</i>
    <i type="int" name="NELMIN">     2</i>
    <i name="ENINI">    300.00000000</i>
    <separator name="electronic convergence detail" >
     <i type="logical" name="LDIAG"> T  </i>
     <i type="logical" name="LSUBROT"> F  </i>
     <i name="WEIMIN">      0.00100000</i>
     <i name="EBREAK">      0.00001250</i>
     <i name="DEPER">      0.30000000</i>
     <i type="int" name="NRMM">     4</i>
     <i name="TIME">      0.40000000</i>
    </separator>
   </separator>
   <separator name="electronic mixer" >
    <i name="AMIX">      0.40000000</i>
    <i name="BMIX">      1.00000000</i>
    <i name="AMIN">      0.10000000</i>
    <i name="AMIX_MAG">      1.60000000</i>
    <i name="BMIX_MAG">      1.00000000</i>
    <separator name="electronic mixer details" >
     <i type="int" name="IMIX">     4</i>
     <i type="logical" name="MIXFIRST"> F  </i>
     <i type="int" name="MAXMIX">   -45</i>
     <i name="WC">    100.00000000</i>
     <i type="int" name="INIMIX">     1</i>
     <i type="int" name="MIXPRE">     1</i>
     <i type="int" name="MREMOVE">     5</i>
    </separator>
   </separator>
   <separator name="electronic dipolcorrection" >
    <i type="logical" name="LDIPOL"> F  </i>
    <i type="logical" name="LMONO"> F  </i>
    <i type="int" name="IDIPOL">     0</i>
    <i name="EPSILON">      1.00000000</i>
    <v name="DIPOL">   -100.00000000   -100.00000000   -100.00000000</v>
    <i name="EFIELD">      0.00000000</i>
   </separator>
  </separator>
  <separator name="grids" >
   <i type="int" name="NGX">    16</i>
   <i type="int" name="NGY">    16</i>
   <i type="int" name="NGZ">    16</i>
   <i type="int" name="NGXF">    32</i>
   <i type="int" name="NGYF">    32</i>
   <i type="int" name="NGZF">    32</i>
   <i type="logical" name="ADDGRID"> F  </i>
  </separator>
  <separator name="ionic" >
   <i type="int" name="NSW">    15</i>
   <i type="int" name="IBRION">     2</i>
   <i type="int" name="MDALGO">     0</i>
   <i type="int" name="ISIF">     2</i>
   <i name="PSTRESS">      0.00000000</i>
   <i name="EDIFFG">     -0.01000000</i>
   <i type="int" name="NFREE">     1</i>
   <i name="POTIM">      0.50000000</i>
   <i name="SMASS">     -3.00000000</i>
   <i name="SCALEE">      1.00000000</i>
  </separator>
  <separator name="ionic md" >
   <i name="TEBEG">      0.00010000</i>
   <i name="TEEND">      0.00010000</i>
   <i type="int" name="NBLOCK">     1</i>
   <i type="int" name="KBLOCK">    15</i>
   <i type="int" name="NPACO">   256</i>
   <i name="APACO">     16.00000000</i>
  </separator>
  <separator name="symmetry" >
   <i type="int" name="ISYM">     2</i>
   <i name="SYMPREC">      0.00001000</i>
  </separator>
  <separator name="dos" >
   <i type="int" name="LORBIT">     0</i>
   <v name="RWIGS">     -1.00000000</v>
   <i type="int" name="NEDOS">   301</i>
   <i name="EMIN">     10.00000000</i>
   <i name="EMAX">    -10.00000000</i>
   <i name="EFERMI">      0.00000000</i>
  </separator>
  <separator name="writing" >
   <i type="int" name="NWRITE">     2</i>
   <i type="logical" name="LWAVE"> T  </i>
   <i type="logical" name="LDOWNSAMPLE"> F  </i>
   <i type="logical" name="LCHARG"> T  </i>
   <i type="logical" name="LPARD"> F  </i>
   <i type="logical" name="LVTOT"> F  </i>
   <i type="logical" name="LVHAR"> F  </i>
   <i type="logical" name="LELF"> F  </i>
   <i type="logical" name="LOPTICS"> F  </i>
   <v name="STM">      0.00000000      0.00000000      0.00000000      0.00000000      0.00000000      0.00000000      0.00000000</v>
  </separator>
  <separator name="performance" >
   <i type="int" name="NPAR">     8</i>
   <i type="int" name="NSIM">     4</i>
   <i type="int" name="NBLK">    -1</i>
   <i type="logical" name="LPLANE"> T  </i>
   <i type="logical" name="LSCALAPACK"> T  </i>
   <i type="logical" name="LSCAAWARE"> F  </i>
   <i type="logical" name="LSCALU"> F  </i>
   <i type="logical" name="LASYNC"> F  </i>
   <i type="logical" name="LORBITALREAL"> F  </i>
  </separator>
  <separator name="miscellaneous" >
   <i type="int" name="IDIOT">     3</i>
   <i type="int" name="ISPECIAL">     0</i>
   <i type="logical" name="LMUSIC"> F  </i>
   <v name="POMASS">     28.08500000</v>
   <v name="DARWINR">      0.00000000</v>
   <v name="DARWINV">      1.00000000</v>
   <i type="logical" name="LCORR"> T  </i>
  </separator>
  <i type="logical" name="GGA_COMPAT"> T  </i>
  <i type="logical" name="LBERRY"> F  </i>
  <i type="int" name="ICORELEVEL">     0</i>
  <i type="logical" name="LDAU"> F  </i>
  <i type="int" name="I_CONSTRAINED_M">     0</i>
  <separator name="electronic exchange-correlation" >
   <i type="string" name="GGA">--</i>
   <i type="int" name="VOSKOWN">     0</i>
   <i type="logical" name="LHFCALC"> F  </i>
   <i type="string" name="PRECFOCK"></i>
   <i type="logical" name="LSYMGRAD"> F  </i>
   <i type="logical" name="LHFONE"> F  </i>
   <i type="logical" name="LRHFCALC"> F  </i>
   <i type="logical" name="LTHOMAS"> F  </i>
   <i type="logical" name="LMODELHF"> F  </i>
   <i name="ENCUT4O">     -1.00000000</i>
   <i type="int" name="EXXOEP">     0</i>
   <i type="int" name="FOURORBIT">     0</i>
   <i name="AEXX">      0.00000000</i>
   <i name="HFALPHA">      0.00000000</i>
   <i name="MCALPHA">      0.00000000</i>
   <i name="ALDAX">      1.00000000</i>
   <i name="AGGAX">      1.00000000</i>
   <i name="ALDAC">      1.00000000</i>
   <i name="AGGAC">      1.00000000</i>
   <i type="int" name="NKREDX">     1</i>
   <i type="int" name="NKREDY">     1</i>
   <i type="int" name="NKREDZ">     1</i>
   <i type="logical" name="SHIFTRED"> F  </i>
   <i type="logical" name="ODDONLY"> F  </i>
   <i type="logical" name="EVENONLY"> F  </i>
   <i type="int" name="LMAXFOCK">     0</i>
   <i type="int" name="NMAXFOCKAE">     0</i>
   <i type="logical" name="LFOCKAEDFT"> F  </i>
   <i name="HFSCREEN">      0.00000000</i>
   <i name="HFSCREENC">      0.00000000</i>
   <i type="int" name="NBANDSGWLOW">     0</i>
  </separator>
  <separator name="vdW DFT" >
   <i type="logical" name="LUSE_VDW"> F  </i>
   <i name="Zab_VDW">     -0.84910000</i>
   <i name="PARAM1">      0.12340000</i>
   <i name="PARAM2">      1.00000000</i>
   <i name="PARAM3">      0.00000000</i>
  </separator>
  <separator name="model GW" >
   <i type="int" name="MODEL_GW">     0</i>
   <i name="MODEL_EPS0">     12.00772552</i>
   <i name="MODEL_ALPHA">      1.00000000</i>
  </separator>
  <separator name="linear response parameters" >
   <i type="logical" name="LEPSILON"> F  </i>
   <i type="logical" name="LRPA"> F  </i>
   <i type="logical" name="LNABLA"> F  </i>
   <i type="logical" name="LVEL"> F  </i>
   <i type="int" name="KINTER">     0</i>
   <i name="CSHIFT">      0.10000000</i>
   <i name="OMEGAMAX">     -1.00000000</i>
   <i name="DEG_THRESHOLD">      0.00200000</i>
   <i name="RTIME">     -0.10000000</i>
   <i name="WPLASMAI">      0.00000000</i>
   <v name="DFIELD">      0.00000000      0.00000000      0.00000000</v>
   <v name="WPLASMA">      0.00000000      0.00000000      0.00000000      0.00000000      0.00000000      0.00000000      0.00000000      0.00000000      0.00000000</v>
  </separator>
  <separator name="orbital magnetization" >
   <i type="logical" name="NUCIND"> F  </i>
   <v name="MAGPOS">      0.00000000      0.00000000      0.00000000</v>
   <i type="logical" name="LNICSALL"> T  </i>
   <i type="logical" name="ORBITALMAG"> F  </i>
   <i type="logical" name="LMAGBLOCH"> F  </i>
   <i type="logical" name="LCHIMAG"> F  </i>
   <i type="logical" name="LGAUGE"> T  </i>
   <i type="int" name="MAGATOM">     0</i>
   <v name="MAGDIPOL">      0.00000000      0.00000000      0.00000000</v>
   <v name="AVECCONST">      0.00000000      0.00000000      0.00000000</v>
  </separator>
  <separator name="response functions" >
   <i type="logical" name="LADDER"> F  </i>
   <i type="logical" name="LRPAFORCE"> F  </i>
   <i type="logical" name="LFXC"> F  </i>
   <i type="logical" name="LHARTREE"> T  </i>
   <i type="int" name="IBSE">     0</i>
   <v type="int" name="KPOINT">    -1     0     0     0</v>
   <i type="logical" name="LTCTE"> F  </i>
   <i type="logical" name="LTETE"> F  </i>
   <i type="logical" name="LTRIPLET"> F  </i>
   <i type="logical" name="LFXCEPS"> F  </i>
   <i type="logical" name="LFXHEG"> F  </i>
   <i type="int" name="NATURALO">     2</i>
   <i type="logical" name="L2ORDER"> F  </i>
   <i type="logical" name="LMP2LT"> F  </i>
   <i type="logical" name="LUSEW"> F  </i>
   <i name="ENCUTGW">     -2.00000000</i>
   <i name="ENCUTGWSOFT">     -2.00000000</i>
   <i name="ENCUTLF">     -1.00000000</i>
   <i type="int" name="LMAXMP2">    -1</i>
   <i name="SCISSOR">      0.00000000</i>
   <i type="int" name="NOMEGA">     0</i>
   <i type="int" name="NOMEGAR">     0</i>
   <i type="int" name="NBANDSGW">    -1</i>
   <i type="int" name="NBANDSO">    -1</i>
   <i type="int" name="NBANDSV">    -1</i>
   <i type="int" name="NELM">     1</i>
   <i type="int" name="NELMHF">     1</i>
   <i type="int" name="DIM">     3</i>
   <i type="int" name="ANTIRES">     0</i>
   <i name="OMEGAMAX">    -30.00000000</i>
   <i name="OMEGAMIN">    -30.00000000</i>
   <i name="OMEGATL">   -200.00000000</i>
   <i type="int" name="OMEGAGRID">   140</i>
   <i name="CSHIFT">     -0.10000000</i>
   <i type="logical" name="SELFENERGY"> F  </i>
   <i type="logical" name="LSPECTRAL"> F  </i>
   <i type="logical" name="LSPECTRALGW"> F  </i>
   <i type="logical" name="LSINGLES"> F  </i>
   <i type="logical" name="LFERMIGW"> F  </i>
   <i type="logical" name="ODDONLYGW"> F  </i>
   <i type="logical" name="EVENONLYGW"> F  </i>
   <i type="int" name="NKREDLFX">     1</i>
   <i type="int" name="NKREDLFY">     1</i>
   <i type="int" name="NKREDLFZ">     1</i>
   <i type="int" name="MAXMEM">  2800</i>
   <i type="int" name="TELESCOPE">     0</i>
   <i type="int" name="TAUPAR">     1</i>
   <i type="int" name="OMEGAPAR">    -1</i>
   <i name="LAMBDA">      1.00000000</i>
  </separator>
  <separator name="External order field" >
   <i name="OFIELD_KAPPA">      0.00000000</i>
   <v name="OFIELD_K">      0.00000000      0.00000000      0.00000000</v>
   <i name="OFIELD_Q6_NEAR">      0.00000000</i>
   <i name="OFIELD_Q6_FAR">      0.00000000</i>
   <i name="OFIELD_A">      0.00000000</i>
  </separator>
 </parameters>
 <atominfo>
  <atoms>       2 </atoms>
  <types>       1 </types>
  <array name="atoms" >
   <dimension dim="1">ion</dimension>
   <field type="string">element</field>
   <field type="int">atomtype</field>
   <set>
    <rc><c>Si</c><c>   1</c></rc>
    <rc><c>Si</c><c>   1</c></rc>
   </set>
  </array>
  <array name="atomtypes" >
   <dimension dim="1">type</dimension>
   <field type="int">atomspertype</field>
   <field type="string">element</field>
   <field>mass</field>
   <field>valence</field>
   <field type="string">pseudopotential</field>
   <set>
    <rc><c>   2</c><c>Si</c><c>     28.08500000</c><c>      4.00000000</c><c> PAW_PBE Si 05Jan2001                   </c></rc>
   </set>
  </array>
 </atominfo>
 <structure name="initialpos" >
  <crystal>
   <varray name="basis" >
    <v>       0.00000000       2.71500000       2.71500000 </v>
    <v>       2.71500000       0.00000000       2.71500000 </v>
    <v>       2.71500000       2.71500000       0.00000000 </v>
   </varray>
   <i name="volume">     40.02575175 </i>
   <varray name="rec_basis" >
    <v>      -0.18416206       0.18416206       0.18416206 </v>
    <v>       0.18416206      -0.18416206       0.18416206 </v>
    <v>       0.18416206       0.18416206      -0.18416206 </v>
   </varray>
  </crystal>
  <varray name="positions" >
   <v>       0.50000000       0.50000000       0.50000000 </v>
   <v>       0.75000000       0.75000000       0.75000000 </v>
  </varray>
 </structure>
 <calculation>
  <scstep>
   <time name="dav">    0.25    0.25</time>
   <time name="total">    0.29    0.30</time>
   <energy>
    <i name="alphaZ">      3.36414203 </i>
    <i name="ewald">   -228.56352493 </i>
    <i name="hartreedc">    -11.00108243 </i>
    <i name="XCdc">    -18.60181216 </i>
    <i name="pawpsdc">     65.95520812 </i>
    <i name="pawaedc">    -30.76852678 </i>
    <i name="eentropy">     -0.01308371 </i>
    <i name="bandstr">     15.78631928 </i>
    <i name="atom">    206.12968587 </i>
    <i name="e_fr_energy">      2.28732528 </i>
    <i name="e_wo_entrp">      2.30040899 </i>
    <i name="e_0_energy">      2.29386714 </i>
   </energy>
  </scstep>
  <scstep>
   <time name="dav">    0.39    0.40</time>
   <time name="total">    0.40    0.40</time>
   <energy>
    <i name="e_fr_energy">    -10.84348803 </i>
    <i name="e_wo_entrp">    -10.84348741 </i>
    <i name="e_0_energy">    -10.84348772 </i>
   </energy>
  </scstep>
  <scstep>
   <time name="dav">    0.31    0.31</time>
   <time name="total">    0.31    0.32</time>
   <energy>
    <i name="e_fr_energy">    -11.01759461 </i>
    <i name="e_wo_entrp">    -11.01759414 </i>
    <i name="e_0_energy">    -11.01759438 </i>
   </energy>
  </scstep>
  <scstep>
   <time name="dav">    0.42    0.42</time>
   <time name="total">    0.42    0.42</time>
   <energy>
    <i name="e_fr_energy">    -11.01812594 </i>
    <i name="e_wo_entrp">    -11.01812548 </i>
    <i name="e_0_energy">    -11.01812571 </i>
   </energy>
  </scstep>
  <scstep>
   <time name="dav">    0.32    0.33</time>
   <time name="total">    0.34    0.35</time>
   <energy>
    <i name="e_fr_energy">    -11.01812659 </i>
    <i name="e_wo_entrp">    -11.01812613 </i>
    <i name="e_0_energy">    -11.01812636 </i>
   </energy>
  </scstep>
  <scstep>
   <time name="dav">    0.28    0.28</time>
   <time name="total">    0.33    0.34</time>
   <energy>
    <i name="e_fr_energy">    -10.89366196 </i>
    <i name="e_wo_entrp">    -10.89365828 </i>
    <i name="e_0_energy">    -10.89366012 </i>
   </energy>
  </scstep>
  <scstep>
   <time name="dav">    0.32    0.32</time>
   <time name="total">    0.36    0.37</time>
   <energy>
    <i name="e_fr_energy">    -10.83682017 </i>
    <i name="e_wo_entrp">    -10.83678433 </i>
    <i name="e_0_energy">    -10.83680225 </i>
   </energy>
  </scstep>
  <scstep>
   <time name="dav">    0.28    0.27</time>
   <time name="total">    0.32    0.33</time>
   <energy>
    <i name="e_fr_energy">    -10.83812970 </i>
    <i name="e_wo_entrp">    -10.83810248 </i>
    <i name="e_0_energy">    -10.83811609 </i>
   </energy>
  </scstep>
  <scstep>
   <time name="dav">    0.24    0.24</time>
   <time name="total">    0.26    0.27</time>
   <energy>
    <i name="alphaZ">      3.36414203 </i>
    <i name="ewald">   -228.56352493 </i>
    <i name="hartreedc">    -14.90451562 </i>
    <i name="XCdc">    -17.95993243 </i>
    <i name="pawpsdc">     74.50841281 </i>
    <i name="pawaedc">    -39.54764401 </i>
    <i name="eentropy">     -0.00002699 </i>
    <i name="bandstr">      6.13518059 </i>
    <i name="atom">    206.12968587 </i>
    <i name="e_fr_energy">    -10.83822268 </i>
    <i name="e_wo_entrp">    -10.83819569 </i>
    <i name="e_0_energy">    -10.83820919 </i>
   </energy>
  </scstep>
  <structure>
   <crystal>
    <varray name="basis" >
     <v>       0.00000000       2.71500000       2.71500000 </v>
     <v>       2.71500000       0.00000000       2.71500000 </v>
     <v>       2.71500000       2.71500000       0.00000000 </v>
    </varray>
    <i name="volume">     40.02575175 </i>
    <varray name="rec_basis" >
     <v>      -0.18416206       0.18416206       0.18416206 </v>
     <v>       0.18416206      -0.18416206       0.18416206 </v>
     <v>       0.18416206       0.18416206      -0.18416206 </v>
    </varray>
   </crystal>
   <varray name="positions" >
    <v>       0.50000000       0.50000000       0.50000000 </v>
    <v>       0.75000000       0.75000000       0.75000000 </v>
   </varray>
  </structure>
  <varray name="forces" >
   <v>       0.00000000       0.00000000       0.00000000 </v>
   <v>      -0.00000000      -0.00000000      -0.00000000 </v>
  </varray>
  <varray name="stress" >
   <v>      18.89508374       0.00000000      -0.00000000 </v>
   <v>       0.00000000      18.89508374      -0.00000000 </v>
   <v>      -0.00000000       0.00000000      18.89508374 </v>
  </varray>
  <energy>
   <i name="e_fr_energy">    -10.83822268 </i>
   <i name="e_wo_entrp">    -10.83820919 </i>
   <i name="e_0_energy">     -0.00002699 </i>
  </energy>
  <time name="totalsc">    4.02    4.45</time>
  <eigenvalues>
   <array>
    <dimension dim="1">band</dimension>
    <dimension dim="2">kpoint</dimension>
    <dimension dim="3">spin</dimension>
    <field>eigene</field>
    <field>occ</field>
    <set>
     <set comment="spin 1">
      <set comment="kpoint 1">
       <r>   -6.0409    1.0000 </r>
       <r>    4.9723    1.0000 </r>
       <r>    5.6867    0.9993 </r>
       <r>    5.6867    0.9993 </r>
       <r>    8.4441    0.0000 </r>
       <r>    8.6109    0.0000 </r>
       <r>    8.6109    0.0000 </r>
       <r>    9.8674    0.0000 </r>
      </set>
      <set comment="kpoint 2">
       <r>   -5.5623    1.0000 </r>
       <r>    2.8891    1.0000 </r>
       <r>    4.4452    1.0000 </r>
       <r>    5.4776    1.0000 </r>
       <r>    8.5543    0.0000 </r>
       <r>    9.0078    0.0000 </r>
       <r>    9.3682    0.0000 </r>
       <r>   11.5797    0.0000 </r>
      </set>
      <set comment="kpoint 3">
       <r>   -4.4650    1.0000 </r>
       <r>    0.1149    1.0000 </r>
       <r>    3.9821    1.0000 </r>
       <r>    4.8383    1.0000 </r>
       <r>    8.0452    0.0000 </r>
       <r>    9.3889    0.0000 </r>
       <r>    9.4292    0.0000 </r>
       <r>   13.3249    0.0000 </r>
      </set>
      <set comment="kpoint 4">
       <r>   -3.7617    1.0000 </r>
       <r>   -1.0357    1.0000 </r>
       <r>    4.0504    1.0000 </r>
       <r>    4.4555    1.0000 </r>
       <r>    7.8846    0.0000 </r>
       <r>    9.1028    0.0000 </r>
       <r>    9.5322    0.0000 </r>
       <r>   13.7556    0.0000 </r>
      </set>
      <set comment="kpoint 5">
       <r>   -4.8788    1.0000 </r>
       <r>    0.9654    1.0000 </r>
       <r>    4.5144    1.0000 </r>
       <r>    4.5520    1.0000 </r>
       <r>    8.1300    0.0000 </r>
       <r>    9.1351    0.0000 </r>
       <r>    9.9276    0.0000 </r>
       <r>   11.8095    0.0000 </r>
      </set>
      <set comment="kpoint 6">
       <r>   -5.7992    1.0000 </r>
       <r>    3.9043    1.0000 </r>
       <r>    5.0371    1.0000 </r>
       <r>    5.2281    1.0000 </r>
       <r>    8.1467    0.0000 </r>
       <r>    9.0632    0.0000 </r>
       <r>    9.5182    0.0000 </r>
       <r>   10.7401    0.0000 </r>
      </set>
      <set comment="kpoint 7">
       <r>   -5.3201    1.0000 </r>
       <r>    2.7069    1.0000 </r>
       <r>    4.2913    1.0000 </r>
       <r>    4.3041    1.0000 </r>
       <r>    7.5586    0.0000 </r>
       <r>    9.7353    0.0000 </r>
       <r>   10.5199    0.0000 </r>
       <r>   10.7473    0.0000 </r>
      </set>
      <set comment="kpoint 8">
       <r>   -4.4059    1.0000 </r>
       <r>    0.8612    1.0000 </r>
       <r>    2.9644    1.0000 </r>
       <r>    3.9161    1.0000 </r>
       <r>    7.9576    0.0000 </r>
       <r>    9.5840    0.0000 </r>
       <r>   10.4010    0.0000 </r>
       <r>   11.8636    0.0000 </r>
      </set>
      <set comment="kpoint 9">
       <r>   -3.2828    1.0000 </r>
       <r>   -0.9013    1.0000 </r>
       <r>    2.3621    1.0000 </r>
       <r>    3.6869    1.0000 </r>
       <r>    8.2072    0.0000 </r>
       <r>    9.7732    0.0000 </r>
       <r>   11.7374    0.0000 </r>
       <r>   12.1207    0.0000 </r>
      </set>
      <set comment="kpoint 10">
       <r>   -4.0093    1.0000 </r>
       <r>    0.1640    1.0000 </r>
       <r>    2.3174    1.0000 </r>
       <r>    4.1771    1.0000 </r>
       <r>    8.8176    0.0000 </r>
       <r>    9.4418    0.0000 </r>
       <r>   11.1311    0.0000 </r>
       <r>   11.6074    0.0000 </r>
      </set>
      <set comment="kpoint 11">
       <r>   -5.0937    1.0000 </r>
       <r>    1.8635    1.0000 </r>
       <r>    3.6651    1.0000 </r>
       <r>    4.8503    1.0000 </r>
       <r>    8.4543    0.0000 </r>
       <r>    9.3536    0.0000 </r>
       <r>   10.4014    0.0000 </r>
       <r>   10.7328    0.0000 </r>
      </set>
      <set comment="kpoint 12">
       <r>   -3.6917    1.0000 </r>
       <r>    0.0350    1.0000 </r>
       <r>    2.9276    1.0000 </r>
       <r>    3.2711    1.0000 </r>
       <r>    6.7219    0.0000 </r>
       <r>    7.6949    0.0000 </r>
       <r>   13.4326    0.0000 </r>
       <r>   13.4780    0.0000 </r>
      </set>
      <set comment="kpoint 13">
       <r>   -2.4899    1.0000 </r>
       <r>   -1.3102    1.0000 </r>
       <r>    2.0787    1.0000 </r>
       <r>    2.8606    1.0000 </r>
       <r>    7.3467    0.0000 </r>
       <r>    8.4743    0.0000 </r>
       <r>   12.9622    0.0000 </r>
       <r>   14.4509    0.0000 </r>
      </set>
      <set comment="kpoint 14">
       <r>   -2.8610    1.0000 </r>
       <r>   -0.9764    1.0000 </r>
       <r>    1.5933    1.0000 </r>
       <r>    3.4094    1.0000 </r>
       <r>    7.9717    0.0000 </r>
       <r>   10.8957    0.0000 </r>
       <r>   11.8937    0.0000 </r>
       <r>   12.5772    0.0000 </r>
      </set>
      <set comment="kpoint 15">
       <r>   -3.8960    1.0000 </r>
       <r>   -0.5295    1.0000 </r>
       <r>    3.2690    1.0000 </r>
       <r>    4.2759    1.0000 </r>
       <r>    8.4413    0.0000 </r>
       <r>    9.0376    0.0000 </r>
       <r>   10.3782    0.0000 </r>
       <r>   12.6029    0.0000 </r>
      </set>
      <set comment="kpoint 16">
       <r>   -2.5829    1.0000 </r>
       <r>   -1.3186    1.0000 </r>
       <r>    2.6567    1.0000 </r>
       <r>    3.0551    1.0000 </r>
       <r>    6.6048    0.0005 </r>
       <r>    7.1751    0.0000 </r>
       <r>   14.9217    0.0000 </r>
       <r>   15.0224    0.0000 </r>
      </set>
      <set comment="kpoint 17">
       <r>   -3.5219    1.0000 </r>
       <r>   -0.1901    1.0000 </r>
       <r>    2.4037    1.0000 </r>
       <r>    3.2025    1.0000 </r>
       <r>    7.5602    0.0000 </r>
       <r>    8.8430    0.0000 </r>
       <r>   11.6034    0.0000 </r>
       <r>   13.4260    0.0000 </r>
      </set>
      <set comment="kpoint 18">
       <r>   -4.6125    1.0000 </r>
       <r>    1.4051    1.0000 </r>
       <r>    3.4761    1.0000 </r>
       <r>    3.6951    1.0000 </r>
       <r>    7.0474    0.0000 </r>
       <r>    8.6145    0.0000 </r>
       <r>   11.8865    0.0000 </r>
       <r>   12.0806    0.0000 </r>
      </set>
      <set comment="kpoint 19">
       <r>   -5.3317    1.0000 </r>
       <r>    1.9044    1.0000 </r>
       <r>    5.0714    1.0000 </r>
       <r>    5.0714    1.0000 </r>
       <r>    7.8650    0.0000 </r>
       <r>    9.3431    0.0000 </r>
       <r>    9.3431    0.0000 </r>
       <r>   12.7562    0.0000 </r>
      </set>
      <set comment="kpoint 20">
       <r>   -4.6497    1.0000 </r>
       <r>    0.9725    1.0000 </r>
       <r>    2.9282    1.0000 </r>
       <r>    4.9028    1.0000 </r>
       <r>    8.6213    0.0000 </r>
       <r>    9.8399    0.0000 </r>
       <r>   10.0136    0.0000 </r>
       <r>   11.9719    0.0000 </r>
      </set>
      <set comment="kpoint 21">
       <r>   -3.4646    1.0000 </r>
       <r>   -0.4718    1.0000 </r>
       <r>    1.8141    1.0000 </r>
       <r>    4.1116    1.0000 </r>
       <r>    7.8590    0.0000 </r>
       <r>   11.1633    0.0000 </r>
       <r>   11.2768    0.0000 </r>
       <r>   13.0223    0.0000 </r>
      </set>
      <set comment="kpoint 22">
       <r>   -3.4125    1.0000 </r>
       <r>   -0.5513    1.0000 </r>
       <r>    2.2969    1.0000 </r>
       <r>    3.6265    1.0000 </r>
       <r>    7.3535    0.0000 </r>
       <r>   10.2836    0.0000 </r>
       <r>   11.5850    0.0000 </r>
       <r>   11.7615    0.0000 </r>
      </set>
      <set comment="kpoint 23">
       <r>   -4.2236    1.0000 </r>
       <r>    0.1602    1.0000 </r>
       <r>    3.3997    1.0000 </r>
       <r>    4.0017    1.0000 </r>
       <r>    7.8451    0.0000 </r>
       <r>   10.0967    0.0000 </r>
       <r>   10.7355    0.0000 </r>
       <r>   10.8896    0.0000 </r>
      </set>
      <set comment="kpoint 24">
       <r>   -3.2168    1.0000 </r>
       <r>   -0.5824    1.0000 </r>
       <r>    1.9143    1.0000 </r>
       <r>    3.1992    1.0000 </r>
       <r>    9.0622    0.0000 </r>
       <r>    9.6022    0.0000 </r>
       <r>   10.5938    0.0000 </r>
       <r>   13.3382    0.0000 </r>
      </set>
      <set comment="kpoint 25">
       <r>   -2.3816    1.0000 </r>
       <r>   -1.3179    1.0000 </r>
       <r>    1.7468    1.0000 </r>
       <r>    2.5271    1.0000 </r>
       <r>    8.8583    0.0000 </r>
       <r>   10.1215    0.0000 </r>
       <r>   10.9505    0.0000 </r>
       <r>   12.3381    0.0000 </r>
      </set>
      <set comment="kpoint 26">
       <r>   -2.5930    1.0000 </r>
       <r>   -1.2254    1.0000 </r>
       <r>    1.6199    1.0000 </r>
       <r>    3.4312    1.0000 </r>
       <r>    7.0732    0.0000 </r>
       <r>    9.9985    0.0000 </r>
       <r>   12.9430    0.0000 </r>
       <r>   13.1552    0.0000 </r>
      </set>
      <set comment="kpoint 27">
       <r>   -4.1335    1.0000 </r>
       <r>   -0.6333    1.0000 </r>
       <r>    4.6826    1.0000 </r>
       <r>    4.6826    1.0000 </r>
       <r>    7.4304    0.0000 </r>
       <r>    9.2322    0.0000 </r>
       <r>    9.2322    0.0000 </r>
       <r>   13.6401    0.0000 </r>
      </set>
      <set comment="kpoint 28">
       <r>   -3.5252    1.0000 </r>
       <r>   -0.9345    1.0000 </r>
       <r>    2.8406    1.0000 </r>
       <r>    4.2393    1.0000 </r>
       <r>    8.0220    0.0000 </r>
       <r>    9.9044    0.0000 </r>
       <r>   10.2349    0.0000 </r>
       <r>   13.8196    0.0000 </r>
      </set>
     </set>
    </set>
   </array>
  </eigenvalues>
  <separator name="orbital magnetization" >
   <v name="MAGDIPOLOUT">      0.00000000      0.00000000      0.00000000</v>
  </separator>
  <dos>
   <i name="efermi">      6.13694733 </i>
   <total>
    <array>
     <dimension dim="1">gridpoints</dimension>
     <dimension dim="2">spin</dimension>
     <field>energy</field>
     <field>total</field>
     <field>integrated</field>
     <set>
      <set comment="spin 1">
       <r>    -8.0409     0.0000     0.0000 </r>
       <r>    -7.9573     0.0000     0.0000 </r>
       <r>    -7.8738     0.0000     0.0000 </r>
       <r>    -7.7902     0.0000     0.0000 </r>
       <r>    -7.7067     0.0000     0.0000 </r>
       <r>    -7.6231     0.0000     0.0000 </r>
       <r>    -7.5396     0.0000     0.0000 </r>
       <r>    -7.4561     0.0000     0.0000 </r>
       <r>    -7.3725     0.0000     0.0000 </r>
       <r>    -7.2890     0.0000     0.0000 </r>
       <r>    -7.2054     0.0000     0.0000 </r>
       <r>    -7.1219     0.0000     0.0000 </r>
       <r>    -7.0383     0.0000     0.0000 </r>
       <r>    -6.9548     0.0000     0.0000 </r>
       <r>    -6.8712     0.0000     0.0000 </r>
       <r>    -6.7877     0.0000     0.0000 </r>
       <r>    -6.7042     0.0000     0.0000 </r>
       <r>    -6.6206     0.0000     0.0000 </r>
       <r>    -6.5371     0.0000     0.0000 </r>
       <r>    -6.4535     0.0003     0.0000 </r>
       <r>    -6.3700     0.0018     0.0002 </r>
       <r>    -6.2864     0.0071     0.0008 </r>
       <r>    -6.2029     0.0200     0.0025 </r>
       <r>    -6.1194     0.0427     0.0060 </r>
       <r>    -6.0358     0.0736     0.0122 </r>
       <r>    -5.9523     0.1120     0.0215 </r>
       <r>    -5.8687     0.1566     0.0346 </r>
       <r>    -5.7852     0.1972     0.0511 </r>
       <r>    -5.7016     0.2217     0.0696 </r>
       <r>    -5.6181     0.2337     0.0891 </r>
       <r>    -5.5345     0.2447     0.1096 </r>
       <r>    -5.4510     0.2620     0.1315 </r>
       <r>    -5.3675     0.2909     0.1558 </r>
       <r>    -5.2839     0.3310     0.1834 </r>
       <r>    -5.2004     0.3758     0.2148 </r>
       <r>    -5.1168     0.4122     0.2492 </r>
       <r>    -5.0333     0.4165     0.2840 </r>
       <r>    -4.9497     0.3816     0.3159 </r>
       <r>    -4.8662     0.3392     0.3442 </r>
       <r>    -4.7826     0.3339     0.3721 </r>
       <r>    -4.6991     0.3869     0.4045 </r>
       <r>    -4.6156     0.4824     0.4448 </r>
       <r>    -4.5320     0.5799     0.4932 </r>
       <r>    -4.4485     0.6378     0.5465 </r>
       <r>    -4.3649     0.6280     0.5990 </r>
       <r>    -4.2814     0.5632     0.6460 </r>
       <r>    -4.1978     0.5069     0.6884 </r>
       <r>    -4.1143     0.5209     0.7319 </r>
       <r>    -4.0307     0.6054     0.7825 </r>
       <r>    -3.9472     0.6978     0.8408 </r>
       <r>    -3.8637     0.7341     0.9021 </r>
       <r>    -3.7801     0.7166     0.9620 </r>
       <r>    -3.6966     0.7109     1.0213 </r>
       <r>    -3.6130     0.7754     1.0861 </r>
       <r>    -3.5295     0.8938     1.1608 </r>
       <r>    -3.4459     0.9871     1.2433 </r>
       <r>    -3.3624     1.0009     1.3269 </r>
       <r>    -3.2789     0.9355     1.4050 </r>
       <r>    -3.1953     0.7914     1.4712 </r>
       <r>    -3.1118     0.5871     1.5202 </r>
       <r>    -3.0282     0.4097     1.5544 </r>
       <r>    -2.9447     0.3429     1.5831 </r>
       <r>    -2.8611     0.3671     1.6137 </r>
       <r>    -2.7776     0.4138     1.6483 </r>
       <r>    -2.6940     0.4799     1.6884 </r>
       <r>    -2.6105     0.6016     1.7387 </r>
       <r>    -2.5270     0.7425     1.8007 </r>
       <r>    -2.4434     0.7959     1.8672 </r>
       <r>    -2.3599     0.6965     1.9254 </r>
       <r>    -2.2763     0.4840     1.9658 </r>
       <r>    -2.1928     0.2610     1.9876 </r>
       <r>    -2.1092     0.1069     1.9966 </r>
       <r>    -2.0257     0.0326     1.9993 </r>
       <r>    -1.9421     0.0073     1.9999 </r>
       <r>    -1.8586     0.0014     2.0000 </r>
       <r>    -1.7751     0.0019     2.0002 </r>
       <r>    -1.6915     0.0113     2.0011 </r>
       <r>    -1.6080     0.0528     2.0055 </r>
       <r>    -1.5244     0.1763     2.0202 </r>
       <r>    -1.4409     0.4231     2.0556 </r>
       <r>    -1.3573     0.7362     2.1171 </r>
       <r>    -1.2738     0.9501     2.1965 </r>
       <r>    -1.1902     0.9712     2.2776 </r>
       <r>    -1.1067     0.9130     2.3539 </r>
       <r>    -1.0232     0.9244     2.4311 </r>
       <r>    -0.9396     0.9649     2.5117 </r>
       <r>    -0.8561     0.9030     2.5872 </r>
       <r>    -0.7725     0.7681     2.6513 </r>
       <r>    -0.6890     0.7356     2.7128 </r>
       <r>    -0.6054     0.8610     2.7847 </r>
       <r>    -0.5219     0.9730     2.8660 </r>
       <r>    -0.4383     0.8971     2.9410 </r>
       <r>    -0.3548     0.6816     2.9979 </r>
       <r>    -0.2713     0.5049     3.0401 </r>
       <r>    -0.1877     0.4457     3.0773 </r>
       <r>    -0.1042     0.4662     3.1163 </r>
       <r>    -0.0206     0.5431     3.1616 </r>
       <r>     0.0629     0.6686     3.2175 </r>
       <r>     0.1465     0.7559     3.2807 </r>
       <r>     0.2300     0.6886     3.3382 </r>
       <r>     0.3135     0.4735     3.3777 </r>
       <r>     0.3971     0.2398     3.3978 </r>
       <r>     0.4806     0.0921     3.4055 </r>
       <r>     0.5642     0.0447     3.4092 </r>
       <r>     0.6477     0.0805     3.4159 </r>
       <r>     0.7313     0.1980     3.4325 </r>
       <r>     0.8148     0.3776     3.4640 </r>
       <r>     0.8984     0.5363     3.5088 </r>
       <r>     0.9819     0.5691     3.5564 </r>
       <r>     1.0654     0.4546     3.5943 </r>
       <r>     1.1490     0.2844     3.6181 </r>
       <r>     1.2325     0.1742     3.6326 </r>
       <r>     1.3161     0.1751     3.6473 </r>
       <r>     1.3996     0.2741     3.6702 </r>
       <r>     1.4832     0.4418     3.7071 </r>
       <r>     1.5667     0.6514     3.7615 </r>
       <r>     1.6503     0.8704     3.8342 </r>
       <r>     1.7338     1.0655     3.9232 </r>
       <r>     1.8173     1.1987     4.0234 </r>
       <r>     1.9009     1.2143     4.1248 </r>
       <r>     1.9844     1.0922     4.2161 </r>
       <r>     2.0680     0.9152     4.2925 </r>
       <r>     2.1515     0.8280     4.3617 </r>
       <r>     2.2351     0.9206     4.4386 </r>
       <r>     2.3186     1.1314     4.5331 </r>
       <r>     2.4022     1.2738     4.6395 </r>
       <r>     2.4857     1.2251     4.7419 </r>
       <r>     2.5692     1.0562     4.8301 </r>
       <r>     2.6528     0.9385     4.9085 </r>
       <r>     2.7363     0.9880     4.9911 </r>
       <r>     2.8199     1.1911     5.0906 </r>
       <r>     2.9034     1.4041     5.2079 </r>
       <r>     2.9870     1.4790     5.3315 </r>
       <r>     3.0705     1.4412     5.4519 </r>
       <r>     3.1540     1.4431     5.5724 </r>
       <r>     3.2376     1.5266     5.7000 </r>
       <r>     3.3211     1.5792     5.8319 </r>
       <r>     3.4047     1.5193     5.9588 </r>
       <r>     3.4882     1.3952     6.0754 </r>
       <r>     3.5718     1.3063     6.1845 </r>
       <r>     3.6553     1.2768     6.2912 </r>
       <r>     3.7389     1.2420     6.3950 </r>
       <r>     3.8224     1.1851     6.4940 </r>
       <r>     3.9059     1.1761     6.5922 </r>
       <r>     3.9895     1.2383     6.6957 </r>
       <r>     4.0730     1.3234     6.8062 </r>
       <r>     4.1566     1.4013     6.9233 </r>
       <r>     4.2401     1.4456     7.0441 </r>
       <r>     4.3237     1.4008     7.1611 </r>
       <r>     4.4072     1.2523     7.2657 </r>
       <r>     4.4908     1.0522     7.3536 </r>
       <r>     4.5743     0.8568     7.4252 </r>
       <r>     4.6578     0.7184     7.4852 </r>
       <r>     4.7414     0.6936     7.5432 </r>
       <r>     4.8249     0.7705     7.6076 </r>
       <r>     4.9085     0.8389     7.6776 </r>
       <r>     4.9920     0.8016     7.7446 </r>
       <r>     5.0756     0.6692     7.8005 </r>
       <r>     5.1591     0.5118     7.8433 </r>
       <r>     5.2427     0.3796     7.8750 </r>
       <r>     5.3262     0.2904     7.8992 </r>
       <r>     5.4097     0.2457     7.9198 </r>
       <r>     5.4933     0.2306     7.9390 </r>
       <r>     5.5768     0.2181     7.9573 </r>
       <r>     5.6604     0.1912     7.9732 </r>
       <r>     5.7439     0.1484     7.9856 </r>
       <r>     5.8275     0.0967     7.9937 </r>
       <r>     5.9110     0.0496     7.9979 </r>
       <r>     5.9946     0.0191     7.9994 </r>
       <r>     6.0781     0.0054     7.9999 </r>
       <r>     6.1616     0.0016     8.0000 </r>
       <r>     6.2452     0.0035     8.0003 </r>
       <r>     6.3287     0.0148     8.0016 </r>
       <r>     6.4123     0.0484     8.0056 </r>
       <r>     6.4958     0.1160     8.0153 </r>
       <r>     6.5794     0.2065     8.0326 </r>
       <r>     6.6629     0.2772     8.0557 </r>
       <r>     6.7464     0.2900     8.0799 </r>
       <r>     6.8300     0.2631     8.1019 </r>
       <r>     6.9135     0.2659     8.1241 </r>
       <r>     6.9971     0.3437     8.1528 </r>
       <r>     7.0806     0.4645     8.1917 </r>
       <r>     7.1642     0.5711     8.2394 </r>
       <r>     7.2477     0.6560     8.2942 </r>
       <r>     7.3313     0.7381     8.3558 </r>
       <r>     7.4148     0.8063     8.4232 </r>
       <r>     7.4983     0.8378     8.4932 </r>
       <r>     7.5819     0.8325     8.5628 </r>
       <r>     7.6654     0.8243     8.6316 </r>
       <r>     7.7490     0.8929     8.7062 </r>
       <r>     7.8325     1.0999     8.7981 </r>
       <r>     7.9161     1.3754     8.9130 </r>
       <r>     7.9996     1.5469     9.0423 </r>
       <r>     8.0832     1.5114     9.1685 </r>
       <r>     8.1667     1.3255     9.2793 </r>
       <r>     8.2502     1.1444     9.3749 </r>
       <r>     8.3338     1.1192     9.4684 </r>
       <r>     8.4173     1.2749     9.5749 </r>
       <r>     8.5009     1.4502     9.6960 </r>
       <r>     8.5844     1.4682     9.8187 </r>
       <r>     8.6680     1.3612     9.9324 </r>
       <r>     8.7515     1.3094    10.0418 </r>
       <r>     8.8351     1.3962    10.1585 </r>
       <r>     8.9186     1.5458    10.2876 </r>
       <r>     9.0021     1.6523    10.4256 </r>
       <r>     9.0857     1.6485    10.5634 </r>
       <r>     9.1692     1.5386    10.6919 </r>
       <r>     9.2528     1.4555    10.8135 </r>
       <r>     9.3363     1.5374    10.9419 </r>
       <r>     9.4199     1.7260    11.0861 </r>
       <r>     9.5034     1.8332    11.2393 </r>
       <r>     9.5869     1.7645    11.3867 </r>
       <r>     9.6705     1.5833    11.5190 </r>
       <r>     9.7540     1.4110    11.6369 </r>
       <r>     9.8376     1.3141    11.7466 </r>
       <r>     9.9211     1.2755    11.8532 </r>
       <r>    10.0047     1.2507    11.9577 </r>
       <r>    10.0882     1.2197    12.0596 </r>
       <r>    10.1718     1.2049    12.1603 </r>
       <r>    10.2553     1.2575    12.2653 </r>
       <r>    10.3388     1.3776    12.3804 </r>
       <r>    10.4224     1.4650    12.5028 </r>
       <r>    10.5059     1.4389    12.6230 </r>
       <r>    10.5895     1.3665    12.7372 </r>
       <r>    10.6730     1.3615    12.8509 </r>
       <r>    10.7566     1.4176    12.9694 </r>
       <r>    10.8401     1.4345    13.0892 </r>
       <r>    10.9237     1.3485    13.2019 </r>
       <r>    11.0072     1.1810    13.3005 </r>
       <r>    11.0907     0.9971    13.3838 </r>
       <r>    11.1743     0.8302    13.4532 </r>
       <r>    11.2578     0.6688    13.5091 </r>
       <r>    11.3414     0.5433    13.5544 </r>
       <r>    11.4249     0.5633    13.6015 </r>
       <r>    11.5085     0.8046    13.6687 </r>
       <r>    11.5920     1.1813    13.7674 </r>
       <r>    11.6756     1.5089    13.8935 </r>
       <r>    11.7591     1.6850    14.0342 </r>
       <r>    11.8426     1.7103    14.1771 </r>
       <r>    11.9262     1.5907    14.3100 </r>
       <r>    12.0097     1.3506    14.4229 </r>
       <r>    12.0933     1.0727    14.5125 </r>
       <r>    12.1768     0.8354    14.5823 </r>
       <r>    12.2604     0.6717    14.6384 </r>
       <r>    12.3439     0.5913    14.6878 </r>
       <r>    12.4275     0.5959    14.7376 </r>
       <r>    12.5110     0.6657    14.7932 </r>
       <r>    12.5945     0.7288    14.8541 </r>
       <r>    12.6781     0.7005    14.9126 </r>
       <r>    12.7616     0.6076    14.9633 </r>
       <r>    12.8452     0.5761    15.0115 </r>
       <r>    12.9287     0.6501    15.0658 </r>
       <r>    13.0123     0.7300    15.1268 </r>
       <r>    13.0958     0.7337    15.1881 </r>
       <r>    13.1793     0.7261    15.2487 </r>
       <r>    13.2629     0.8186    15.3171 </r>
       <r>    13.3464     0.9890    15.3997 </r>
       <r>    13.4300     1.0744    15.4895 </r>
       <r>    13.5135     0.9599    15.5697 </r>
       <r>    13.5971     0.7208    15.6299 </r>
       <r>    13.6806     0.5216    15.6735 </r>
       <r>    13.7642     0.4217    15.7087 </r>
       <r>    13.8477     0.3534    15.7382 </r>
       <r>    13.9312     0.2541    15.7595 </r>
       <r>    14.0148     0.1417    15.7713 </r>
       <r>    14.0983     0.0645    15.7767 </r>
       <r>    14.1819     0.0467    15.7806 </r>
       <r>    14.2654     0.0918    15.7883 </r>
       <r>    14.3490     0.1877    15.8039 </r>
       <r>    14.4325     0.2832    15.8276 </r>
       <r>    14.5161     0.3062    15.8532 </r>
       <r>    14.5996     0.2411    15.8733 </r>
       <r>    14.6831     0.1555    15.8863 </r>
       <r>    14.7667     0.1282    15.8970 </r>
       <r>    14.8502     0.1778    15.9119 </r>
       <r>    14.9338     0.2562    15.9333 </r>
       <r>    15.0173     0.2908    15.9576 </r>
       <r>    15.1009     0.2472    15.9782 </r>
       <r>    15.1844     0.1559    15.9912 </r>
       <r>    15.2680     0.0726    15.9973 </r>
       <r>    15.3515     0.0248    15.9994 </r>
       <r>    15.4350     0.0062    15.9999 </r>
       <r>    15.5186     0.0011    16.0000 </r>
       <r>    15.6021     0.0001    16.0000 </r>
       <r>    15.6857     0.0000    16.0000 </r>
       <r>    15.7692     0.0000    16.0000 </r>
       <r>    15.8528     0.0000    16.0000 </r>
       <r>    15.9363     0.0000    16.0000 </r>
       <r>    16.0198     0.0000    16.0000 </r>
       <r>    16.1034     0.0000    16.0000 </r>
       <r>    16.1869     0.0000    16.0000 </r>
       <r>    16.2705     0.0000    16.0000 </r>
       <r>    16.3540     0.0000    16.0000 </r>
       <r>    16.4376     0.0000    16.0000 </r>
       <r>    16.5211     0.0000    16.0000 </r>
       <r>    16.6047     0.0000    16.0000 </r>
       <r>    16.6882     0.0000    16.0000 </r>
       <r>    16.7717     0.0000    16.0000 </r>
       <r>    16.8553     0.0000    16.0000 </r>
       <r>    16.9388     0.0000    16.0000 </r>
       <r>    17.0224     0.0000    16.0000 </r>
      </set>
     </set>
    </array>
   </total>
  </dos>
 </calculation>
 <structure name="finalpos" >
  <crystal>
   <varray name="basis" >
    <v>       0.00000000       2.71500000       2.71500000 </v>
    <v>       2.71500000       0.00000000       2.71500000 </v>
    <v>       2.71500000       2.71500000       0.00000000 </v>
   </varray>
   <i name="volume">     40.02575175 </i>
   <varray name="rec_basis" >
    <v>      -0.18416206       0.18416206       0.18416206 </v>
    <v>       0.18416206      -0.18416206       0.18416206 </v>
    <v>       0.18416206       0.18416206      -0.18416206 </v>
   </varray>
  </crystal>
  <varray name="positions" >
   <v>       0.50000000       0.50000000       0.50000000 </v>
   <v>       0.75000000       0.75000000       0.75000000 </v>
  </varray>
 </structure>
</modeling>
