unknown system                          
   1.00000000000000     
    -2.450000    2.450000    1.274000
     2.450000   -2.450000    1.274000
     2.450000    2.450000   -1.274000
   Si
     2
Direct
  0.250000  0.750000  0.500000
  0.000000  0.000000  0.000000
 
   24   24   24
 -.55654099613E+01 -.35433298012E+01 0.14942064864E+01 0.71070109572E+01 0.10917236682E+02
 0.11892607088E+02 0.10631706725E+02 0.85918979012E+01 0.67070328333E+01 0.52503050551E+01
 0.42772661624E+01 0.37376555670E+01 0.35667929427E+01 0.37377211912E+01 0.42772564465E+01
 0.52502505240E+01 0.67070745013E+01 0.85919585616E+01 0.10631620170E+02 0.11892499135E+02
 0.10917340189E+02 0.71071881431E+01 0.14941383875E+01 -.35435530122E+01 -.35435530122E+01
 -.45758840519E+01 -.17811478202E+01 0.34062670473E+01 0.84991169497E+01 0.11440564610E+02
 0.11654972539E+02 0.10042314091E+02 0.80129547403E+01 0.62407765000E+01 0.49235467320E+01
 0.40787936467E+01 0.36458430023E+01 0.35667887253E+01 0.38280619984E+01 0.44682153708E+01
 0.55543130354E+01 0.71209811910E+01 0.90741348973E+01 0.11062541108E+02 0.11977951903E+02
 0.10472660270E+02 0.62869926860E+01 0.79485222489E+00 0.14941383875E+01 -.17813460585E+01
 -.18498612109E+01 0.13074321273E+01 0.60352610024E+01 0.10053722037E+02 0.11807397428E+02
 0.11203578503E+02 0.93389695268E+01 0.73821823040E+01 0.57588303326E+01 0.45987586224E+01
 0.38869868823E+01 0.35588320244E+01 0.35667365235E+01 0.39104417458E+01 0.46369223229E+01
 0.58105022553E+01 0.74471624740E+01 0.94202462231E+01 0.11320013946E+02 0.11992839880E+02
 0.10299686955E+02 0.62869926860E+01 0.71071881431E+01 0.34062123304E+01 0.13072805198E+01
 0.19620336910E+01 0.49897691420E+01 0.87369244324E+01 0.11341319542E+02 0.11833155059E+02
 0.10537408409E+02 0.85802293518E+01 0.67457815498E+01 0.52955913545E+01 0.42978208520E+01
 0.37141663857E+01 0.34822191234E+01 0.35666726220E+01 0.39786925887E+01 0.47693682742E+01
 0.59960026180E+01 0.76560677881E+01 0.96011040089E+01 0.11405052663E+02 0.11992839880E+02
 0.10472660270E+02 0.10917340189E+02 0.84992538695E+01 0.60352268414E+01 0.49896792645E+01
 0.60041666948E+01 0.84633910154E+01 0.10920467726E+02 0.12053434111E+02 0.11455127594E+02
 0.97326265967E+01 0.78197607435E+01 0.61472204092E+01 0.48804346963E+01 0.40384785219E+01
 0.35702771165E+01 0.34206655460E+01 0.35666176909E+01 0.40274845355E+01 0.48539656938E+01
 0.60934586047E+01 0.77280138948E+01 0.96011040089E+01 0.11320013946E+02 0.11977951903E+02
 0.11892499135E+02 0.11440629543E+02 0.10053806258E+02 0.87369149977E+01 0.84633686856E+01
 0.94715237315E+01 0.11089735929E+02 0.12218705565E+02 0.12093213943E+02 0.10755574334E+02
 0.89047048798E+01 0.71113455507E+01 0.56242139715E+01 0.45364423331E+01 0.38339529567E+01
 0.34626702775E+01 0.33776791033E+01 0.35665804439E+01 0.40529213157E+01 0.48830634031E+01
 0.60934586047E+01 0.76560677881E+01 0.94202462231E+01 0.11062541108E+02 0.10631620170E+02
 0.11654899556E+02 0.11807416724E+02 0.11341346551E+02 0.10920482821E+02 0.11089776367E+02
 0.11829063512E+02 0.12555742220E+02 0.12570637221E+02 0.11586689542E+02 0.99278763088E+01
 0.81326769998E+01 0.65046864365E+01 0.52069076784E+01 0.42802161040E+01 0.36931874021E+01
 0.33962607674E+01 0.33556103268E+01 0.35665731574E+01 0.40529213157E+01 0.48539656938E+01
 0.59960026180E+01 0.74471624740E+01 0.90741348973E+01 0.85919585616E+01 0.10042284990E+02
 0.11203543193E+02 0.11833129705E+02 0.12053407716E+02 0.12218740037E+02 0.12555831062E+02
 0.12925097512E+02 0.12916232542E+02 0.12197053027E+02 0.10818019057E+02 0.91472171742E+01
 0.74849085218E+01 0.60411197394E+01 0.49171776581E+01 0.41225421126E+01 0.36215697464E+01
 0.33738324206E+01 0.33556103268E+01 0.35665804439E+01 0.40274845355E+01 0.47693682742E+01
 0.58105022553E+01 0.71209811910E+01 0.67070745013E+01 0.80130003215E+01 0.93389954926E+01
 0.10537409327E+02 0.11455067136E+02 0.12093144925E+02 0.12570681835E+02 0.12916349511E+02
 0.12972943607E+02 0.12517432199E+02 0.11490376444E+02 0.10076749309E+02 0.85118971421E+01
 0.70190518016E+01 0.57508993609E+01 0.47689712628E+01 0.40693638061E+01 0.36215697464E+01
 0.33962607674E+01 0.33776791033E+01 0.35666176909E+01 0.39786925887E+01 0.46369223229E+01
 0.55543130354E+01 0.52502505240E+01 0.62407615025E+01 0.73822102519E+01 0.85802984486E+01
 0.97326597153E+01 0.10755494973E+02 0.11586592689E+02 0.12197096936E+02 0.12517556718E+02
 0.12424571446E+02 0.11842275605E+02 0.10821142675E+02 0.95067414964E+01 0.80982111034E+01
 0.67757688049E+01 0.56521649705E+01 0.47689712628E+01 0.41225421126E+01 0.36931874021E+01
 0.34626702775E+01 0.34206655460E+01 0.35666726220E+01 0.39104417458E+01 0.44682153708E+01
 0.42772564465E+01 0.49234929330E+01 0.57587700268E+01 0.67457878079E+01 0.78198544585E+01
 0.89047651085E+01 0.99277965587E+01 0.10817909274E+02 0.11490410608E+02 0.11842392573E+02
 0.11779746401E+02 0.11266391549E+02 0.10359218339E+02 0.91980638491E+01 0.79548016922E+01
 0.67757688049E+01 0.57508993609E+01 0.49171776581E+01 0.42802161040E+01 0.38339529567E+01
 0.35702771165E+01 0.34822191234E+01 0.35667365235E+01 0.38280619984E+01 0.37377211912E+01
 0.40788282713E+01 0.45987173481E+01 0.52955019007E+01 0.61471998712E+01 0.71114437531E+01
 0.81327591072E+01 0.91471522443E+01 0.10076637957E+02 0.10821162919E+02 0.11266495147E+02
 0.11317618530E+02 0.10942438138E+02 0.10194866730E+02 0.91980638491E+01 0.80982111034E+01
 0.70190518016E+01 0.60411197394E+01 0.52069076784E+01 0.45364423331E+01 0.40384785219E+01
 0.37141663857E+01 0.35588320244E+01 0.35667887253E+01 0.35667929427E+01 0.36459068271E+01
 0.38870565705E+01 0.42978057866E+01 0.48803327263E+01 0.56241624812E+01 0.65047729961E+01
 0.74850073577E+01 0.85118540936E+01 0.95066341556E+01 0.10359226727E+02 0.10942532068E+02
 0.11150755106E+02 0.10942438138E+02 0.10359218339E+02 0.95067414964E+01 0.85118971421E+01
 0.74849085218E+01 0.65046864365E+01 0.56242139715E+01 0.48804346963E+01 0.42978208520E+01
 0.38869868823E+01 0.36458430023E+01 0.37376555670E+01 0.35667524057E+01 0.35588763047E+01
 0.37142623803E+01 0.40385009552E+01 0.45363409567E+01 0.52068247680E+01 0.60411869588E+01
 0.70191620991E+01 0.80981868268E+01 0.91979603068E+01 0.10194870499E+02 0.10942532068E+02
 0.11317618530E+02 0.11266391549E+02 0.10821142675E+02 0.10076749309E+02 0.91472171742E+01
 0.81326769998E+01 0.71113455507E+01 0.61472204092E+01 0.52955913545E+01 0.45987586224E+01
 0.40787936467E+01 0.42772661624E+01 0.38280115147E+01 0.35666638898E+01 0.34822302512E+01
 0.35703922147E+01 0.38340172077E+01 0.42801223193E+01 0.49170686198E+01 0.57509495574E+01
 0.67758849725E+01 0.79547847422E+01 0.91979603068E+01 0.10359226727E+02 0.11266495147E+02
 0.11779746401E+02 0.11842275605E+02 0.11490376444E+02 0.10818019057E+02 0.99278763088E+01
 0.89047048798E+01 0.78197607435E+01 0.67457815498E+01 0.57588303326E+01 0.49235467320E+01
 0.52503050551E+01 0.44682767387E+01 0.39104181865E+01 0.35665651258E+01 0.34206381670E+01
 0.34627986072E+01 0.36932879092E+01 0.41224562807E+01 0.47688472943E+01 0.56522084752E+01
 0.67758849725E+01 0.80981868268E+01 0.95066341556E+01 0.10821162919E+02 0.11842392573E+02
 0.12424571446E+02 0.12517432199E+02 0.12197053027E+02 0.11586689542E+02 0.10755574334E+02
 0.97326265967E+01 0.85802293518E+01 0.73821823040E+01 0.62407765000E+01 0.67070328333E+01
 0.55543609401E+01 0.46370374190E+01 0.39786998948E+01 0.35664801776E+01 0.33776180740E+01
 0.33963970365E+01 0.36216913362E+01 0.40692812491E+01 0.47688472943E+01 0.57509495574E+01
 0.70191620991E+01 0.85118540936E+01 0.10076637957E+02 0.11490410608E+02 0.12517556718E+02
 0.12972943607E+02 0.12916232542E+02 0.12570637221E+02 0.12093213943E+02 0.11455127594E+02
 0.10537408409E+02 0.93389695268E+01 0.80129547403E+01 0.85918979012E+01 0.71208798108E+01
 0.58105410295E+01 0.47695312285E+01 0.40275182703E+01 0.35664222793E+01 0.33555297387E+01
 0.33739713590E+01 0.36216913362E+01 0.41224562807E+01 0.49170686198E+01 0.60411869588E+01
 0.74850073577E+01 0.91471522443E+01 0.10817909274E+02 0.12197096936E+02 0.12916349511E+02
 0.12925097512E+02 0.12555742220E+02 0.12218705565E+02 0.12053434111E+02 0.11833155059E+02
 0.11203578503E+02 0.10042314091E+02 0.10631706725E+02 0.90740611496E+01 0.74470083836E+01
 0.59960335286E+01 0.48541619372E+01 0.40529701787E+01 0.35664075976E+01 0.33555297387E+01
 0.33963970365E+01 0.36932879092E+01 0.42801223193E+01 0.52068247680E+01 0.65047729961E+01
 0.81327591072E+01 0.99277965587E+01 0.11586592689E+02 0.12570681835E+02 0.12555831062E+02
 0.11829063512E+02 0.11089735929E+02 0.10920467726E+02 0.11341319542E+02 0.11807397428E+02
 0.11654972539E+02 0.11892607088E+02 0.11062677424E+02 0.94201622280E+01 0.76558775088E+01
 0.60934851266E+01 0.48832715949E+01 0.40529701787E+01 0.35664222793E+01 0.33776180740E+01
 0.34627986072E+01 0.38340172077E+01 0.45363409567E+01 0.56241624812E+01 0.71114437531E+01
 0.89047651085E+01 0.10755494973E+02 0.12093144925E+02 0.12218740037E+02 0.11089776367E+02
 0.94715237315E+01 0.84633910154E+01 0.87369244324E+01 0.10053722037E+02 0.11440564610E+02
 0.10917236682E+02 0.11978087119E+02 0.11320183828E+02 0.96010142537E+01 0.77278107339E+01
 0.60934851266E+01 0.48541619372E+01 0.40275182703E+01 0.35664801776E+01 0.34206381670E+01
 0.35703922147E+01 0.40385009552E+01 0.48803327263E+01 0.61471998712E+01 0.78198544585E+01
 0.97326597153E+01 0.11455067136E+02 0.12053407716E+02 0.10920482821E+02 0.84633686856E+01
 0.60041666948E+01 0.49897691420E+01 0.60352610024E+01 0.84991169497E+01 0.71070109572E+01
 0.10472531282E+02 0.11992990091E+02 0.11405234370E+02 0.96010142537E+01 0.76558775088E+01
 0.59960335286E+01 0.47695312285E+01 0.39786998948E+01 0.35665651258E+01 0.34822302512E+01
 0.37142623803E+01 0.42978057866E+01 0.52955019007E+01 0.67457878079E+01 0.85802984486E+01
 0.10537409327E+02 0.11833129705E+02 0.11341346551E+02 0.87369149977E+01 0.49896792645E+01
 0.19620336910E+01 0.13074321273E+01 0.34062670473E+01 0.14942064864E+01 0.62867937361E+01
 0.10299549096E+02 0.11992990091E+02 0.11320183828E+02 0.94201622280E+01 0.74470083836E+01
 0.58105410295E+01 0.46370374190E+01 0.39104181865E+01 0.35666638898E+01 0.35588763047E+01
 0.38870565705E+01 0.45987173481E+01 0.57587700268E+01 0.73822102519E+01 0.93389954926E+01
 0.11203543193E+02 0.11807416724E+02 0.10053806258E+02 0.60352268414E+01 0.13072805198E+01
 -.18498612109E+01 -.17811478202E+01 -.35433298012E+01 0.79492494234E+00 0.62867937361E+01
 0.10472531282E+02 0.11978087119E+02 0.11062677424E+02 0.90740611496E+01 0.71208798108E+01
 0.55543609401E+01 0.44682767387E+01 0.38280115147E+01 0.35667524057E+01 0.36459068271E+01
 0.40788282713E+01 0.49234929330E+01 0.62407615025E+01 0.80130003215E+01 0.10042284990E+02
 0.11654899556E+02 0.11440629543E+02 0.84992538695E+01 0.34062123304E+01 -.17813460585E+01
 -.45758840519E+01 -.35431965826E+01 -.21078381286E+01 0.22249089595E+01 0.72933169997E+01
 0.10839157656E+02 0.11772665453E+02 0.10551289225E+02 0.85291688038E+01 0.66368766780E+01
 0.51553491620E+01 0.41486532558E+01 0.35707992624E+01 0.33555671636E+01 0.34702190549E+01
 0.39342414646E+01 0.48082183929E+01 0.61491899177E+01 0.79286138335E+01 0.99348576816E+01
 0.11452925628E+02 0.11115921133E+02 0.81702904159E+01 0.33287402512E+01 -.13460519367E+01
 -.21080762337E+01 -.35432223813E+01 -.13458414112E+01 0.33288576417E+01 0.81701727944E+01
 0.11115787098E+02 0.11452949139E+02 0.99349383686E+01 0.79286255611E+01 0.61491679569E+01
 0.48082182861E+01 0.39342404535E+01 0.34702121294E+01 0.33555789985E+01 0.35707973670E+01
 0.41486121799E+01 0.51553448865E+01 0.66369439310E+01 0.85291751246E+01 0.10551161667E+02
 0.11772595124E+02 0.10839309833E+02 0.72934911704E+01 0.22248180554E+01 0.23592489676E+01
 -.11997810859E+01 -.17810747483E+01 0.88403664481E+00 0.53560225020E+01 0.94103245845E+01
 0.11378982735E+02 0.10991463121E+02 0.92269508782E+01 0.72914934241E+01 0.56593237561E+01
 0.44779645628E+01 0.37435799502E+01 0.33938134600E+01 0.33776359254E+01 0.36894104033E+01
 0.43726697550E+01 0.54947047837E+01 0.70859851293E+01 0.90483051064E+01 0.11037067320E+02
 0.12005795091E+02 0.10739453254E+02 0.70806940208E+01 0.76295983658E+01 0.37131970848E+01
 0.11559479750E+01 0.13074527496E+01 0.40206007847E+01 0.77642110310E+01 0.10619367448E+02
 0.11436249751E+02 0.10365528717E+02 0.84810929691E+01 0.66610743318E+01 0.52001696858E+01
 0.41854568116E+01 0.35880353686E+01 0.33461293390E+01 0.34205968271E+01 0.38185522169E+01
 0.45904465211E+01 0.57996891943E+01 0.74591480557E+01 0.94434033941E+01 0.11370520712E+02
 0.12199214630E+02 0.10923188890E+02 0.11366061605E+02 0.87968942142E+01 0.59382825512E+01
 0.43822478300E+01 0.49897459777E+01 0.73236188088E+01 0.99620529593E+01 0.11447193536E+02
 0.11173260304E+02 0.96137253189E+01 0.77440559998E+01 0.60764811653E+01 0.47988155740E+01
 0.39468703684E+01 0.34759731647E+01 0.33299466354E+01 0.34821293984E+01 0.39496605277E+01
 0.47852957289E+01 0.60444385142E+01 0.77229210274E+01 0.96787999110E+01 0.11534043814E+02
 0.12357008793E+02 0.12430826639E+02 0.11917793732E+02 0.10246691275E+02 0.84709151068E+01
 0.77312287440E+01 0.84633286557E+01 0.10100880537E+02 0.11492322278E+02 0.11702694326E+02
 0.10601411684E+02 0.88308436033E+01 0.70605258034E+01 0.55710786507E+01 0.44760377978E+01
 0.37736122611E+01 0.34127154583E+01 0.33461826371E+01 0.35587212327E+01 0.40736687171E+01
 0.49414864543E+01 0.62069195209E+01 0.78519388660E+01 0.97306818178E+01 0.11508011485E+02
 0.11274614444E+02 0.12339198033E+02 0.12359535302E+02 0.11566865329E+02 0.10713713899E+02
 0.10511697513E+02 0.11089648155E+02 0.11902637360E+02 0.12156557589E+02 0.11404668545E+02
 0.98547923029E+01 0.80939785640E+01 0.64729900319E+01 0.51717636900E+01 0.42465029506E+01
 0.36727261646E+01 0.34007628495E+01 0.33939126944E+01 0.36457480742E+01 0.41816022236E+01
 0.50459030044E+01 0.62719679364E+01 0.78329219086E+01 0.95910654795E+01 0.92697450791E+01
 0.10831471434E+02 0.12007971631E+02 0.12489468694E+02 0.12408598906E+02 0.12217749785E+02
 0.12281813255E+02 0.12555652519E+02 0.12620297939E+02 0.12042960074E+02 0.10755799455E+02
 0.91134443413E+01 0.74620593168E+01 0.60190256122E+01 0.48987754029E+01 0.41195749029E+01
 0.36476339908E+01 0.34400868772E+01 0.34703502783E+01 0.37376026150E+01 0.42653574167E+01
 0.50896848630E+01 0.62335257114E+01 0.76669095921E+01 0.73693575760E+01 0.87936644899E+01
 0.10207284759E+02 0.11413245976E+02 0.12202192233E+02 0.12597372540E+02 0.12802452876E+02
 0.12944500167E+02 0.12916149686E+02 0.12466568099E+02 0.11458638779E+02 0.10044323031E+02
 0.84817079973E+01 0.69902893362E+01 0.57288382252E+01 0.47659928945E+01 0.41002116129E+01
 0.36987104116E+01 0.35283296660E+01 0.35709627605E+01 0.38280423787E+01 0.43184592129E+01
 0.50692950846E+01 0.60955433076E+01 0.58713920912E+01 0.69678738022E+01 0.82035786354E+01
 0.94597852941E+01 0.10607043663E+02 0.11530685094E+02 0.12176871676E+02 0.12577258440E+02
 0.12724096171E+02 0.12517379408E+02 0.11858727490E+02 0.10788954230E+02 0.94526324609E+01
 0.80379671043E+01 0.67232388181E+01 0.56235543343E+01 0.47812163385E+01 0.41895310913E+01
 0.38236431015E+01 0.36609628885E+01 0.36896150816E+01 0.39105596502E+01 0.43366963965E+01
 0.49869757039E+01 0.48503463624E+01 0.55817595253E+01 0.64981881915E+01 0.75489015698E+01
 0.86500154220E+01 0.97062386285E+01 0.10635641933E+02 0.11375409274E+02 0.11868240899E+02
 0.12046994799E+02 0.11842251193E+02 0.11230519922E+02 0.10266341089E+02 0.90815186911E+01
 0.78416364519E+01 0.66900375859E+01 0.57141556449E+01 0.49462255994E+01 0.43849132428E+01
 0.40173462440E+01 0.38311951950E+01 0.38187749189E+01 0.39789473755E+01 0.43186175647E+01
 0.42656400802E+01 0.46713041542E+01 0.52517256450E+01 0.59993491522E+01 0.68816636827E+01
 0.78420989958E+01 0.88118950840E+01 0.97216998315E+01 0.10501778031E+02 0.11073912104E+02
 0.11352256861E+02 0.11266396952E+02 0.10797748999E+02 0.10002209103E+02 0.89981907584E+01
 0.79254945165E+01 0.69017270819E+01 0.60006082672E+01 0.52561851858E+01 0.46793576092E+01
 0.42714687695E+01 0.40298985885E+01 0.39499053866E+01 0.40278562908E+01 0.40533351732E+01
 0.41819474871E+01 0.44645116355E+01 0.49075224351E+01 0.55090751130E+01 0.62508847176E+01
 0.70978965548E+01 0.80033461793E+01 0.89111343220E+01 0.97509035756E+01 0.10432931422E+02
 0.10857214732E+02 0.10942463173E+02 0.10661259219E+02 0.10056858014E+02 0.92280269106E+01
 0.82919443342E+01 0.73494846501E+01 0.64705214878E+01 0.56983979578E+01 0.50604552117E+01
 0.45737801455E+01 0.42455477424E+01 0.40739061723E+01 0.41818101796E+01 0.40533066570E+01
 0.40740158761E+01 0.42456629526E+01 0.45737521431E+01 0.50603121064E+01 0.56983272149E+01
 0.64706119055E+01 0.73495897437E+01 0.82919075467E+01 0.92279287597E+01 0.10056872031E+02
 0.10661353177E+02 0.10942460512E+02 0.10857110666E+02 0.10432907297E+02 0.97510096636E+01
 0.89111930139E+01 0.80032447373E+01 0.70977761430E+01 0.62509236789E+01 0.55092270087E+01
 0.49075943309E+01 0.44644229984E+01 0.46712748541E+01 0.42655060919E+01 0.40277601848E+01
 0.39499567900E+01 0.40300344642E+01 0.42715040399E+01 0.46792341967E+01 0.52560765378E+01
 0.60006670469E+01 0.69018442081E+01 0.79254793601E+01 0.89980868354E+01 0.10002205562E+02
 0.10797842884E+02 0.11266402533E+02 0.11352142727E+02 0.11073865076E+02 0.10501881311E+02
 0.97217867854E+01 0.88118201728E+01 0.78419635791E+01 0.68816529894E+01 0.59994735259E+01
 0.52518325822E+01 0.55818806279E+01 0.48503761445E+01 0.43185078787E+01 0.39788054079E+01
 0.38187730192E+01 0.38313367482E+01 0.40174239270E+01 0.43848079788E+01 0.49461041951E+01
 0.57142051684E+01 0.66901554832E+01 0.78416140119E+01 0.90814046236E+01 0.10266343957E+02
 0.11230628107E+02 0.11842252938E+02 0.12046858126E+02 0.11868176990E+02 0.11375517811E+02
 0.10635753440E+02 0.97061895617E+01 0.86498776485E+01 0.75488481358E+01 0.64982697415E+01
 0.69678743314E+01 0.58715004637E+01 0.49870791739E+01 0.43366413862E+01 0.39103849225E+01
 0.36895541200E+01 0.36611005613E+01 0.38237594625E+01 0.41894482209E+01 0.47810891612E+01
 0.56235948268E+01 0.67233523775E+01 0.80379396654E+01 0.94525168528E+01 0.10788960571E+02
 0.11858836752E+02 0.12517381568E+02 0.12723963058E+02 0.12577186303E+02 0.12176955539E+02
 0.11530794643E+02 0.10607042214E+02 0.94596886302E+01 0.82034869125E+01 0.87935368788E+01
 0.73692786724E+01 0.60956384283E+01 0.50694591255E+01 0.43184466181E+01 0.38278512929E+01
 0.35708775557E+01 0.35284713188E+01 0.36988356769E+01 0.41001281282E+01 0.47658743887E+01
 0.57288948388E+01 0.69903994463E+01 0.84816601505E+01 0.10044199649E+02 0.11458653632E+02
 0.12466684896E+02 0.12916160449E+02 0.12944378438E+02 0.12802367902E+02 0.12597416329E+02
 0.12202294117E+02 0.11413303210E+02 0.10207240535E+02 0.10831504411E+02 0.92696092676E+01
 0.76667570252E+01 0.62335869029E+01 0.50898844626E+01 0.42653900570E+01 0.37374259666E+01
 0.34702593791E+01 0.34402153555E+01 0.36477468752E+01 0.41194999146E+01 0.48986843182E+01
 0.60190902864E+01 0.74621467418E+01 0.91133846995E+01 0.10755693028E+02 0.12042980009E+02
 0.12620394590E+02 0.12555669138E+02 0.12281735798E+02 0.12217673274E+02 0.12408581879E+02
 0.12489529133E+02 0.12008081910E+02 0.12339363381E+02 0.11274719075E+02 0.95909240423E+01
 0.78327172979E+01 0.62720092456E+01 0.50461212297E+01 0.41816555593E+01 0.36455880339E+01
 0.33938373889E+01 0.34008881240E+01 0.36728194256E+01 0.42464260854E+01 0.51716923079E+01
 0.64730603946E+01 0.80940545704E+01 0.98547379978E+01 0.11404576113E+02 0.12156558345E+02
 0.11902704048E+02 0.11089692827E+02 0.10511687011E+02 0.10713639802E+02 0.11566769815E+02
 0.12359550676E+02 0.11917754015E+02 0.12431009708E+02 0.11508167432E+02 0.97305644321E+01
 0.78517260700E+01 0.62069389281E+01 0.49416823896E+01 0.40737253882E+01 0.35586023506E+01
 0.33461412376E+01 0.34128209672E+01 0.37736674022E+01 0.44759676229E+01 0.55710400176E+01
 0.70605933782E+01 0.88308951920E+01 0.10601369991E+02 0.11702632075E+02 0.11492303766E+02
 0.10100901324E+02 0.84633894095E+01 0.77312904696E+01 0.84708642531E+01 0.10246535644E+02
 0.87966841004E+01 0.11365965939E+02 0.12357194647E+02 0.11534235837E+02 0.96787110227E+01
 0.77227169439E+01 0.60444430969E+01 0.47854645110E+01 0.39497149944E+01 0.34820435626E+01
 0.33299257024E+01 0.34760567898E+01 0.39469051608E+01 0.47987626372E+01 0.60764549747E+01
 0.77440958026E+01 0.96137620628E+01 0.11173262600E+02 0.11447169140E+02 0.99619920092E+01
 0.73235747718E+01 0.49898265813E+01 0.43823931382E+01 0.59382620807E+01 0.37132119058E+01
 0.76293766601E+01 0.10923059526E+02 0.12199370729E+02 0.11370706470E+02 0.94433471856E+01
 0.74589890132E+01 0.57996930834E+01 0.45905681307E+01 0.38185843926E+01 0.34205438246E+01
 0.33461352189E+01 0.35880964508E+01 0.41854663442E+01 0.52001301733E+01 0.66610591795E+01
 0.84811064807E+01 0.10365551452E+02 0.11436292385E+02 0.10619380864E+02 0.77641199310E+01
 0.40205001595E+01 0.13075333432E+01 0.11561459275E+01 -.11995439913E+01 0.23593122753E+01
 0.70804840639E+01 0.10739294203E+02 0.12005906087E+02 0.11037237420E+02 0.90482850926E+01
 0.70858702835E+01 0.54947000692E+01 0.43727471907E+01 0.36894331377E+01 0.33776121694E+01
 0.33938214830E+01 0.37436050247E+01 0.44779656366E+01 0.56593186566E+01 0.72914835071E+01
 0.92269143159E+01 0.10991460683E+02 0.11379077502E+02 0.94103956210E+01 0.53559101541E+01
 0.88386813343E+00 -.17810183651E+01 0.14947474934E+01 0.23597192632E+01 0.54879728040E+01
 0.92107413894E+01 0.11696106966E+02 0.12039250698E+02 0.10632836585E+02 0.86253618634E+01
 0.67617640336E+01 0.52899160196E+01 0.42704998767E+01 0.36609060096E+01 0.33962457676E+01
 0.34399977457E+01 0.38035481493E+01 0.45393551277E+01 0.57061465371E+01 0.73024938250E+01
 0.91835557845E+01 0.10926762376E+02 0.11477884360E+02 0.10000169891E+02 0.67878840432E+01
 0.33290247811E+01 0.22250807873E+01 0.79546744264E+00 0.22253321046E+01 0.57201242658E+01
 0.94174794118E+01 0.11567601983E+02 0.11531060185E+02 0.99425907397E+01 0.79755460239E+01
 0.62282501017E+01 0.48984705299E+01 0.40162255233E+01 0.35282545699E+01 0.33738231540E+01
 0.35282331063E+01 0.40162087792E+01 0.48985001915E+01 0.62282989891E+01 0.79755107983E+01
 0.99424751434E+01 0.11531046932E+02 0.11567773918E+02 0.94176080498E+01 0.57199787423E+01
 0.54878812000E+01 0.23594517555E+01 0.14946832250E+01 0.33292334673E+01 0.67880562736E+01
 0.10000109363E+02 0.11477745075E+02 0.10926741667E+02 0.91836258324E+01 0.73025312938E+01
 0.57061271800E+01 0.45393275302E+01 0.38035439322E+01 0.34400196784E+01 0.33962638081E+01
 0.36608767486E+01 0.42704554103E+01 0.52899521249E+01 0.67618569002E+01 0.86253405150E+01
 0.10632670525E+02 0.12039182349E+02 0.11696292496E+02 0.92109419551E+01 0.95233984655E+01
 0.61986005745E+01 0.37133089256E+01 0.34066016269E+01 0.53562965486E+01 0.83464812053E+01
 0.10689804906E+02 0.11293561076E+02 0.10220040319E+02 0.84081868446E+01 0.66506995940E+01
 0.52284499488E+01 0.42333899907E+01 0.36437893879E+01 0.34007431308E+01 0.34626881459E+01
 0.38311447199E+01 0.45514569953E+01 0.56878911530E+01 0.72682091247E+01 0.92028867680E+01
 0.11204715771E+02 0.12465121367E+02 0.11959581702E+02 0.12365202292E+02 0.10312614199E+02
 0.76796492329E+01 0.59382902220E+01 0.60354186281E+01 0.77643565799E+01 0.99341929497E+01
 0.11197155378E+02 0.10912442754E+02 0.94399376200E+01 0.76599616169E+01 0.60575865468E+01
 0.48213755933E+01 0.39962688570E+01 0.35448814858E+01 0.34127733898E+01 0.35703131802E+01
 0.40298705212E+01 0.48412122252E+01 0.60629760622E+01 0.77061039610E+01 0.96584780074E+01
 0.11616133859E+02 0.12801849331E+02 0.13007209024E+02 0.12818911774E+02 0.11360333448E+02
 0.95353586079E+01 0.84708313723E+01 0.87369002149E+01 0.99620524765E+01 0.11130607110E+02
 0.11320336503E+02 0.10315520885E+02 0.86570303797E+01 0.69779263204E+01 0.55534479123E+01
 0.45042076851E+01 0.38385766916E+01 0.35114487435E+01 0.34761187005E+01 0.37142140884E+01
 0.42455238212E+01 0.51193830506E+01 0.63847250403E+01 0.80360709362E+01 0.99479499558E+01
 0.11827494962E+02 0.11805534979E+02 0.13012859697E+02 0.13156906103E+02 0.12348661557E+02
 0.11279327506E+02 0.10713549828E+02 0.10920277197E+02 0.11492203309E+02 0.11688330792E+02
 0.11014837872E+02 0.95847015319E+01 0.79312516284E+01 0.63972699643E+01 0.51617848598E+01
 0.42901315048E+01 0.37664846259E+01 0.35450005111E+01 0.35882680904E+01 0.38870445392E+01
 0.44643825581E+01 0.53647191731E+01 0.66248769502E+01 0.82258160919E+01 0.10039465856E+02
 0.99194069268E+01 0.11534406758E+02 0.12753612684E+02 0.13210521906E+02 0.12972972615E+02
 0.12493180729E+02 0.12217545686E+02 0.12218416013E+02 0.12156354405E+02 0.11595889112E+02
 0.10400869335E+02 0.88606606056E+01 0.73083207991E+01 0.59491412377E+01 0.49001299195E+01
 0.41872884751E+01 0.37824045314E+01 0.36439967179E+01 0.37438663533E+01 0.40788603701E+01
 0.46711928810E+01 0.55571297970E+01 0.67610911371E+01 0.82552814528E+01 0.81202660778E+01
 0.95957047327E+01 0.11029680993E+02 0.12203854279E+02 0.12876654446E+02 0.13048022122E+02
 0.12953717572E+02 0.12802240012E+02 0.12570303331E+02 0.12042727075E+02 0.11054732778E+02
 0.97051105704E+01 0.82325511312E+01 0.68339482709E+01 0.56598005829E+01 0.47808524079E+01
 0.41997025933E+01 0.38853757248E+01 0.38037623037E+01 0.39345439843E+01 0.42773435580E+01
 0.48502625567E+01 0.56799474632E+01 0.67802299363E+01 0.66804938756E+01 0.78334348087E+01
 0.90973873853E+01 0.10337318051E+02 0.11403908812E+02 0.12164842244E+02 0.12567678452E+02
 0.12685474492E+02 0.12577076449E+02 0.12196753289E+02 0.11458427689E+02 0.10383036173E+02
 0.90995930241E+01 0.77682665372E+01 0.65488360218E+01 0.55494923707E+01 0.48115225729E+01
 0.43277176791E+01 0.40711887301E+01 0.40163909436E+01 0.41489202222E+01 0.44683687670E+01
 0.49869364547E+01 0.57221438091E+01 0.56798646309E+01 0.64716883341E+01 0.74224315898E+01
 0.84705112040E+01 0.95184609745E+01 0.10457884613E+02 0.11201916711E+02 0.11698824645E+02
 0.11926804894E+02 0.11868120779E+02 0.11490154291E+02 0.10788791410E+02 0.98146125669E+01
 0.86791919543E+01 0.75262843183E+01 0.64839757796E+01 0.56312214718E+01 0.49947636729E+01
 0.45678646205E+01 0.43320777815E+01 0.42705320965E+01 0.43729282901E+01 0.46371371192E+01
 0.50693181868E+01 0.50897684218E+01 0.55569845846E+01 0.61737090343E+01 0.69255843880E+01
 0.77713184370E+01 0.86446541240E+01 0.94692917329E+01 0.10176309735E+02 0.10710770152E+02
 0.11025305576E+02 0.11073859068E+02 0.10821011911E+02 0.10266244877E+02 0.94636460643E+01
 0.85166814209E+01 0.75470308825E+01 0.66572040276E+01 0.59093398249E+01 0.53272602487E+01
 0.49119310082E+01 0.46560878336E+01 0.45513985318E+01 0.45906317344E+01 0.47696303584E+01
 0.48542422627E+01 0.50460473646E+01 0.53645709148E+01 0.58134630550E+01 0.63861912349E+01
 0.70584260408E+01 0.77886747271E+01 0.85259525761E+01 0.92169009495E+01 0.98060999998E+01
 0.10232529256E+02 0.10432946340E+02 0.10359171231E+02 0.10002155206E+02 0.94051910013E+01
 0.86538509122E+01 0.78474952515E+01 0.70703075048E+01 0.63774088086E+01 0.57979473519E+01
 0.53456203973E+01 0.50264445911E+01 0.48410373469E+01 0.47853924395E+01 0.49414975804E+01
 0.48833170484E+01 0.49416717699E+01 0.51192747395E+01 0.54211076582E+01 0.58469429730E+01
 0.63858093309E+01 0.70157413890E+01 0.77061852549E+01 0.84174130376E+01 0.90953670770E+01
 0.96685538398E+01 0.10056919300E+02 0.10194844850E+02 0.10056819647E+02 0.96685370545E+01
 0.90954763703E+01 0.84174651237E+01 0.77060732462E+01 0.70156238091E+01 0.63858746125E+01
 0.58471230005E+01 0.54211690871E+01 0.51191340687E+01 0.53644894930E+01 0.50458583471E+01
 0.48541615996E+01 0.47855087644E+01 0.48412055303E+01 0.50264548742E+01 0.53454683656E+01
 0.57978455730E+01 0.63774858055E+01 0.70704226501E+01 0.78474678951E+01 0.86537469762E+01
 0.94051968120E+01 0.10002254395E+02 0.10359179844E+02 0.10432842697E+02 0.10232500009E+02
 0.98062164404E+01 0.92169818100E+01 0.85258520083E+01 0.77885229985E+01 0.70584422158E+01
 0.63863690497E+01 0.58135842697E+01 0.61738735127E+01 0.55569855798E+01 0.50896001793E+01
 0.47694792624E+01 0.45906735084E+01 0.45515741281E+01 0.46561599808E+01 0.49118087232E+01
 0.53271356627E+01 0.59093934147E+01 0.66573244989E+01 0.75470123999E+01 0.85165708555E+01
 0.94636479810E+01 0.10266355864E+02 0.10821028032E+02 0.11073740552E+02 0.11025256324E+02
 0.10710893021E+02 0.10176426209E+02 0.94692188491E+01 0.86444807834E+01 0.77712718098E+01
 0.69257254548E+01 0.74224985149E+01 0.64718605034E+01 0.56799534477E+01 0.50692058902E+01
 0.46369435754E+01 0.43728958631E+01 0.42706934494E+01 0.43321893693E+01 0.45677702437E+01
 0.49946347876E+01 0.56312654063E+01 0.64840941044E+01 0.75262626600E+01 0.86790790462E+01
 0.98146211258E+01 0.10788910996E+02 0.11490168646E+02 0.11867989654E+02 0.11926739101E+02
 0.11698940014E+02 0.11202054538E+02 0.10457856250E+02 0.95183008781E+01 0.84704064729E+01
 0.90972294801E+01 0.78334014175E+01 0.66806487541E+01 0.57223142845E+01 0.49868904168E+01
 0.44681541842E+01 0.41488335633E+01 0.40165368972E+01 0.40713177736E+01 0.43276357094E+01
 0.48113965734E+01 0.55495396602E+01 0.65489530048E+01 0.77682373660E+01 0.90994780319E+01
 0.10383049825E+02 0.11458551567E+02 0.12196772221E+02 0.12576945891E+02 0.12685384788E+02
 0.12567755036E+02 0.12164985600E+02 0.11403950658E+02 0.10337208273E+02 0.11029648378E+02
 0.95955193892E+01 0.81201376932E+01 0.67803453348E+01 0.56801654723E+01 0.48502731856E+01
 0.42771385490E+01 0.39344381471E+01 0.38038896823E+01 0.38854934244E+01 0.41996237237E+01
 0.47807453299E+01 0.56598586782E+01 0.68340526074E+01 0.82325092057E+01 0.97050018434E+01
 0.11054752247E+02 0.12042845106E+02 0.12570329534E+02 0.12802128139E+02 0.12953607178E+02
 0.13048035210E+02 0.12876778689E+02 0.12203970157E+02 0.12753798085E+02 0.11534468383E+02
 0.99192210071E+01 0.82550765164E+01 0.67611572030E+01 0.55573636876E+01 0.46712433008E+01
 0.40786812736E+01 0.37437639204E+01 0.36441064143E+01 0.37825019674E+01 0.41872142359E+01
 0.49000441860E+01 0.59492008836E+01 0.73084079185E+01 0.88606189903E+01 0.10400773932E+02
 0.11595894836E+02 0.12156446991E+02 0.12218464686E+02 0.12217485940E+02 0.12493056605E+02