unknown system                          
   1.00000000000000     
    -2.492526    2.492526    1.248030
     2.492526   -2.492526    1.248030
     2.492526    2.492526   -1.248030
   Si
     2
Direct
  0.250000  0.750000  0.500000
  0.000000 -0.000000  0.000000
 
   24   24   24
 -.56172751606E+01 -.35285153542E+01 0.16425416379E+01 0.73212482712E+01 0.11054963521E+02
 0.11859298090E+02 0.10449852590E+02 0.83517852132E+01 0.64550538341E+01 0.50127723161E+01
 0.40627287784E+01 0.35415580593E+01 0.33775523419E+01 0.35416243595E+01 0.40627159432E+01
 0.50127165520E+01 0.64551035231E+01 0.83518530282E+01 0.10449759172E+02 0.11859180037E+02
 0.11055072346E+02 0.73214374756E+01 0.16424695705E+01 -.35287532899E+01 -.35287532899E+01
 -.46492525418E+01 -.18044508086E+01 0.35082745449E+01 0.86723425433E+01 0.11559238227E+02
 0.11635692848E+02 0.99042858266E+01 0.78207462951E+01 0.60305937530E+01 0.47181287534E+01
 0.38853756785E+01 0.34600442820E+01 0.33775422429E+01 0.36218811387E+01 0.42335289570E+01
 0.52871454145E+01 0.68321558997E+01 0.87943670512E+01 0.10852776152E+02 0.11946411392E+02
 0.10636813495E+02 0.65343966105E+01 0.96454352161E+00 0.16424695705E+01 -.18046621939E+01
 -.19662048253E+01 0.12458477829E+01 0.61088836398E+01 0.10213993291E+02 0.11936241650E+02
 0.11221618966E+02 0.92575320710E+01 0.72420613936E+01 0.55918439212E+01 0.44253204325E+01
 0.37140181946E+01 0.33827759738E+01 0.33774829345E+01 0.36951655542E+01 0.43846614669E+01
 0.55186529496E+01 0.71295852228E+01 0.91122863346E+01 0.11096088679E+02 0.11966682470E+02
 0.10475680747E+02 0.65343966105E+01 0.73214374756E+01 0.35082169158E+01 0.12456856809E+01
 0.18331278937E+01 0.49432990778E+01 0.88432067577E+01 0.11542693127E+02 0.12010681343E+02
 0.10613834170E+02 0.85591120709E+01 0.66575019930E+01 0.51697245332E+01 0.41538416145E+01
 0.35595478529E+01 0.33146831127E+01 0.33774013434E+01 0.37559739927E+01 0.45035033168E+01
 0.56865018309E+01 0.73202563077E+01 0.92785292157E+01 0.11176983600E+02 0.11966682470E+02
 0.10636813495E+02 0.11055072346E+02 0.86724895903E+01 0.61088477795E+01 0.49432017072E+01
 0.59446950976E+01 0.85232617768E+01 0.11139208803E+02 0.12351896388E+02 0.11711670458E+02
 0.98771768681E+01 0.78569664783E+01 0.61064461652E+01 0.47907374299E+01 0.39195655411E+01
 0.34307812711E+01 0.32598907909E+01 0.33773276795E+01 0.37995220951E+01 0.45795181923E+01
 0.57747614973E+01 0.73859534954E+01 0.92785292157E+01 0.11096088679E+02 0.11946411392E+02
 0.11859180037E+02 0.11559306652E+02 0.10214085246E+02 0.88431965115E+01 0.85232347533E+01
 0.95845774944E+01 0.11347441818E+02 0.12613819242E+02 0.12522128276E+02 0.11100584309E+02
 0.91142657427E+01 0.72002279840E+01 0.56234636840E+01 0.44759399793E+01 0.37344553152E+01
 0.33343405657E+01 0.32215772825E+01 0.33772805579E+01 0.38222471749E+01 0.46056786493E+01
 0.57747614973E+01 0.73202563077E+01 0.91122863346E+01 0.10852776152E+02 0.10449759172E+02
 0.11635611537E+02 0.11936263042E+02 0.11542725243E+02 0.11139223446E+02 0.11347480055E+02
 0.12195658299E+02 0.13064569983E+02 0.13163952623E+02 0.12144515532E+02 0.10349154100E+02
 0.83978048994E+01 0.66352638644E+01 0.52367651421E+01 0.42408467869E+01 0.36068198168E+01
 0.32747459673E+01 0.32018820861E+01 0.33772637163E+01 0.38222471749E+01 0.45795181923E+01
 0.56865018309E+01 0.71295852228E+01 0.87943670512E+01 0.83518530282E+01 0.99042518920E+01
 0.11221578068E+02 0.12010657382E+02 0.12351872335E+02 0.12613853285E+02 0.13064659139E+02
 0.13571494490E+02 0.13671614154E+02 0.12962889111E+02 0.11472904761E+02 0.96291234610E+01
 0.77926961732E+01 0.62016953126E+01 0.49674558579E+01 0.40958639920E+01 0.35417880314E+01
 0.32545979325E+01 0.32018820861E+01 0.33772805579E+01 0.37995220951E+01 0.45035033168E+01
 0.55186529496E+01 0.68321558997E+01 0.64551035231E+01 0.78207967078E+01 0.92575551440E+01
 0.10613833026E+02 0.11711611074E+02 0.12522058643E+02 0.13163996944E+02 0.13671734437E+02
 0.13863835316E+02 0.13463548364E+02 0.12370612730E+02 0.10797387915E+02 0.90375016614E+01
 0.73552061490E+01 0.59293445594E+01 0.48293907520E+01 0.40468994615E+01 0.35417880314E+01
 0.32747459673E+01 0.32215772825E+01 0.33773276795E+01 0.37559739927E+01 0.43846614669E+01
 0.52871454145E+01 0.50127165520E+01 0.60305834236E+01 0.72420909362E+01 0.85591802130E+01
 0.98772117814E+01 0.11100505416E+02 0.12144414836E+02 0.12962933403E+02 0.13463679872E+02
 0.13481960071E+02 0.12898881151E+02 0.11768661613E+02 0.10271007877E+02 0.86497475455E+01
 0.71259384557E+01 0.58365127950E+01 0.48293907520E+01 0.40958639920E+01 0.36068198168E+01
 0.33343405657E+01 0.32598907909E+01 0.33774013434E+01 0.36951655542E+01 0.42335289570E+01
 0.40627159432E+01 0.47180749595E+01 0.55917845942E+01 0.66575062837E+01 0.78570614334E+01
 0.91143313668E+01 0.10349073330E+02 0.11472787708E+02 0.12370648594E+02 0.12899009120E+02
 0.12923283087E+02 0.12384512208E+02 0.11346518026E+02 0.99838009626E+01 0.85148737433E+01
 0.71259384557E+01 0.59293445594E+01 0.49674558579E+01 0.42408467869E+01 0.37344553152E+01
 0.34307812711E+01 0.33146831127E+01 0.33774829345E+01 0.36218811387E+01 0.35416243595E+01
 0.38854097780E+01 0.44252806660E+01 0.51696321075E+01 0.61064205245E+01 0.72003300677E+01
 0.83978952656E+01 0.96290550417E+01 0.10797265975E+02 0.11768685200E+02 0.12384630334E+02
 0.12509186072E+02 0.12090769366E+02 0.11195229059E+02 0.99838009626E+01 0.86497475455E+01
 0.73552061490E+01 0.62016953126E+01 0.52367651421E+01 0.44759399793E+01 0.39195655411E+01
 0.35595478529E+01 0.33827759738E+01 0.33775422429E+01 0.33775523419E+01 0.34601054387E+01
 0.37140900930E+01 0.41538288908E+01 0.47906284200E+01 0.56234049419E+01 0.66353572892E+01
 0.77928051816E+01 0.90374522202E+01 0.10270887253E+02 0.11346531125E+02 0.12090879905E+02
 0.12358083942E+02 0.12090769366E+02 0.11346518026E+02 0.10271007877E+02 0.90375016614E+01
 0.77926961732E+01 0.66352638644E+01 0.56234636840E+01 0.47907374299E+01 0.41538416145E+01
 0.37140181946E+01 0.34600442820E+01 0.35415580593E+01 0.33774983801E+01 0.33828146331E+01
 0.35596480767E+01 0.39195898732E+01 0.44758276578E+01 0.52366739400E+01 0.62017722696E+01
 0.73553276647E+01 0.86497145125E+01 0.99836826137E+01 0.11195238071E+02 0.12090879905E+02
 0.12509186072E+02 0.12384512208E+02 0.11768661613E+02 0.10797387915E+02 0.96291234610E+01
 0.83978048994E+01 0.72002279840E+01 0.61064461652E+01 0.51697245332E+01 0.44253204325E+01
 0.38853756785E+01 0.40627287784E+01 0.36218264919E+01 0.33773961319E+01 0.33146862161E+01
 0.34309014470E+01 0.37345198387E+01 0.42407387363E+01 0.49673382883E+01 0.59294066021E+01
 0.71260662644E+01 0.85148471256E+01 0.99836826137E+01 0.11346531125E+02 0.12384630334E+02
 0.12923283087E+02 0.12898881151E+02 0.12370612730E+02 0.11472904761E+02 0.10349154100E+02
 0.91142657427E+01 0.78569664783E+01 0.66575019930E+01 0.55918439212E+01 0.47181287534E+01
 0.50127723161E+01 0.42335950779E+01 0.36951345036E+01 0.33772745831E+01 0.32598535981E+01
 0.33344738073E+01 0.36069185661E+01 0.40957616380E+01 0.48292583135E+01 0.58365689234E+01
 0.71260662644E+01 0.86497145125E+01 0.10270887253E+02 0.11768685200E+02 0.12899009120E+02
 0.13481960071E+02 0.13463548364E+02 0.12962889111E+02 0.12144515532E+02 0.11100584309E+02
 0.98771768681E+01 0.85591120709E+01 0.72420613936E+01 0.60305937530E+01 0.64550538341E+01
 0.52871948107E+01 0.43847816393E+01 0.37559709507E+01 0.33771675121E+01 0.32215052649E+01
 0.32748865894E+01 0.35419064806E+01 0.40467995801E+01 0.48292583135E+01 0.59294066021E+01
 0.73553276647E+01 0.90374522202E+01 0.10797265975E+02 0.12370648594E+02 0.13463679872E+02
 0.13863835316E+02 0.13671614154E+02 0.13163952623E+02 0.12522128276E+02 0.11711670458E+02
 0.10613834170E+02 0.92575320710E+01 0.78207462951E+01 0.83517852132E+01 0.68320435722E+01
 0.55186924006E+01 0.45036706578E+01 0.37995433836E+01 0.33770978872E+01 0.32017899296E+01
 0.32547409428E+01 0.35419064806E+01 0.40957616380E+01 0.49673382883E+01 0.62017722696E+01
 0.77928051816E+01 0.96290550417E+01 0.11472787708E+02 0.12962933403E+02 0.13671734437E+02
 0.13571494490E+02 0.13064569983E+02 0.12613819242E+02 0.12351896388E+02 0.12010681343E+02
 0.11221618966E+02 0.99042858266E+01 0.10449852590E+02 0.87942849104E+01 0.71294178452E+01
 0.56865320923E+01 0.45797178812E+01 0.38222824784E+01 0.33770730731E+01 0.32017899296E+01
 0.32748865894E+01 0.36069185661E+01 0.42407387363E+01 0.52366739400E+01 0.66353572892E+01
 0.83978952656E+01 0.10349073330E+02 0.12144414836E+02 0.13163996944E+02 0.13064659139E+02
 0.12195658299E+02 0.11347441818E+02 0.11139208803E+02 0.11542693127E+02 0.11936241650E+02
 0.11635692848E+02 0.11859298090E+02 0.10852921251E+02 0.91121935369E+01 0.73200512046E+01
 0.57747863946E+01 0.46058898654E+01 0.38222824784E+01 0.33770978872E+01 0.32215052649E+01
 0.33344738073E+01 0.37345198387E+01 0.44758276578E+01 0.56234049419E+01 0.72003300677E+01
 0.91143313668E+01 0.11100505416E+02 0.12522058643E+02 0.12613853285E+02 0.11347480055E+02
 0.95845774944E+01 0.85232617768E+01 0.88432067577E+01 0.10213993291E+02 0.11559238227E+02
 0.11054963521E+02 0.11946557634E+02 0.11096268757E+02 0.92784306220E+01 0.73857349722E+01
 0.57747863946E+01 0.45797178812E+01 0.37995433836E+01 0.33771675121E+01 0.32598535981E+01
 0.34309014470E+01 0.39195898732E+01 0.47906284200E+01 0.61064205245E+01 0.78570614334E+01
 0.98772117814E+01 0.11711611074E+02 0.12351872335E+02 0.11139223446E+02 0.85232347533E+01
 0.59446950976E+01 0.49432990778E+01 0.61088836398E+01 0.86723425433E+01 0.73212482712E+01
 0.10636677614E+02 0.11966844060E+02 0.11177176027E+02 0.92784306220E+01 0.73200512046E+01
 0.56865320923E+01 0.45036706578E+01 0.37559709507E+01 0.33772745831E+01 0.33146862161E+01
 0.35596480767E+01 0.41538288908E+01 0.51696321075E+01 0.66575062837E+01 0.85591802130E+01
 0.10613833026E+02 0.12010657382E+02 0.11542725243E+02 0.88431965115E+01 0.49432017072E+01
 0.18331278937E+01 0.12458477829E+01 0.35082745449E+01 0.16425416379E+01 0.65341845831E+01
 0.10475535373E+02 0.11966844060E+02 0.11096268757E+02 0.91121935369E+01 0.71294178452E+01
 0.55186924006E+01 0.43847816393E+01 0.36951345036E+01 0.33773961319E+01 0.33828146331E+01
 0.37140900930E+01 0.44252806660E+01 0.55917845942E+01 0.72420909362E+01 0.92575551440E+01
 0.11221578068E+02 0.11936263042E+02 0.10214085246E+02 0.61088477795E+01 0.12456856809E+01
 -.19662048253E+01 -.18044508086E+01 -.35285153542E+01 0.96462062599E+00 0.65341845831E+01
 0.10636677614E+02 0.11946557634E+02 0.10852921251E+02 0.87942849104E+01 0.68320435722E+01
 0.52871948107E+01 0.42335950779E+01 0.36218264919E+01 0.33774983801E+01 0.34601054387E+01
 0.38854097780E+01 0.47180749595E+01 0.60305834236E+01 0.78207967078E+01 0.99042518920E+01
 0.11635611537E+02 0.11559306652E+02 0.86724895903E+01 0.35082169158E+01 -.18046621939E+01
 -.46492525418E+01 -.35283216112E+01 -.20272192292E+01 0.24225132983E+01 0.75356113045E+01
 0.10988138977E+02 0.11741707617E+02 0.10370402902E+02 0.82954458393E+01 0.63980928510E+01
 0.49373159361E+01 0.39592702362E+01 0.34050367285E+01 0.32018303591E+01 0.33151806841E+01
 0.37666742435E+01 0.46231895128E+01 0.59532343540E+01 0.77439049609E+01 0.97980795538E+01
 0.11437658502E+02 0.11251116089E+02 0.83820798919E+01 0.34961205595E+01 -.12831429974E+01
 -.20274735869E+01 -.35283385953E+01 -.12829148378E+01 0.34962213369E+01 0.83819305015E+01
 0.11250988370E+02 0.11437714843E+02 0.97981620842E+01 0.77438868707E+01 0.59532018708E+01
 0.46232055186E+01 0.37666770195E+01 0.33151617881E+01 0.32018465695E+01 0.34050514623E+01
 0.39592268191E+01 0.49373008672E+01 0.63981745528E+01 0.82954763837E+01 0.10370269015E+02
 0.11741614057E+02 0.10988294478E+02 0.75358058969E+01 0.24224193055E+01 0.25488669321E+01
 -.11450049250E+01 -.18043219928E+01 0.90454523021E+00 0.54848340244E+01 0.95974895260E+01
 0.11514702982E+02 0.11007322560E+02 0.91444570336E+01 0.71578786537E+01 0.55058156794E+01
 0.43241325560E+01 0.35953735705E+01 0.32469136249E+01 0.32215298528E+01 0.35110041434E+01
 0.41603296589E+01 0.52439887761E+01 0.68070789193E+01 0.87712934576E+01 0.10823021382E+02
 0.11965417785E+02 0.10895514425E+02 0.73295999539E+01 0.78502074532E+01 0.38581665116E+01
 0.11617749249E+01 0.12459130614E+01 0.40206806317E+01 0.78896694401E+01 0.10818939531E+02
 0.11602300781E+02 0.10430541299E+02 0.84559331603E+01 0.65771950213E+01 0.50859573995E+01
 0.40590691116E+01 0.34556233793E+01 0.32043393524E+01 0.32598097781E+01 0.36262270147E+01
 0.43554880096E+01 0.55189973438E+01 0.71458864107E+01 0.91321409761E+01 0.11132650016E+02
 0.12146847749E+02 0.11065884818E+02 0.11477307792E+02 0.89692681922E+01 0.60344843510E+01
 0.43638316400E+01 0.49432925289E+01 0.73723535865E+01 0.10151236685E+02 0.11710762332E+02
 0.11400540226E+02 0.97398177844E+01 0.77740575398E+01 0.60377339879E+01 0.47184398166E+01
 0.38427052880E+01 0.33549339525E+01 0.31898945929E+01 0.33145627886E+01 0.37429865910E+01
 0.45296142457E+01 0.57388115063E+01 0.73840508292E+01 0.93454804555E+01 0.11281015990E+02
 0.12287876262E+02 0.12347053122E+02 0.11997332083E+02 0.10383607249E+02 0.85591512912E+01
 0.77607058284E+01 0.85231935456E+01 0.10287627461E+02 0.11814692433E+02 0.12072324571E+02
 0.10907177338E+02 0.90183084670E+01 0.71398220916E+01 0.55702731521E+01 0.44223570388E+01
 0.36854331437E+01 0.32981086734E+01 0.32044023024E+01 0.33826310980E+01 0.38531267071E+01
 0.46685635024E+01 0.58836380656E+01 0.74988204913E+01 0.93900701501E+01 0.11250830477E+02
 0.11029068101E+02 0.12255290504E+02 0.12430400146E+02 0.11713108075E+02 0.10866574397E+02
 0.10681039669E+02 0.11347330331E+02 0.12298550360E+02 0.12653446738E+02 0.11894677574E+02
 0.10235666300E+02 0.83354454571E+01 0.65927624122E+01 0.51999655394E+01 0.42114104648E+01
 0.35937854721E+01 0.32874341605E+01 0.32470343340E+01 0.34599074531E+01 0.39487082505E+01
 0.47607613831E+01 0.59401719109E+01 0.74787641455E+01 0.92594954600E+01 0.89635891052E+01
 0.10617440382E+02 0.11948846724E+02 0.12590294039E+02 0.12622599406E+02 0.12508871113E+02
 0.12663835315E+02 0.13064440629E+02 0.13249153472E+02 0.12711919303E+02 0.11349063897E+02
 0.95554112335E+01 0.77466259303E+01 0.61686428069E+01 0.49461990546E+01 0.40945656651E+01
 0.35710036782E+01 0.33229127449E+01 0.33153351082E+01 0.35414782101E+01 0.40226686387E+01
 0.47986049714E+01 0.59035368865E+01 0.73256431272E+01 0.70541036589E+01 0.85273667338E+01
 0.10044297453E+02 0.11405728882E+02 0.12370907466E+02 0.12925793464E+02 0.13275374502E+02
 0.13563542869E+02 0.13671495915E+02 0.13298525928E+02 0.12258483627E+02 0.10708499846E+02
 0.89704256547E+01 0.73051459081E+01 0.58968945233E+01 0.48225742310E+01 0.40766984975E+01
 0.36175130463E+01 0.34024183745E+01 0.34052516000E+01 0.36218504383E+01 0.40694567926E+01
 0.47793600905E+01 0.57778922401E+01 0.55756063556E+01 0.66893556990E+01 0.79877867609E+01
 0.93588676970E+01 0.10669492567E+02 0.11788757509E+02 0.12635966253E+02 0.13229813135E+02
 0.13549972477E+02 0.13463459652E+02 0.12826981046E+02 0.11666813593E+02 0.10166892774E+02
 0.85572953063E+01 0.70549186490E+01 0.57984573137E+01 0.48368510359E+01 0.41589374669E+01
 0.37311120970E+01 0.35217469791E+01 0.35112481021E+01 0.36952959067E+01 0.40855233219E+01
 0.47053468775E+01 0.45834673090E+01 0.53152666009E+01 0.62634414455E+01 0.73891056792E+01
 0.86144876275E+01 0.98424226598E+01 0.10981023581E+02 0.11947707122E+02 0.12658134274E+02
 0.13012010402E+02 0.12898835567E+02 0.12272745908E+02 0.11194010146E+02 0.98252001520E+01
 0.83750901250E+01 0.70249718391E+01 0.58841891975E+01 0.49906432257E+01 0.43385811927E+01
 0.39068862339E+01 0.36746036125E+01 0.36265094152E+01 0.37562739449E+01 0.40696334879E+01
 0.40229863498E+01 0.44241858869E+01 0.50190230737E+01 0.58110391980E+01 0.67778431374E+01
 0.78688695077E+01 0.90152328588E+01 0.10139502989E+02 0.11153157816E+02 0.11946504206E+02
 0.12393057619E+02 0.12384505428E+02 0.11883097773E+02 0.10954231795E+02 0.97507610809E+01
 0.84565431523E+01 0.72260246358E+01 0.61536143912E+01 0.52787912962E+01 0.46086204188E+01
 0.41368693951E+01 0.38525622747E+01 0.37432906275E+01 0.37999564162E+01 0.38227451833E+01
 0.39491029621E+01 0.42402332184E+01 0.47099128640E+01 0.53656642926E+01 0.61981697222E+01
 0.71786738287E+01 0.82618781002E+01 0.93849658669E+01 0.10458281821E+02 0.11358270041E+02
 0.11942096579E+02 0.12090788151E+02 0.11760687463E+02 0.11008253356E+02 0.99688210884E+01
 0.88034448391E+01 0.76485179249E+01 0.65937989958E+01 0.56884448107E+01 0.49569783536E+01
 0.44096253047E+01 0.40451547286E+01 0.38534322159E+01 0.39489778520E+01 0.38227146230E+01
 0.38535318159E+01 0.40452712465E+01 0.44096081487E+01 0.49568385735E+01 0.56883710914E+01
 0.65938944467E+01 0.76486308372E+01 0.88034010961E+01 0.99687076389E+01 0.11008267922E+02
 0.11760797844E+02 0.12090792511E+02 0.11941981931E+02 0.11358237304E+02 0.10458393662E+02
 0.93850343679E+01 0.82617804300E+01 0.71785526984E+01 0.61982033499E+01 0.53658048820E+01
 0.47099780172E+01 0.42401529485E+01 0.44241564097E+01 0.40228647831E+01 0.37998702330E+01
 0.37433430384E+01 0.38526970419E+01 0.41369036568E+01 0.46084948604E+01 0.52786866477E+01
 0.61536860869E+01 0.72261469600E+01 0.84565134858E+01 0.97506422512E+01 0.10954236982E+02
 0.11883212206E+02 0.12384514316E+02 0.12392930997E+02 0.11946454551E+02 0.11153272659E+02
 0.10139596208E+02 0.90151537734E+01 0.78687333741E+01 0.67778366643E+01 0.58111596297E+01
 0.50191195424E+01 0.53153747299E+01 0.45835046243E+01 0.40695424608E+01 0.37561379582E+01
 0.36265023490E+01 0.36747463387E+01 0.39069693687E+01 0.43384720511E+01 0.49905152859E+01
 0.58842455103E+01 0.70251017936E+01 0.83750647047E+01 0.98250728938E+01 0.11194012243E+02
 0.12272868041E+02 0.12898848115E+02 0.13011875245E+02 0.12658070936E+02 0.11947816277E+02
 0.10981132232E+02 0.98423750423E+01 0.86143611678E+01 0.73890586006E+01 0.62635115038E+01
 0.66893554061E+01 0.55757091641E+01 0.47054525058E+01 0.40854747082E+01 0.36951233382E+01
 0.35111906320E+01 0.35218926807E+01 0.37312262371E+01 0.41588367092E+01 0.48367146522E+01
 0.57985144056E+01 0.70550506401E+01 0.85572598721E+01 0.10166758137E+02 0.11666822841E+02
 0.12827111746E+02 0.13463473392E+02 0.13549836744E+02 0.13229742154E+02 0.12636057174E+02
 0.11788867488E+02 0.10669487589E+02 0.93587759197E+01 0.79877035942E+01 0.85272571610E+01
 0.70540210714E+01 0.57779744217E+01 0.47795259770E+01 0.40694538123E+01 0.36216579180E+01
 0.34051601709E+01 0.34025624155E+01 0.36176388732E+01 0.40766014712E+01 0.48224440512E+01
 0.58969593821E+01 0.73052702058E+01 0.89703767963E+01 0.10708368665E+02 0.12258502229E+02
 0.13298652976E+02 0.13671511863E+02 0.13563428945E+02 0.13275305516E+02 0.12925843619E+02
 0.12370996121E+02 0.11405776873E+02 0.10044267673E+02 0.10617483872E+02 0.89634621423E+01
 0.73254861421E+01 0.59035962092E+01 0.47988120099E+01 0.40226973548E+01 0.35412810182E+01
 0.33152356830E+01 0.33230554454E+01 0.35711207125E+01 0.40944656868E+01 0.49460865958E+01
 0.61687196557E+01 0.77467360057E+01 0.95553513882E+01 0.11348945079E+02 0.12711941807E+02
 0.13249264055E+02 0.13064466056E+02 0.12663765964E+02 0.12508808714E+02 0.12622588711E+02
 0.12590345556E+02 0.11948951831E+02 0.12255441898E+02 0.11029183563E+02 0.92593674669E+01
 0.74785560354E+01 0.59402077416E+01 0.47609815427E+01 0.39487528345E+01 0.34597246611E+01
 0.32469487970E+01 0.32875681782E+01 0.35938770728E+01 0.42113115799E+01 0.51998817631E+01
 0.65928443738E+01 0.83355312936E+01 0.10235606184E+02 0.11894585866E+02 0.12653463850E+02
 0.12298624982E+02 0.11347368283E+02 0.10681036575E+02 0.10866528683E+02 0.11713026668E+02
 0.12430399448E+02 0.11997275436E+02 0.12347235086E+02 0.11251002056E+02 0.93899515711E+01
 0.74985904898E+01 0.58836582742E+01 0.46687739414E+01 0.38531704551E+01 0.33824726577E+01
 0.32043426734E+01 0.32982293090E+01 0.36854946878E+01 0.44222655706E+01 0.55702174750E+01
 0.71398961732E+01 0.90183690476E+01 0.10907135535E+02 0.12072269033E+02 0.11814687673E+02
 0.10287649229E+02 0.85232489922E+01 0.77607827500E+01 0.85591275162E+01 0.10383455224E+02
 0.89690654121E+01 0.11477201075E+02 0.12288062111E+02 0.11281215500E+02 0.93453824300E+01
 0.73838331276E+01 0.57388239107E+01 0.45297922333E+01 0.37430164784E+01 0.33144386069E+01
 0.31898667617E+01 0.33550328349E+01 0.38427347031E+01 0.47183646697E+01 0.60377056577E+01
 0.77741109622E+01 0.97398511206E+01 0.11400530616E+02 0.11710751205E+02 0.10151202712E+02
 0.73723117039E+01 0.49433584360E+01 0.43639845806E+01 0.60344898268E+01 0.38582057944E+01
 0.78499782852E+01 0.11065739880E+02 0.12147016029E+02 0.11132851515E+02 0.91320678696E+01
 0.71457024406E+01 0.55190071297E+01 0.43556240247E+01 0.36262407279E+01 0.32597221282E+01
 0.32043356022E+01 0.34556929006E+01 0.40590754518E+01 0.50859104920E+01 0.65771862893E+01
 0.84559490843E+01 0.10430547458E+02 0.11602338026E+02 0.10818980413E+02 0.78896022457E+01
 0.40205677184E+01 0.12459778748E+01 0.11619910742E+01 -.11447546315E+01 0.25489364387E+01
 0.73293754404E+01 0.10895354247E+02 0.11965552628E+02 0.10823196891E+02 0.87712426900E+01
 0.68069444839E+01 0.52440023918E+01 0.41604191300E+01 0.35109998218E+01 0.32214776496E+01
 0.32469271515E+01 0.35954104460E+01 0.43241233980E+01 0.55058031395E+01 0.71578837666E+01
 0.91444275718E+01 0.11007301071E+02 0.11514788360E+02 0.95975835335E+01 0.54847420877E+01
 0.90436865084E+00 -.18042734077E+01 0.16432224525E+01 0.25494444193E+01 0.57316687032E+01
 0.94341941542E+01 0.11790033396E+02 0.11952839046E+02 0.10418531088E+02 0.83784293722E+01
 0.65239038985E+01 0.50837288349E+01 0.41011682854E+01 0.35216393989E+01 0.32747085479E+01
 0.33228140144E+01 0.36794379386E+01 0.44023554981E+01 0.55596911306E+01 0.71630540174E+01
 0.90795166311E+01 0.10906238232E+02 0.11584145321E+02 0.10199085221E+02 0.69973023758E+01
 0.34964682174E+01 0.24227698518E+01 0.96533182043E+00 0.24230401133E+01 0.59598050510E+01
 0.96343051272E+01 0.11667100923E+02 0.11473947552E+02 0.97806015282E+01 0.77824492087E+01
 0.60373346855E+01 0.47288075596E+01 0.38717042199E+01 0.34022929698E+01 0.32545756464E+01
 0.34022976377E+01 0.38716814606E+01 0.47288067540E+01 0.60373939610E+01 0.77824559618E+01
 0.97804850633E+01 0.11473892547E+02 0.11667267438E+02 0.96344737972E+01 0.59596763596E+01
 0.57315715032E+01 0.25491571337E+01 0.16431711259E+01 0.34966916762E+01 0.69974391909E+01
 0.10198979206E+02 0.11584018449E+02 0.10906256594E+02 0.90795795440E+01 0.71630569402E+01
 0.55596748847E+01 0.44023530430E+01 0.36794252395E+01 0.33228150558E+01 0.32747453476E+01
 0.35216386012E+01 0.41011050153E+01 0.50837326192E+01 0.65240163743E+01 0.83784498843E+01
 0.10418358407E+02 0.11952735316E+02 0.11790221025E+02 0.94344206944E+01 0.97253719615E+01
 0.64083491063E+01 0.38583546161E+01 0.35087343263E+01 0.54851786844E+01 0.85321728717E+01
 0.10885964811E+02 0.11422924027E+02 0.10247453907E+02 0.83618582139E+01 0.65615472287E+01
 0.51216461992E+01 0.41237846059E+01 0.35348615197E+01 0.32874050848E+01 0.33343645951E+01
 0.36745253904E+01 0.43539935737E+01 0.54432947330E+01 0.69838925499E+01 0.89056578920E+01
 0.10945686206E+02 0.12350765799E+02 0.12035551099E+02 0.12408135230E+02 0.10468884670E+02
 0.78347723511E+01 0.60345438008E+01 0.61091127279E+01 0.78898470940E+01 0.10137315771E+02
 0.11426251108E+02 0.11088114218E+02 0.95244350145E+01 0.76676917327E+01 0.60129808182E+01
 0.47476666950E+01 0.39076247590E+01 0.34453216620E+01 0.32981817940E+01 0.34308293271E+01
 0.38525140088E+01 0.46138375322E+01 0.57806547503E+01 0.73793520598E+01 0.93187830702E+01
 0.11321387254E+02 0.12658587039E+02 0.12838742756E+02 0.12825110807E+02 0.11470186015E+02
 0.96520086736E+01 0.85590819052E+01 0.88431934543E+01 0.10151239468E+02 0.11408637731E+02
 0.11620657414E+02 0.10555201886E+02 0.87994976437E+01 0.70334031976E+01 0.55457036488E+01
 0.44557934823E+01 0.37637452230E+01 0.34150670523E+01 0.33551225475E+01 0.35596105078E+01
 0.40451140628E+01 0.48622600111E+01 0.60683888591E+01 0.76749762699E+01 0.95783098008E+01
 0.11509408931E+02 0.11481949349E+02 0.12833413639E+02 0.13142554393E+02 0.12441673507E+02
 0.11409469177E+02 0.10866398560E+02 0.11138984676E+02 0.11814543054E+02 0.12088281895E+02
 0.11408776810E+02 0.98914485235E+01 0.81251352473E+01 0.64919794869E+01 0.51818925860E+01
 0.42584752735E+01 0.36979297269E+01 0.34454712770E+01 0.34559112677E+01 0.37140901596E+01
 0.42400958632E+01 0.50804287989E+01 0.62815688229E+01 0.78424601240E+01 0.96566092772E+01
 0.95428203904E+01 0.11228376980E+02 0.12588171560E+02 0.13209288049E+02 0.13099156772E+02
 0.12703766133E+02 0.12508625554E+02 0.12613452809E+02 0.12653201095E+02 0.12133848258E+02
 0.10885525709E+02 0.92252341075E+01 0.75441200503E+01 0.60730660982E+01 0.49383560256E+01
 0.41635066005E+01 0.37124533291E+01 0.35351140185E+01 0.35957292614E+01 0.38854526839E+01
 0.44240613732E+01 0.52508591122E+01 0.64010019538E+01 0.78649645866E+01 0.77398525972E+01
 0.92452125263E+01 0.10765230952E+02 0.12081967525E+02 0.12927476576E+02 0.13256959678E+02
 0.13298052801E+02 0.13275112678E+02 0.13163536569E+02 0.12711638515E+02 0.11711442258E+02
 0.10258371367E+02 0.86433034140E+01 0.71002870515E+01 0.58021061070E+01 0.48271351592E+01
 0.41748086266E+01 0.38064441779E+01 0.36797033163E+01 0.37670440958E+01 0.40628123503E+01
 0.45833658013E+01 0.53593222902E+01 0.64158713168E+01 0.63252347145E+01 0.74791578067E+01
 0.87903513236E+01 0.10131705238E+02 0.11349997346E+02 0.12296654794E+02 0.12888308024E+02
 0.13182191480E+02 0.13229581219E+02 0.12962506268E+02 0.12258229081E+02 0.11118447594E+02
 0.97039231660E+01 0.82113520145E+01 0.68333878416E+01 0.56989734288E+01 0.48556531645E+01
 0.42927030498E+01 0.39758809358E+01 0.38719118161E+01 0.39595920860E+01 0.42336879514E+01
 0.47052816699E+01 0.53965118572E+01 0.53592091189E+01 0.61380293857E+01 0.71076403508E+01
 0.82193051283E+01 0.93816789291E+01 0.10482872829E+02 0.11423451615E+02 0.12130004470E+02
 0.12555997558E+02 0.12657972254E+02 0.12370326988E+02 0.11666622726E+02 0.10603393963E+02
 0.93169454854E+01 0.79869563880E+01 0.67739907638E+01 0.57763537394E+01 0.50262558359E+01
 0.45136273375E+01 0.42133010759E+01 0.41012252585E+01 0.41606400113E+01 0.43848798238E+01
 0.47793445588E+01 0.47986524492E+01 0.52506701204E+01 0.58716258254E+01 0.66590289696E+01
 0.75818907267E+01 0.85788714105E+01 0.95711079917E+01 0.10479039934E+02 0.11228544103E+02
 0.11744298606E+02 0.11946427629E+02 0.11768491625E+02 0.11193890963E+02 0.10283796710E+02
 0.91696820568E+01 0.80101351299E+01 0.69393727065E+01 0.60379683168E+01 0.53351739147E+01
 0.48293411301E+01 0.45072924674E+01 0.43539557305E+01 0.43557047976E+01 0.45037679492E+01
 0.45797992061E+01 0.47608704234E+01 0.50802244360E+01 0.55493384593E+01 0.61713366154E+01
 0.69302221476E+01 0.77889090013E+01 0.86951004025E+01 0.95865743681E+01 0.10389223136E+02
 0.11012733864E+02 0.11358269000E+02 0.11346442923E+02 0.10954167334E+02 0.10234734788E+02
 0.93035859852E+01 0.82970825146E+01 0.73303273828E+01 0.64765474153E+01 0.57709768203E+01
 0.52258435638E+01 0.48420753179E+01 0.46136534709E+01 0.45297257581E+01 0.46685765578E+01
 0.46059422797E+01 0.46687340818E+01 0.48621156612E+01 0.51974033952E+01 0.56822876167E+01
 0.63129208316E+01 0.70718617525E+01 0.79286395038E+01 0.88362206405E+01 0.97222930544E+01
 0.10485197070E+02 0.11008314109E+02 0.11195196108E+02 0.11008199930E+02 0.10485172401E+02
 0.97224092630E+01 0.88362813155E+01 0.79285289991E+01 0.70717422566E+01 0.63129801534E+01
 0.56824543387E+01 0.51974554298E+01 0.48619838683E+01 0.50801493357E+01 0.47607038229E+01
 0.45797299751E+01 0.45298342181E+01 0.46138138255E+01 0.48420900638E+01 0.52256994995E+01
 0.57708802102E+01 0.64766308722E+01 0.73304461036E+01 0.82970460945E+01 0.93034692727E+01
 0.10234744129E+02 0.10954282884E+02 0.11346456062E+02 0.11358151862E+02 0.11012693349E+02
 0.10389342461E+02 0.95866622354E+01 0.86950030314E+01 0.77887596792E+01 0.69302362965E+01
 0.61715004625E+01 0.55494452928E+01 0.58717702326E+01 0.52506734115E+01 0.47985104630E+01
 0.45036365299E+01 0.43557455046E+01 0.43541263876E+01 0.45073671477E+01 0.48292208440E+01
 0.53350497809E+01 0.60380302605E+01 0.69395025970E+01 0.80101094908E+01 0.91695546497E+01
 0.10283797808E+02 0.11194018085E+02 0.11768514944E+02 0.11946298623E+02 0.11744239682E+02
 0.11228667758E+02 0.10479157995E+02 0.95710359824E+01 0.85787065597E+01 0.75818512990E+01
 0.66591582102E+01 0.71076999511E+01 0.61381797055E+01 0.53592976715E+01 0.47792573471E+01
 0.43847061238E+01 0.41606105444E+01 0.41013887019E+01 0.42134168329E+01 0.45135270154E+01
 0.50261192281E+01 0.57764078518E+01 0.67741259956E+01 0.79869296105E+01 0.93168113382E+01
 0.10603398249E+02 0.11666758772E+02 0.12370350557E+02 0.12657834520E+02 0.12555927440E+02
 0.12130121763E+02 0.11423585246E+02 0.10482840601E+02 0.93815318717E+01 0.82192170965E+01
 0.87902193992E+01 0.74791223633E+01 0.63253683764E+01 0.53966810902E+01 0.47052565011E+01
 0.42334872920E+01 0.39595088116E+01 0.38720672710E+01 0.39760171364E+01 0.42926082336E+01
 0.48555126054E+01 0.56990325352E+01 0.68335260621E+01 0.82113177122E+01 0.97037858569E+01
 0.11118458221E+02 0.12258368960E+02 0.12962532310E+02 0.13229448815E+02 0.13182109560E+02
 0.12888392431E+02 0.12296786711E+02 0.11350026983E+02 0.10131611367E+02 0.10765216051E+02
 0.92450563664E+01 0.77397235222E+01 0.64159701868E+01 0.53595437407E+01 0.45833911235E+01
 0.40626078889E+01 0.37669379938E+01 0.36798488514E+01 0.38065738762E+01 0.41747106147E+01
 0.48270072708E+01 0.58021771917E+01 0.71004146622E+01 0.86432557821E+01 0.10258242712E+02
 0.11711463190E+02 0.12711771159E+02 0.13163566035E+02 0.13275005444E+02 0.13297965161E+02
 0.13256987102E+02 0.12927582618E+02 0.12082064785E+02 0.12588334585E+02 0.11228455530E+02
 0.95426600732E+01 0.78647575732E+01 0.64010597230E+01 0.52511036388E+01 0.44241179357E+01
 0.38852586082E+01 0.35956236862E+01 0.35352495939E+01 0.37125640123E+01 0.41634070742E+01
 0.49382482870E+01 0.60731416241E+01 0.75442276149E+01 0.92251832199E+01 0.10885417550E+02
 0.12133866032E+02 0.12653306882E+02 0.12613497272E+02 0.12508575174E+02 0.12703679751E+02