    2    2   15    1
  0.1529437E+02  0.3691622E-09  0.3691622E-09  0.3691622E-09  0.5000000E-15
  1.000000000000000E-004
  CAR 
 unknown system                          
      8     18      8
 
  0.0000000E+00  0.0000000E+00  0.0000000E+00  0.8000000E-02
    1       -4.687349   1.000000
    2        5.444978   1.000000
    3        5.962080   1.000000
    4        5.962116   1.000000
    5       10.424464   0.000000
    6       16.632418   0.000000
    7       16.632470   0.000000
    8       16.743944   0.000000
 
  0.2000000E+00  0.1244391E-16 -0.1244391E-16  0.6400000E-01
    1       -3.530468   1.000000
    2        4.576548   1.000000
    3        6.061056   1.000000
    4        8.812972   0.880980
    5       12.512808   0.000000
    6       13.090292   0.000000
    7       13.354240   0.000000
    8       15.293775   0.000000
 
  0.4000000E+00  0.2488782E-16 -0.2488782E-16  0.6400000E-01
    1       -0.105879   1.000000
    2        5.349067   1.000000
    3        5.707034   1.000000
    4        7.265695   1.000000
    5        8.886902   0.744454
    6       11.580658   0.000000
    7       13.385280   0.000000
    8       14.015340   0.000000
 
  0.2000000E+00  0.2000000E+00 -0.2488782E-16  0.6400000E-01
    1       -0.551811   1.000000
    2        5.820900   1.000000
    3        6.979090   1.000000
    4        6.980480   1.000000
    5        9.620068   0.000003
    6       11.558148   0.000000
    7       12.482334   0.000000
    8       12.676975   0.000000
 
  0.4000000E+00  0.2000000E+00 -0.9576153E-17  0.1280000E+00
    1        1.214417   1.000000
    2        3.325887   1.000000
    3        4.635575   1.000000
    4        7.637093   1.000000
    5        8.957754   0.562037
    6       10.895616   0.000000
    7       13.861266   0.000000
    8       15.916425   0.000000
 
 -0.4000000E+00  0.2000000E+00  0.2251918E-16  0.1280000E+00
    1       -2.622142   1.000000
    2        1.770414   1.000000
    3        6.470980   1.000000
    4       10.308410   0.000000
    5       10.717443   0.000000
    6       12.296373   0.000000
    7       14.220722   0.000000
    8       15.417180   0.000000
 
 -0.2000000E+00  0.2000000E+00  0.2101777E-17  0.3200000E-01
    1       -4.229225   1.000000
    2        2.373872   1.000000
    3        6.396503   1.000000
    4        7.820743   1.000000
    5       12.878808   0.000000
    6       12.881529   0.000000
    7       14.368969   0.000000
    8       19.920538   0.000000
 
  0.4000000E+00  0.4000000E+00 -0.4977564E-16  0.6400000E-01
    1       -0.829768   1.000000
    2       -0.827981   1.000000
    3        8.111718   1.000000
    4        8.189088   1.000000
    5       10.879079   0.000000
    6       12.687022   0.000000
    7       13.711020   0.000000
    8       13.920710   0.000000
 
 -0.4000000E+00  0.4000000E+00  0.4203554E-17  0.3200000E-01
    1       -2.864588   1.000000
    2       -0.629217   1.000000
    3        7.700204   1.000000
    4        9.405646   0.001302
    5        9.873721   0.000000
    6       11.588755   0.000000
    7       17.825562   0.000000
    8       19.495787   0.000000
 
  0.2000000E+00  0.2000000E+00  0.2000000E+00  0.6400000E-01
    1        0.784588   1.000000
    2        2.963457   1.000000
    3        6.252617   1.000000
    4        6.260824   1.000000
    5       11.163847   0.000000
    6       12.745292   0.000000
    7       13.706421   0.000000
    8       14.187823   0.000000
 
 -0.2000000E+00  0.2000000E+00  0.2000000E+00  0.3200000E-01
    1       -3.774472   1.000000
    2        2.145045   1.000000
    3        3.997427   1.000000
    4        9.793689   0.000000
    5       10.811514   0.000000
    6       14.199586   0.000000
    7       17.393211   0.000000
    8       17.968498   0.000000
 
 -0.4000000E+00  0.4000000E+00  0.2000000E+00  0.6400000E-01
    1       -2.423702   1.000000
    2       -0.243131   1.000000
    3        4.658881   1.000000
    4        6.790099   1.000000
    5       13.026115   0.000000
    6       15.182869   0.000000
    7       18.213517   0.000000
    8       18.591265   0.000000
 
 -0.2000000E+00  0.4000000E+00  0.2000000E+00  0.6400000E-01
    1       -1.731452   1.000000
    2        1.913939   1.000000
    3        3.871552   1.000000
    4        7.424864   1.000000
    5       10.400642   0.000000
    6       14.952664   0.000000
    7       16.291900   0.000000
    8       17.360432   0.000000
 
 -0.4000000E+00 -0.4000000E+00  0.2000000E+00  0.6400000E-01
    1       -0.011284   1.000000
    2       -0.005052   1.000000
    3        4.901637   1.000000
    4        4.909605   1.000000
    5       10.055320   0.000000
    6       16.338176   0.000000
    7       17.091449   0.000000
    8       17.805016   0.000000
 
 -0.2000000E+00 -0.4000000E+00  0.2000000E+00  0.6400000E-01
    1        2.444316   1.000000
    2        3.611256   1.000000
    3        4.084399   1.000000
    4        5.837824   1.000000
    5        7.204401   1.000000
    6       11.959218   0.000000
    7       13.603129   0.000000
    8       15.933336   0.000000
 
 -0.2000000E+00 -0.2000000E+00  0.2000000E+00  0.1600000E-01
    1       -1.001520   1.000000
    2        7.527904   1.000000
    3        8.043699   1.000000
    4        8.497656   0.999675
    5        8.497697   0.999674
    6        9.740333   0.000000
    7       11.609368   0.000000
    8       11.609408   0.000000
 
 -0.4000000E+00  0.4000000E+00  0.4000000E+00  0.3200000E-01
    1       -1.147662   1.000000
    2        0.327556   1.000000
    3        2.368857   1.000000
    4        3.823394   1.000000
    5       16.379260   0.000000
    6       17.176671   0.000000
    7       18.703137   0.000000
    8       19.423755   0.000000
 
 -0.4000000E+00 -0.4000000E+00  0.4000000E+00  0.1600000E-01
    1        1.003311   1.000000
    2        1.013757   1.000000
    3        3.040961   1.000000
    4        3.040969   1.000000
    5        9.680270   0.000000
    6       18.223130   0.000000
    7       19.603523   0.000000
    8       19.603529   0.000000
