       N       E                     dE             d eps       ncg     rms          rms(c)
DAV:   1    -0.450599756645E+01   -0.45060E+01   -0.17206E+03   312   0.306E+02
DAV:   2    -0.101038506924E+02   -0.55979E+01   -0.52636E+01   456   0.397E+01
DAV:   3    -0.101395178625E+02   -0.35667E-01   -0.35664E-01   336   0.386E+00
DAV:   4    -0.101395486411E+02   -0.30779E-04   -0.30779E-04   472   0.110E-01
DAV:   5    -0.101395486481E+02   -0.69195E-08   -0.70891E-08   296   0.985E-04    0.146E+00
DAV:   6    -0.101308273581E+02    0.87213E-02   -0.18481E-03   344   0.265E-01    0.913E-01
DAV:   7    -0.101241942120E+02    0.66331E-02   -0.51648E-03   336   0.461E-01    0.359E-02
DAV:   8    -0.101241687168E+02    0.25495E-04   -0.82541E-05   168   0.629E-02
   1 F= -.10124169E+02 E0= -.10114475E+02  d E =-.101242E+02
