<?xml version="1.0" encoding="ISO-8859-1"?>
<modeling>
 <generator>
  <i name="program" type="string">vasp </i>
  <i name="version" type="string">5.4.4.18Apr17-6-g9f103f2a35  </i>
  <i name="subversion" type="string">(build Dec 09 2018 21:25:21) complex            parallel </i>
  <i name="platform" type="string">IFC18.0.1.163_CrayMPICH7.7.0_MKL18.0.1.163 </i>
  <i name="date" type="string">2019 03 18 </i>
  <i name="time" type="string">04:28:37 </i>
 </generator>
 <incar>
  <i type="string" name="PREC">normal</i>
  <i type="int" name="IBRION">     2</i>
  <i name="EDIFF">      0.00040000</i>
  <i name="EDIFFG">     -0.01000000</i>
  <i type="int" name="NSW">    15</i>
  <i type="int" name="ISIF">     2</i>
  <i name="ENCUT">    150.00000000</i>
  <i type="int" name="NBANDS">     8</i>
  <i type="logical" name="LREAL"> F  </i>
  <i type="int" name="ISMEAR">     0</i>
  <i name="SIGMA">      0.20000000</i>
  <v type="int" name="KPOINT_BSE">    -1     0     0     0</v>
 </incar>
 <structure name="primitive_cell" >
  <crystal>
   <varray name="basis" >
    <v>      -2.45000000       2.45000000       1.27400000 </v>
    <v>       2.45000000      -2.45000000       1.27400000 </v>
    <v>       2.45000000       2.45000000      -1.27400000 </v>
   </varray>
   <i name="volume">     30.58874000 </i>
   <varray name="rec_basis" >
    <v>       0.00000000       0.20408163       0.39246468 </v>
    <v>       0.20408163       0.00000000       0.39246468 </v>
    <v>       0.20408163       0.20408163      -0.00000000 </v>
   </varray>
  </crystal>
  <varray name="positions" >
   <v>       0.25000000      -0.25000000      -0.50000000 </v>
   <v>       0.00000000       0.00000000       0.00000000 </v>
  </varray>
 </structure>
 <varray name="primitive_index" >
  <v type="int" >        1 </v>
  <v type="int" >        2 </v>
 </varray>
 <kpoints>
  <generation param="Monkhorst-Pack">
   <v type="int" name="divisions">       5        5        5 </v>
   <v name="usershift">      0.00000000       0.00000000       0.00000000 </v>
   <v name="genvec1">      0.20000000       0.00000000      -0.00000000 </v>
   <v name="genvec2">      0.00000000       0.20000000      -0.00000000 </v>
   <v name="genvec3">      0.00000000      -0.00000000       0.20000000 </v>
   <v name="shift">      0.00000000       0.00000000       0.00000000 </v>
  </generation>
  <varray name="kpointlist" >
   <v>       0.00000000       0.00000000       0.00000000 </v>
   <v>       0.20000000       0.00000000      -0.00000000 </v>
   <v>       0.40000000       0.00000000      -0.00000000 </v>
   <v>       0.20000000       0.20000000      -0.00000000 </v>
   <v>       0.40000000       0.20000000      -0.00000000 </v>
   <v>      -0.40000000       0.20000000       0.00000000 </v>
   <v>      -0.20000000       0.20000000       0.00000000 </v>
   <v>       0.40000000       0.40000000      -0.00000000 </v>
   <v>      -0.40000000       0.40000000       0.00000000 </v>
   <v>       0.20000000       0.20000000       0.20000000 </v>
   <v>      -0.20000000       0.20000000       0.20000000 </v>
   <v>      -0.40000000       0.40000000       0.20000000 </v>
   <v>      -0.20000000       0.40000000       0.20000000 </v>
   <v>      -0.40000000      -0.40000000       0.20000000 </v>
   <v>      -0.20000000      -0.40000000       0.20000000 </v>
   <v>      -0.20000000      -0.20000000       0.20000000 </v>
   <v>      -0.40000000       0.40000000       0.40000000 </v>
   <v>      -0.40000000      -0.40000000       0.40000000 </v>
  </varray>
  <varray name="weights" >
   <v>       0.00800000 </v>
   <v>       0.06400000 </v>
   <v>       0.06400000 </v>
   <v>       0.06400000 </v>
   <v>       0.12800000 </v>
   <v>       0.12800000 </v>
   <v>       0.03200000 </v>
   <v>       0.06400000 </v>
   <v>       0.03200000 </v>
   <v>       0.06400000 </v>
   <v>       0.03200000 </v>
   <v>       0.06400000 </v>
   <v>       0.06400000 </v>
   <v>       0.06400000 </v>
   <v>       0.06400000 </v>
   <v>       0.01600000 </v>
   <v>       0.03200000 </v>
   <v>       0.01600000 </v>
  </varray>
 </kpoints>
 <parameters>
  <separator name="general" >
   <i type="string" name="SYSTEM">unknown system</i>
   <i type="logical" name="LCOMPAT"> F  </i>
  </separator>
  <separator name="electronic" >
   <i type="string" name="PREC">normal</i>
   <i name="ENMAX">    150.00000000</i>
   <i name="ENAUG">    322.06900000</i>
   <i name="EDIFF">      0.00040000</i>
   <i type="int" name="IALGO">    38</i>
   <i type="int" name="IWAVPR">    11</i>
   <i type="int" name="NBANDS">     8</i>
   <i name="NELECT">      8.00000000</i>
   <i type="int" name="TURBO">     0</i>
   <i type="int" name="IRESTART">     0</i>
   <i type="int" name="NREBOOT">     0</i>
   <i type="int" name="NMIN">     0</i>
   <i name="EREF">      0.00000000</i>
   <separator name="electronic smearing" >
    <i type="int" name="ISMEAR">     0</i>
    <i name="SIGMA">      0.20000000</i>
    <i name="KSPACING">      0.50000000</i>
    <i type="logical" name="KGAMMA"> T  </i>
   </separator>
   <separator name="electronic projectors" >
    <i type="logical" name="LREAL"> F  </i>
    <v name="ROPT">      0.00000000</v>
    <i type="int" name="LMAXPAW">  -100</i>
    <i type="int" name="LMAXMIX">     2</i>
    <i type="logical" name="NLSPLINE"> F  </i>
   </separator>
   <separator name="electronic startup" >
    <i type="int" name="ISTART">     0</i>
    <i type="int" name="ICHARG">     2</i>
    <i type="int" name="INIWAV">     1</i>
   </separator>
   <separator name="electronic spin" >
    <i type="int" name="ISPIN">     1</i>
    <i type="logical" name="LNONCOLLINEAR"> F  </i>
    <v name="MAGMOM">      1.00000000      1.00000000</v>
    <i name="NUPDOWN">     -1.00000000</i>
    <i type="logical" name="LSORBIT"> F  </i>
    <v name="SAXIS">      0.00000000      0.00000000      1.00000000</v>
    <i type="logical" name="LSPIRAL"> F  </i>
    <v name="QSPIRAL">      0.00000000      0.00000000      0.00000000</v>
    <i type="logical" name="LZEROZ"> F  </i>
   </separator>
   <separator name="electronic exchange-correlation" >
    <i type="logical" name="LASPH"> F  </i>
    <i type="logical" name="LMETAGGA"> F  </i>
   </separator>
   <separator name="electronic convergence" >
    <i type="int" name="NELM">    60</i>
    <i type="int" name="NELMDL">     0</i>
    <i type="int" name="NELMIN">     2</i>
    <i name="ENINI">    150.00000000</i>
    <separator name="electronic convergence detail" >
     <i type="logical" name="LDIAG"> T  </i>
     <i type="logical" name="LSUBROT"> F  </i>
     <i name="WEIMIN">      0.00100000</i>
     <i name="EBREAK">      0.00001250</i>
     <i name="DEPER">      0.30000000</i>
     <i type="int" name="NRMM">     4</i>
     <i name="TIME">      0.40000000</i>
    </separator>
   </separator>
   <separator name="electronic mixer" >
    <i name="AMIX">      0.40000000</i>
    <i name="BMIX">      1.00000000</i>
    <i name="AMIN">      0.10000000</i>
    <i name="AMIX_MAG">      1.60000000</i>
    <i name="BMIX_MAG">      1.00000000</i>
    <separator name="electronic mixer details" >
     <i type="int" name="IMIX">     4</i>
     <i type="logical" name="MIXFIRST"> F  </i>
     <i type="int" name="MAXMIX">   -45</i>
     <i name="WC">    100.00000000</i>
     <i type="int" name="INIMIX">     1</i>
     <i type="int" name="MIXPRE">     1</i>
     <i type="int" name="MREMOVE">     5</i>
    </separator>
   </separator>
   <separator name="electronic dipolcorrection" >
    <i type="logical" name="LDIPOL"> F  </i>
    <i type="logical" name="LMONO"> F  </i>
    <i type="int" name="IDIPOL">     0</i>
    <i name="EPSILON">      1.00000000</i>
    <v name="DIPOL">   -100.00000000   -100.00000000   -100.00000000</v>
    <i name="EFIELD">      0.00000000</i>
   </separator>
  </separator>
  <separator name="grids" >
   <i type="int" name="NGX">    12</i>
   <i type="int" name="NGY">    12</i>
   <i type="int" name="NGZ">    12</i>
   <i type="int" name="NGXF">    24</i>
   <i type="int" name="NGYF">    24</i>
   <i type="int" name="NGZF">    24</i>
   <i type="logical" name="ADDGRID"> F  </i>
  </separator>
  <separator name="ionic" >
   <i type="int" name="NSW">    15</i>
   <i type="int" name="IBRION">     2</i>
   <i type="int" name="MDALGO">     0</i>
   <i type="int" name="ISIF">     2</i>
   <i name="PSTRESS">      0.00000000</i>
   <i name="EDIFFG">     -0.01000000</i>
   <i type="int" name="NFREE">     1</i>
   <i name="POTIM">      0.50000000</i>
   <i name="SMASS">     -3.00000000</i>
   <i name="SCALEE">      1.00000000</i>
  </separator>
  <separator name="ionic md" >
   <i name="TEBEG">      0.00010000</i>
   <i name="TEEND">      0.00010000</i>
   <i type="int" name="NBLOCK">     1</i>
   <i type="int" name="KBLOCK">    15</i>
   <i type="int" name="NPACO">   256</i>
   <i name="APACO">     16.00000000</i>
  </separator>
  <separator name="symmetry" >
   <i type="int" name="ISYM">     2</i>
   <i name="SYMPREC">      0.00001000</i>
  </separator>
  <separator name="dos" >
   <i type="int" name="LORBIT">     0</i>
   <v name="RWIGS">     -1.00000000</v>
   <i type="int" name="NEDOS">   301</i>
   <i name="EMIN">     10.00000000</i>
   <i name="EMAX">    -10.00000000</i>
   <i name="EFERMI">      0.00000000</i>
  </separator>
  <separator name="writing" >
   <i type="int" name="NWRITE">     2</i>
   <i type="logical" name="LWAVE"> T  </i>
   <i type="logical" name="LDOWNSAMPLE"> F  </i>
   <i type="logical" name="LCHARG"> T  </i>
   <i type="logical" name="LPARD"> F  </i>
   <i type="logical" name="LVTOT"> F  </i>
   <i type="logical" name="LVHAR"> F  </i>
   <i type="logical" name="LELF"> F  </i>
   <i type="logical" name="LOPTICS"> F  </i>
   <v name="STM">      0.00000000      0.00000000      0.00000000      0.00000000      0.00000000      0.00000000      0.00000000</v>
  </separator>
  <separator name="performance" >
   <i type="int" name="NPAR">     8</i>
   <i type="int" name="NSIM">     4</i>
   <i type="int" name="NBLK">    -1</i>
   <i type="logical" name="LPLANE"> T  </i>
   <i type="logical" name="LSCALAPACK"> T  </i>
   <i type="logical" name="LSCAAWARE"> F  </i>
   <i type="logical" name="LSCALU"> F  </i>
   <i type="logical" name="LASYNC"> F  </i>
   <i type="logical" name="LORBITALREAL"> F  </i>
  </separator>
  <separator name="miscellaneous" >
   <i type="int" name="IDIOT">     3</i>
   <i type="int" name="ISPECIAL">     0</i>
   <i type="logical" name="LMUSIC"> F  </i>
   <v name="POMASS">     28.08500000</v>
   <v name="DARWINR">      0.00000000</v>
   <v name="DARWINV">      1.00000000</v>
   <i type="logical" name="LCORR"> T  </i>
  </separator>
  <i type="logical" name="GGA_COMPAT"> T  </i>
  <i type="logical" name="LBERRY"> F  </i>
  <i type="int" name="ICORELEVEL">     0</i>
  <i type="logical" name="LDAU"> F  </i>
  <i type="int" name="I_CONSTRAINED_M">     0</i>
  <separator name="electronic exchange-correlation" >
   <i type="string" name="GGA">--</i>
   <i type="int" name="VOSKOWN">     0</i>
   <i type="logical" name="LHFCALC"> F  </i>
   <i type="string" name="PRECFOCK"></i>
   <i type="logical" name="LSYMGRAD"> F  </i>
   <i type="logical" name="LHFONE"> F  </i>
   <i type="logical" name="LRHFCALC"> F  </i>
   <i type="logical" name="LTHOMAS"> F  </i>
   <i type="logical" name="LMODELHF"> F  </i>
   <i name="ENCUT4O">     -1.00000000</i>
   <i type="int" name="EXXOEP">     0</i>
   <i type="int" name="FOURORBIT">     0</i>
   <i name="AEXX">      0.00000000</i>
   <i name="HFALPHA">      0.00000000</i>
   <i name="MCALPHA">      0.00000000</i>
   <i name="ALDAX">      1.00000000</i>
   <i name="AGGAX">      1.00000000</i>
   <i name="ALDAC">      1.00000000</i>
   <i name="AGGAC">      1.00000000</i>
   <i type="int" name="NKREDX">     1</i>
   <i type="int" name="NKREDY">     1</i>
   <i type="int" name="NKREDZ">     1</i>
   <i type="logical" name="SHIFTRED"> F  </i>
   <i type="logical" name="ODDONLY"> F  </i>
   <i type="logical" name="EVENONLY"> F  </i>
   <i type="int" name="LMAXFOCK">     0</i>
   <i type="int" name="NMAXFOCKAE">     0</i>
   <i type="logical" name="LFOCKAEDFT"> F  </i>
   <i name="HFSCREEN">      0.00000000</i>
   <i name="HFSCREENC">      0.00000000</i>
   <i type="int" name="NBANDSGWLOW">     0</i>
  </separator>
  <separator name="vdW DFT" >
   <i type="logical" name="LUSE_VDW"> F  </i>
   <i name="Zab_VDW">     -0.84910000</i>
   <i name="PARAM1">      0.12340000</i>
   <i name="PARAM2">      1.00000000</i>
   <i name="PARAM3">      0.00000000</i>
  </separator>
  <separator name="model GW" >
   <i type="int" name="MODEL_GW">     0</i>
   <i name="MODEL_EPS0">      9.17662200</i>
   <i name="MODEL_ALPHA">      1.00000000</i>
  </separator>
  <separator name="linear response parameters" >
   <i type="logical" name="LEPSILON"> F  </i>
   <i type="logical" name="LRPA"> F  </i>
   <i type="logical" name="LNABLA"> F  </i>
   <i type="logical" name="LVEL"> F  </i>
   <i type="int" name="KINTER">     0</i>
   <i name="CSHIFT">      0.10000000</i>
   <i name="OMEGAMAX">     -1.00000000</i>
   <i name="DEG_THRESHOLD">      0.00200000</i>
   <i name="RTIME">     -0.10000000</i>
   <i name="WPLASMAI">      0.00000000</i>
   <v name="DFIELD">      0.00000000      0.00000000      0.00000000</v>
   <v name="WPLASMA">      0.00000000      0.00000000      0.00000000      0.00000000      0.00000000      0.00000000      0.00000000      0.00000000      0.00000000</v>
  </separator>
  <separator name="orbital magnetization" >
   <i type="logical" name="NUCIND"> F  </i>
   <v name="MAGPOS">      0.00000000      0.00000000      0.00000000</v>
   <i type="logical" name="LNICSALL"> T  </i>
   <i type="logical" name="ORBITALMAG"> F  </i>
   <i type="logical" name="LMAGBLOCH"> F  </i>
   <i type="logical" name="LCHIMAG"> F  </i>
   <i type="logical" name="LGAUGE"> T  </i>
   <i type="int" name="MAGATOM">     0</i>
   <v name="MAGDIPOL">      0.00000000      0.00000000      0.00000000</v>
   <v name="AVECCONST">      0.00000000      0.00000000      0.00000000</v>
  </separator>
  <separator name="response functions" >
   <i type="logical" name="LADDER"> F  </i>
   <i type="logical" name="LRPAFORCE"> F  </i>
   <i type="logical" name="LFXC"> F  </i>
   <i type="logical" name="LHARTREE"> T  </i>
   <i type="int" name="IBSE">     0</i>
   <v type="int" name="KPOINT">    -1     0     0     0</v>
   <i type="logical" name="LTCTE"> F  </i>
   <i type="logical" name="LTETE"> F  </i>
   <i type="logical" name="LTRIPLET"> F  </i>
   <i type="logical" name="LFXCEPS"> F  </i>
   <i type="logical" name="LFXHEG"> F  </i>
   <i type="int" name="NATURALO">     2</i>
   <i type="logical" name="L2ORDER"> F  </i>
   <i type="logical" name="LMP2LT"> F  </i>
   <i type="logical" name="LUSEW"> F  </i>
   <i name="ENCUTGW">     -2.00000000</i>
   <i name="ENCUTGWSOFT">     -2.00000000</i>
   <i name="ENCUTLF">     -1.00000000</i>
   <i type="int" name="LMAXMP2">    -1</i>
   <i name="SCISSOR">      0.00000000</i>
   <i type="int" name="NOMEGA">     0</i>
   <i type="int" name="NOMEGAR">     0</i>
   <i type="int" name="NBANDSGW">    -1</i>
   <i type="int" name="NBANDSO">    -1</i>
   <i type="int" name="NBANDSV">    -1</i>
   <i type="int" name="NELM">     1</i>
   <i type="int" name="NELMHF">     1</i>
   <i type="int" name="DIM">     3</i>
   <i type="int" name="ANTIRES">     0</i>
   <i name="OMEGAMAX">    -30.00000000</i>
   <i name="OMEGAMIN">    -30.00000000</i>
   <i name="OMEGATL">   -200.00000000</i>
   <i type="int" name="OMEGAGRID">   140</i>
   <i name="CSHIFT">     -0.10000000</i>
   <i type="logical" name="SELFENERGY"> F  </i>
   <i type="logical" name="LSPECTRAL"> F  </i>
   <i type="logical" name="LSPECTRALGW"> F  </i>
   <i type="logical" name="LSINGLES"> F  </i>
   <i type="logical" name="LFERMIGW"> F  </i>
   <i type="logical" name="ODDONLYGW"> F  </i>
   <i type="logical" name="EVENONLYGW"> F  </i>
   <i type="int" name="NKREDLFX">     1</i>
   <i type="int" name="NKREDLFY">     1</i>
   <i type="int" name="NKREDLFZ">     1</i>
   <i type="int" name="MAXMEM">  2800</i>
   <i type="int" name="TELESCOPE">     0</i>
   <i type="int" name="TAUPAR">     1</i>
   <i type="int" name="OMEGAPAR">    -1</i>
   <i name="LAMBDA">      1.00000000</i>
  </separator>
  <separator name="External order field" >
   <i name="OFIELD_KAPPA">      0.00000000</i>
   <v name="OFIELD_K">      0.00000000      0.00000000      0.00000000</v>
   <i name="OFIELD_Q6_NEAR">      0.00000000</i>
   <i name="OFIELD_Q6_FAR">      0.00000000</i>
   <i name="OFIELD_A">      0.00000000</i>
  </separator>
 </parameters>
 <atominfo>
  <atoms>       2 </atoms>
  <types>       1 </types>
  <array name="atoms" >
   <dimension dim="1">ion</dimension>
   <field type="string">element</field>
   <field type="int">atomtype</field>
   <set>
    <rc><c>Si</c><c>   1</c></rc>
    <rc><c>Si</c><c>   1</c></rc>
   </set>
  </array>
  <array name="atomtypes" >
   <dimension dim="1">type</dimension>
   <field type="int">atomspertype</field>
   <field type="string">element</field>
   <field>mass</field>
   <field>valence</field>
   <field type="string">pseudopotential</field>
   <set>
    <rc><c>   2</c><c>Si</c><c>     28.08500000</c><c>      4.00000000</c><c> PAW_PBE Si 05Jan2001                   </c></rc>
   </set>
  </array>
 </atominfo>
 <structure name="initialpos" >
  <crystal>
   <varray name="basis" >
    <v>      -2.45000000       2.45000000       1.27400000 </v>
    <v>       2.45000000      -2.45000000       1.27400000 </v>
    <v>       2.45000000       2.45000000      -1.27400000 </v>
   </varray>
   <i name="volume">     30.58874000 </i>
   <varray name="rec_basis" >
    <v>       0.00000000       0.20408163       0.39246468 </v>
    <v>       0.20408163       0.00000000       0.39246468 </v>
    <v>       0.20408163       0.20408163      -0.00000000 </v>
   </varray>
  </crystal>
  <varray name="positions" >
   <v>       0.25000000       0.75000000       0.50000000 </v>
   <v>       0.00000000       0.00000000       0.00000000 </v>
  </varray>
 </structure>
 <calculation>
  <scstep>
   <time name="dav">    0.15    0.16</time>
   <time name="total">    0.18    0.21</time>
   <energy>
    <i name="alphaZ">      4.40202223 </i>
    <i name="ewald">   -265.18101312 </i>
    <i name="hartreedc">     -2.30415367 </i>
    <i name="XCdc">    -17.81530915 </i>
    <i name="pawpsdc">     65.95520812 </i>
    <i name="pawaedc">    -30.76852678 </i>
    <i name="eentropy">     -0.01716160 </i>
    <i name="bandstr">     35.13109998 </i>
    <i name="atom">    206.09183643 </i>
    <i name="e_fr_energy">     -4.50599757 </i>
    <i name="e_wo_entrp">     -4.48883596 </i>
    <i name="e_0_energy">     -4.49741676 </i>
   </energy>
  </scstep>
  <scstep>
   <time name="dav">    0.22    0.26</time>
   <time name="total">    0.22    0.26</time>
   <energy>
    <i name="e_fr_energy">    -10.10385069 </i>
    <i name="e_wo_entrp">    -10.08477116 </i>
    <i name="e_0_energy">    -10.09431093 </i>
   </energy>
  </scstep>
  <scstep>
   <time name="dav">    0.16    0.17</time>
   <time name="total">    0.16    0.17</time>
   <energy>
    <i name="e_fr_energy">    -10.13951786 </i>
    <i name="e_wo_entrp">    -10.12041197 </i>
    <i name="e_0_energy">    -10.12996492 </i>
   </energy>
  </scstep>
  <scstep>
   <time name="dav">    0.23    0.25</time>
   <time name="total">    0.23    0.25</time>
   <energy>
    <i name="e_fr_energy">    -10.13954864 </i>
    <i name="e_wo_entrp">    -10.12044225 </i>
    <i name="e_0_energy">    -10.12999544 </i>
   </energy>
  </scstep>
  <scstep>
   <time name="dav">    0.14    0.14</time>
   <time name="total">    0.15    0.15</time>
   <energy>
    <i name="e_fr_energy">    -10.13954865 </i>
    <i name="e_wo_entrp">    -10.12044225 </i>
    <i name="e_0_energy">    -10.12999545 </i>
   </energy>
  </scstep>
  <scstep>
   <time name="dav">    0.16    0.15</time>
   <time name="total">    0.18    0.20</time>
   <energy>
    <i name="e_fr_energy">    -10.13082736 </i>
    <i name="e_wo_entrp">    -10.11159528 </i>
    <i name="e_0_energy">    -10.12121132 </i>
   </energy>
  </scstep>
  <scstep>
   <time name="dav">    0.15    0.15</time>
   <time name="total">    0.18    0.20</time>
   <energy>
    <i name="e_fr_energy">    -10.12419421 </i>
    <i name="e_wo_entrp">    -10.10477471 </i>
    <i name="e_0_energy">    -10.11448446 </i>
   </energy>
  </scstep>
  <scstep>
   <time name="dav">    0.08    0.08</time>
   <time name="total">    0.11    0.12</time>
   <energy>
    <i name="alphaZ">      4.40202223 </i>
    <i name="ewald">   -265.18101312 </i>
    <i name="hartreedc">     -2.49090516 </i>
    <i name="XCdc">    -17.54351792 </i>
    <i name="pawpsdc">     72.38787459 </i>
    <i name="pawaedc">    -37.31419166 </i>
    <i name="eentropy">     -0.01938699 </i>
    <i name="bandstr">     29.54311288 </i>
    <i name="atom">    206.09183643 </i>
    <i name="e_fr_energy">    -10.12416872 </i>
    <i name="e_wo_entrp">    -10.10478172 </i>
    <i name="e_0_energy">    -10.11447522 </i>
   </energy>
  </scstep>
  <structure>
   <crystal>
    <varray name="basis" >
     <v>      -2.45000000       2.45000000       1.27400000 </v>
     <v>       2.45000000      -2.45000000       1.27400000 </v>
     <v>       2.45000000       2.45000000      -1.27400000 </v>
    </varray>
    <i name="volume">     30.58874000 </i>
    <varray name="rec_basis" >
     <v>       0.00000000       0.20408163       0.39246468 </v>
     <v>       0.20408163       0.00000000       0.39246468 </v>
     <v>       0.20408163       0.20408163      -0.00000000 </v>
    </varray>
   </crystal>
   <varray name="positions" >
    <v>       0.25000000       0.75000000       0.50000000 </v>
    <v>       0.00000000       0.00000000       0.00000000 </v>
   </varray>
  </structure>
  <varray name="forces" >
   <v>       0.00000000       0.00000000      -0.00000000 </v>
   <v>      -0.00000000      -0.00000000       0.00000000 </v>
  </varray>
  <varray name="stress" >
   <v>      32.75988511       0.00000000       0.00000000 </v>
   <v>      -0.00000000      32.75988511       0.00000000 </v>
   <v>       0.00000000       0.00000000     -33.43435241 </v>
  </varray>
  <energy>
   <i name="e_fr_energy">    -10.12416872 </i>
   <i name="e_wo_entrp">    -10.11447522 </i>
   <i name="e_0_energy">     -0.01938699 </i>
  </energy>
  <time name="totalsc">    1.87    2.35</time>
  <eigenvalues>
   <array>
    <dimension dim="1">band</dimension>
    <dimension dim="2">kpoint</dimension>
    <dimension dim="3">spin</dimension>
    <field>eigene</field>
    <field>occ</field>
    <set>
     <set comment="spin 1">
      <set comment="kpoint 1">
       <r>   -4.6169    1.0000 </r>
       <r>    6.1983    1.0000 </r>
       <r>    6.3065    1.0000 </r>
       <r>    6.3065    1.0000 </r>
       <r>   10.6571    0.0000 </r>
       <r>   17.0741    0.0000 </r>
       <r>   17.3775    0.0000 </r>
       <r>   17.3776    0.0000 </r>
      </set>
      <set comment="kpoint 2">
       <r>   -3.4897    1.0000 </r>
       <r>    5.0344    1.0000 </r>
       <r>    6.2971    1.0000 </r>
       <r>    9.3330    0.1647 </r>
       <r>   12.7589    0.0000 </r>
       <r>   12.8781    0.0000 </r>
       <r>   13.4863    0.0000 </r>
       <r>   15.5551    0.0000 </r>
      </set>
      <set comment="kpoint 3">
       <r>   -0.1549    1.0000 </r>
       <r>    5.1882    1.0000 </r>
       <r>    6.0237    1.0000 </r>
       <r>    7.2803    1.0000 </r>
       <r>    8.9790    0.9368 </r>
       <r>   11.4959    0.0000 </r>
       <r>   13.7016    0.0000 </r>
       <r>   14.3716    0.0000 </r>
      </set>
      <set comment="kpoint 4">
       <r>   -0.6183    1.0000 </r>
       <r>    6.0126    1.0000 </r>
       <r>    6.9118    1.0000 </r>
       <r>    6.9587    1.0000 </r>
       <r>    9.7786    0.0000 </r>
       <r>   11.8879    0.0000 </r>
       <r>   12.5125    0.0000 </r>
       <r>   12.7848    0.0000 </r>
      </set>
      <set comment="kpoint 5">
       <r>    1.2172    1.0000 </r>
       <r>    3.4015    1.0000 </r>
       <r>    4.4872    1.0000 </r>
       <r>    7.7298    1.0000 </r>
       <r>    9.0884    0.7747 </r>
       <r>   11.0992    0.0000 </r>
       <r>   13.9632    0.0000 </r>
       <r>   16.3162    0.0000 </r>
      </set>
      <set comment="kpoint 6">
       <r>   -2.5452    1.0000 </r>
       <r>    2.0394    1.0000 </r>
       <r>    6.7691    1.0000 </r>
       <r>   10.4865    0.0000 </r>
       <r>   11.1506    0.0000 </r>
       <r>   12.3503    0.0000 </r>
       <r>   14.0532    0.0000 </r>
       <r>   15.9641    0.0000 </r>
      </set>
      <set comment="kpoint 7">
       <r>   -4.1407    1.0000 </r>
       <r>    2.7489    1.0000 </r>
       <r>    6.7527    1.0000 </r>
       <r>    8.3982    1.0000 </r>
       <r>   13.2814    0.0000 </r>
       <r>   13.3896    0.0000 </r>
       <r>   15.0872    0.0000 </r>
       <r>   19.2905    0.0000 </r>
      </set>
      <set comment="kpoint 8">
       <r>   -0.6798    1.0000 </r>
       <r>   -0.6765    1.0000 </r>
       <r>    8.4557    1.0000 </r>
       <r>    8.5236    1.0000 </r>
       <r>   10.7365    0.0000 </r>
       <r>   13.2792    0.0000 </r>
       <r>   13.6610    0.0000 </r>
       <r>   14.1158    0.0000 </r>
      </set>
      <set comment="kpoint 9">
       <r>   -2.7217    1.0000 </r>
       <r>   -0.3939    1.0000 </r>
       <r>    8.0909    1.0000 </r>
       <r>    9.9969    0.0000 </r>
       <r>   10.3188    0.0000 </r>
       <r>   12.2382    0.0000 </r>
       <r>   18.2733    0.0000 </r>
       <r>   18.8327    0.0000 </r>
      </set>
      <set comment="kpoint 10">
       <r>    0.7703    1.0000 </r>
       <r>    3.0356    1.0000 </r>
       <r>    6.1417    1.0000 </r>
       <r>    6.1644    1.0000 </r>
       <r>   11.4195    0.0000 </r>
       <r>   13.1273    0.0000 </r>
       <r>   14.0755    0.0000 </r>
       <r>   14.5135    0.0000 </r>
      </set>
      <set comment="kpoint 11">
       <r>   -3.6675    1.0000 </r>
       <r>    2.5845    1.0000 </r>
       <r>    4.2122    1.0000 </r>
       <r>   10.2853    0.0000 </r>
       <r>   11.4861    0.0000 </r>
       <r>   14.6132    0.0000 </r>
       <r>   17.7825    0.0000 </r>
       <r>   18.1706    0.0000 </r>
      </set>
      <set comment="kpoint 12">
       <r>   -2.2603    1.0000 </r>
       <r>    0.0227    1.0000 </r>
       <r>    4.9706    1.0000 </r>
       <r>    7.1881    1.0000 </r>
       <r>   13.6609    0.0000 </r>
       <r>   15.7275    0.0000 </r>
       <r>   17.9049    0.0000 </r>
       <r>   18.1322    0.0000 </r>
      </set>
      <set comment="kpoint 13">
       <r>   -1.6159    1.0000 </r>
       <r>    2.2720    1.0000 </r>
       <r>    4.0000    1.0000 </r>
       <r>    7.7615    1.0000 </r>
       <r>   10.0436    0.0000 </r>
       <r>   15.5537    0.0000 </r>
       <r>   16.3284    0.0000 </r>
       <r>   17.3482    0.0000 </r>
      </set>
      <set comment="kpoint 14">
       <r>    0.1873    1.0000 </r>
       <r>    0.1986    1.0000 </r>
       <r>    5.1505    1.0000 </r>
       <r>    5.1506    1.0000 </r>
       <r>    9.6449    0.0007 </r>
       <r>   16.2730    0.0000 </r>
       <r>   17.7033    0.0000 </r>
       <r>   18.5276    0.0000 </r>
      </set>
      <set comment="kpoint 15">
       <r>    2.4776    1.0000 </r>
       <r>    3.4405    1.0000 </r>
       <r>    4.3074    1.0000 </r>
       <r>    5.8162    1.0000 </r>
       <r>    7.3336    1.0000 </r>
       <r>   12.1778    0.0000 </r>
       <r>   13.6114    0.0000 </r>
       <r>   16.2337    0.0000 </r>
      </set>
      <set comment="kpoint 16">
       <r>   -1.0855    1.0000 </r>
       <r>    7.7943    1.0000 </r>
       <r>    8.1268    1.0000 </r>
       <r>    8.4644    1.0000 </r>
       <r>    8.4644    1.0000 </r>
       <r>   10.0934    0.0000 </r>
       <r>   11.6958    0.0000 </r>
       <r>   11.6959    0.0000 </r>
      </set>
      <set comment="kpoint 17">
       <r>   -0.9154    1.0000 </r>
       <r>    0.7005    1.0000 </r>
       <r>    2.5128    1.0000 </r>
       <r>    4.1031    1.0000 </r>
       <r>   16.2364    0.0000 </r>
       <r>   16.5688    0.0000 </r>
       <r>   19.0229    0.0000 </r>
       <r>   20.3255    0.0000 </r>
      </set>
      <set comment="kpoint 18">
       <r>    1.3220    1.0000 </r>
       <r>    1.3444    1.0000 </r>
       <r>    3.1360    1.0000 </r>
       <r>    3.1360    1.0000 </r>
       <r>    9.2335    0.3930 </r>
       <r>   18.4662    0.0000 </r>
       <r>   19.7256    0.0000 </r>
       <r>   19.7257    0.0000 </r>
      </set>
     </set>
    </set>
   </array>
  </eigenvalues>
  <separator name="orbital magnetization" >
   <v name="MAGDIPOLOUT">      0.00000000      0.00000000      0.00000000</v>
  </separator>
  <dos>
   <i name="efermi">      9.19510916 </i>
   <total>
    <array>
     <dimension dim="1">gridpoints</dimension>
     <dimension dim="2">spin</dimension>
     <field>energy</field>
     <field>total</field>
     <field>integrated</field>
     <set>
      <set comment="spin 1">
       <r>    -6.6169     0.0000     0.0000 </r>
       <r>    -6.5204     0.0000     0.0000 </r>
       <r>    -6.4239     0.0000     0.0000 </r>
       <r>    -6.3275     0.0000     0.0000 </r>
       <r>    -6.2310     0.0000     0.0000 </r>
       <r>    -6.1345     0.0000     0.0000 </r>
       <r>    -6.0380     0.0000     0.0000 </r>
       <r>    -5.9416     0.0000     0.0000 </r>
       <r>    -5.8451     0.0000     0.0000 </r>
       <r>    -5.7486     0.0000     0.0000 </r>
       <r>    -5.6521     0.0000     0.0000 </r>
       <r>    -5.5557     0.0000     0.0000 </r>
       <r>    -5.4592     0.0000     0.0000 </r>
       <r>    -5.3627     0.0000     0.0000 </r>
       <r>    -5.2662     0.0000     0.0000 </r>
       <r>    -5.1698     0.0000     0.0000 </r>
       <r>    -5.0733     0.0001     0.0000 </r>
       <r>    -4.9768     0.0008     0.0001 </r>
       <r>    -4.8803     0.0043     0.0005 </r>
       <r>    -4.7839     0.0145     0.0019 </r>
       <r>    -4.6874     0.0316     0.0049 </r>
       <r>    -4.5909     0.0442     0.0092 </r>
       <r>    -4.4944     0.0424     0.0133 </r>
       <r>    -4.3980     0.0407     0.0172 </r>
       <r>    -4.3015     0.0699     0.0240 </r>
       <r>    -4.2050     0.1325     0.0368 </r>
       <r>    -4.1085     0.1768     0.0538 </r>
       <r>    -4.0121     0.1561     0.0689 </r>
       <r>    -3.9156     0.1064     0.0791 </r>
       <r>    -3.8191     0.1086     0.0896 </r>
       <r>    -3.7226     0.1964     0.1086 </r>
       <r>    -3.6262     0.3338     0.1408 </r>
       <r>    -3.5297     0.4398     0.1832 </r>
       <r>    -3.4332     0.4306     0.2247 </r>
       <r>    -3.3367     0.2980     0.2535 </r>
       <r>    -3.2403     0.1394     0.2669 </r>
       <r>    -3.1438     0.0437     0.2712 </r>
       <r>    -3.0473     0.0151     0.2726 </r>
       <r>    -2.9508     0.0339     0.2759 </r>
       <r>    -2.8544     0.1134     0.2868 </r>
       <r>    -2.7579     0.2871     0.3145 </r>
       <r>    -2.6614     0.5487     0.3675 </r>
       <r>    -2.5649     0.7849     0.4432 </r>
       <r>    -2.4685     0.8321     0.5235 </r>
       <r>    -2.3720     0.6981     0.5908 </r>
       <r>    -2.2755     0.5433     0.6432 </r>
       <r>    -2.1791     0.4078     0.6826 </r>
       <r>    -2.0826     0.2486     0.7066 </r>
       <r>    -1.9861     0.1102     0.7172 </r>
       <r>    -1.8896     0.0583     0.7228 </r>
       <r>    -1.7932     0.1094     0.7334 </r>
       <r>    -1.6967     0.2379     0.7563 </r>
       <r>    -1.6002     0.3454     0.7896 </r>
       <r>    -1.5037     0.3216     0.8207 </r>
       <r>    -1.4073     0.1943     0.8394 </r>
       <r>    -1.3108     0.0887     0.8480 </r>
       <r>    -1.2143     0.0692     0.8546 </r>
       <r>    -1.1178     0.1201     0.8662 </r>
       <r>    -1.0214     0.2086     0.8863 </r>
       <r>    -0.9249     0.3334     0.9185 </r>
       <r>    -0.8284     0.5483     0.9714 </r>
       <r>    -0.7319     0.8686     1.0552 </r>
       <r>    -0.6355     1.1018     1.1615 </r>
       <r>    -0.5390     1.0161     1.2595 </r>
       <r>    -0.4425     0.7115     1.3282 </r>
       <r>    -0.3460     0.4800     1.3745 </r>
       <r>    -0.2496     0.4424     1.4172 </r>
       <r>    -0.1531     0.5401     1.4693 </r>
       <r>    -0.0566     0.6817     1.5350 </r>
       <r>     0.0399     0.8298     1.6151 </r>
       <r>     0.1363     0.9494     1.7067 </r>
       <r>     0.2328     0.9178     1.7952 </r>
       <r>     0.3293     0.6660     1.8595 </r>
       <r>     0.4258     0.3529     1.8935 </r>
       <r>     0.5222     0.2032     1.9131 </r>
       <r>     0.6187     0.2769     1.9398 </r>
       <r>     0.7152     0.4500     1.9833 </r>
       <r>     0.8117     0.5201     2.0334 </r>
       <r>     0.9081     0.4218     2.0741 </r>
       <r>     1.0046     0.3344     2.1064 </r>
       <r>     1.1011     0.4577     2.1506 </r>
       <r>     1.1976     0.7253     2.2205 </r>
       <r>     1.2940     0.8434     2.3019 </r>
       <r>     1.3905     0.6627     2.3658 </r>
       <r>     1.4870     0.3530     2.3999 </r>
       <r>     1.5835     0.1303     2.4124 </r>
       <r>     1.6799     0.0453     2.4168 </r>
       <r>     1.7764     0.0747     2.4240 </r>
       <r>     1.8729     0.2371     2.4469 </r>
       <r>     1.9694     0.5246     2.4975 </r>
       <r>     2.0658     0.7777     2.5725 </r>
       <r>     2.1623     0.8333     2.6529 </r>
       <r>     2.2588     0.7633     2.7266 </r>
       <r>     2.3553     0.7396     2.7979 </r>
       <r>     2.4517     0.7967     2.8748 </r>
       <r>     2.5482     0.8215     2.9540 </r>
       <r>     2.6447     0.7118     3.0227 </r>
       <r>     2.7411     0.5226     3.0731 </r>
       <r>     2.8376     0.3899     3.1107 </r>
       <r>     2.9341     0.3926     3.1486 </r>
       <r>     3.0306     0.4971     3.1966 </r>
       <r>     3.1270     0.5889     3.2534 </r>
       <r>     3.2235     0.6666     3.3177 </r>
       <r>     3.3200     0.8578     3.4005 </r>
       <r>     3.4165     1.0754     3.5042 </r>
       <r>     3.5129     1.0104     3.6017 </r>
       <r>     3.6094     0.6394     3.6634 </r>
       <r>     3.7059     0.2830     3.6907 </r>
       <r>     3.8024     0.1623     3.7063 </r>
       <r>     3.8988     0.2670     3.7321 </r>
       <r>     3.9953     0.4799     3.7784 </r>
       <r>     4.0918     0.6630     3.8424 </r>
       <r>     4.1883     0.7681     3.9165 </r>
       <r>     4.2847     0.8524     3.9987 </r>
       <r>     4.3812     0.9476     4.0901 </r>
       <r>     4.4777     0.9766     4.1843 </r>
       <r>     4.5742     0.8188     4.2633 </r>
       <r>     4.6706     0.5183     4.3133 </r>
       <r>     4.7671     0.3202     4.3442 </r>
       <r>     4.8636     0.4237     4.3851 </r>
       <r>     4.9601     0.8182     4.4640 </r>
       <r>     5.0565     1.2897     4.5885 </r>
       <r>     5.1530     1.5174     4.7348 </r>
       <r>     5.2495     1.2987     4.8601 </r>
       <r>     5.3460     0.7807     4.9354 </r>
       <r>     5.4424     0.3229     4.9666 </r>
       <r>     5.5389     0.1144     4.9776 </r>
       <r>     5.6354     0.1238     4.9896 </r>
       <r>     5.7319     0.2856     5.0171 </r>
       <r>     5.8283     0.5516     5.0704 </r>
       <r>     5.9248     0.8853     5.1558 </r>
       <r>     6.0213     1.2432     5.2757 </r>
       <r>     6.1178     1.4923     5.4197 </r>
       <r>     6.2142     1.4734     5.5618 </r>
       <r>     6.3107     1.1729     5.6750 </r>
       <r>     6.4072     0.7467     5.7470 </r>
       <r>     6.5037     0.4320     5.7887 </r>
       <r>     6.6001     0.4310     5.8303 </r>
       <r>     6.6966     0.7631     5.9039 </r>
       <r>     6.7931     1.1819     6.0179 </r>
       <r>     6.8896     1.3646     6.1496 </r>
       <r>     6.9860     1.2417     6.2694 </r>
       <r>     7.0825     1.0366     6.3694 </r>
       <r>     7.1790     0.9876     6.4646 </r>
       <r>     7.2755     1.0444     6.5654 </r>
       <r>     7.3719     0.9576     6.6578 </r>
       <r>     7.4684     0.7118     6.7265 </r>
       <r>     7.5649     0.6123     6.7855 </r>
       <r>     7.6613     0.8435     6.8669 </r>
       <r>     7.7578     1.1311     6.9760 </r>
       <r>     7.8543     1.0767     7.0799 </r>
       <r>     7.9508     0.7348     7.1508 </r>
       <r>     8.0472     0.4593     7.1951 </r>
       <r>     8.1437     0.3721     7.2310 </r>
       <r>     8.2402     0.4137     7.2709 </r>
       <r>     8.3367     0.6088     7.3297 </r>
       <r>     8.4331     0.9057     7.4170 </r>
       <r>     8.5296     1.0236     7.5158 </r>
       <r>     8.6261     0.7987     7.5928 </r>
       <r>     8.7226     0.4563     7.6369 </r>
       <r>     8.8190     0.3268     7.6684 </r>
       <r>     8.9155     0.5174     7.7183 </r>
       <r>     9.0120     0.8730     7.8025 </r>
       <r>     9.1085     1.0998     7.9086 </r>
       <r>     9.2049     1.0446     8.0094 </r>
       <r>     9.3014     0.8276     8.0893 </r>
       <r>     9.3979     0.6137     8.1485 </r>
       <r>     9.4944     0.4866     8.1954 </r>
       <r>     9.5908     0.5075     8.2444 </r>
       <r>     9.6873     0.6307     8.3052 </r>
       <r>     9.7838     0.7114     8.3738 </r>
       <r>     9.8803     0.7160     8.4429 </r>
       <r>     9.9767     0.7326     8.5136 </r>
       <r>    10.0732     0.7584     8.5868 </r>
       <r>    10.1697     0.7284     8.6570 </r>
       <r>    10.2662     0.7131     8.7258 </r>
       <r>    10.3626     0.8096     8.8039 </r>
       <r>    10.4591     0.9455     8.8952 </r>
       <r>    10.5556     0.9604     8.9878 </r>
       <r>    10.6521     0.8254     9.0674 </r>
       <r>    10.7485     0.6503     9.1302 </r>
       <r>    10.8450     0.5364     9.1819 </r>
       <r>    10.9415     0.6209     9.2418 </r>
       <r>    11.0380     0.9968     9.3380 </r>
       <r>    11.1344     1.4004     9.4731 </r>
       <r>    11.2309     1.4381     9.6118 </r>
       <r>    11.3274     1.2025     9.7279 </r>
       <r>    11.4239     1.0584     9.8300 </r>
       <r>    11.5203     0.9996     9.9264 </r>
       <r>    11.6168     0.8345    10.0069 </r>
       <r>    11.7133     0.6256    10.0673 </r>
       <r>    11.8098     0.5220    10.1176 </r>
       <r>    11.9062     0.5034    10.1662 </r>
       <r>    12.0027     0.5060    10.2150 </r>
       <r>    12.0992     0.5964    10.2725 </r>
       <r>    12.1957     0.8406    10.3536 </r>
       <r>    12.2921     1.1157    10.4613 </r>
       <r>    12.3886     1.2170    10.5787 </r>
       <r>    12.4851     1.0913    10.6840 </r>
       <r>    12.5815     0.9076    10.7715 </r>
       <r>    12.6780     0.8869    10.8571 </r>
       <r>    12.7745     1.0251    10.9560 </r>
       <r>    12.8710     1.0722    11.0594 </r>
       <r>    12.9674     0.9164    11.1478 </r>
       <r>    13.0639     0.7656    11.2217 </r>
       <r>    13.1604     0.8030    11.2992 </r>
       <r>    13.2569     0.9545    11.3913 </r>
       <r>    13.3533     1.0828    11.4957 </r>
       <r>    13.4498     1.2095    11.6124 </r>
       <r>    13.5463     1.4382    11.7512 </r>
       <r>    13.6428     1.6737    11.9126 </r>
       <r>    13.7392     1.6730    12.0740 </r>
       <r>    13.8357     1.5330    12.2219 </r>
       <r>    13.9322     1.6508    12.3812 </r>
       <r>    14.0287     1.9790    12.5721 </r>
       <r>    14.1251     1.9863    12.7637 </r>
       <r>    14.2216     1.5181    12.9102 </r>
       <r>    14.3181     1.0175    13.0084 </r>
       <r>    14.4146     0.8109    13.0866 </r>
       <r>    14.5110     0.7691    13.1608 </r>
       <r>    14.6075     0.6599    13.2244 </r>
       <r>    14.7040     0.4406    13.2670 </r>
       <r>    14.8005     0.2239    13.2886 </r>
       <r>    14.8969     0.1169    13.2998 </r>
       <r>    14.9934     0.1257    13.3120 </r>
       <r>    15.0899     0.1723    13.3286 </r>
       <r>    15.1864     0.1777    13.3457 </r>
       <r>    15.2828     0.1665    13.3618 </r>
       <r>    15.3793     0.2639    13.3873 </r>
       <r>    15.4758     0.5333    13.4387 </r>
       <r>    15.5723     0.8322    13.5190 </r>
       <r>    15.6687     0.9483    13.6105 </r>
       <r>    15.7652     0.8927    13.6966 </r>
       <r>    15.8617     0.8598    13.7796 </r>
       <r>    15.9582     0.9284    13.8691 </r>
       <r>    16.0546     1.0537    13.9708 </r>
       <r>    16.1511     1.3270    14.0988 </r>
       <r>    16.2476     1.7692    14.2695 </r>
       <r>    16.3441     1.9616    14.4587 </r>
       <r>    16.4405     1.5735    14.6105 </r>
       <r>    16.5370     0.9177    14.6991 </r>
       <r>    16.6335     0.4343    14.7410 </r>
       <r>    16.7300     0.1881    14.7591 </r>
       <r>    16.8264     0.0753    14.7664 </r>
       <r>    16.9229     0.0382    14.7701 </r>
       <r>    17.0194     0.0512    14.7750 </r>
       <r>    17.1158     0.1068    14.7853 </r>
       <r>    17.2123     0.2232    14.8068 </r>
       <r>    17.3088     0.3808    14.8436 </r>
       <r>    17.4053     0.4700    14.8889 </r>
       <r>    17.5017     0.4444    14.9318 </r>
       <r>    17.5982     0.4433    14.9746 </r>
       <r>    17.6947     0.5710    15.0296 </r>
       <r>    17.7912     0.7236    15.0995 </r>
       <r>    17.8876     0.7713    15.1739 </r>
       <r>    17.9841     0.7421    15.2455 </r>
       <r>    18.0806     0.7416    15.3170 </r>
       <r>    18.1771     0.7650    15.3908 </r>
       <r>    18.2735     0.7132    15.4596 </r>
       <r>    18.3700     0.6062    15.5181 </r>
       <r>    18.4665     0.5498    15.5711 </r>
       <r>    18.5630     0.5167    15.6210 </r>
       <r>    18.6594     0.4246    15.6619 </r>
       <r>    18.7559     0.3241    15.6932 </r>
       <r>    18.8524     0.2924    15.7214 </r>
       <r>    18.9489     0.3001    15.7504 </r>
       <r>    19.0453     0.2909    15.7784 </r>
       <r>    19.1418     0.2614    15.8036 </r>
       <r>    19.2383     0.2378    15.8266 </r>
       <r>    19.3348     0.2133    15.8472 </r>
       <r>    19.4312     0.1626    15.8628 </r>
       <r>    19.5277     0.1174    15.8742 </r>
       <r>    19.6242     0.1284    15.8866 </r>
       <r>    19.7207     0.1707    15.9030 </r>
       <r>    19.8171     0.1701    15.9194 </r>
       <r>    19.9136     0.1119    15.9302 </r>
       <r>    20.0101     0.0536    15.9354 </r>
       <r>    20.1066     0.0442    15.9397 </r>
       <r>    20.2030     0.0900    15.9483 </r>
       <r>    20.2995     0.1554    15.9633 </r>
       <r>    20.3960     0.1750    15.9802 </r>
       <r>    20.4925     0.1262    15.9924 </r>
       <r>    20.5889     0.0581    15.9980 </r>
       <r>    20.6854     0.0171    15.9997 </r>
       <r>    20.7819     0.0032    16.0000 </r>
       <r>    20.8784     0.0004    16.0000 </r>
       <r>    20.9748     0.0000    16.0000 </r>
       <r>    21.0713     0.0000    16.0000 </r>
       <r>    21.1678     0.0000    16.0000 </r>
       <r>    21.2643     0.0000    16.0000 </r>
       <r>    21.3607     0.0000    16.0000 </r>
       <r>    21.4572     0.0000    16.0000 </r>
       <r>    21.5537     0.0000    16.0000 </r>
       <r>    21.6502     0.0000    16.0000 </r>
       <r>    21.7466     0.0000    16.0000 </r>
       <r>    21.8431     0.0000    16.0000 </r>
       <r>    21.9396     0.0000    16.0000 </r>
       <r>    22.0360     0.0000    16.0000 </r>
       <r>    22.1325     0.0000    16.0000 </r>
       <r>    22.2290     0.0000    16.0000 </r>
       <r>    22.3255     0.0000    16.0000 </r>
      </set>
     </set>
    </array>
   </total>
  </dos>
 </calculation>
 <structure name="finalpos" >
  <crystal>
   <varray name="basis" >
    <v>      -2.45000000       2.45000000       1.27400000 </v>
    <v>       2.45000000      -2.45000000       1.27400000 </v>
    <v>       2.45000000       2.45000000      -1.27400000 </v>
   </varray>
   <i name="volume">     30.58874000 </i>
   <varray name="rec_basis" >
    <v>       0.00000000       0.20408163       0.39246468 </v>
    <v>       0.20408163       0.00000000       0.39246468 </v>
    <v>       0.20408163       0.20408163      -0.00000000 </v>
   </varray>
  </crystal>
  <varray name="positions" >
   <v>       0.25000000       0.75000000       0.50000000 </v>
   <v>       0.00000000       0.00000000       0.00000000 </v>
  </varray>
 </structure>
</modeling>
