unknown system                          
   1.00000000000000     
     0.000000    2.715000    2.715000
     2.715000    0.000000    2.715000
     2.715000    2.715000    0.000000
   Si
     2
Direct
  0.500000  0.500000  0.500000
  0.750000  0.750000  0.750000
 
   32   32   32
 0.88304421326E+00 0.90347879118E+00 0.96662780678E+00 0.10776301588E+01 0.12440001359E+01
 0.14745913991E+01 0.17786447726E+01 0.21645511713E+01 0.26375663621E+01 0.31960444237E+01
 0.38268417608E+01 0.45016580687E+01 0.51763334316E+01 0.57943222341E+01 0.62942856459E+01
 0.66205282317E+01 0.67339501157E+01 0.66204802912E+01 0.62942394631E+01 0.57943257756E+01
 0.51763892963E+01 0.45017303589E+01 0.38268933559E+01 0.31960612666E+01 0.26375552691E+01
 0.21645267651E+01 0.17786200248E+01 0.14745739345E+01 0.12439922440E+01 0.10776304822E+01
 0.96663274105E+00 0.90348328637E+00 0.90347879118E+00 0.93846354481E+00 0.10115309298E+01
 0.11281839500E+01 0.12952687022E+01 0.15199041647E+01 0.18084894082E+01 0.21654558388E+01
 0.25912505237E+01 0.30793937259E+01 0.36132713466E+01 0.41640837729E+01 0.46914891923E+01
 0.51477748845E+01 0.54851863802E+01 0.56648399563E+01 0.56648451096E+01 0.54851861186E+01
 0.51477494693E+01 0.46914537784E+01 0.41640758219E+01 0.36133004456E+01 0.30794253501E+01
 0.25912471962E+01 0.21654201180E+01 0.18084555435E+01 0.15198968734E+01 0.12952830502E+01
 0.11282015524E+01 0.10115417393E+01 0.93846821611E+00 0.90348007520E+00 0.96662780678E+00
 0.10115309298E+01 0.10905593567E+01 0.12089776929E+01 0.13724960929E+01 0.15862787431E+01
 0.18540321195E+01 0.21768701430E+01 0.25516364951E+01 0.29687204470E+01 0.34099932041E+01
 0.38479907977E+01 0.42474864243E+01 0.45699273591E+01 0.47800715067E+01 0.48531028556E+01
 0.47800749687E+01 0.45699410814E+01 0.42475117579E+01 0.38480142245E+01 0.34099953276E+01
 0.29686967572E+01 0.25516024470E+01 0.21768422045E+01 0.18540127742E+01 0.15862660684E+01
 0.13724958503E+01 0.12089929431E+01 0.10905771470E+01 0.10115355853E+01 0.96662276797E+00
 0.95210821403E+00 0.10776301588E+01 0.11281839500E+01 0.12089776929E+01 0.13246191317E+01
 0.14795087879E+01 0.16770086197E+01 0.19186499551E+01 0.22031335762E+01 0.25249566585E+01
 0.28728368204E+01 0.32285516992E+01 0.35671009200E+01 0.38589351901E+01 0.40743078200E+01
 0.41888621546E+01 0.41888521939E+01 0.40742915115E+01 0.38589392878E+01 0.35671336358E+01
 0.32285844849E+01 0.28728286683E+01 0.25249007173E+01 0.22030682885E+01 0.19186176964E+01
 0.16770151091E+01 0.14795304229E+01 0.13246357296E+01 0.12089847667E+01 0.11281834680E+01
 0.10776255853E+01 0.10534528244E+01 0.10534555392E+01 0.12440001359E+01 0.12952687022E+01
 0.13724960929E+01 0.14795087879E+01 0.16195602763E+01 0.17946762678E+01 0.20049298010E+01
 0.22475007393E+01 0.25155433913E+01 0.27971573551E+01 0.30750239322E+01 0.33273433412E+01
 0.35304127227E+01 0.36625584084E+01 0.37084644272E+01 0.36625761994E+01 0.35304157456E+01
 0.33273113084E+01 0.30749740046E+01 0.27971182499E+01 0.25155214251E+01 0.22474842004E+01
 0.20049156535E+01 0.17946762343E+01 0.16195818014E+01 0.14795415126E+01 0.13725205787E+01
 0.12952738064E+01 0.12439904210E+01 0.12150209082E+01 0.12056970691E+01 0.12150314567E+01
 0.14745913991E+01 0.15199041647E+01 0.15862787431E+01 0.16770086197E+01 0.17946762678E+01
 0.19405891941E+01 0.21140286062E+01 0.23113171142E+01 0.25249555854E+01 0.27432020866E+01
 0.29504523937E+01 0.31286817631E+01 0.32599739584E+01 0.33297372399E+01 0.33297463174E+01
 0.32599952441E+01 0.31286946552E+01 0.29504306051E+01 0.27431444843E+01 0.25249008505E+01
 0.23113092735E+01 0.21140692753E+01 0.19406390204E+01 0.17947022576E+01 0.16770135001E+01
 0.15862812326E+01 0.15199083268E+01 0.14745879143E+01 0.14468799653E+01 0.14338754399E+01
 0.14338822233E+01 0.14468917182E+01 0.17786447726E+01 0.18084894082E+01 0.18540321195E+01
 0.19186499551E+01 0.20049298010E+01 0.21140286062E+01 0.22448546160E+01 0.23932632472E+01
 0.25516357089E+01 0.27091138234E+01 0.28525436320E+01 0.29680662480E+01 0.30432369848E+01
 0.30693377797E+01 0.30432330144E+01 0.29680731790E+01 0.28525666562E+01 0.27091404580E+01
 0.25516544122E+01 0.23932756250E+01 0.22448667277E+01 0.21140423666E+01 0.20049433408E+01
 0.19186558835E+01 0.18540189764E+01 0.18084575588E+01 0.17786155925E+01 0.17608522703E+01
 0.17518066675E+01 0.17490766189E+01 0.17517989017E+01 0.17608588964E+01 0.21645511713E+01
 0.21654558388E+01 0.21768701430E+01 0.22031335762E+01 0.22475007393E+01 0.23113171142E+01
 0.23932632472E+01 0.24889732291E+01 0.25912498894E+01 0.26908505184E+01 0.27776502132E+01
 0.28420235068E+01 0.28763393554E+01 0.28763445900E+01 0.28420338760E+01 0.27776583129E+01
 0.26908615424E+01 0.25912785378E+01 0.24890178419E+01 0.23932919670E+01 0.23112978053E+01
 0.22474418839E+01 0.22030755289E+01 0.21768359710E+01 0.21654341849E+01 0.21645303411E+01
 0.21694428459E+01 0.21757382785E+01 0.21798739280E+01 0.21798676766E+01 0.21757323668E+01
 0.21694533368E+01 0.26375663621E+01 0.25912505237E+01 0.25516364951E+01 0.25249566585E+01
 0.25155433913E+01 0.25249555854E+01 0.25516357089E+01 0.25912498894E+01 0.26375643033E+01
 0.26835276154E+01 0.27222960669E+01 0.27481339107E+01 0.27572020984E+01 0.27481479945E+01
 0.27223229292E+01 0.26835526255E+01 0.26375642116E+01 0.25912170812E+01 0.25515874341E+01
 0.25249114694E+01 0.25155024806E+01 0.25249067830E+01 0.25515803759E+01 0.25912092024E+01
 0.26375559010E+01 0.26835454826E+01 0.27223193430E+01 0.27481480806E+01 0.27572037936E+01
 0.27481361737E+01 0.27222993009E+01 0.26835311198E+01 0.31960444237E+01 0.30793937259E+01
 0.29687204470E+01 0.28728368204E+01 0.27971573551E+01 0.27432020866E+01 0.27091138234E+01
 0.26908505184E+01 0.26835276154E+01 0.26824969797E+01 0.26839927054E+01 0.26854126156E+01
 0.26854235747E+01 0.26840176793E+01 0.26825219314E+01 0.26835393698E+01 0.26908280428E+01
 0.27090384331E+01 0.27430936699E+01 0.27970752331E+01 0.28728204587E+01 0.29687459600E+01
 0.30794110887E+01 0.31960406285E+01 0.33078429577E+01 0.34036967226E+01 0.34737555788E+01
 0.35107176661E+01 0.35107044272E+01 0.34737262895E+01 0.34036751720E+01 0.33078425433E+01
 0.38268417608E+01 0.36132713466E+01 0.34099932041E+01 0.32285516992E+01 0.30750239322E+01
 0.29504523937E+01 0.28525436320E+01 0.27776502132E+01 0.27222960669E+01 0.26839927054E+01
 0.26613803649E+01 0.26539048734E+01 0.26614113898E+01 0.26840088451E+01 0.27222752638E+01
 0.27776127979E+01 0.28525022379E+01 0.29503981418E+01 0.30749676714E+01 0.32285274012E+01
 0.34100108483E+01 0.36133088939E+01 0.38268855083E+01 0.40350290655E+01 0.42202953260E+01
 0.43662177089E+01 0.44595223077E+01 0.44916268573E+01 0.44595410387E+01 0.43662160548E+01
 0.42202576259E+01 0.40349791805E+01 0.45016580687E+01 0.41640837729E+01 0.38479907977E+01
 0.35671009200E+01 0.33273433412E+01 0.31286817631E+01 0.29680662480E+01 0.28420235068E+01
 0.27481339107E+01 0.26854126156E+01 0.26539048734E+01 0.26539162026E+01 0.26854279715E+01
 0.27481216568E+01 0.28419741014E+01 0.29679950953E+01 0.31286177735E+01 0.33273194347E+01
 0.35671271741E+01 0.38480314581E+01 0.41640962216E+01 0.45016556981E+01 0.48397519326E+01
 0.51528966392E+01 0.54151034946E+01 0.56037597817E+01 0.57024231323E+01 0.57024553950E+01
 0.56038058015E+01 0.54150919842E+01 0.51528435576E+01 0.48397224763E+01 0.51763334316E+01
 0.46914891923E+01 0.42474864243E+01 0.38589351901E+01 0.35304127227E+01 0.32599739584E+01
 0.30432369848E+01 0.28763393554E+01 0.27572020984E+01 0.26854235747E+01 0.26614113898E+01
 0.26854279715E+01 0.27571911013E+01 0.28762988534E+01 0.30431749561E+01 0.32599098645E+01
 0.35303624960E+01 0.38589122701E+01 0.42475035495E+01 0.46915425008E+01 0.51763883930E+01
 0.56764322812E+01 0.61575621957E+01 0.65821164782E+01 0.69145439548E+01 0.71262509633E+01
 0.71989178871E+01 0.71262695184E+01 0.69145913976E+01 0.65821820112E+01 0.61576053778E+01
 0.56764203770E+01 0.57943222341E+01 0.51477748845E+01 0.45699273591E+01 0.40743078200E+01
 0.36625584084E+01 0.33297372399E+01 0.30693377797E+01 0.28763445900E+01 0.27481479945E+01
 0.26840176793E+01 0.26840088451E+01 0.27481216568E+01 0.28762988534E+01 0.30692747963E+01
 0.33296753581E+01 0.36625194103E+01 0.40742904362E+01 0.45699190779E+01 0.51477877064E+01
 0.57943744542E+01 0.64812502424E+01 0.71663902988E+01 0.77995110111E+01 0.83293469404E+01
 0.87107202465E+01 0.89102440547E+01 0.89102513291E+01 0.87107631286E+01 0.83294354336E+01
 0.77995883827E+01 0.71663918973E+01 0.64811907208E+01 0.62942856459E+01 0.54851863802E+01
 0.47800715067E+01 0.41888621546E+01 0.37084644272E+01 0.33297463174E+01 0.30432330144E+01
 0.28420338760E+01 0.27223229292E+01 0.26825219314E+01 0.27222752638E+01 0.28419741014E+01
 0.30431749561E+01 0.33296753581E+01 0.37083933013E+01 0.41888401353E+01 0.47801165658E+01
 0.54852503813E+01 0.62943109090E+01 0.71792024389E+01 0.80929047134E+01 0.89738824323E+01
 0.97540203507E+01 0.10367661259E+02 0.10760166327E+02 0.10895241391E+02 0.10760149593E+02
 0.10367638423E+02 0.97540053511E+01 0.89738871867E+01 0.80929288945E+01 0.71792199821E+01
 0.66205282317E+01 0.56648399563E+01 0.48531028556E+01 0.41888521939E+01 0.36625761994E+01
 0.32599952441E+01 0.29680731790E+01 0.27776583129E+01 0.26835526255E+01 0.26835393698E+01
 0.27776127979E+01 0.29679950953E+01 0.32599098645E+01 0.36625194103E+01 0.41888401353E+01
 0.48531280615E+01 0.56648882922E+01 0.66205788128E+01 0.76961751908E+01 0.88440876037E+01
 0.99958013862E+01 0.11068866277E+02 0.11976036983E+02 0.12635673353E+02 0.12983367537E+02
 0.12983286984E+02 0.12635502430E+02 0.11975913145E+02 0.11068857428E+02 0.99958599270E+01
 0.88441263785E+01 0.76961577683E+01 0.67339501157E+01 0.56648451096E+01 0.47800749687E+01
 0.40742915115E+01 0.35304157456E+01 0.31286946552E+01 0.28525666562E+01 0.26908615424E+01
 0.26375642116E+01 0.26908280428E+01 0.28525022379E+01 0.31286177735E+01 0.35303624960E+01
 0.40742904362E+01 0.47801165658E+01 0.56648882922E+01 0.67339637753E+01 0.79715997161E+01
 0.93351828284E+01 0.10755475689E+02 0.12141735349E+02 0.13389005536E+02 0.14387331596E+02
 0.15035058712E+02 0.15259316425E+02 0.15034951122E+02 0.14387185221E+02 0.13388890335E+02
 0.12141674198E+02 0.10755457414E+02 0.93351901135E+01 0.79716099496E+01 0.66204802912E+01
 0.54851861186E+01 0.45699410814E+01 0.38589392878E+01 0.33273113084E+01 0.29504306051E+01
 0.27091404580E+01 0.25912785378E+01 0.25912170812E+01 0.27090384331E+01 0.29503981418E+01
 0.33273194347E+01 0.38589122701E+01 0.45699190779E+01 0.54852503813E+01 0.66205788128E+01
 0.79715997161E+01 0.95060473239E+01 0.11161380092E+02 0.12847361815E+02 0.14450137610E+02
 0.15834533381E+02 0.16851963990E+02 0.17389714425E+02 0.17389729680E+02 0.16851949134E+02
 0.15834394784E+02 0.14449903605E+02 0.12847191600E+02 0.11161378647E+02 0.95061248780E+01
 0.79715947226E+01 0.62942394631E+01 0.51477494693E+01 0.42475117579E+01 0.35671336358E+01
 0.30749740046E+01 0.27431444843E+01 0.25516544122E+01 0.24890178419E+01 0.25515874341E+01
 0.27430936699E+01 0.30749676714E+01 0.35671271741E+01 0.42475035495E+01 0.51477877064E+01
 0.62943109090E+01 0.76961751908E+01 0.93351828284E+01 0.11161380092E+02 0.13093782852E+02
 0.15021523880E+02 0.16791318588E+02 0.18213795942E+02 0.19134182554E+02 0.19452567049E+02
 0.19134100499E+02 0.18213696872E+02 0.16791222430E+02 0.15021403377E+02 0.13093664290E+02
 0.11161326350E+02 0.93351763840E+01 0.76961384991E+01 0.57943257756E+01 0.46914537784E+01
 0.38480142245E+01 0.32285844849E+01 0.27971182499E+01 0.25249008505E+01 0.23932756250E+01
 0.23932919670E+01 0.25249114694E+01 0.27970752331E+01 0.32285274012E+01 0.38480314581E+01
 0.46915425008E+01 0.57943744542E+01 0.71792024389E+01 0.88440876037E+01 0.10755475689E+02
 0.12847361815E+02 0.15021523880E+02 0.17125849485E+02 0.18944141530E+02 0.20281615508E+02
 0.20991078396E+02 0.20990989462E+02 0.20281483425E+02 0.18944149412E+02 0.17125933228E+02
 0.15021481934E+02 0.12847179906E+02 0.10755340694E+02 0.88440957214E+01 0.71792413201E+01
 0.51763892963E+01 0.41640758219E+01 0.34099953276E+01 0.28728286683E+01 0.25155214251E+01
 0.23113092735E+01 0.22448667277E+01 0.23112978053E+01 0.25155024806E+01 0.28728204587E+01
 0.34100108483E+01 0.41640962216E+01 0.51763883930E+01 0.64812502424E+01 0.80929047134E+01
 0.99958013862E+01 0.12141735349E+02 0.14450137610E+02 0.16791318588E+02 0.18944141530E+02
 0.20682271236E+02 0.21815365423E+02 0.22209522955E+02 0.21815412802E+02 0.20682307687E+02
 0.18944127314E+02 0.16791267194E+02 0.14450072969E+02 0.12141667913E+02 0.99957490059E+01
 0.80928885909E+01 0.64812609880E+01 0.45017303589E+01 0.36133004456E+01 0.29686967572E+01
 0.25249007173E+01 0.22474842004E+01 0.21140692753E+01 0.21140423666E+01 0.22474418839E+01
 0.25249067830E+01 0.29687459600E+01 0.36133088939E+01 0.45016556981E+01 0.56764322812E+01
 0.71663902988E+01 0.89738824323E+01 0.11068866277E+02 0.13389005536E+02 0.15834533381E+02
 0.18213795942E+02 0.20281615508E+02 0.21815365423E+02 0.22634852860E+02 0.22634923431E+02
 0.21815455442E+02 0.20281560282E+02 0.18213650032E+02 0.15834464906E+02 0.13389026101E+02
 0.11068854350E+02 0.89738144909E+01 0.71663732127E+01 0.56765087840E+01 0.38268933559E+01
 0.30794253501E+01 0.25516024470E+01 0.22030682885E+01 0.20049156535E+01 0.19406390204E+01
 0.20049433408E+01 0.22030755289E+01 0.25515803759E+01 0.30794110887E+01 0.38268855083E+01
 0.48397519326E+01 0.61575621957E+01 0.77995110111E+01 0.97540203507E+01 0.11976036983E+02
 0.14387331596E+02 0.16851963990E+02 0.19134182554E+02 0.20991078396E+02 0.22209522955E+02
 0.22634923431E+02 0.22209544585E+02 0.20991093168E+02 0.19134172622E+02 0.16851928673E+02
 0.14387267311E+02 0.11975960040E+02 0.97539881542E+01 0.77995597069E+01 0.61576466878E+01
 0.48397993300E+01 0.31960612666E+01 0.25912471962E+01 0.21768422045E+01 0.19186176964E+01
 0.17946762343E+01 0.17947022576E+01 0.19186558835E+01 0.21768359710E+01 0.25912092024E+01
 0.31960406285E+01 0.40350290655E+01 0.51528966392E+01 0.65821164782E+01 0.83293469404E+01
 0.10367661259E+02 0.12635673353E+02 0.15035058712E+02 0.17389714425E+02 0.19452567049E+02
 0.20990989462E+02 0.21815412802E+02 0.21815455442E+02 0.20991093168E+02 0.19452667613E+02
 0.17389743243E+02 0.15034997898E+02 0.12635584063E+02 0.10367637010E+02 0.83294150757E+01
 0.65822113867E+01 0.51529451178E+01 0.40350369046E+01 0.26375552691E+01 0.21654201180E+01
 0.18540127742E+01 0.16770151091E+01 0.16195818014E+01 0.16770135001E+01 0.18540189764E+01
 0.21654341849E+01 0.26375559010E+01 0.33078429577E+01 0.42202953260E+01 0.54151034946E+01
 0.69145439548E+01 0.87107202465E+01 0.10760166327E+02 0.12983367537E+02 0.15259316425E+02
 0.17389729680E+02 0.19134100499E+02 0.20281483425E+02 0.20682307687E+02 0.20281560282E+02
 0.19134172622E+02 0.17389743243E+02 0.15259301973E+02 0.12983376430E+02 0.10760206237E+02
 0.87107714355E+01 0.69146037544E+01 0.54151779490E+01 0.42203659153E+01 0.33078800435E+01
 0.21645267651E+01 0.18084555435E+01 0.15862660684E+01 0.14795304229E+01 0.14795415126E+01
 0.15862812326E+01 0.18084575588E+01 0.21645303411E+01 0.26835454826E+01 0.34036967226E+01
 0.43662177089E+01 0.56037597817E+01 0.71262509633E+01 0.89102440547E+01 0.10895241391E+02
 0.12983286984E+02 0.15034951122E+02 0.16851949134E+02 0.18213696872E+02 0.18944149412E+02
 0.18944127314E+02 0.18213650032E+02 0.16851928673E+02 0.15034997898E+02 0.12983376430E+02
 0.10895309173E+02 0.89102761120E+01 0.71263018064E+01 0.56038584416E+01 0.43663121120E+01
 0.34037326124E+01 0.26835403772E+01 0.17786200248E+01 0.15198968734E+01 0.13724958503E+01
 0.13246357296E+01 0.13725205787E+01 0.15199083268E+01 0.17786155925E+01 0.21694428459E+01
 0.27223193430E+01 0.34737555788E+01 0.44595223077E+01 0.57024231323E+01 0.71989178871E+01
 0.89102513291E+01 0.10760149593E+02 0.12635502430E+02 0.14387185221E+02 0.15834394784E+02
 0.16791222430E+02 0.17125933228E+02 0.16791267194E+02 0.15834464906E+02 0.14387267311E+02
 0.12635584063E+02 0.10760206237E+02 0.89102761120E+01 0.71989499103E+01 0.57024959843E+01
 0.44596005597E+01 0.34737812396E+01 0.27222996519E+01 0.21694305160E+01 0.14745739345E+01
 0.12952830502E+01 0.12089929431E+01 0.12089847667E+01 0.12952738064E+01 0.14745879143E+01
 0.17608522703E+01 0.21757382785E+01 0.27481480806E+01 0.35107176661E+01 0.44916268573E+01
 0.57024553950E+01 0.71262695184E+01 0.87107631286E+01 0.10367638423E+02 0.11975913145E+02
 0.13388890335E+02 0.14449903605E+02 0.15021403377E+02 0.15021481934E+02 0.14450072969E+02
 0.13389026101E+02 0.11975960040E+02 0.10367637010E+02 0.87107714355E+01 0.71263018064E+01
 0.57024959843E+01 0.44916629647E+01 0.35107411143E+01 0.27481464123E+01 0.21757087374E+01
 0.17608166478E+01 0.12439922440E+01 0.11282015524E+01 0.10905771470E+01 0.11281834680E+01
 0.12439904210E+01 0.14468799653E+01 0.17518066675E+01 0.21798739280E+01 0.27572037936E+01
 0.35107044272E+01 0.44595410387E+01 0.56038058015E+01 0.69145913976E+01 0.83294354336E+01
 0.97540053511E+01 0.11068857428E+02 0.12141674198E+02 0.12847191600E+02 0.13093664290E+02
 0.12847179906E+02 0.12141667913E+02 0.11068854350E+02 0.97539881542E+01 0.83294150757E+01
 0.69146037544E+01 0.56038584416E+01 0.44596005597E+01 0.35107411143E+01 0.27572138503E+01
 0.21798595991E+01 0.17517731953E+01 0.14468518847E+01 0.10776304822E+01 0.10115417393E+01
 0.10115355853E+01 0.10776255853E+01 0.12150209082E+01 0.14338754399E+01 0.17490766189E+01
 0.21798676766E+01 0.27481361737E+01 0.34737262895E+01 0.43662160548E+01 0.54150919842E+01
 0.65821820112E+01 0.77995883827E+01 0.89738871867E+01 0.99958599270E+01 0.10755457414E+02
 0.11161378647E+02 0.11161326350E+02 0.10755340694E+02 0.99957490059E+01 0.89738144909E+01
 0.77995597069E+01 0.65822113867E+01 0.54151779490E+01 0.43663121120E+01 0.34737812396E+01
 0.27481464123E+01 0.21798595991E+01 0.17490619088E+01 0.14338553649E+01 0.12150089736E+01
 0.96663274105E+00 0.93846821611E+00 0.96662276797E+00 0.10534528244E+01 0.12056970691E+01
 0.14338822233E+01 0.17517989017E+01 0.21757323668E+01 0.27222993009E+01 0.34036751720E+01
 0.42202576259E+01 0.51528435576E+01 0.61576053778E+01 0.71663918973E+01 0.80929288945E+01
 0.88441263785E+01 0.93351901135E+01 0.95061248780E+01 0.93351763840E+01 0.88440957214E+01
 0.80928885909E+01 0.71663732127E+01 0.61576466878E+01 0.51529451178E+01 0.42203659153E+01
 0.34037326124E+01 0.27222996519E+01 0.21757087374E+01 0.17517731953E+01 0.14338553649E+01
 0.12056763697E+01 0.10534513065E+01 0.90348328637E+00 0.90348007520E+00 0.95210821403E+00
 0.10534555392E+01 0.12150314567E+01 0.14468917182E+01 0.17608588964E+01 0.21694533368E+01
 0.26835311198E+01 0.33078425433E+01 0.40349791805E+01 0.48397224763E+01 0.56764203770E+01
 0.64811907208E+01 0.71792199821E+01 0.76961577683E+01 0.79716099496E+01 0.79715947226E+01
 0.76961384991E+01 0.71792413201E+01 0.64812609880E+01 0.56765087840E+01 0.48397993300E+01
 0.40350369046E+01 0.33078800435E+01 0.26835403772E+01 0.21694305160E+01 0.17608166478E+01
 0.14468518847E+01 0.12150089736E+01 0.10534513065E+01 0.95211312232E+00 0.90348137708E+00
 0.93846622963E+00 0.10115325049E+01 0.11281849972E+01 0.12952704523E+01 0.15199061175E+01
 0.18084903993E+01 0.21654563718E+01 0.25912516928E+01 0.30793949529E+01 0.36132715790E+01
 0.41640838088E+01 0.46914903935E+01 0.51477766710E+01 0.54851874241E+01 0.56648408088E+01
 0.56648472611E+01 0.54851894905E+01 0.51477531178E+01 0.46914578501E+01 0.41640803124E+01
 0.36133031331E+01 0.30794235806E+01 0.25912410038E+01 0.21654115273E+01 0.18084459881E+01
 0.15198875224E+01 0.12952762252E+01 0.11281990100E+01 0.10115423451E+01 0.93846963022E+00
 0.90348179138E+00 0.93846622963E+00 0.98187733783E+00 0.10585035508E+01 0.11736890359E+01
 0.13332314151E+01 0.15423495002E+01 0.18047211478E+01 0.21213528083E+01 0.24889733685E+01
 0.28979437874E+01 0.33302843528E+01 0.37589544993E+01 0.41494931350E+01 0.44643930827E+01
 0.46694913815E+01 0.47407556273E+01 0.46694994311E+01 0.44643779296E+01 0.41494543897E+01
 0.37589360996E+01 0.33303073861E+01 0.28979647443E+01 0.24889401072E+01 0.21212786195E+01
 0.18046688016E+01 0.15423522181E+01 0.13332623556E+01 0.11737088846E+01 0.10585071285E+01
 0.98188101707E+00 0.93847319674E+00 0.92446218608E+00 0.10115325049E+01 0.10585035508E+01
 0.11341703667E+01 0.12433666085E+01 0.13906641718E+01 0.15794592485E+01 0.18111646120E+01
 0.20842968913E+01 0.23932635865E+01 0.27269531527E+01 0.30676977912E+01 0.33914915020E+01
 0.36701712573E+01 0.38755653993E+01 0.39847217106E+01 0.39847224530E+01 0.38755684292E+01
 0.36701798662E+01 0.33915075363E+01 0.30677121192E+01 0.27269480549E+01 0.23932324665E+01
 0.20842561107E+01 0.18111382255E+01 0.15794564432E+01 0.13906768545E+01 0.12433824803E+01
 0.11341808347E+01 0.10585045962E+01 0.10115269456E+01 0.98919898857E+00 0.98920252185E+00
 0.11281849972E+01 0.11736890359E+01 0.12433666085E+01 0.13413976605E+01 0.14712146242E+01
 0.16347727921E+01 0.18319217888E+01 0.20596794352E+01 0.23113183243E+01 0.25754817807E+01
 0.28358613355E+01 0.30720572307E+01 0.32619645214E+01 0.33854307360E+01 0.34282748828E+01
 0.33854028437E+01 0.32619511642E+01 0.30720831067E+01 0.28358960389E+01 0.25754770744E+01
 0.23112702497E+01 0.20596332301E+01 0.18319162807E+01 0.16347992303E+01 0.14712372013E+01
 0.13413986483E+01 0.12433572850E+01 0.11736852614E+01 0.11281887422E+01 0.11028411669E+01
 0.10947419851E+01 0.11028367967E+01 0.12952704523E+01 0.13332314151E+01 0.13906641718E+01
 0.14712146242E+01 0.15775314456E+01 0.17107139605E+01 0.18697828920E+01 0.20510581791E+01
 0.22475012403E+01 0.24483003852E+01 0.26391112440E+01 0.28033089473E+01 0.29243196102E+01
 0.29886284575E+01 0.29886225863E+01 0.29243107162E+01 0.28033074287E+01 0.26391091214E+01
 0.24482820240E+01 0.22474689330E+01 0.20510327888E+01 0.18697794244E+01 0.17107273427E+01
 0.15775468198E+01 0.14712226472E+01 0.13906642841E+01 0.13332274082E+01 0.12952665301E+01
 0.12728457337E+01 0.12626062913E+01 0.12626066038E+01 0.12728475303E+01 0.15199061175E+01
 0.15423495002E+01 0.15794592485E+01 0.16347727921E+01 0.17107139605E+01 0.18081197758E+01
 0.19257313186E+01 0.20596787426E+01 0.22031328659E+01 0.23463494069E+01 0.24773206831E+01
 0.25831721047E+01 0.26522174977E+01 0.26762323820E+01 0.26522432092E+01 0.25832040999E+01
 0.24773280165E+01 0.23463189793E+01 0.22030933427E+01 0.20596742666E+01 0.19257671436E+01
 0.18081551227E+01 0.17107155356E+01 0.16347537638E+01 0.15794521151E+01 0.15423588011E+01
 0.15199080386E+01 0.15080121011E+01 0.15027905883E+01 0.15014094509E+01 0.15028123247E+01
 0.15080307164E+01 0.18084903993E+01 0.18047211478E+01 0.18111646120E+01 0.18319217888E+01
 0.18697828920E+01 0.19257313186E+01 0.19984987362E+01 0.20842969408E+01 0.21768698983E+01
 0.22679373400E+01 0.23480597800E+01 0.24079356880E+01 0.24400096804E+01 0.24400196221E+01
 0.24079592839E+01 0.23480807010E+01 0.22679415187E+01 0.21768629065E+01 0.20843005455E+01
 0.19985230028E+01 0.19257599973E+01 0.18697948605E+01 0.18319166744E+01 0.18111562574E+01
 0.18047151965E+01 0.18084815650E+01 0.18175989919E+01 0.18271661860E+01 0.18331166061E+01
 0.18331215613E+01 0.18271788189E+01 0.18176127450E+01 0.21654563718E+01 0.21213528083E+01
 0.20842968913E+01 0.20596794352E+01 0.20510581791E+01 0.20596787426E+01 0.20842969408E+01
 0.21213536401E+01 0.21654566523E+01 0.22100727306E+01 0.22483764393E+01 0.22742563822E+01
 0.22834094927E+01 0.22742658297E+01 0.22483771125E+01 0.22100612223E+01 0.21654537528E+01
 0.21213700814E+01 0.20843094146E+01 0.20596599323E+01 0.20510197104E+01 0.20596604126E+01
 0.20843106736E+01 0.21213705617E+01 0.21654509556E+01 0.22100551645E+01 0.22483703433E+01
 0.22742600025E+01 0.22834044994E+01 0.22742526228E+01 0.22483749210E+01 0.22100727817E+01
 0.25912516928E+01 0.24889733685E+01 0.23932635865E+01 0.23113183243E+01 0.22475012403E+01
 0.22031328659E+01 0.21768698983E+01 0.21654566523E+01 0.21645515580E+01 0.21694531635E+01
 0.21757339629E+01 0.21798722700E+01 0.21798800567E+01 0.21757447256E+01 0.21694498608E+01
 0.21645369243E+01 0.21654376287E+01 0.21768354562E+01 0.22030730831E+01 0.22474386764E+01
 0.23112926612E+01 0.23932845493E+01 0.24890099781E+01 0.25912712847E+01 0.26908542441E+01
 0.27776516622E+01 0.28420304960E+01 0.28763452514E+01 0.28763417406E+01 0.28420258441E+01
 0.27776529909E+01 0.26908536603E+01 0.30793949529E+01 0.28979437874E+01 0.27269531527E+01
 0.25754817807E+01 0.24483003852E+01 0.23463494069E+01 0.22679373400E+01 0.22100727306E+01
 0.21694531635E+01 0.21430210786E+01 0.21282776902E+01 0.21235552837E+01 0.21282693433E+01
 0.21430204632E+01 0.21694654363E+01 0.22100653215E+01 0.22678631964E+01 0.23462174723E+01
 0.24481987111E+01 0.25754929567E+01 0.27270581777E+01 0.28980475533E+01 0.30794377478E+01
 0.32585491312E+01 0.34204162239E+01 0.35497946854E+01 0.36334654075E+01 0.36624170900E+01
 0.36334498421E+01 0.35497753060E+01 0.34204093465E+01 0.32585460695E+01 0.36132715790E+01
 0.33302843528E+01 0.30676977912E+01 0.28358613355E+01 0.26391112440E+01 0.24773206831E+01
 0.23480597800E+01 0.22483764393E+01 0.21757339629E+01 0.21282776902E+01 0.21048235520E+01
 0.21048092255E+01 0.21282550004E+01 0.21757298551E+01 0.22483675364E+01 0.23479817580E+01
 0.24771608202E+01 0.26389692803E+01 0.28358665478E+01 0.30678614906E+01 0.33304824453E+01
 0.36133856650E+01 0.39002201609E+01 0.41699517013E+01 0.43994616500E+01 0.45669304746E+01
 0.46553313746E+01 0.46553220846E+01 0.45669060838E+01 0.43994386403E+01 0.41699434115E+01
 0.39001922637E+01 0.41640838088E+01 0.37589544993E+01 0.33914915020E+01 0.30720572307E+01
 0.28033089473E+01 0.25831721047E+01 0.24079356880E+01 0.22742563822E+01 0.21798722700E+01
 0.21235552837E+01 0.21048092255E+01 0.21235407491E+01 0.21798674452E+01 0.22742333507E+01
 0.24078182093E+01 0.25829578001E+01 0.28031341313E+01 0.30720741930E+01 0.33916957047E+01
 0.37591895917E+01 0.41642159099E+01 0.45874604037E+01 0.50013675817E+01 0.53730782947E+01
 0.56689652006E+01 0.58598430519E+01 0.59258304006E+01 0.58598538327E+01 0.56689631887E+01
 0.53730642285E+01 0.50013594814E+01 0.45874276987E+01 0.46914903935E+01 0.41494931350E+01
 0.36701712573E+01 0.32619645214E+01 0.29243196102E+01 0.26522174977E+01 0.24400096804E+01
 0.22834094927E+01 0.21798800567E+01 0.21282693433E+01 0.21282550004E+01 0.21798674452E+01
 0.22834006475E+01 0.24399033307E+01 0.26519573818E+01 0.29240611709E+01 0.32619483841E+01
 0.36704322286E+01 0.41498109534E+01 0.46916470252E+01 0.52755091555E+01 0.58682818780E+01
 0.64267221879E+01 0.69028135508E+01 0.72508287157E+01 0.74347841894E+01 0.74348034402E+01
 0.72508618958E+01 0.69028319097E+01 0.64267473279E+01 0.58683365565E+01 0.52755212980E+01
 0.51477766710E+01 0.44643930827E+01 0.38755653993E+01 0.33854307360E+01 0.29886284575E+01
 0.26762323820E+01 0.24400196221E+01 0.22742658297E+01 0.21757447256E+01 0.21430204632E+01
 0.21757298551E+01 0.22742333507E+01 0.24399033307E+01 0.26759784400E+01 0.29883567041E+01
 0.33853835085E+01 0.38758287683E+01 0.44647670629E+01 0.51479924458E+01 0.59067147280E+01
 0.67047745706E+01 0.74898657918E+01 0.81988071921E+01 0.87659105800E+01 0.91331436295E+01
 0.92603596071E+01 0.91331635994E+01 0.87659266743E+01 0.81988236957E+01 0.74899248313E+01
 0.67048695603E+01 0.59067211589E+01 0.54851874241E+01 0.46694913815E+01 0.39847217106E+01
 0.34282748828E+01 0.29886225863E+01 0.26522432092E+01 0.24079592839E+01 0.22483771125E+01
 0.21694498608E+01 0.21694654363E+01 0.22483675364E+01 0.24078182093E+01 0.26519573818E+01
 0.29883567041E+01 0.34282592179E+01 0.39850136150E+01 0.46698857465E+01 0.54854116850E+01
 0.64179873705E+01 0.74324613857E+01 0.84710694446E+01 0.94574107826E+01 0.10304861717E+02
 0.10928571760E+02 0.11259810975E+02 0.11259807879E+02 0.10928547171E+02 0.10304807831E+02
 0.94573794453E+01 0.84711321266E+01 0.74325880287E+01 0.64180108987E+01 0.56648408088E+01
 0.47407556273E+01 0.39847224530E+01 0.33854028437E+01 0.29243107162E+01 0.25832040999E+01
 0.23480807010E+01 0.22100612223E+01 0.21645369243E+01 0.22100653215E+01 0.23479817580E+01
 0.25829578001E+01 0.29240611709E+01 0.33853835085E+01 0.39850136150E+01 0.47411716969E+01
 0.56650926821E+01 0.67519283036E+01 0.79726112098E+01 0.92697624457E+01 0.10559063413E+02
 0.11735896857E+02 0.12687134952E+02 0.13308347475E+02 0.13524555690E+02 0.13308314819E+02
 0.12687049386E+02 0.11735789628E+02 0.10559038015E+02 0.92698891936E+01 0.79728000338E+01
 0.67519626862E+01 0.56648472611E+01 0.46694994311E+01 0.38755684292E+01 0.32619511642E+01
 0.28033074287E+01 0.24773280165E+01 0.22679415187E+01 0.21654537528E+01 0.21654376287E+01
 0.22678631964E+01 0.24771608202E+01 0.28031341313E+01 0.32619483841E+01 0.38758287683E+01
 0.46698857465E+01 0.56650926821E+01 0.68681357666E+01 0.82609342279E+01 0.97933899337E+01
 0.11381383225E+02 0.12909957759E+02 0.14242013914E+02 0.15235017273E+02 0.15767133106E+02
 0.15767118647E+02 0.15234974508E+02 0.14241945803E+02 0.12909891714E+02 0.11381391878E+02
 0.97935273327E+01 0.82611181752E+01 0.68681632821E+01 0.54851894905E+01 0.44643779296E+01
 0.36701798662E+01 0.30720831067E+01 0.26391091214E+01 0.23463189793E+01 0.21768629065E+01
 0.21213700814E+01 0.21768354562E+01 0.23462174723E+01 0.26389692803E+01 0.30720741930E+01
 0.36704322286E+01 0.44647670629E+01 0.54854116850E+01 0.67519283036E+01 0.82609342279E+01
 0.99759665558E+01 0.11822043264E+02 0.13684811768E+02 0.15414002494E+02 0.16835089755E+02
 0.17775590575E+02 0.18105222903E+02 0.17775557847E+02 0.16835095253E+02 0.15414028668E+02
 0.13684772940E+02 0.11821981988E+02 0.99760388518E+01 0.82611358066E+01 0.67520113641E+01
 0.51477531178E+01 0.41494543897E+01 0.33915075363E+01 0.28358960389E+01 0.24482820240E+01
 0.22030933427E+01 0.20843005455E+01 0.20843094146E+01 0.22030730831E+01 0.24481987111E+01
 0.28358665478E+01 0.33916957047E+01 0.41498109534E+01 0.51479924458E+01 0.64179873705E+01
 0.79726112098E+01 0.97933899337E+01 0.11822043264E+02 0.13955991774E+02 0.16046407820E+02
 0.17901841029E+02 0.19305177744E+02 0.20062195081E+02 0.20062172548E+02 0.19305189234E+02
 0.17901955646E+02 0.16046503093E+02 0.13955935597E+02 0.11821949311E+02 0.97934745557E+01