       N       E                     dE             d eps       ncg     rms          rms(c)
DAV:   1     0.178269875264E+01    0.17827E+01   -0.25294E+03  1808   0.519E+02
DAV:   2    -0.108774212532E+02   -0.12660E+02   -0.12017E+02  2800   0.660E+01
DAV:   3    -0.110175933202E+02   -0.14017E+00   -0.14017E+00  2120   0.889E+00
DAV:   4    -0.110181682066E+02   -0.57489E-03   -0.57489E-03  2904   0.603E-01
DAV:   5    -0.110181687112E+02   -0.50462E-06   -0.50416E-06  2200   0.128E-02    0.301E+00
DAV:   6    -0.108937231328E+02    0.12445E+00   -0.82329E-02  2136   0.149E+00    0.178E+00
DAV:   7    -0.108368908691E+02    0.56832E-01   -0.15110E-01  2232   0.215E+00    0.154E-01
DAV:   8    -0.108381981903E+02   -0.13073E-02   -0.40570E-03  2048   0.473E-01    0.250E-02
DAV:   9    -0.108382905626E+02   -0.92372E-04   -0.94323E-05  1384   0.788E-02
   1 F= -.10838291E+02 E0= -.10838261E+02  d E =-.108383E+02
