    2    2   15    1
  0.2001288E+02  0.3839590E-09  0.3839590E-09  0.3839590E-09  0.5000000E-15
  1.000000000000000E-004
  CAR 
 unknown system                          
      8      4      8
 
  0.0000000E+00  0.0000000E+00  0.0000000E+00  0.3703704E-01
    1       -6.045223   1.000000
    2        5.947290   0.989701
    3        5.947300   0.989699
    4        5.947300   0.989699
    5        8.471897   0.000000
    6        8.471908   0.000000
    7        8.471908   0.000000
    8        9.321826   0.000000
 
  0.3333333E+00  0.6723763E-17  0.1473614E-18  0.2962963E+00
    1       -4.664900   1.000000
    2        0.585802   1.000000
    3        4.932893   1.000000
    4        4.932903   1.000000
    5        7.698355   0.000000
    6        9.418754   0.000000
    7        9.418784   0.000000
    8       13.792241   0.000000
 
  0.3333333E+00  0.3333333E+00  0.1682863E-16  0.2222222E+00
    1       -4.136670   1.000000
    2        0.925146   1.000000
    3        3.501318   1.000000
    4        3.501323   1.000000
    5        6.637552   0.005150
    6        7.903192   0.000000
    7       13.212039   0.000000
    8       13.212049   0.000000
 
 -0.3333333E+00  0.3333333E+00  0.1344753E-16  0.4444444E+00
    1       -2.770615   1.000000
    2       -0.842824   1.000000
    3        1.491504   1.000000
    4        3.809891   1.000000
    5        7.480113   0.000000
    6       11.745439   0.000000
    7       12.395964   0.000000
    8       13.030016   0.000000
