    2    2   15    1
  0.2001288E+02  0.3839590E-09  0.3839590E-09  0.3839590E-09  0.5000000E-15
  1.000000000000000E-004
  CAR 
 unknown system                          
      8     20      8
 
  0.0000000E+00  0.0000000E+00  0.0000000E+00  0.2915452E-02
    1       -6.129185   1.000000
    2        5.843214   0.970732
    3        5.843225   0.970727
    4        5.843225   0.970727
    5        8.410950   0.000000
    6        8.410962   0.000000
    7        8.410962   0.000000
    8        9.209649   0.000000
 
  0.1428571E+00 -0.2862800E-17 -0.1748977E-16  0.2332362E-01
    1       -5.862906   1.000000
    2        3.907918   1.000000
    3        5.484441   0.999995
    4        5.484450   0.999995
    5        8.287180   0.000000
    6        8.934476   0.000000
    7        8.934491   0.000000
    8       10.872463   0.000000
 
  0.2857143E+00 -0.2269120E-16  0.9741634E-17  0.2332362E-01
    1       -5.095504   1.000000
    2        1.283014   1.000000
    3        4.966190   1.000000
    4        4.966200   1.000000
    5        7.753110   0.000000
    6        9.387611   0.000000
    7        9.387640   0.000000
    8       13.308052   0.000000
 
  0.4285714E+00 -0.2759730E-17  0.1159403E-16  0.2332362E-01
    1       -4.052816   1.000000
    2       -0.753672   1.000000
    3        4.676424   1.000000
    4        4.676434   1.000000
    5        7.426771   0.000000
    6        9.236109   0.000000
    7        9.236142   0.000000
    8       13.626664   0.000000
 
  0.1428571E+00  0.1428571E+00  0.4108522E-18  0.1749271E-01
    1       -5.772855   1.000000
    2        4.210455   1.000000
    3        4.866196   1.000000
    4        4.866203   1.000000
    5        7.726549   0.000000
    6        9.821635   0.000000
    7        9.821643   0.000000
    8       10.280793   0.000000
 
  0.2857143E+00  0.1428571E+00 -0.8512426E-17  0.6997085E-01
    1       -5.165255   1.000000
    2        2.080174   1.000000
    3        4.283772   1.000000
    4        4.322096   1.000000
    5        7.922848   0.000000
    6        9.763569   0.000000
    7       10.415707   0.000000
    8       10.609788   0.000000
 
  0.4285714E+00  0.1428571E+00  0.6714690E-17  0.6997085E-01
    1       -4.154590   1.000000
    2       -0.111283   1.000000
    3        3.593504   1.000000
    4        4.132540   1.000000
    5        7.992661   0.000000
    6        9.680969   0.000000
    7       10.390691   0.000000
    8       11.644296   0.000000
 
 -0.4285714E+00  0.1428571E+00 -0.2538985E-16  0.6997085E-01
    1       -3.593843   1.000000
    2       -0.978827   1.000000
    3        3.177452   1.000000
    4        4.331018   1.000000
    5        8.093482   0.000000
    6        9.586706   0.000000
    7        9.989238   0.000000
    8       14.028699   0.000000
 
 -0.2857143E+00  0.1428571E+00 -0.5704498E-17  0.6997085E-01
    1       -4.523837   1.000000
    2        0.571183   1.000000
    3        3.180489   1.000000
    4        4.847170   1.000000
    5        8.501905   0.000000
    6        9.750482   0.000000
    7        9.787584   0.000000
    8       12.514768   0.000000
 
 -0.1428571E+00  0.1428571E+00 -0.5725601E-17  0.3498542E-01
    1       -5.426287   1.000000
    2        2.701185   1.000000
    3        3.870256   1.000000
    4        5.441804   0.999999
    5        8.909747   0.000000
    6        9.141763   0.000000
    7        9.405371   0.000000
    8       11.490199   0.000000
 
  0.2857143E+00  0.2857143E+00  0.8217044E-18  0.1749271E-01
    1       -4.720678   1.000000
    2        1.679326   1.000000
    3        3.698088   1.000000
    4        3.698094   1.000000
    5        6.775558   0.000001
    6        8.464099   0.000000
    7       12.255319   0.000000
    8       12.255330   0.000000
 
  0.4285714E+00  0.2857143E+00 -0.5710699E-17  0.6997085E-01
    1       -3.816532   1.000000
    2        0.171959   1.000000
    3        2.715788   1.000000
    4        3.436734   1.000000
    5        7.060356   0.000000
    6        8.551389   0.000000
    7       12.485006   0.000000
    8       12.645350   0.000000
 
 -0.4285714E+00  0.2857143E+00  0.1028864E-16  0.6997085E-01
    1       -2.895807   1.000000
    2       -1.011383   1.000000
    3        1.760019   1.000000
    4        3.606223   1.000000
    5        7.302109   0.000000
    6       10.800642   0.000000
    7       12.141821   0.000000
    8       12.223411   0.000000
 
 -0.2857143E+00  0.2857143E+00 -0.7704199E-17  0.3498542E-01
    1       -3.548090   1.000000
    2       -0.257926   1.000000
    3        1.684620   1.000000
    4        4.156976   1.000000
    5        7.913387   0.000000
    6       11.310330   0.000000
    7       11.660647   0.000000
    8       12.475337   0.000000
 
  0.4285714E+00  0.4285714E+00  0.1232557E-17  0.1749271E-01
    1       -3.030843   1.000000
    2       -0.827238   1.000000
    3        3.064021   1.000000
    4        3.064027   1.000000
    5        6.419015   0.014634
    6        6.936528   0.000000
    7       14.916296   0.000000
    8       14.916306   0.000000
 
 -0.4285714E+00  0.4285714E+00 -0.5519460E-17  0.3498542E-01
    1       -2.077977   1.000000
    2       -1.789033   1.000000
    3        2.166270   1.000000
    4        3.125890   1.000000
    5        6.721849   0.000008
    6        7.985856   0.000000
    7       14.686815   0.000000
    8       15.137413   0.000000
 
  0.4285714E+00  0.2857143E+00  0.1428571E+00  0.6997085E-01
    1       -4.411528   1.000000
    2        0.939517   1.000000
    3        2.718481   1.000000
    4        4.048577   1.000000
    5        8.430657   0.000000
    6        9.690423   0.000000
    7        9.995995   0.000000
    8       12.005893   0.000000
 
 -0.4285714E+00  0.2857143E+00  0.1428571E+00  0.1399417E+00
    1       -3.366773   1.000000
    2       -0.598195   1.000000
    3        2.146611   1.000000
    4        3.509067   1.000000
    5        8.918403   0.000000
    6        9.336573   0.000000
    7       11.329167   0.000000
    8       12.462466   0.000000
 
 -0.4285714E+00  0.4285714E+00  0.1428571E+00  0.6997085E-01
    1       -2.825070   1.000000
    2       -0.912822   1.000000
    3        2.233793   1.000000
    4        2.645370   1.000000
    5        8.060453   0.000000
    6        8.428821   0.000000
    7       12.018319   0.000000
    8       14.539080   0.000000
 
 -0.2857143E+00  0.4285714E+00  0.1428571E+00  0.6997085E-01
    1       -2.386372   1.000000
    2       -1.311371   1.000000
    3        1.591514   1.000000
    4        2.738013   1.000000
    5        8.588015   0.000000
    6       10.697822   0.000000
    7       11.505424   0.000000
    8       11.648360   0.000000
