unknown system                          
   1.00000000000000     
    -0.000000    2.734304    2.734304
     2.734304    0.000000    2.734304
     2.734304    2.734304   -0.000000
   Si
     2
Direct
  0.500000  0.500000  0.500000
  0.750000  0.750000  0.750000
 
   36   36   36
 0.85616536814E+00 0.87221149682E+00 0.92141722201E+00 0.10068443533E+01 0.11331846005E+01
 0.13062663872E+01 0.15325171653E+01 0.18183506845E+01 0.21692921790E+01 0.25885799857E+01
 0.30751049959E+01 0.36208918059E+01 0.42087756479E+01 0.48112530323E+01 0.53914269275E+01
 0.59064405384E+01 0.63129929043E+01 0.65738246634E+01 0.66637386895E+01 0.65738268624E+01
 0.63129912398E+01 0.59064318561E+01 0.53914165175E+01 0.48112491760E+01 0.42087804259E+01
 0.36208996660E+01 0.30751097693E+01 0.25885809194E+01 0.21692925774E+01 0.18183526600E+01
 0.15325194737E+01 0.13062669160E+01 0.11331833291E+01 0.10068431348E+01 0.92141730453E+00
 0.87221219893E+00 0.87221149682E+00 0.90017341249E+00 0.95785648946E+00 0.10485659052E+01
 0.11767667910E+01 0.13475873196E+01 0.15662477121E+01 0.18373723615E+01 0.21640529691E+01
 0.25465194649E+01 0.29804144512E+01 0.34549501813E+01 0.39515442003E+01 0.44436905512E+01
 0.48986542202E+01 0.52810612397E+01 0.55578026810E+01 0.57031902211E+01 0.57031908178E+01
 0.55578019911E+01 0.52810567856E+01 0.48986496626E+01 0.44436917913E+01 0.39515510116E+01
 0.34549564577E+01 0.29804163798E+01 0.25465192281E+01 0.21640538555E+01 0.18373739910E+01
 0.15662477188E+01 0.13475852446E+01 0.11767643315E+01 0.10485644811E+01 0.95785609308E+00
 0.90017341702E+00 0.87221152433E+00 0.92141722201E+00 0.95785648946E+00 0.10209913154E+01
 0.11141257572E+01 0.12413179768E+01 0.14068783062E+01 0.16147744700E+01 0.18679083510E+01
 0.21671888008E+01 0.25103553618E+01 0.28906453189E+01 0.32956097191E+01 0.37065711768E+01
 0.40992437536E+01 0.44458103179E+01 0.47183100449E+01 0.48927114404E+01 0.49527605461E+01
 0.48927107865E+01 0.47183086376E+01 0.44458099677E+01 0.40992465677E+01 0.37065754823E+01
 0.32956111259E+01 0.28906427596E+01 0.25103527298E+01 0.21671892352E+01 0.18679100065E+01
 0.16147738927E+01 0.14068754916E+01 0.12413157054E+01 0.11141254609E+01 0.10209918913E+01
 0.95785659413E+00 0.92141691913E+00 0.90951973529E+00 0.10068443533E+01 0.10485659052E+01
 0.11141257572E+01 0.12066807874E+01 0.13297860213E+01 0.14868913441E+01 0.16807460676E+01
 0.19126914133E+01 0.21818150357E+01 0.24839928049E+01 0.28109617243E+01 0.31497090490E+01
 0.34825445215E+01 0.37881676685E+01 0.40438184174E+01 0.42282566012E+01 0.43249874045E+01
 0.43249864809E+01 0.42282552149E+01 0.40438188455E+01 0.37881697113E+01 0.34825450877E+01
 0.31497059219E+01 0.28109569393E+01 0.24839906592E+01 0.21818168690E+01 0.19126942322E+01
 0.16807467973E+01 0.14868904964E+01 0.13297860262E+01 0.12066823296E+01 0.11141274160E+01
 0.10485665220E+01 0.10068441844E+01 0.98660972317E+00 0.98660989373E+00 0.11331846005E+01
 0.11767667910E+01 0.12413179768E+01 0.13297860213E+01 0.14451985436E+01 0.15901719598E+01
 0.17663487753E+01 0.19737600527E+01 0.22101218467E+01 0.24701266587E+01 0.27448820054E+01
 0.30217321125E+01 0.32847154195E+01 0.35158234591E+01 0.36970335868E+01 0.38128273756E+01
 0.38526692328E+01 0.38128260470E+01 0.36970333187E+01 0.35158244180E+01 0.32847146181E+01
 0.30217283572E+01 0.27448787224E+01 0.24701276166E+01 0.22101260814E+01 0.19737634708E+01
 0.17663496182E+01 0.15901721718E+01 0.14452000792E+01 0.13297882047E+01 0.12413191191E+01
 0.11767666661E+01 0.11331842150E+01 0.11081207374E+01 0.10999551956E+01 0.11081208345E+01
 0.13062663872E+01 0.13475873196E+01 0.14068783062E+01 0.14868913441E+01 0.15901719598E+01
 0.17186028930E+01 0.18729118814E+01 0.20521503429E+01 0.22531648318E+01 0.24701266168E+01
 0.26942531765E+01 0.29139071266E+01 0.31152478959E+01 0.32835204169E+01 0.34048956423E+01
 0.34685590225E+01 0.34685588232E+01 0.34048956511E+01 0.32835207384E+01 0.31152469781E+01
 0.29139047294E+01 0.26942522532E+01 0.24701294093E+01 0.22531689241E+01 0.20521516621E+01
 0.18729103107E+01 0.17186018059E+01 0.15901729702E+01 0.14868925930E+01 0.14068778953E+01
 0.13475858063E+01 0.13062653248E+01 0.12803754750E+01 0.12679623595E+01 0.12679622829E+01
 0.12803756571E+01 0.15325171653E+01 0.15662477121E+01 0.16147744700E+01 0.16807460676E+01
 0.17663487753E+01 0.18729118814E+01 0.20005188730E+01 0.21476272711E+01 0.23107130867E+01
 0.24839928006E+01 0.26593340779E+01 0.28265082085E+01 0.29739199912E+01 0.30898545227E+01
 0.31641108911E+01 0.31896945689E+01 0.31641114583E+01 0.30898545213E+01 0.29739183686E+01
 0.28265058027E+01 0.26593333159E+01 0.24839943747E+01 0.23107142022E+01 0.21476251977E+01
 0.20005150947E+01 0.18729101431E+01 0.17663497626E+01 0.16807469198E+01 0.16147733360E+01
 0.15662458518E+01 0.15325162379E+01 0.15108756354E+01 0.14989705795E+01 0.14951930362E+01
 0.14989705617E+01 0.15108757321E+01 0.18183506845E+01 0.18373723615E+01 0.18679083510E+01
 0.19126914133E+01 0.19737600527E+01 0.20521503429E+01 0.21476272711E+01 0.22584434679E+01
 0.23811293513E+01 0.25103555098E+01 0.26389654096E+01 0.27583163776E+01 0.28590392296E+01
 0.29322112765E+01 0.29707612594E+01 0.29707615571E+01 0.29322110238E+01 0.28590370546E+01
 0.27583134159E+01 0.26389639338E+01 0.25103553210E+01 0.23811278613E+01 0.22584398914E+01
 0.21476245232E+01 0.20521512499E+01 0.19737632741E+01 0.19126932166E+01 0.18679075407E+01
 0.18373710926E+01 0.18183506449E+01 0.18077852682E+01 0.18027330182E+01 0.18008567846E+01
 0.18008571410E+01 0.18027333402E+01 0.18077849150E+01 0.21692921790E+01 0.21640529691E+01
 0.21671888008E+01 0.21818150357E+01 0.22101218467E+01 0.22531648318E+01 0.23107130867E+01
 0.23811293513E+01 0.24612812665E+01 0.25465196298E+01 0.26308135061E+01 0.27071625973E+01
 0.27683589144E+01 0.28080364121E+01 0.28217885389E+01 0.28080360627E+01 0.27683573676E+01
 0.27071606759E+01 0.26308129506E+01 0.25465196642E+01 0.24612794014E+01 0.23811262385E+01
 0.23107129392E+01 0.22531694974E+01 0.22101275861E+01 0.21818172727E+01 0.21671876973E+01
 0.21640520013E+01 0.21692929083E+01 0.21791805519E+01 0.21898376667E+01 0.21978301543E+01
 0.22007790716E+01 0.21978313212E+01 0.21898382810E+01 0.21791797418E+01 0.25885799857E+01
 0.25465194649E+01 0.25103553618E+01 0.24839928049E+01 0.24701266587E+01 0.24701266168E+01
 0.24839928006E+01 0.25103555098E+01 0.25465196298E+01 0.25885800478E+01 0.26316740460E+01
 0.26704509447E+01 0.26997773115E+01 0.27155735681E+01 0.27155732008E+01 0.26997765728E+01
 0.26704509725E+01 0.26316754518E+01 0.25885808696E+01 0.25465172417E+01 0.25103515996E+01
 0.24839928682E+01 0.24701324806E+01 0.24701330571E+01 0.24839942473E+01 0.25103531063E+01
 0.25465184153E+01 0.25885814775E+01 0.26316753417E+01 0.26704502490E+01 0.26997756760E+01
 0.27155724982E+01 0.27155730415E+01 0.26997768391E+01 0.26704506125E+01 0.26316739329E+01
 0.30751049959E+01 0.29804144512E+01 0.28906453189E+01 0.28109617243E+01 0.27448820054E+01
 0.26942531765E+01 0.26593340779E+01 0.26389654096E+01 0.26308135061E+01 0.26316740460E+01
 0.26378457589E+01 0.26455980768E+01 0.26517131489E+01 0.26540083821E+01 0.26517123193E+01
 0.26455986908E+01 0.26378481498E+01 0.26316743458E+01 0.26308080752E+01 0.26389572125E+01
 0.26593310364E+01 0.26942585216E+01 0.27448897020E+01 0.28109643281E+01 0.28906431988E+01
 0.29804132837E+01 0.30751068077E+01 0.31681125232E+01 0.32518716570E+01 0.33187047884E+01
 0.33619001437E+01 0.33768466843E+01 0.33619000267E+01 0.33187053178E+01 0.32518717673E+01
 0.31681107333E+01 0.36208918059E+01 0.34549501813E+01 0.32956097191E+01 0.31497090490E+01
 0.30217321125E+01 0.29139071266E+01 0.28265082085E+01 0.27583163776E+01 0.27071625973E+01
 0.26704509447E+01 0.26455980768E+01 0.26303799774E+01 0.26231882406E+01 0.26231876016E+01
 0.26303800849E+01 0.26456002169E+01 0.26704501965E+01 0.27071533241E+01 0.27583024038E+01
 0.28265014789E+01 0.29139141853E+01 0.30217461764E+01 0.31497183827E+01 0.32956105406E+01
 0.34549475847E+01 0.36208905585E+01 0.37844099983E+01 0.39348380505E+01 0.40608606580E+01
 0.41519022969E+01 0.41996978105E+01 0.41996971443E+01 0.41519015414E+01 0.40608611845E+01
 0.39348389071E+01 0.37844102841E+01 0.42087756479E+01 0.39515442003E+01 0.37065711768E+01
 0.34825445215E+01 0.32847154195E+01 0.31152478959E+01 0.29739199912E+01 0.28590392296E+01
 0.27683589144E+01 0.26997773115E+01 0.26517131489E+01 0.26231882406E+01 0.26137245256E+01
 0.26231887757E+01 0.26517154570E+01 0.26997765739E+01 0.27683475133E+01 0.28590207048E+01
 0.29739109816E+01 0.31152602070E+01 0.32847412967E+01 0.34825650246E+01 0.37065755876E+01
 0.39515365857E+01 0.42087656937E+01 0.44662326327E+01 0.47092081625E+01 0.49214988577E+01
 0.50871998245E+01 0.51927632831E+01 0.52290315653E+01 0.51927621251E+01 0.50871984436E+01
 0.49214986774E+01 0.47092107077E+01 0.44662392107E+01 0.48112530323E+01 0.44436905512E+01
 0.40992437536E+01 0.37881676685E+01 0.35158234591E+01 0.32835204169E+01 0.30898545227E+01
 0.29322112765E+01 0.28080364121E+01 0.27155735681E+01 0.26540083821E+01 0.26231876016E+01
 0.26231887757E+01 0.26540115828E+01 0.27155737931E+01 0.28080246638E+01 0.29321895490E+01
 0.30898430847E+01 0.32835379230E+01 0.35158624250E+01 0.37881998907E+01 0.40992492282E+01
 0.44436733555E+01 0.48112305657E+01 0.51866455087E+01 0.55503405989E+01 0.58799999013E+01
 0.61528026935E+01 0.63480724266E+01 0.64500044286E+01 0.64500042966E+01 0.63480708120E+01
 0.61527986967E+01 0.58799966391E+01 0.55503441017E+01 0.51866599755E+01 0.53914269275E+01
 0.48986542202E+01 0.44458103179E+01 0.40438184174E+01 0.36970335868E+01 0.34048956423E+01
 0.31641108911E+01 0.29707612594E+01 0.28217885389E+01 0.27155732008E+01 0.26517123193E+01
 0.26303800849E+01 0.26517154570E+01 0.27155737931E+01 0.28217768547E+01 0.29707373420E+01
 0.31640960530E+01 0.34049148647E+01 0.36970824936E+01 0.40438609153E+01 0.44458153384E+01
 0.48986254909E+01 0.53913920857E+01 0.59059787190E+01 0.64176702718E+01 0.68970804282E+01
 0.73129747986E+01 0.76356104205E+01 0.78402415076E+01 0.79103854784E+01 0.78402430915E+01
 0.76356091499E+01 0.73129683465E+01 0.68970731189E+01 0.64176718048E+01 0.59059981388E+01
 0.59064405384E+01 0.52810612397E+01 0.47183100449E+01 0.42282566012E+01 0.38128273756E+01
 0.34685590225E+01 0.31896945689E+01 0.29707615571E+01 0.28080360627E+01 0.26997765728E+01
 0.26455986908E+01 0.26456002169E+01 0.26997765739E+01 0.28080246638E+01 0.29707373420E+01
 0.31896777292E+01 0.34685779265E+01 0.38128822664E+01 0.42283079151E+01 0.47183165397E+01
 0.52810236504E+01 0.59063959328E+01 0.65746620922E+01 0.72565574588E+01 0.79154143245E+01
 0.85105688282E+01 0.90014405400E+01 0.93518813327E+01 0.95345165785E+01 0.95345191011E+01
 0.93518864605E+01 0.90014428791E+01 0.85105640266E+01 0.79154041303E+01 0.72565543090E+01
 0.65746829481E+01 0.63129929043E+01 0.55578026810E+01 0.48927114404E+01 0.43249874045E+01
 0.38526692328E+01 0.34685588232E+01 0.31641114583E+01 0.29322110238E+01 0.27683573676E+01
 0.26704509725E+01 0.26378481498E+01 0.26704501965E+01 0.27683475133E+01 0.29321895490E+01
 0.31640960530E+01 0.34685779265E+01 0.38527269209E+01 0.43250450502E+01 0.48927215183E+01
 0.55577607091E+01 0.63129409387E+01 0.71389211843E+01 0.80036054139E+01 0.88640432139E+01
 0.96701973625E+01 0.10369604268E+02 0.10912434307E+02 0.11256956923E+02 0.11375109740E+02
 0.11256959504E+02 0.10912440439E+02 0.10369611122E+02 0.96701965643E+01 0.88640314206E+01
 0.80035982163E+01 0.71389435676E+01 0.65738246634E+01 0.57031902211E+01 0.49527605461E+01
 0.43249864809E+01 0.38128260470E+01 0.34048956511E+01 0.30898545213E+01 0.28590370546E+01
 0.27071606759E+01 0.26316754518E+01 0.26316743458E+01 0.27071533241E+01 0.28590207048E+01
 0.30898430847E+01 0.34049148647E+01 0.38128822664E+01 0.43250450502E+01 0.49527726923E+01
 0.57031463466E+01 0.65737666266E+01 0.75483441968E+01 0.85947343196E+01 0.96661506317E+01
 0.10704872552E+02 0.11647061036E+02 0.12427999517E+02 0.12988266318E+02 0.13281321422E+02
 0.13281317544E+02 0.12988259771E+02 0.12427999519E+02 0.11647067715E+02 0.10704873119E+02
 0.96661378512E+01 0.85947267438E+01 0.75483708722E+01 0.66637386895E+01 0.57031908178E+01
 0.48927107865E+01 0.42282552149E+01 0.36970333187E+01 0.32835207384E+01 0.29739183686E+01
 0.27583134159E+01 0.26308129506E+01 0.25885808696E+01 0.26308080752E+01 0.27583024038E+01
 0.29739109816E+01 0.32835379230E+01 0.36970824936E+01 0.42283079151E+01 0.48927215183E+01
 0.57031463466E+01 0.66636766985E+01 0.77637652085E+01 0.89746240243E+01 0.10249283208E+02
 0.11525780596E+02 0.12731612843E+02 0.13788289271E+02 0.14617032012E+02 0.15147427174E+02
 0.15329956055E+02 0.15147412085E+02 0.14617012664E+02 0.13788279687E+02 0.12731614690E+02
 0.11525779035E+02 0.10249269916E+02 0.89746191762E+01 0.77637973754E+01 0.65738268624E+01
 0.55578019911E+01 0.47183086376E+01 0.40438188455E+01 0.35158244180E+01 0.31152469781E+01
 0.28265058027E+01 0.26389639338E+01 0.25465196642E+01 0.25465172417E+01 0.26389572125E+01
 0.28265014789E+01 0.31152602070E+01 0.35158624250E+01 0.40438609153E+01 0.47183165397E+01
 0.55577607091E+01 0.65737666266E+01 0.77637652085E+01 0.91056950777E+01 0.10556552743E+02
 0.12054730173E+02 0.13523806199E+02 0.14875685188E+02 0.16011974935E+02 0.16831817665E+02
 0.17260953246E+02 0.17260946313E+02 0.16831797734E+02 0.16011949891E+02 0.14875669552E+02
 0.13523803527E+02 0.12054726206E+02 0.10556539911E+02 0.91056935716E+01 0.77638000172E+01
 0.63129912398E+01 0.52810567856E+01 0.44458099677E+01 0.37881697113E+01 0.32847146181E+01
 0.29139047294E+01 0.26593333159E+01 0.25103553210E+01 0.24612794014E+01 0.25103515996E+01
 0.26593310364E+01 0.29139141853E+01 0.32847412967E+01 0.37881998907E+01 0.44458153384E+01
 0.52810236504E+01 0.63129409387E+01 0.75483441968E+01 0.89746240243E+01 0.10556552743E+02
 0.12237530259E+02 0.13942801246E+02 0.15580954785E+02 0.17034212567E+02 0.18174857665E+02
 0.18902496266E+02 0.19152541216E+02 0.18902492176E+02 0.18174840418E+02 0.17034185803E+02
 0.15580936438E+02 0.13942797857E+02 0.12237527884E+02 0.10556543386E+02 0.89746250885E+01
 0.75483755584E+01 0.59064318561E+01 0.48986496626E+01 0.40992465677E+01 0.34825450877E+01
 0.30217283572E+01 0.26942522532E+01 0.24839943747E+01 0.23811278613E+01 0.23811262385E+01
 0.24839928682E+01 0.26942585216E+01 0.30217461764E+01 0.34825650246E+01 0.40992492282E+01
 0.48986254909E+01 0.59063959328E+01 0.71389211843E+01 0.85947343196E+01 0.10249283208E+02
 0.12054730173E+02 0.13942801246E+02 0.15825410302E+02 0.17574947814E+02 0.19042026829E+02
 0.20100141462E+02 0.20655006282E+02 0.20655010144E+02 0.20100140050E+02 0.19042003505E+02
 0.17574913157E+02 0.15825391261E+02 0.13942804757E+02 0.12054737210E+02 0.10249280811E+02
 0.85947353582E+01 0.71389430732E+01 0.53914165175E+01 0.44436917913E+01 0.37065754823E+01
 0.31497059219E+01 0.27448787224E+01 0.24701294093E+01 0.23107142022E+01 0.22584398914E+01
 0.23107129392E+01 0.24701324806E+01 0.27448897020E+01 0.31497183827E+01 0.37065755876E+01
 0.44436733555E+01 0.53913920857E+01 0.65746620922E+01 0.80036054139E+01 0.96661506317E+01
 0.11525780596E+02 0.13523806199E+02 0.15580954785E+02 0.17574947814E+02 0.19341978959E+02
 0.20732990555E+02 0.21624775802E+02 0.21932329381E+02 0.21624784597E+02 0.20732979961E+02
 0.19341938093E+02 0.17574905676E+02 0.15580945699E+02 0.13523827417E+02 0.11525800268E+02
 0.96661509423E+01 0.80036006135E+01 0.65746728039E+01 0.48112491760E+01 0.39515510116E+01
 0.32956111259E+01 0.28109569393E+01 0.24701276166E+01 0.22531689241E+01 0.21476251977E+01
 0.21476245232E+01 0.22531694974E+01 0.24701330571E+01 0.28109643281E+01 0.32956105406E+01
 0.39515365857E+01 0.48112305657E+01 0.59059787190E+01 0.72565574588E+01 0.88640432139E+01
 0.10704872552E+02 0.12731612843E+02 0.14875685188E+02 0.17034212567E+02 0.19042026829E+02
 0.20732990555E+02 0.21960427990E+02 0.22607614417E+02 0.22607626680E+02 0.21960440814E+02
 0.20732968322E+02 0.19041977987E+02 0.17034183820E+02 0.14875702555E+02 0.12731651146E+02
 0.10704890470E+02 0.88640319991E+01 0.72565425647E+01 0.59059826864E+01 0.42087804259E+01
 0.34549564577E+01 0.28906427596E+01 0.24839906592E+01 0.22101260814E+01 0.20521516621E+01
 0.20005150947E+01 0.20521512499E+01 0.22101275861E+01 0.24839942473E+01 0.28906431988E+01
 0.34549475847E+01 0.42087656937E+01 0.51866455087E+01 0.64176702718E+01 0.79154143245E+01
 0.96701973625E+01 0.11647061036E+02 0.13788289271E+02 0.16011974935E+02 0.18174857665E+02
 0.20100141462E+02 0.21624775802E+02 0.22607614417E+02 0.22947683814E+02 0.22607644201E+02
 0.21624791193E+02 0.20100119094E+02 0.18174829549E+02 0.16011983834E+02 0.13788330706E+02
 0.11647091023E+02 0.96701885529E+01 0.79153836110E+01 0.64176510448E+01 0.51866498511E+01
 0.36208996660E+01 0.29804163798E+01 0.25103527298E+01 0.21818168690E+01 0.19737634708E+01
 0.18729103107E+01 0.18729101431E+01 0.19737632741E+01 0.21818172727E+01 0.25103531063E+01
 0.29804132837E+01 0.36208905585E+01 0.44662326327E+01 0.55503405989E+01 0.68970804282E+01
 0.85105688282E+01 0.10369604268E+02 0.12427999517E+02 0.14617032012E+02 0.16831817665E+02
 0.18902496266E+02 0.20655006282E+02 0.21932329381E+02 0.22607626680E+02 0.22607644201E+02
 0.21932359472E+02 0.20655016082E+02 0.18902492217E+02 0.16831833435E+02 0.14617073934E+02
 0.12428032055E+02 0.10369595172E+02 0.85105282267E+01 0.68970446216E+01 0.55503305609E+01
 0.44662406278E+01 0.30751097693E+01 0.25465192281E+01 0.21671892352E+01 0.19126942322E+01
 0.17663496182E+01 0.17186018059E+01 0.17663497626E+01 0.19126932166E+01 0.21671876973E+01
 0.25465184153E+01 0.30751068077E+01 0.37844099983E+01 0.47092081625E+01 0.58799999013E+01
 0.73129747986E+01 0.90014405400E+01 0.10912434307E+02 0.12988266318E+02 0.15147427174E+02
 0.17260953246E+02 0.19152541216E+02 0.20655010144E+02 0.21624784597E+02 0.21960440814E+02
 0.21624791193E+02 0.20655016082E+02 0.19152552180E+02 0.17260985856E+02 0.15147478256E+02
 0.12988301852E+02 0.10912423800E+02 0.90013936068E+01 0.73129302824E+01 0.58799836503E+01
 0.47092138310E+01 0.37844184239E+01 0.25885809194E+01 0.21640538555E+01 0.18679100065E+01
 0.16807467973E+01 0.15901721718E+01 0.15901729702E+01 0.16807469198E+01 0.18679075407E+01
 0.21640520013E+01 0.25885814775E+01 0.31681125232E+01 0.39348380505E+01 0.49214988577E+01
 0.61528026935E+01 0.76356104205E+01 0.93518813327E+01 0.11256956923E+02 0.13281321422E+02
 0.15329956055E+02 0.17260946313E+02 0.18902492176E+02 0.20100140050E+02 0.20732979961E+02
 0.20732968322E+02 0.20100119094E+02 0.18902492217E+02 0.17260985856E+02 0.15330018654E+02
 0.13281363694E+02 0.11256947274E+02 0.93518311859E+01 0.76355619068E+01 0.61527861428E+01
 0.49215088709E+01 0.39348508823E+01 0.31681160408E+01 0.21692925774E+01 0.18373739910E+01
 0.16147738927E+01 0.14868904964E+01 0.14452000792E+01 0.14868925930E+01 0.16147733360E+01
 0.18373710926E+01 0.21692929083E+01 0.26316753417E+01 0.32518716570E+01 0.40608606580E+01
 0.50871998245E+01 0.63480724266E+01 0.78402415076E+01 0.95345165785E+01 0.11375109740E+02
 0.13281317544E+02 0.15147412085E+02 0.16831797734E+02 0.18174840418E+02 0.19042003505E+02
 0.19341938093E+02 0.19041977987E+02 0.18174829549E+02 0.16831833435E+02 0.15147478256E+02
 0.13281363694E+02 0.11375100648E+02 0.95344642518E+01 0.78401898388E+01 0.63480549150E+01
 0.50872138770E+01 0.40608802234E+01 0.32518785957E+01 0.26316731554E+01 0.18183526600E+01
 0.15662477188E+01 0.14068754916E+01 0.13297860262E+01 0.13297882047E+01 0.14068778953E+01
 0.15662458518E+01 0.18183506449E+01 0.21791805519E+01 0.26704502490E+01 0.33187047884E+01
 0.41519022969E+01 0.51927632831E+01 0.64500044286E+01 0.79103854784E+01 0.95345191011E+01
 0.11256959504E+02 0.12988259771E+02 0.14617012664E+02 0.16011949891E+02 0.17034185803E+02
 0.17574913157E+02 0.17574905676E+02 0.17034183820E+02 0.16011983834E+02 0.14617073934E+02
 0.12988301852E+02 0.11256947274E+02 0.95344642518E+01 0.79103312564E+01 0.64499843174E+01
 0.51927770842E+01 0.41519255928E+01 0.33187160649E+01 0.26704483550E+01 0.21791775461E+01
 0.15325194737E+01 0.13475852446E+01 0.12413157054E+01 0.12066823296E+01 0.12413191191E+01
 0.13475858063E+01 0.15325162379E+01 0.18077852682E+01 0.21898376667E+01 0.26997756760E+01
 0.33619001437E+01 0.41996978105E+01 0.52290315653E+01 0.64500042966E+01 0.78402430915E+01
 0.93518864605E+01 0.10912440439E+02 0.12427999519E+02 0.13788279687E+02 0.14875669552E+02
 0.15580936438E+02 0.15825391261E+02 0.15580945699E+02 0.14875702555E+02 0.13788330706E+02
 0.12428032055E+02 0.10912423800E+02 0.93518311859E+01 0.78401898388E+01 0.64499843174E+01
 0.52290446740E+01 0.41997220981E+01 0.33619147758E+01 0.26997760410E+01 0.21898335037E+01
 0.18077857736E+01 0.13062669160E+01 0.11767643315E+01 0.11141254609E+01 0.11141274160E+01
 0.11767666661E+01 0.13062653248E+01 0.15108756354E+01 0.18027330182E+01 0.21978301543E+01
 0.27155724982E+01 0.33768466843E+01 0.41996971443E+01 0.51927621251E+01 0.63480708120E+01
 0.76356091499E+01 0.90014428791E+01 0.10369611122E+02 0.11647067715E+02 0.12731614690E+02
 0.13523803527E+02 0.13942797857E+02 0.13942804757E+02 0.13523827417E+02 0.12731651146E+02
 0.11647091023E+02 0.10369595172E+02 0.90013936068E+01 0.76355619068E+01 0.63480549150E+01
 0.51927770842E+01 0.41997220981E+01 0.33768628486E+01 0.27155750610E+01 0.21978261918E+01
 0.18027316225E+01 0.15108784320E+01 0.11331833291E+01 0.10485644811E+01 0.10209918913E+01
 0.10485665220E+01 0.11331842150E+01 0.12803754750E+01 0.14989705795E+01 0.18008567846E+01
 0.22007790716E+01 0.27155730415E+01 0.33619000267E+01 0.41519015414E+01 0.50871984436E+01
 0.61527986967E+01 0.73129683465E+01 0.85105640266E+01 0.96701965643E+01 0.10704873119E+02
 0.11525779035E+02 0.12054726206E+02 0.12237527884E+02 0.12054737210E+02 0.11525800268E+02
 0.10704890470E+02 0.96701885529E+01 0.85105282267E+01 0.73129302824E+01 0.61527861428E+01
 0.50872138770E+01 0.41519255928E+01 0.33619147758E+01 0.27155750610E+01 0.22007749208E+01
 0.18008536550E+01 0.14989709068E+01 0.12803767187E+01 0.10068431348E+01 0.95785609308E+00
 0.95785659413E+00 0.10068441844E+01 0.11081207374E+01 0.12679623595E+01 0.14951930362E+01
 0.18008571410E+01 0.21978313212E+01 0.26997768391E+01 0.33187053178E+01 0.40608611845E+01
 0.49214986774E+01 0.58799966391E+01 0.68970731189E+01 0.79154041303E+01 0.88640314206E+01
 0.96661378512E+01 0.10249269916E+02 0.10556539911E+02 0.10556543386E+02 0.10249280811E+02
 0.96661509423E+01 0.88640319991E+01 0.79153836110E+01 0.68970446216E+01 0.58799836503E+01
 0.49215088709E+01 0.40608802234E+01 0.33187160649E+01 0.26997760410E+01 0.21978261918E+01
 0.18008536550E+01 0.14951918357E+01 0.12679618480E+01 0.11081199031E+01 0.92141730453E+00
 0.90017341702E+00 0.92141691913E+00 0.98660972317E+00 0.10999551956E+01 0.12679622829E+01
 0.14989705617E+01 0.18027333402E+01 0.21898382810E+01 0.26704506125E+01 0.32518717673E+01
 0.39348389071E+01 0.47092107077E+01 0.55503441017E+01 0.64176718048E+01 0.72565543090E+01
 0.80035982163E+01 0.85947267438E+01 0.89746191762E+01 0.91056935716E+01 0.89746250885E+01
 0.85947353582E+01 0.80036006135E+01 0.72565425647E+01 0.64176510448E+01 0.55503305609E+01
 0.47092138310E+01 0.39348508823E+01 0.32518785957E+01 0.26704483550E+01 0.21898335037E+01
 0.18027316225E+01 0.14989709068E+01 0.12679618480E+01 0.10999540295E+01 0.98660934705E+00
 0.87221219893E+00 0.87221152433E+00 0.90951973529E+00 0.98660989373E+00 0.11081208345E+01
 0.12803756571E+01 0.15108757321E+01 0.18077849150E+01 0.21791797418E+01 0.26316739329E+01
 0.31681107333E+01 0.37844102841E+01 0.44662392107E+01 0.51866599755E+01 0.59059981388E+01
 0.65746829481E+01 0.71389435676E+01 0.75483708722E+01 0.77637973754E+01 0.77638000172E+01
 0.75483755584E+01 0.71389430732E+01 0.65746728039E+01 0.59059826864E+01 0.51866498511E+01
 0.44662406278E+01 0.37844184239E+01 0.31681160408E+01 0.26316731554E+01 0.21791775461E+01
 0.18077857736E+01 0.15108784320E+01 0.12803767187E+01 0.11081199031E+01 0.98660934705E+00
 0.90952057076E+00 0.87221159839E+00 0.90017342302E+00 0.95785654283E+00 0.10485659918E+01
 0.11767667978E+01 0.13475872523E+01 0.15662476828E+01 0.18373723825E+01 0.21640529636E+01
 0.25465194573E+01 0.29804145306E+01 0.34549502825E+01 0.39515441157E+01 0.44436901543E+01
 0.48986535132E+01 0.52810602518E+01 0.55578015575E+01 0.57031893784E+01 0.57031907366E+01
 0.55578027728E+01 0.52810580330E+01 0.48986507655E+01 0.44436921997E+01 0.39515503800E+01
 0.34549548562E+01 0.29804144107E+01 0.25465177012E+01 0.21640532555E+01 0.18373743217E+01
 0.15662487462E+01 0.13475866592E+01 0.11767657442E+01 0.10485655598E+01 0.95785677940E+00
 0.90017385551E+00 0.87221179730E+00 0.90017342302E+00 0.93602216455E+00 0.99807246283E+00
 0.10895164834E+01 0.12143191766E+01 0.13767503625E+01 0.15808010019E+01 0.18294428777E+01
 0.21236673276E+01 0.24612811130E+01 0.28355740806E+01 0.32341725691E+01 0.36385594523E+01
 0.40247507459E+01 0.43653867812E+01 0.46330663521E+01 0.48043060744E+01 0.48632528814E+01
 0.48043066132E+01 0.46330659425E+01 0.43653860322E+01 0.40247522393E+01 0.36385633674E+01
 0.32341758442E+01 0.28355750482E+01 0.24612818234E+01 0.21236696793E+01 0.18294451929E+01
 0.15808005672E+01 0.13767474655E+01 0.12143164598E+01 0.10895154023E+01 0.99807225186E+00
 0.93602177507E+00 0.90017293166E+00 0.88846149654E+00 0.95785654283E+00 0.99807246283E+00
 0.10611286991E+01 0.11499988065E+01 0.12681305511E+01 0.14189845417E+01 0.16054300279E+01
 0.18289818151E+01 0.20888862631E+01 0.23811292872E+01 0.26975416863E+01 0.30252815924E+01
 0.33470196731E+01 0.36420779261E+01 0.38885550439E+01 0.40661648181E+01 0.41592406685E+01
 0.41592398374E+01 0.40661630755E+01 0.38885540234E+01 0.36420785848E+01 0.33470212060E+01
 0.30252824897E+01 0.26975418824E+01 0.23811301498E+01 0.20888880776E+01 0.18289826513E+01
 0.16054281312E+01 0.14189808586E+01 0.12681276521E+01 0.11499978861E+01 0.10611287931E+01
 0.99807228219E+00 0.95785595853E+00 0.93831621063E+00 0.93831653262E+00 0.10485659918E+01
 0.10895164834E+01 0.11499988065E+01 0.12327812529E+01 0.13408543125E+01 0.14769591190E+01
 0.16429748764E+01 0.18391862312E+01 0.20634971774E+01 0.23107131013E+01 0.25720651795E+01
 0.28351793233E+01 0.30846686076E+01 0.33034346962E+01 0.34746003448E+01 0.35837931582E+01
 0.36213294193E+01 0.35837910332E+01 0.34745986972E+01 0.33034348519E+01 0.30846690384E+01
 0.28351785899E+01 0.25720643085E+01 0.23107136368E+01 0.20634983745E+01 0.18391859864E+01
 0.16429727992E+01 0.14769570324E+01 0.13408537756E+01 0.12327819117E+01 0.11499994498E+01
 0.10895166641E+01 0.10485660365E+01 0.10249414416E+01 0.10172286648E+01 0.10249413468E+01
 0.11767667978E+01 0.12143191766E+01 0.12681305511E+01 0.13408543125E+01 0.14351212582E+01
 0.15530598915E+01 0.16957126053E+01 0.18624007629E+01 0.20501313081E+01 0.22531648273E+01
 0.24628767573E+01 0.26680324350E+01 0.28555559478E+01 0.30117976761E+01 0.31241899352E+01
 0.31830333293E+01 0.31830328584E+01 0.31241896123E+01 0.30117985945E+01 0.28555568745E+01
 0.26680319336E+01 0.24628759317E+01 0.22531654592E+01 0.20501325943E+01 0.18624005697E+01
 0.16957111659E+01 0.15530596057E+01 0.14351230138E+01 0.13408563276E+01 0.12681311154E+01
 0.12143186854E+01 0.11767665553E+01 0.11531636609E+01 0.11418113529E+01 0.11418110961E+01
 0.11531633248E+01 0.13475872523E+01 0.13767503625E+01 0.14189845417E+01 0.14769591190E+01
 0.15530598915E+01 0.16489289667E+01 0.17649642738E+01 0.18998403194E+01 0.20501313053E+01
 0.22101218135E+01 0.23718862748E+01 0.25257055184E+01 0.26608597187E+01 0.27667790649E+01
 0.28344325311E+01 0.28577061492E+01 0.28344338489E+01 0.27667809601E+01 0.26608608094E+01
 0.25257051907E+01 0.23718857608E+01 0.22101224686E+01 0.20501323422E+01 0.18998400701E+01
 0.17649632132E+01 0.16489292309E+01 0.15530618341E+01 0.14769606197E+01 0.14189841027E+01
 0.13767488889E+01 0.13475862409E+01 0.13289361900E+01 0.13186826224E+01 0.13154278122E+01
 0.13186826719E+01 0.13289364908E+01 0.15662476828E+01 0.15808010019E+01 0.16054300279E+01
 0.16429748764E+01 0.16957126053E+01 0.17649642738E+01 0.18507284275E+01 0.19513822465E+01
 0.20634971705E+01 0.21818150616E+01 0.22994355513E+01 0.24082690156E+01 0.24997904282E+01
 0.25660647986E+01 0.26009045824E+01 0.26009054152E+01 0.25660660944E+01 0.24997902704E+01
 0.24082674546E+01 0.22994344552E+01 0.21818153773E+01 0.20634976786E+01 0.19513816821E+01
 0.18507276037E+01 0.17649647555E+01 0.16957140117E+01 0.16429752214E+01 0.16054286124E+01
 0.15807992460E+01 0.15662468061E+01 0.15587650528E+01 0.15555873433E+01 0.15545812041E+01
 0.15545816101E+01 0.15555880195E+01 0.15587655024E+01 0.18373723825E+01 0.18294428777E+01
 0.18289818151E+01 0.18391862312E+01 0.18624007629E+01 0.18998403194E+01 0.19513822465E+01
 0.20154334078E+01 0.20888862654E+01 0.21671888912E+01 0.22445759445E+01 0.23145220117E+01
 0.23704497964E+01 0.24066392241E+01 0.24191686444E+01 0.24066388469E+01 0.23704480276E+01
 0.23145193420E+01 0.22445744277E+01 0.21671891829E+01 0.20888867962E+01 0.20154332247E+01
 0.19513825659E+01 0.18998421278E+01 0.18624026988E+01 0.18391863913E+01 0.18289804701E+01
 0.18294418431E+01 0.18373723638E+01 0.18490777961E+01 0.18608223953E+01 0.18693608767E+01
 0.18724714231E+01 0.18693618181E+01 0.18608231774E+01 0.18490777910E+01 0.21640529636E+01
 0.21236673276E+01 0.20888862631E+01 0.20634971774E+01 0.20501313081E+01 0.20501313053E+01
 0.20634971705E+01 0.20888862654E+01 0.21236673632E+01 0.21640530298E+01 0.22053640197E+01
 0.22424868385E+01 0.22705366013E+01 0.22856375897E+01 0.22856367572E+01 0.22705344269E+01
 0.22424845938E+01 0.22053632981E+01 0.21640537704E+01 0.21236679715E+01 0.20888865429E+01
 0.20634990219E+01 0.20501352623E+01 0.20501346856E+01 0.20634975833E+01 0.20888849462E+01
 0.21236669498E+01 0.21640537463E+01 0.22053642482E+01 0.22424861344E+01 0.22705360459E+01
 0.22856380610E+01 0.22856384253E+01 0.22705370130E+01 0.22424869570E+01 0.22053639869E+01
 0.25465194573E+01 0.24612811130E+01 0.23811292872E+01 0.23107131013E+01 0.22531648273E+01
 0.22101218135E+01 0.21818150616E+01 0.21671888912E+01 0.21640530298E+01 0.21692921841E+01