       N       E                     dE             d eps       ncg     rms          rms(c)
DAV:   1     0.480437158809E+01    0.48044E+01   -0.27532E+03   960   0.589E+02
DAV:   2    -0.108416169152E+02   -0.15646E+02   -0.14968E+02  1520   0.734E+01
DAV:   3    -0.110219412833E+02   -0.18032E+00   -0.18032E+00  1200   0.104E+01
DAV:   4    -0.110227257151E+02   -0.78443E-03   -0.78443E-03  1584   0.739E-01
DAV:   5    -0.110227260099E+02   -0.29485E-06   -0.29448E-06  1208   0.139E-02    0.301E+00
DAV:   6    -0.108980021176E+02    0.12472E+00   -0.82593E-02  1168   0.150E+00    0.178E+00
DAV:   7    -0.108411395969E+02    0.56863E-01   -0.15158E-01  1224   0.216E+00    0.154E-01
DAV:   8    -0.108424603657E+02   -0.13208E-02   -0.41891E-03  1088   0.485E-01    0.250E-02
DAV:   9    -0.108425525332E+02   -0.92167E-04   -0.98297E-05   792   0.816E-02
   1 F= -.10842553E+02 E0= -.10842529E+02  d E =-.108426E+02
       N       E                     dE             d eps       ncg     rms          rms(c)
DAV:   1    -0.108519282890E+02   -0.94679E-02   -0.26265E-01  1184   0.287E+00    0.324E-01
DAV:   2    -0.108474863462E+02    0.44419E-02   -0.37533E-03  1368   0.408E-01    0.186E-01
DAV:   3    -0.108451492520E+02    0.23371E-02   -0.47412E-03  1136   0.347E-01    0.233E-02
DAV:   4    -0.108451387207E+02    0.10531E-04   -0.53923E-05   568   0.674E-02
   2 F= -.10845139E+02 E0= -.10845126E+02  d E =-.258619E-02
       N       E                     dE             d eps       ncg     rms          rms(c)
DAV:   1    -0.108485627431E+02   -0.34135E-02   -0.42262E-02  1160   0.116E+00    0.131E-01
DAV:   2    -0.108478550035E+02    0.70774E-03   -0.59371E-04  1296   0.162E-01    0.750E-02
DAV:   3    -0.108474908571E+02    0.36415E-03   -0.74580E-04   744   0.139E-01
   3 F= -.10847491E+02 E0= -.10847475E+02  d E =-.493832E-02
