<?xml version="1.0" encoding="ISO-8859-1"?>
<modeling>
 <generator>
  <i name="program" type="string">vasp </i>
  <i name="version" type="string">5.4.4.18Apr17-6-g9f103f2a35  </i>
  <i name="subversion" type="string">(build Dec 09 2018 21:25:21) complex            parallel </i>
  <i name="platform" type="string">IFC18.0.1.163_CrayMPICH7.7.0_MKL18.0.1.163 </i>
  <i name="date" type="string">2019 03 20 </i>
  <i name="time" type="string">10:07:42 </i>
 </generator>
 <incar>
  <i type="string" name="PREC">normal</i>
  <i type="int" name="IBRION">     2</i>
  <i name="EDIFF">      0.00040000</i>
  <i name="EDIFFG">     -0.01000000</i>
  <i type="int" name="NSW">    15</i>
  <i type="int" name="ISIF">     3</i>
  <i name="ENCUT">    350.00000000</i>
  <i type="int" name="NBANDS">     8</i>
  <i type="logical" name="LREAL"> F  </i>
  <i type="int" name="ISMEAR">     0</i>
  <i name="SIGMA">      0.20000000</i>
  <v type="int" name="KPOINT_BSE">    -1     0     0     0</v>
 </incar>
 <structure name="primitive_cell" >
  <crystal>
   <varray name="basis" >
    <v>       0.00000000       2.71500000       2.71500000 </v>
    <v>       2.71500000       0.00000000       2.71500000 </v>
    <v>       2.71500000       2.71500000       0.00000000 </v>
   </varray>
   <i name="volume">     40.02575175 </i>
   <varray name="rec_basis" >
    <v>      -0.18416206       0.18416206       0.18416206 </v>
    <v>       0.18416206      -0.18416206       0.18416206 </v>
    <v>       0.18416206       0.18416206      -0.18416206 </v>
   </varray>
  </crystal>
  <varray name="positions" >
   <v>      -0.50000000      -0.50000000      -0.50000000 </v>
   <v>      -0.25000000      -0.25000000      -0.25000000 </v>
  </varray>
 </structure>
 <varray name="primitive_index" >
  <v type="int" >        1 </v>
  <v type="int" >        2 </v>
 </varray>
 <kpoints>
  <generation param="Monkhorst-Pack">
   <v type="int" name="divisions">       8        8        8 </v>
   <v name="usershift">      0.00000000       0.00000000       0.00000000 </v>
   <v name="genvec1">      0.12500000       0.00000000      -0.00000000 </v>
   <v name="genvec2">      0.00000000       0.12500000       0.00000000 </v>
   <v name="genvec3">     -0.00000000      -0.00000000       0.12500000 </v>
   <v name="shift">      0.50000000       0.50000000       0.50000000 </v>
  </generation>
  <varray name="kpointlist" >
   <v>       0.06250000       0.06250000       0.06250000 </v>
   <v>       0.18750000       0.06250000       0.06250000 </v>
   <v>       0.31250000       0.06250000       0.06250000 </v>
   <v>       0.43750000       0.06250000       0.06250000 </v>
   <v>      -0.43750000       0.06250000       0.06250000 </v>
   <v>      -0.31250000       0.06250000       0.06250000 </v>
   <v>      -0.18750000       0.06250000       0.06250000 </v>
   <v>      -0.06250000       0.06250000       0.06250000 </v>
   <v>       0.18750000       0.18750000       0.06250000 </v>
   <v>       0.31250000       0.18750000       0.06250000 </v>
   <v>       0.43750000       0.18750000       0.06250000 </v>
   <v>      -0.43750000       0.18750000       0.06250000 </v>
   <v>      -0.31250000       0.18750000       0.06250000 </v>
   <v>      -0.18750000       0.18750000       0.06250000 </v>
   <v>      -0.06250000       0.18750000       0.06250000 </v>
   <v>       0.31250000       0.31250000       0.06250000 </v>
   <v>       0.43750000       0.31250000       0.06250000 </v>
   <v>      -0.43750000       0.31250000       0.06250000 </v>
   <v>      -0.31250000       0.31250000       0.06250000 </v>
   <v>      -0.18750000       0.31250000       0.06250000 </v>
   <v>      -0.06250000       0.31250000       0.06250000 </v>
   <v>       0.43750000       0.43750000       0.06250000 </v>
   <v>      -0.43750000       0.43750000       0.06250000 </v>
   <v>      -0.31250000       0.43750000       0.06250000 </v>
   <v>      -0.18750000       0.43750000       0.06250000 </v>
   <v>      -0.06250000       0.43750000       0.06250000 </v>
   <v>      -0.43750000      -0.43750000       0.06250000 </v>
   <v>      -0.31250000      -0.43750000       0.06250000 </v>
   <v>      -0.18750000      -0.43750000       0.06250000 </v>
   <v>      -0.31250000      -0.31250000       0.06250000 </v>
   <v>      -0.18750000      -0.31250000       0.06250000 </v>
   <v>      -0.18750000      -0.18750000       0.06250000 </v>
   <v>       0.18750000       0.18750000       0.18750000 </v>
   <v>       0.31250000       0.18750000       0.18750000 </v>
   <v>       0.43750000       0.18750000       0.18750000 </v>
   <v>      -0.43750000       0.18750000       0.18750000 </v>
   <v>      -0.31250000       0.18750000       0.18750000 </v>
   <v>      -0.18750000       0.18750000       0.18750000 </v>
   <v>       0.31250000       0.31250000       0.18750000 </v>
   <v>       0.43750000       0.31250000       0.18750000 </v>
   <v>      -0.43750000       0.31250000       0.18750000 </v>
   <v>      -0.31250000       0.31250000       0.18750000 </v>
   <v>      -0.18750000       0.31250000       0.18750000 </v>
   <v>       0.43750000       0.43750000       0.18750000 </v>
   <v>      -0.43750000       0.43750000       0.18750000 </v>
   <v>      -0.31250000       0.43750000       0.18750000 </v>
   <v>      -0.18750000       0.43750000       0.18750000 </v>
   <v>      -0.43750000      -0.43750000       0.18750000 </v>
   <v>      -0.31250000      -0.43750000       0.18750000 </v>
   <v>      -0.31250000      -0.31250000       0.18750000 </v>
   <v>       0.31250000       0.31250000       0.31250000 </v>
   <v>       0.43750000       0.31250000       0.31250000 </v>
   <v>      -0.43750000       0.31250000       0.31250000 </v>
   <v>      -0.31250000       0.31250000       0.31250000 </v>
   <v>       0.43750000       0.43750000       0.31250000 </v>
   <v>      -0.43750000       0.43750000       0.31250000 </v>
   <v>      -0.31250000       0.43750000       0.31250000 </v>
   <v>      -0.43750000      -0.43750000       0.31250000 </v>
   <v>       0.43750000       0.43750000       0.43750000 </v>
   <v>      -0.43750000       0.43750000       0.43750000 </v>
  </varray>
  <varray name="weights" >
   <v>       0.00390625 </v>
   <v>       0.01171875 </v>
   <v>       0.01171875 </v>
   <v>       0.01171875 </v>
   <v>       0.01171875 </v>
   <v>       0.01171875 </v>
   <v>       0.01171875 </v>
   <v>       0.01171875 </v>
   <v>       0.01171875 </v>
   <v>       0.02343750 </v>
   <v>       0.02343750 </v>
   <v>       0.02343750 </v>
   <v>       0.02343750 </v>
   <v>       0.02343750 </v>
   <v>       0.02343750 </v>
   <v>       0.01171875 </v>
   <v>       0.02343750 </v>
   <v>       0.02343750 </v>
   <v>       0.02343750 </v>
   <v>       0.02343750 </v>
   <v>       0.02343750 </v>
   <v>       0.01171875 </v>
   <v>       0.02343750 </v>
   <v>       0.02343750 </v>
   <v>       0.02343750 </v>
   <v>       0.02343750 </v>
   <v>       0.01171875 </v>
   <v>       0.02343750 </v>
   <v>       0.02343750 </v>
   <v>       0.01171875 </v>
   <v>       0.02343750 </v>
   <v>       0.01171875 </v>
   <v>       0.00390625 </v>
   <v>       0.01171875 </v>
   <v>       0.01171875 </v>
   <v>       0.01171875 </v>
   <v>       0.01171875 </v>
   <v>       0.01171875 </v>
   <v>       0.01171875 </v>
   <v>       0.02343750 </v>
   <v>       0.02343750 </v>
   <v>       0.02343750 </v>
   <v>       0.02343750 </v>
   <v>       0.01171875 </v>
   <v>       0.02343750 </v>
   <v>       0.02343750 </v>
   <v>       0.02343750 </v>
   <v>       0.01171875 </v>
   <v>       0.02343750 </v>
   <v>       0.01171875 </v>
   <v>       0.00390625 </v>
   <v>       0.01171875 </v>
   <v>       0.01171875 </v>
   <v>       0.01171875 </v>
   <v>       0.01171875 </v>
   <v>       0.02343750 </v>
   <v>       0.02343750 </v>
   <v>       0.01171875 </v>
   <v>       0.00390625 </v>
   <v>       0.01171875 </v>
  </varray>
 </kpoints>
 <parameters>
  <separator name="general" >
   <i type="string" name="SYSTEM">unknown system</i>
   <i type="logical" name="LCOMPAT"> F  </i>
  </separator>
  <separator name="electronic" >
   <i type="string" name="PREC">normal</i>
   <i name="ENMAX">    350.00000000</i>
   <i name="ENAUG">    322.06900000</i>
   <i name="EDIFF">      0.00040000</i>
   <i type="int" name="IALGO">    38</i>
   <i type="int" name="IWAVPR">    11</i>
   <i type="int" name="NBANDS">     8</i>
   <i name="NELECT">      8.00000000</i>
   <i type="int" name="TURBO">     0</i>
   <i type="int" name="IRESTART">     0</i>
   <i type="int" name="NREBOOT">     0</i>
   <i type="int" name="NMIN">     0</i>
   <i name="EREF">      0.00000000</i>
   <separator name="electronic smearing" >
    <i type="int" name="ISMEAR">     0</i>
    <i name="SIGMA">      0.20000000</i>
    <i name="KSPACING">      0.50000000</i>
    <i type="logical" name="KGAMMA"> T  </i>
   </separator>
   <separator name="electronic projectors" >
    <i type="logical" name="LREAL"> F  </i>
    <v name="ROPT">      0.00000000</v>
    <i type="int" name="LMAXPAW">  -100</i>
    <i type="int" name="LMAXMIX">     2</i>
    <i type="logical" name="NLSPLINE"> F  </i>
   </separator>
   <separator name="electronic startup" >
    <i type="int" name="ISTART">     0</i>
    <i type="int" name="ICHARG">     2</i>
    <i type="int" name="INIWAV">     1</i>
   </separator>
   <separator name="electronic spin" >
    <i type="int" name="ISPIN">     1</i>
    <i type="logical" name="LNONCOLLINEAR"> F  </i>
    <v name="MAGMOM">      1.00000000      1.00000000</v>
    <i name="NUPDOWN">     -1.00000000</i>
    <i type="logical" name="LSORBIT"> F  </i>
    <v name="SAXIS">      0.00000000      0.00000000      1.00000000</v>
    <i type="logical" name="LSPIRAL"> F  </i>
    <v name="QSPIRAL">      0.00000000      0.00000000      0.00000000</v>
    <i type="logical" name="LZEROZ"> F  </i>
   </separator>
   <separator name="electronic exchange-correlation" >
    <i type="logical" name="LASPH"> F  </i>
    <i type="logical" name="LMETAGGA"> F  </i>
   </separator>
   <separator name="electronic convergence" >
    <i type="int" name="NELM">    60</i>
    <i type="int" name="NELMDL">    -5</i>
    <i type="int" name="NELMIN">     2</i>
    <i name="ENINI">    350.00000000</i>
    <separator name="electronic convergence detail" >
     <i type="logical" name="LDIAG"> T  </i>
     <i type="logical" name="LSUBROT"> F  </i>
     <i name="WEIMIN">      0.00100000</i>
     <i name="EBREAK">      0.00001250</i>
     <i name="DEPER">      0.30000000</i>
     <i type="int" name="NRMM">     4</i>
     <i name="TIME">      0.40000000</i>
    </separator>
   </separator>
   <separator name="electronic mixer" >
    <i name="AMIX">      0.40000000</i>
    <i name="BMIX">      1.00000000</i>
    <i name="AMIN">      0.10000000</i>
    <i name="AMIX_MAG">      1.60000000</i>
    <i name="BMIX_MAG">      1.00000000</i>
    <separator name="electronic mixer details" >
     <i type="int" name="IMIX">     4</i>
     <i type="logical" name="MIXFIRST"> F  </i>
     <i type="int" name="MAXMIX">   -45</i>
     <i name="WC">    100.00000000</i>
     <i type="int" name="INIMIX">     1</i>
     <i type="int" name="MIXPRE">     1</i>
     <i type="int" name="MREMOVE">     5</i>
    </separator>
   </separator>
   <separator name="electronic dipolcorrection" >
    <i type="logical" name="LDIPOL"> F  </i>
    <i type="logical" name="LMONO"> F  </i>
    <i type="int" name="IDIPOL">     0</i>
    <i name="EPSILON">      1.00000000</i>
    <v name="DIPOL">   -100.00000000   -100.00000000   -100.00000000</v>
    <i name="EFIELD">      0.00000000</i>
   </separator>
  </separator>
  <separator name="grids" >
   <i type="int" name="NGX">    18</i>
   <i type="int" name="NGY">    18</i>
   <i type="int" name="NGZ">    18</i>
   <i type="int" name="NGXF">    36</i>
   <i type="int" name="NGYF">    36</i>
   <i type="int" name="NGZF">    36</i>
   <i type="logical" name="ADDGRID"> F  </i>
  </separator>
  <separator name="ionic" >
   <i type="int" name="NSW">    15</i>
   <i type="int" name="IBRION">     2</i>
   <i type="int" name="MDALGO">     0</i>
   <i type="int" name="ISIF">     3</i>
   <i name="PSTRESS">      0.00000000</i>
   <i name="EDIFFG">     -0.01000000</i>
   <i type="int" name="NFREE">     1</i>
   <i name="POTIM">      0.50000000</i>
   <i name="SMASS">     -3.00000000</i>
   <i name="SCALEE">      1.00000000</i>
  </separator>
  <separator name="ionic md" >
   <i name="TEBEG">      0.00010000</i>
   <i name="TEEND">      0.00010000</i>
   <i type="int" name="NBLOCK">     1</i>
   <i type="int" name="KBLOCK">    15</i>
   <i type="int" name="NPACO">   256</i>
   <i name="APACO">     16.00000000</i>
  </separator>
  <separator name="symmetry" >
   <i type="int" name="ISYM">     2</i>
   <i name="SYMPREC">      0.00001000</i>
  </separator>
  <separator name="dos" >
   <i type="int" name="LORBIT">     0</i>
   <v name="RWIGS">     -1.00000000</v>
   <i type="int" name="NEDOS">   301</i>
   <i name="EMIN">     10.00000000</i>
   <i name="EMAX">    -10.00000000</i>
   <i name="EFERMI">      0.00000000</i>
  </separator>
  <separator name="writing" >
   <i type="int" name="NWRITE">     2</i>
   <i type="logical" name="LWAVE"> T  </i>
   <i type="logical" name="LDOWNSAMPLE"> F  </i>
   <i type="logical" name="LCHARG"> T  </i>
   <i type="logical" name="LPARD"> F  </i>
   <i type="logical" name="LVTOT"> F  </i>
   <i type="logical" name="LVHAR"> F  </i>
   <i type="logical" name="LELF"> F  </i>
   <i type="logical" name="LOPTICS"> F  </i>
   <v name="STM">      0.00000000      0.00000000      0.00000000      0.00000000      0.00000000      0.00000000      0.00000000</v>
  </separator>
  <separator name="performance" >
   <i type="int" name="NPAR">     8</i>
   <i type="int" name="NSIM">     4</i>
   <i type="int" name="NBLK">    -1</i>
   <i type="logical" name="LPLANE"> T  </i>
   <i type="logical" name="LSCALAPACK"> T  </i>
   <i type="logical" name="LSCAAWARE"> F  </i>
   <i type="logical" name="LSCALU"> F  </i>
   <i type="logical" name="LASYNC"> F  </i>
   <i type="logical" name="LORBITALREAL"> F  </i>
  </separator>
  <separator name="miscellaneous" >
   <i type="int" name="IDIOT">     3</i>
   <i type="int" name="ISPECIAL">     0</i>
   <i type="logical" name="LMUSIC"> F  </i>
   <v name="POMASS">     28.08500000</v>
   <v name="DARWINR">      0.00000000</v>
   <v name="DARWINV">      1.00000000</v>
   <i type="logical" name="LCORR"> T  </i>
  </separator>
  <i type="logical" name="GGA_COMPAT"> T  </i>
  <i type="logical" name="LBERRY"> F  </i>
  <i type="int" name="ICORELEVEL">     0</i>
  <i type="logical" name="LDAU"> F  </i>
  <i type="int" name="I_CONSTRAINED_M">     0</i>
  <separator name="electronic exchange-correlation" >
   <i type="string" name="GGA">--</i>
   <i type="int" name="VOSKOWN">     0</i>
   <i type="logical" name="LHFCALC"> F  </i>
   <i type="string" name="PRECFOCK"></i>
   <i type="logical" name="LSYMGRAD"> F  </i>
   <i type="logical" name="LHFONE"> F  </i>
   <i type="logical" name="LRHFCALC"> F  </i>
   <i type="logical" name="LTHOMAS"> F  </i>
   <i type="logical" name="LMODELHF"> F  </i>
   <i name="ENCUT4O">     -1.00000000</i>
   <i type="int" name="EXXOEP">     0</i>
   <i type="int" name="FOURORBIT">     0</i>
   <i name="AEXX">      0.00000000</i>
   <i name="HFALPHA">      0.00000000</i>
   <i name="MCALPHA">      0.00000000</i>
   <i name="ALDAX">      1.00000000</i>
   <i name="AGGAX">      1.00000000</i>
   <i name="ALDAC">      1.00000000</i>
   <i name="AGGAC">      1.00000000</i>
   <i type="int" name="NKREDX">     1</i>
   <i type="int" name="NKREDY">     1</i>
   <i type="int" name="NKREDZ">     1</i>
   <i type="logical" name="SHIFTRED"> F  </i>
   <i type="logical" name="ODDONLY"> F  </i>
   <i type="logical" name="EVENONLY"> F  </i>
   <i type="int" name="LMAXFOCK">     0</i>
   <i type="int" name="NMAXFOCKAE">     0</i>
   <i type="logical" name="LFOCKAEDFT"> F  </i>
   <i name="HFSCREEN">      0.00000000</i>
   <i name="HFSCREENC">      0.00000000</i>
   <i type="int" name="NBANDSGWLOW">     0</i>
  </separator>
  <separator name="vdW DFT" >
   <i type="logical" name="LUSE_VDW"> F  </i>
   <i name="Zab_VDW">     -0.84910000</i>
   <i name="PARAM1">      0.12340000</i>
   <i name="PARAM2">      1.00000000</i>
   <i name="PARAM3">      0.00000000</i>
  </separator>
  <separator name="model GW" >
   <i type="int" name="MODEL_GW">     0</i>
   <i name="MODEL_EPS0">     12.00772552</i>
   <i name="MODEL_ALPHA">      1.00000000</i>
  </separator>
  <separator name="linear response parameters" >
   <i type="logical" name="LEPSILON"> F  </i>
   <i type="logical" name="LRPA"> F  </i>
   <i type="logical" name="LNABLA"> F  </i>
   <i type="logical" name="LVEL"> F  </i>
   <i type="int" name="KINTER">     0</i>
   <i name="CSHIFT">      0.10000000</i>
   <i name="OMEGAMAX">     -1.00000000</i>
   <i name="DEG_THRESHOLD">      0.00200000</i>
   <i name="RTIME">     -0.10000000</i>
   <i name="WPLASMAI">      0.00000000</i>
   <v name="DFIELD">      0.00000000      0.00000000      0.00000000</v>
   <v name="WPLASMA">      0.00000000      0.00000000      0.00000000      0.00000000      0.00000000      0.00000000      0.00000000      0.00000000      0.00000000</v>
  </separator>
  <separator name="orbital magnetization" >
   <i type="logical" name="NUCIND"> F  </i>
   <v name="MAGPOS">      0.00000000      0.00000000      0.00000000</v>
   <i type="logical" name="LNICSALL"> T  </i>
   <i type="logical" name="ORBITALMAG"> F  </i>
   <i type="logical" name="LMAGBLOCH"> F  </i>
   <i type="logical" name="LCHIMAG"> F  </i>
   <i type="logical" name="LGAUGE"> T  </i>
   <i type="int" name="MAGATOM">     0</i>
   <v name="MAGDIPOL">      0.00000000      0.00000000      0.00000000</v>
   <v name="AVECCONST">      0.00000000      0.00000000      0.00000000</v>
  </separator>
  <separator name="response functions" >
   <i type="logical" name="LADDER"> F  </i>
   <i type="logical" name="LRPAFORCE"> F  </i>
   <i type="logical" name="LFXC"> F  </i>
   <i type="logical" name="LHARTREE"> T  </i>
   <i type="int" name="IBSE">     0</i>
   <v type="int" name="KPOINT">    -1     0     0     0</v>
   <i type="logical" name="LTCTE"> F  </i>
   <i type="logical" name="LTETE"> F  </i>
   <i type="logical" name="LTRIPLET"> F  </i>
   <i type="logical" name="LFXCEPS"> F  </i>
   <i type="logical" name="LFXHEG"> F  </i>
   <i type="int" name="NATURALO">     2</i>
   <i type="logical" name="L2ORDER"> F  </i>
   <i type="logical" name="LMP2LT"> F  </i>
   <i type="logical" name="LUSEW"> F  </i>
   <i name="ENCUTGW">     -2.00000000</i>
   <i name="ENCUTGWSOFT">     -2.00000000</i>
   <i name="ENCUTLF">     -1.00000000</i>
   <i type="int" name="LMAXMP2">    -1</i>
   <i name="SCISSOR">      0.00000000</i>
   <i type="int" name="NOMEGA">     0</i>
   <i type="int" name="NOMEGAR">     0</i>
   <i type="int" name="NBANDSGW">    -1</i>
   <i type="int" name="NBANDSO">    -1</i>
   <i type="int" name="NBANDSV">    -1</i>
   <i type="int" name="NELM">     1</i>
   <i type="int" name="NELMHF">     1</i>
   <i type="int" name="DIM">     3</i>
   <i type="int" name="ANTIRES">     0</i>
   <i name="OMEGAMAX">    -30.00000000</i>
   <i name="OMEGAMIN">    -30.00000000</i>
   <i name="OMEGATL">   -200.00000000</i>
   <i type="int" name="OMEGAGRID">   140</i>
   <i name="CSHIFT">     -0.10000000</i>
   <i type="logical" name="SELFENERGY"> F  </i>
   <i type="logical" name="LSPECTRAL"> F  </i>
   <i type="logical" name="LSPECTRALGW"> F  </i>
   <i type="logical" name="LSINGLES"> F  </i>
   <i type="logical" name="LFERMIGW"> F  </i>
   <i type="logical" name="ODDONLYGW"> F  </i>
   <i type="logical" name="EVENONLYGW"> F  </i>
   <i type="int" name="NKREDLFX">     1</i>
   <i type="int" name="NKREDLFY">     1</i>
   <i type="int" name="NKREDLFZ">     1</i>
   <i type="int" name="MAXMEM">  2800</i>
   <i type="int" name="TELESCOPE">     0</i>
   <i type="int" name="TAUPAR">     1</i>
   <i type="int" name="OMEGAPAR">    -1</i>
   <i name="LAMBDA">      1.00000000</i>
  </separator>
  <separator name="External order field" >
   <i name="OFIELD_KAPPA">      0.00000000</i>
   <v name="OFIELD_K">      0.00000000      0.00000000      0.00000000</v>
   <i name="OFIELD_Q6_NEAR">      0.00000000</i>
   <i name="OFIELD_Q6_FAR">      0.00000000</i>
   <i name="OFIELD_A">      0.00000000</i>
  </separator>
 </parameters>
 <atominfo>
  <atoms>       2 </atoms>
  <types>       1 </types>
  <array name="atoms" >
   <dimension dim="1">ion</dimension>
   <field type="string">element</field>
   <field type="int">atomtype</field>
   <set>
    <rc><c>Si</c><c>   1</c></rc>
    <rc><c>Si</c><c>   1</c></rc>
   </set>
  </array>
  <array name="atomtypes" >
   <dimension dim="1">type</dimension>
   <field type="int">atomspertype</field>
   <field type="string">element</field>
   <field>mass</field>
   <field>valence</field>
   <field type="string">pseudopotential</field>
   <set>
    <rc><c>   2</c><c>Si</c><c>     28.08500000</c><c>      4.00000000</c><c> PAW_PBE Si 05Jan2001                   </c></rc>
   </set>
  </array>
 </atominfo>
 <structure name="initialpos" >
  <crystal>
   <varray name="basis" >
    <v>       0.00000000       2.71500000       2.71500000 </v>
    <v>       2.71500000       0.00000000       2.71500000 </v>
    <v>       2.71500000       2.71500000       0.00000000 </v>
   </varray>
   <i name="volume">     40.02575175 </i>
   <varray name="rec_basis" >
    <v>      -0.18416206       0.18416206       0.18416206 </v>
    <v>       0.18416206      -0.18416206       0.18416206 </v>
    <v>       0.18416206       0.18416206      -0.18416206 </v>
   </varray>
  </crystal>
  <varray name="positions" >
   <v>       0.50000000       0.50000000       0.50000000 </v>
   <v>       0.75000000       0.75000000       0.75000000 </v>
  </varray>
 </structure>
 <calculation>
  <scstep>
   <time name="dav">    0.58    0.58</time>
   <time name="total">    0.61    0.64</time>
   <energy>
    <i name="alphaZ">      3.36414203 </i>
    <i name="ewald">   -228.56352493 </i>
    <i name="hartreedc">    -11.00108243 </i>
    <i name="XCdc">    -18.60185131 </i>
    <i name="pawpsdc">     65.95520812 </i>
    <i name="pawaedc">    -30.76852678 </i>
    <i name="eentropy">     -0.01280114 </i>
    <i name="bandstr">     18.30155389 </i>
    <i name="atom">    206.13125414 </i>
    <i name="e_fr_energy">      4.80437159 </i>
    <i name="e_wo_entrp">      4.81717272 </i>
    <i name="e_0_energy">      4.81077216 </i>
   </energy>
  </scstep>
  <scstep>
   <time name="dav">    0.91    0.92</time>
   <time name="total">    0.92    0.92</time>
   <energy>
    <i name="e_fr_energy">    -10.84161692 </i>
    <i name="e_wo_entrp">    -10.84161540 </i>
    <i name="e_0_energy">    -10.84161616 </i>
   </energy>
  </scstep>
  <scstep>
   <time name="dav">    0.72    0.73</time>
   <time name="total">    0.73    0.74</time>
   <energy>
    <i name="e_fr_energy">    -11.02194128 </i>
    <i name="e_wo_entrp">    -11.02194009 </i>
    <i name="e_0_energy">    -11.02194069 </i>
   </energy>
  </scstep>
  <scstep>
   <time name="dav">    0.96    0.97</time>
   <time name="total">    0.96    0.98</time>
   <energy>
    <i name="e_fr_energy">    -11.02272572 </i>
    <i name="e_wo_entrp">    -11.02272453 </i>
    <i name="e_0_energy">    -11.02272512 </i>
   </energy>
  </scstep>
  <scstep>
   <time name="dav">    0.72    0.75</time>
   <time name="total">    0.78    0.80</time>
   <energy>
    <i name="e_fr_energy">    -11.02272601 </i>
    <i name="e_wo_entrp">    -11.02272482 </i>
    <i name="e_0_energy">    -11.02272542 </i>
   </energy>
  </scstep>
  <scstep>
   <time name="dav">    0.70    0.70</time>
   <time name="total">    0.78    0.79</time>
   <energy>
    <i name="e_fr_energy">    -10.89800212 </i>
    <i name="e_wo_entrp">    -10.89799424 </i>
    <i name="e_0_energy">    -10.89799818 </i>
   </energy>
  </scstep>
  <scstep>
   <time name="dav">    0.72    0.73</time>
   <time name="total">    0.81    0.82</time>
   <energy>
    <i name="e_fr_energy">    -10.84113960 </i>
    <i name="e_wo_entrp">    -10.84107795 </i>
    <i name="e_0_energy">    -10.84110877 </i>
   </energy>
  </scstep>
  <scstep>
   <time name="dav">    0.65    0.65</time>
   <time name="total">    0.72    0.74</time>
   <energy>
    <i name="e_fr_energy">    -10.84246037 </i>
    <i name="e_wo_entrp">    -10.84241207 </i>
    <i name="e_0_energy">    -10.84243622 </i>
   </energy>
  </scstep>
  <scstep>
   <time name="dav">    0.51    0.51</time>
   <time name="total">    0.54    0.55</time>
   <energy>
    <i name="alphaZ">      3.36414203 </i>
    <i name="ewald">   -228.56352493 </i>
    <i name="hartreedc">    -14.90645638 </i>
    <i name="XCdc">    -17.96096533 </i>
    <i name="pawpsdc">     74.36732754 </i>
    <i name="pawaedc">    -39.40510746 </i>
    <i name="eentropy">     -0.00004795 </i>
    <i name="bandstr">      6.13082580 </i>
    <i name="atom">    206.13125414 </i>
    <i name="e_fr_energy">    -10.84255253 </i>
    <i name="e_wo_entrp">    -10.84250458 </i>
    <i name="e_0_energy">    -10.84252856 </i>
   </energy>
  </scstep>
  <structure>
   <crystal>
    <varray name="basis" >
     <v>       0.00000000       2.71500000       2.71500000 </v>
     <v>       2.71500000       0.00000000       2.71500000 </v>
     <v>       2.71500000       2.71500000       0.00000000 </v>
    </varray>
    <i name="volume">     40.02575175 </i>
    <varray name="rec_basis" >
     <v>      -0.18416206       0.18416206       0.18416206 </v>
     <v>       0.18416206      -0.18416206       0.18416206 </v>
     <v>       0.18416206       0.18416206      -0.18416206 </v>
    </varray>
   </crystal>
   <varray name="positions" >
    <v>       0.50000000       0.50000000       0.50000000 </v>
    <v>       0.75000000       0.75000000       0.75000000 </v>
   </varray>
  </structure>
  <varray name="forces" >
   <v>       0.00000000       0.00000000       0.00000000 </v>
   <v>      -0.00000000      -0.00000000      -0.00000000 </v>
  </varray>
  <varray name="stress" >
   <v>      19.54235065       0.00000000      -0.00000000 </v>
   <v>       0.00000000      19.54235065      -0.00000000 </v>
   <v>      -0.00000000       0.00000000      19.54235065 </v>
  </varray>
  <energy>
   <i name="e_fr_energy">    -10.84255253 </i>
   <i name="e_wo_entrp">    -10.84252856 </i>
   <i name="e_0_energy">     -0.00004795 </i>
  </energy>
  <time name="totalsc">    8.14    9.23</time>
 </calculation>
 <calculation>
  <scstep>
   <time name="dav">    0.70    0.70</time>
   <time name="total">    0.78    0.79</time>
   <energy>
    <i name="alphaZ">      3.24803637 </i>
    <i name="ewald">   -225.90323262 </i>
    <i name="hartreedc">    -14.74511699 </i>
    <i name="XCdc">    -18.13264322 </i>
    <i name="pawpsdc">     74.36589462 </i>
    <i name="pawaedc">    -39.40465951 </i>
    <i name="eentropy">     -0.00001404 </i>
    <i name="bandstr">      3.58855296 </i>
    <i name="atom">    206.13125414 </i>
    <i name="e_fr_energy">    -10.85192829 </i>
    <i name="e_wo_entrp">    -10.85191425 </i>
    <i name="e_0_energy">    -10.85192127 </i>
   </energy>
  </scstep>
  <scstep>
   <time name="dav">    0.81    0.81</time>
   <time name="total">    0.89    0.90</time>
   <energy>
    <i name="e_fr_energy">    -10.84748635 </i>
    <i name="e_wo_entrp">    -10.84746772 </i>
    <i name="e_0_energy">    -10.84747703 </i>
   </energy>
  </scstep>
  <scstep>
   <time name="dav">    0.67    0.67</time>
   <time name="total">    0.75    0.76</time>
   <energy>
    <i name="e_fr_energy">    -10.84514925 </i>
    <i name="e_wo_entrp">    -10.84512292 </i>
    <i name="e_0_energy">    -10.84513608 </i>
   </energy>
  </scstep>
  <scstep>
   <time name="dav">    0.40    0.39</time>
   <time name="total">    0.43    0.43</time>
   <energy>
    <i name="alphaZ">      3.24803637 </i>
    <i name="ewald">   -225.90323262 </i>
    <i name="hartreedc">    -15.33274828 </i>
    <i name="XCdc">    -18.12063242 </i>
    <i name="pawpsdc">     73.28615395 </i>
    <i name="pawaedc">    -38.29557198 </i>
    <i name="eentropy">     -0.00002582 </i>
    <i name="bandstr">      4.14162793 </i>
    <i name="atom">    206.13125414 </i>
    <i name="e_fr_energy">    -10.84513872 </i>
    <i name="e_wo_entrp">    -10.84511290 </i>
    <i name="e_0_energy">    -10.84512581 </i>
   </energy>
  </scstep>
  <structure>
   <crystal>
    <varray name="basis" >
     <v>      -0.00000000       2.74697251       2.74697251 </v>
     <v>       2.74697251       0.00000000       2.74697251 </v>
     <v>       2.74697251       2.74697251      -0.00000000 </v>
    </varray>
    <i name="volume">     41.45652887 </i>
    <varray name="rec_basis" >
     <v>      -0.18201857       0.18201857       0.18201857 </v>
     <v>       0.18201857      -0.18201857       0.18201857 </v>
     <v>       0.18201857       0.18201857      -0.18201857 </v>
    </varray>
   </crystal>
   <varray name="positions" >
    <v>       0.50000000       0.50000000       0.50000000 </v>
    <v>       0.75000000       0.75000000       0.75000000 </v>
   </varray>
  </structure>
  <varray name="forces" >
   <v>       0.00000000      -0.00000000       0.00000000 </v>
   <v>      -0.00000000       0.00000000      -0.00000000 </v>
  </varray>
  <varray name="stress" >
   <v>     -12.38209585       0.00000000      -0.00000000 </v>
   <v>      -0.00000000     -12.38209585       0.00000000 </v>
   <v>      -0.00000000       0.00000000     -12.38209585 </v>
  </varray>
  <energy>
   <i name="e_fr_energy">    -10.84513872 </i>
   <i name="e_wo_entrp">    -10.84512581 </i>
   <i name="e_0_energy">     -0.00002582 </i>
  </energy>
  <time name="totalsc">    3.36    3.55</time>
 </calculation>
 <calculation>
  <scstep>
   <time name="dav">    0.68    0.68</time>
   <time name="total">    0.76    0.77</time>
   <energy>
    <i name="alphaZ">      3.29339156 </i>
    <i name="ewald">   -226.94987109 </i>
    <i name="hartreedc">    -15.40672850 </i>
    <i name="XCdc">    -18.05413845 </i>
    <i name="pawpsdc">     73.24409008 </i>
    <i name="pawaedc">    -38.25167763 </i>
    <i name="eentropy">     -0.00004103 </i>
    <i name="bandstr">      5.14515817 </i>
    <i name="atom">    206.13125414 </i>
    <i name="e_fr_energy">    -10.84856274 </i>
    <i name="e_wo_entrp">    -10.84852171 </i>
    <i name="e_0_energy">    -10.84854223 </i>
   </energy>
  </scstep>
  <scstep>
   <time name="dav">    0.77    0.77</time>
   <time name="total">    0.85    0.86</time>
   <energy>
    <i name="e_fr_energy">    -10.84785500 </i>
    <i name="e_wo_entrp">    -10.84781804 </i>
    <i name="e_0_energy">    -10.84783652 </i>
   </energy>
  </scstep>
  <scstep>
   <time name="dav">    0.47    0.47</time>
   <time name="total">    0.50    0.51</time>
   <energy>
    <i name="alphaZ">      3.29339156 </i>
    <i name="ewald">   -226.94987109 </i>
    <i name="hartreedc">    -15.16797347 </i>
    <i name="XCdc">    -18.05978497 </i>
    <i name="pawpsdc">     73.61123811 </i>
    <i name="pawaedc">    -38.62789630 </i>
    <i name="eentropy">     -0.00003234 </i>
    <i name="bandstr">      4.92218350 </i>
    <i name="atom">    206.13125414 </i>
    <i name="e_fr_energy">    -10.84749086 </i>
    <i name="e_wo_entrp">    -10.84745851 </i>
    <i name="e_0_energy">    -10.84747469 </i>
   </energy>
  </scstep>
  <structure>
   <crystal>
    <varray name="basis" >
     <v>      -0.00000000       2.73430413       2.73430413 </v>
     <v>       2.73430413       0.00000000       2.73430413 </v>
     <v>       2.73430413       2.73430413      -0.00000000 </v>
    </varray>
    <i name="volume">     40.88560718 </i>
    <varray name="rec_basis" >
     <v>      -0.18286188       0.18286188       0.18286188 </v>
     <v>       0.18286188      -0.18286188       0.18286188 </v>
     <v>       0.18286188       0.18286188      -0.18286188 </v>
    </varray>
   </crystal>
   <varray name="positions" >
    <v>       0.50000000       0.50000000       0.50000000 </v>
    <v>       0.75000000       0.75000000       0.75000000 </v>
   </varray>
  </structure>
  <varray name="forces" >
   <v>      -0.00000000      -0.00000000       0.00000000 </v>
   <v>       0.00000000       0.00000000      -0.00000000 </v>
  </varray>
  <varray name="stress" >
   <v>      -0.54938050       0.00000000       0.00000000 </v>
   <v>       0.00000000      -0.54938050       0.00000000 </v>
   <v>       0.00000000      -0.00000000      -0.54938050 </v>
  </varray>
  <energy>
   <i name="e_fr_energy">    -10.84749086 </i>
   <i name="e_wo_entrp">    -10.84747469 </i>
   <i name="e_0_energy">     -0.00003234 </i>
  </energy>
  <time name="totalsc">    2.68    3.05</time>
  <eigenvalues>
   <array>
    <dimension dim="1">band</dimension>
    <dimension dim="2">kpoint</dimension>
    <dimension dim="3">spin</dimension>
    <field>eigene</field>
    <field>occ</field>
    <set>
     <set comment="spin 1">
      <set comment="kpoint 1">
       <r>   -6.1485    1.0000 </r>
       <r>    5.0859    1.0000 </r>
       <r>    5.5345    0.9980 </r>
       <r>    5.5345    0.9980 </r>
       <r>    8.2145    0.0000 </r>
       <r>    8.2962    0.0000 </r>
       <r>    8.2962    0.0000 </r>
       <r>    9.1570    0.0000 </r>
      </set>
      <set comment="kpoint 2">
       <r>   -5.8822    1.0000 </r>
       <r>    3.5860    1.0000 </r>
       <r>    4.7335    1.0000 </r>
       <r>    5.4176    0.9999 </r>
       <r>    8.2671    0.0000 </r>
       <r>    8.5393    0.0000 </r>
       <r>    8.8287    0.0000 </r>
       <r>   10.6260    0.0000 </r>
      </set>
      <set comment="kpoint 3">
       <r>   -5.2396    1.0000 </r>
       <r>    1.3735    1.0000 </r>
       <r>    4.2484    1.0000 </r>
       <r>    4.9586    1.0000 </r>
       <r>    7.8206    0.0000 </r>
       <r>    9.0289    0.0000 </r>
       <r>    9.3132    0.0000 </r>
       <r>   12.1628    0.0000 </r>
      </set>
      <set comment="kpoint 4">
       <r>   -4.3437    1.0000 </r>
       <r>   -0.5009    1.0000 </r>
       <r>    4.0332    1.0000 </r>
       <r>    4.5543    1.0000 </r>
       <r>    7.5066    0.0000 </r>
       <r>    9.0908    0.0000 </r>
       <r>    9.1044    0.0000 </r>
       <r>   13.4056    0.0000 </r>
      </set>
      <set comment="kpoint 5">
       <r>   -3.8990    1.0000 </r>
       <r>   -1.1962    1.0000 </r>
       <r>    4.0825    1.0000 </r>
       <r>    4.3376    1.0000 </r>
       <r>    7.4267    0.0000 </r>
       <r>    8.8982    0.0000 </r>
       <r>    9.1671    0.0000 </r>
       <r>   13.4776    0.0000 </r>
      </set>
      <set comment="kpoint 6">
       <r>   -4.6504    1.0000 </r>
       <r>    0.0532    1.0000 </r>
       <r>    4.3581    1.0000 </r>
       <r>    4.3672    1.0000 </r>
       <r>    7.5927    0.0000 </r>
       <r>    8.9054    0.0000 </r>
       <r>    9.4243    0.0000 </r>
       <r>   12.5241    0.0000 </r>
      </set>
      <set comment="kpoint 7">
       <r>   -5.4915    1.0000 </r>
       <r>    2.0990    1.0000 </r>
       <r>    4.6325    1.0000 </r>
       <r>    4.8289    1.0000 </r>
       <r>    7.9476    0.0000 </r>
       <r>    8.7687    0.0000 </r>
       <r>    9.4819    0.0000 </r>
       <r>   11.3423    0.0000 </r>
      </set>
      <set comment="kpoint 8">
       <r>   -6.0147    1.0000 </r>
       <r>    4.3362    1.0000 </r>
       <r>    5.1111    1.0000 </r>
       <r>    5.2688    1.0000 </r>
       <r>    8.0114    0.0000 </r>
       <r>    8.5816    0.0000 </r>
       <r>    8.8726    0.0000 </r>
       <r>    9.8940    0.0000 </r>
      </set>
      <set comment="kpoint 9">
       <r>   -5.7482    1.0000 </r>
       <r>    3.4441    1.0000 </r>
       <r>    4.5571    1.0000 </r>
       <r>    4.6398    1.0000 </r>
       <r>    7.5928    0.0000 </r>
       <r>    9.3371    0.0000 </r>
       <r>    9.7265    0.0000 </r>
       <r>   10.2401    0.0000 </r>
      </set>
      <set comment="kpoint 10">
       <r>   -5.2271    1.0000 </r>
       <r>    1.9504    1.0000 </r>
       <r>    3.5933    1.0000 </r>
       <r>    4.3828    1.0000 </r>
       <r>    7.7605    0.0000 </r>
       <r>    9.4473    0.0000 </r>
       <r>   10.0629    0.0000 </r>
       <r>   10.5189    0.0000 </r>
      </set>
      <set comment="kpoint 11">
       <r>   -4.3879    1.0000 </r>
       <r>    0.1043    1.0000 </r>
       <r>    3.1005    1.0000 </r>
       <r>    3.9751    1.0000 </r>
       <r>    7.9536    0.0000 </r>
       <r>    9.3737    0.0000 </r>
       <r>   10.5468    0.0000 </r>
       <r>   10.8121    0.0000 </r>
      </set>
      <set comment="kpoint 12">
       <r>   -3.6321    1.0000 </r>
       <r>   -1.0963    1.0000 </r>
       <r>    2.8132    1.0000 </r>
       <r>    3.8827    1.0000 </r>
       <r>    8.0230    0.0000 </r>
       <r>    9.0686    0.0000 </r>
       <r>   10.3927    0.0000 </r>
       <r>   12.8270    0.0000 </r>
      </set>
      <set comment="kpoint 13">
       <r>   -4.0864    1.0000 </r>
       <r>   -0.4114    1.0000 </r>
       <r>    2.7406    1.0000 </r>
       <r>    4.1656    1.0000 </r>
       <r>    8.3022    0.0000 </r>
       <r>    8.9814    0.0000 </r>
       <r>   10.3387    0.0000 </r>
       <r>   12.0798    0.0000 </r>
      </set>
      <set comment="kpoint 14">
       <r>   -4.9808    1.0000 </r>
       <r>    1.3046    1.0000 </r>
       <r>    3.0411    1.0000 </r>
       <r>    4.6699    1.0000 </r>
       <r>    8.6133    0.0000 </r>
       <r>    8.9175    0.0000 </r>
       <r>   10.2171    0.0000 </r>
       <r>   10.6886    0.0000 </r>
      </set>
      <set comment="kpoint 15">
       <r>   -5.6187    1.0000 </r>
       <r>    2.7729    1.0000 </r>
       <r>    4.1602    1.0000 </r>
       <r>    5.0408    1.0000 </r>
       <r>    8.1543    0.0000 </r>
       <r>    8.8180    0.0000 </r>
       <r>    9.5395    0.0000 </r>
       <r>   10.7645    0.0000 </r>
      </set>
      <set comment="kpoint 16">
       <r>   -4.8292    1.0000 </r>
       <r>    1.4476    1.0000 </r>
       <r>    3.4527    1.0000 </r>
       <r>    3.5737    1.0000 </r>
       <r>    6.7863    0.0000 </r>
       <r>    8.4382    0.0000 </r>
       <r>   11.5791    0.0000 </r>
       <r>   11.7218    0.0000 </r>
      </set>
      <set comment="kpoint 17">
       <r>   -4.0824    1.0000 </r>
       <r>    0.2178    1.0000 </r>
       <r>    2.6709    1.0000 </r>
       <r>    3.2292    1.0000 </r>
       <r>    7.0988    0.0000 </r>
       <r>    8.2775    0.0000 </r>
       <r>   11.5408    0.0000 </r>
       <r>   12.7096    0.0000 </r>
      </set>
      <set comment="kpoint 18">
       <r>   -3.1907    1.0000 </r>
       <r>   -0.9715    1.0000 </r>
       <r>    1.8362    1.0000 </r>
       <r>    3.1979    1.0000 </r>
       <r>    7.3328    0.0000 </r>
       <r>    9.9306    0.0000 </r>
       <r>   11.1172    0.0000 </r>
       <r>   12.6236    0.0000 </r>
      </set>
      <set comment="kpoint 19">
       <r>   -3.2617    1.0000 </r>
       <r>   -0.8781    1.0000 </r>
       <r>    1.4857    1.0000 </r>
       <r>    3.5399    1.0000 </r>
       <r>    7.7333    0.0000 </r>
       <r>   10.6597    0.0000 </r>
       <r>   11.9607    0.0000 </r>
       <r>   12.2464    0.0000 </r>
      </set>
      <set comment="kpoint 20">
       <r>   -4.1518    1.0000 </r>
       <r>    0.0693    1.0000 </r>
       <r>    2.0857    1.0000 </r>
       <r>    4.1215    1.0000 </r>
       <r>    8.3618    0.0000 </r>
       <r>    9.5603    0.0000 </r>
       <r>   10.9861    0.0000 </r>
       <r>   11.2570    0.0000 </r>
      </set>
      <set comment="kpoint 21">
       <r>   -4.8684    1.0000 </r>
       <r>    0.7041    1.0000 </r>
       <r>    3.7082    1.0000 </r>
       <r>    4.5714    1.0000 </r>
       <r>    8.0793    0.0000 </r>
       <r>    8.9320    0.0000 </r>
       <r>    9.7834    0.0000 </r>
       <r>   11.4611    0.0000 </r>
      </set>
      <set comment="kpoint 22">
       <r>   -3.4330    1.0000 </r>
       <r>   -0.6400    1.0000 </r>
       <r>    2.7686    1.0000 </r>
       <r>    2.9843    1.0000 </r>
       <r>    6.3938    0.0007 </r>
       <r>    7.1010    0.0000 </r>
       <r>   13.8662    0.0000 </r>
       <r>   13.8734    0.0000 </r>
      </set>
      <set comment="kpoint 23">
       <r>   -2.5289    1.0000 </r>
       <r>   -1.6234    1.0000 </r>
       <r>    2.2144    1.0000 </r>
       <r>    2.7423    1.0000 </r>
       <r>    6.8231    0.0000 </r>
       <r>    7.5489    0.0000 </r>
       <r>   13.6155    0.0000 </r>
       <r>   14.6326    0.0000 </r>
      </set>
      <set comment="kpoint 24">
       <r>   -2.6257    1.0000 </r>
       <r>   -1.4585    1.0000 </r>
       <r>    1.4898    1.0000 </r>
       <r>    3.0553    1.0000 </r>
       <r>    7.1859    0.0000 </r>
       <r>    9.7755    0.0000 </r>
       <r>   12.0955    0.0000 </r>
       <r>   13.2387    0.0000 </r>
      </set>
      <set comment="kpoint 25">
       <r>   -3.3778    1.0000 </r>
       <r>   -1.0518    1.0000 </r>
       <r>    2.0380    1.0000 </r>
       <r>    3.6527    1.0000 </r>
       <r>    7.8531    0.0000 </r>
       <r>    9.8109    0.0000 </r>
       <r>   11.3454    0.0000 </r>
       <r>   12.5800    0.0000 </r>
      </set>
      <set comment="kpoint 26">
       <r>   -3.9828    1.0000 </r>
       <r>   -0.9016    1.0000 </r>
       <r>    3.5345    1.0000 </r>
       <r>    4.2378    1.0000 </r>
       <r>    7.8792    0.0000 </r>
       <r>    8.8314    0.0000 </r>
       <r>    9.6046    0.0000 </r>
       <r>   13.1458    0.0000 </r>
      </set>
      <set comment="kpoint 27">
       <r>   -2.5799    1.0000 </r>
       <r>   -1.6408    1.0000 </r>
       <r>    2.6317    1.0000 </r>
       <r>    2.8639    1.0000 </r>
       <r>    6.3897    0.0008 </r>
       <r>    6.7479    0.0000 </r>
       <r>   14.9393    0.0000 </r>
       <r>   15.0114    0.0000 </r>
      </set>
      <set comment="kpoint 28">
       <r>   -3.3480    1.0000 </r>
       <r>   -0.7034    1.0000 </r>
       <r>    2.3708    1.0000 </r>
       <r>    2.9009    1.0000 </r>
       <r>    6.9106    0.0000 </r>
       <r>    7.7986    0.0000 </r>
       <r>   12.5504    0.0000 </r>
       <r>   13.8667    0.0000 </r>
      </set>
      <set comment="kpoint 29">
       <r>   -3.8164    1.0000 </r>
       <r>   -0.4426    1.0000 </r>
       <r>    2.4312    1.0000 </r>
       <r>    3.4962    1.0000 </r>
       <r>    7.6088    0.0000 </r>
       <r>   10.1149    0.0000 </r>
       <r>   10.3388    0.0000 </r>
       <r>   11.5562    0.0000 </r>
      </set>
      <set comment="kpoint 30">
       <r>   -4.1867    1.0000 </r>
       <r>    0.3994    1.0000 </r>
       <r>    3.0424    1.0000 </r>
       <r>    3.2228    1.0000 </r>
       <r>    6.5245    0.0000 </r>
       <r>    7.6757    0.0000 </r>
       <r>   12.7060    0.0000 </r>
       <r>   12.7833    0.0000 </r>
      </set>
      <set comment="kpoint 31">
       <r>   -4.7125    1.0000 </r>
       <r>    1.1048    1.0000 </r>
       <r>    3.0880    1.0000 </r>
       <r>    3.7354    1.0000 </r>
       <r>    7.3887    0.0000 </r>
       <r>    8.9518    0.0000 </r>
       <r>   10.6003    0.0000 </r>
       <r>   11.5837    0.0000 </r>
      </set>
      <set comment="kpoint 32">
       <r>   -5.3516    1.0000 </r>
       <r>    2.4727    1.0000 </r>
       <r>    3.9946    1.0000 </r>
       <r>    4.0261    1.0000 </r>
       <r>    7.1568    0.0000 </r>
       <r>    9.2995    0.0000 </r>
       <r>   10.5340    0.0000 </r>
       <r>   10.6963    0.0000 </r>
      </set>
      <set comment="kpoint 33">
       <r>   -5.7514    1.0000 </r>
       <r>    2.8659    1.0000 </r>
       <r>    5.0963    1.0000 </r>
       <r>    5.0963    1.0000 </r>
       <r>    7.8207    0.0000 </r>
       <r>    8.9101    0.0000 </r>
       <r>    8.9101    0.0000 </r>
       <r>   11.2719    0.0000 </r>
      </set>
      <set comment="kpoint 34">
       <r>   -5.3615    1.0000 </r>
       <r>    2.0295    1.0000 </r>
       <r>    3.5909    1.0000 </r>
       <r>    5.1149    1.0000 </r>
       <r>    8.4736    0.0000 </r>
       <r>    9.0321    0.0000 </r>
       <r>    9.3229    0.0000 </r>
       <r>   11.3233    0.0000 </r>
      </set>
      <set comment="kpoint 35">
       <r>   -4.6189    1.0000 </r>
       <r>    0.6673    1.0000 </r>
       <r>    2.5157    1.0000 </r>
       <r>    4.6126    1.0000 </r>
       <r>    8.3201    0.0000 </r>
       <r>    9.7849    0.0000 </r>
       <r>    9.9893    0.0000 </r>
       <r>   11.6074    0.0000 </r>
      </set>
      <set comment="kpoint 36">
       <r>   -3.7299    1.0000 </r>
       <r>   -0.8128    1.0000 </r>
       <r>    2.3642    1.0000 </r>
       <r>    4.0843    1.0000 </r>
       <r>    7.8217    0.0000 </r>
       <r>    9.9643    0.0000 </r>
       <r>   10.1712    0.0000 </r>
       <r>   13.4553    0.0000 </r>
      </set>
      <set comment="kpoint 37">
       <r>   -3.7145    1.0000 </r>
       <r>   -0.8408    1.0000 </r>
       <r>    2.6620    1.0000 </r>
       <r>    3.7681    1.0000 </r>
       <r>    7.5447    0.0000 </r>
       <r>   10.0373    0.0000 </r>
       <r>   10.5148    0.0000 </r>
       <r>   11.5011    0.0000 </r>
      </set>
      <set comment="kpoint 38">
       <r>   -4.6021    1.0000 </r>
       <r>    0.6638    1.0000 </r>
       <r>    3.2713    1.0000 </r>
       <r>    3.7441    1.0000 </r>
       <r>    7.4769    0.0000 </r>
       <r>    9.6628    0.0000 </r>
       <r>   10.3118    0.0000 </r>
       <r>   10.8882    0.0000 </r>
      </set>
      <set comment="kpoint 39">
       <r>   -5.1063    1.0000 </r>
       <r>    1.3672    1.0000 </r>
       <r>    4.0948    1.0000 </r>
       <r>    4.1601    1.0000 </r>
       <r>    7.8700    0.0000 </r>
       <r>    9.2422    0.0000 </r>
       <r>   10.1489    0.0000 </r>
       <r>   10.5130    0.0000 </r>
      </set>
      <set comment="kpoint 40">
       <r>   -4.4835    1.0000 </r>
       <r>    0.6012    1.0000 </r>
       <r>    2.5723    1.0000 </r>
       <r>    3.9657    1.0000 </r>
       <r>    8.3592    0.0000 </r>
       <r>    9.4029    0.0000 </r>
       <r>    9.8819    0.0000 </r>
       <r>   11.4042    0.0000 </r>
      </set>
      <set comment="kpoint 41">
       <r>   -3.5976    1.0000 </r>
       <r>   -0.4947    1.0000 </r>
       <r>    1.7868    1.0000 </r>
       <r>    3.4006    1.0000 </r>
       <r>    8.8111    0.0000 </r>
       <r>    9.2945    0.0000 </r>
       <r>   10.5712    0.0000 </r>
       <r>   12.4938    0.0000 </r>
      </set>
      <set comment="kpoint 42">
       <r>   -3.1130    1.0000 </r>
       <r>   -1.1049    1.0000 </r>
       <r>    1.7905    1.0000 </r>
       <r>    3.0894    1.0000 </r>
       <r>    8.3413    0.0000 </r>
       <r>    9.6229    0.0000 </r>
       <r>   11.3493    0.0000 </r>
       <r>   12.6429    0.0000 </r>
      </set>
      <set comment="kpoint 43">
       <r>   -3.8807    1.0000 </r>
       <r>   -0.1053    1.0000 </r>
       <r>    2.2105    1.0000 </r>
       <r>    3.2677    1.0000 </r>
       <r>    8.0732    0.0000 </r>
       <r>    9.2811    0.0000 </r>
       <r>   10.1561    0.0000 </r>
       <r>   12.6230    0.0000 </r>
      </set>
      <set comment="kpoint 44">
       <r>   -3.9895    1.0000 </r>
       <r>   -0.0487    1.0000 </r>
       <r>    2.5431    1.0000 </r>
       <r>    3.4153    1.0000 </r>
       <r>    7.0965    0.0000 </r>
       <r>    9.1180    0.0000 </r>
       <r>   11.3916    0.0000 </r>
       <r>   11.7067    0.0000 </r>
      </set>
      <set comment="kpoint 45">
       <r>   -3.1902    1.0000 </r>
       <r>   -0.8427    1.0000 </r>
       <r>    1.9682    1.0000 </r>
       <r>    2.7336    1.0000 </r>
       <r>    7.8690    0.0000 </r>
       <r>    8.8775    0.0000 </r>
       <r>   11.0429    0.0000 </r>
       <r>   13.8434    0.0000 </r>
      </set>
      <set comment="kpoint 46">
       <r>   -2.3867    1.0000 </r>
       <r>   -1.5939    1.0000 </r>
       <r>    1.6512    1.0000 </r>
       <r>    2.2345    1.0000 </r>
       <r>    8.9858    0.0000 </r>
       <r>    9.9079    0.0000 </r>
       <r>   10.5984    0.0000 </r>
       <r>   11.5962    0.0000 </r>
      </set>
      <set comment="kpoint 47">
       <r>   -2.9863    1.0000 </r>
       <r>   -1.0487    1.0000 </r>
       <r>    1.6437    1.0000 </r>
       <r>    2.7078    1.0000 </r>
       <r>    9.0820    0.0000 </r>
       <r>    9.5082    0.0000 </r>
       <r>   10.2757    0.0000 </r>
       <r>   12.7523    0.0000 </r>
      </set>
      <set comment="kpoint 48">
       <r>   -2.5494    1.0000 </r>
       <r>   -1.5734    1.0000 </r>
       <r>    1.7554    1.0000 </r>
       <r>    3.0749    1.0000 </r>
       <r>    6.6645    0.0000 </r>
       <r>    8.5614    0.0000 </r>
       <r>   13.5284    0.0000 </r>
       <r>   13.7390    0.0000 </r>
      </set>
      <set comment="kpoint 49">
       <r>   -2.4495    1.0000 </r>
       <r>   -1.6033    1.0000 </r>
       <r>    1.8487    1.0000 </r>
       <r>    2.4489    1.0000 </r>
       <r>    7.7638    0.0000 </r>
       <r>    8.6760    0.0000 </r>
       <r>   12.0408    0.0000 </r>
       <r>   13.1492    0.0000 </r>
      </set>
      <set comment="kpoint 50">
       <r>   -3.2871    1.0000 </r>
       <r>   -0.8053    1.0000 </r>
       <r>    2.0206    1.0000 </r>
       <r>    3.1895    1.0000 </r>
       <r>    6.8137    0.0000 </r>
       <r>    8.7448    0.0000 </r>
       <r>   12.5507    0.0000 </r>
       <r>   12.6088    0.0000 </r>
      </set>
      <set comment="kpoint 51">
       <r>   -4.9995    1.0000 </r>
       <r>    0.6735    1.0000 </r>
       <r>    4.6853    1.0000 </r>
       <r>    4.6853    1.0000 </r>
       <r>    7.3690    0.0000 </r>
       <r>    9.1390    0.0000 </r>
       <r>    9.1390    0.0000 </r>
       <r>   13.2544    0.0000 </r>
      </set>
      <set comment="kpoint 52">
       <r>   -4.5226    1.0000 </r>
       <r>    0.0988    1.0000 </r>
       <r>    3.2268    1.0000 </r>
       <r>    4.5983    1.0000 </r>
       <r>    8.0848    0.0000 </r>
       <r>    9.3625    0.0000 </r>
       <r>    9.4085    0.0000 </r>
       <r>   12.6165    0.0000 </r>
      </set>
      <set comment="kpoint 53">
       <r>   -3.7348    1.0000 </r>
       <r>   -0.4307    1.0000 </r>
       <r>    1.7072    1.0000 </r>
       <r>    4.0205    1.0000 </r>
       <r>    7.7452    0.0000 </r>
       <r>   10.8024    0.0000 </r>
       <r>   10.9751    0.0000 </r>
       <r>   12.3759    0.0000 </r>
      </set>
      <set comment="kpoint 54">
       <r>   -2.9180    1.0000 </r>
       <r>   -1.2083    1.0000 </r>
       <r>    1.3706    1.0000 </r>
       <r>    3.4767    1.0000 </r>
       <r>    7.1302    0.0000 </r>
       <r>   11.0065    0.0000 </r>
       <r>   12.0690    0.0000 </r>
       <r>   12.3467    0.0000 </r>
      </set>
      <set comment="kpoint 55">
       <r>   -4.2101    1.0000 </r>
       <r>   -0.4563    1.0000 </r>
       <r>    3.5616    1.0000 </r>
       <r>    4.0378    1.0000 </r>
       <r>    7.7954    0.0000 </r>
       <r>    9.1439    0.0000 </r>
       <r>    9.8883    0.0000 </r>
       <r>   11.9238    0.0000 </r>
      </set>
      <set comment="kpoint 56">
       <r>   -3.5937    1.0000 </r>
       <r>   -0.8138    1.0000 </r>
       <r>    2.2588    1.0000 </r>
       <r>    3.5645    1.0000 </r>
       <r>    8.5635    0.0000 </r>
       <r>    8.9082    0.0000 </r>
       <r>   11.4457    0.0000 </r>
       <r>   11.6637    0.0000 </r>
      </set>
      <set comment="kpoint 57">
       <r>   -2.7806    1.0000 </r>
       <r>   -1.2732    1.0000 </r>
       <r>    1.4621    1.0000 </r>
       <r>    2.8547    1.0000 </r>
       <r>    8.2128    0.0000 </r>
       <r>   10.4511    0.0000 </r>
       <r>   11.2413    0.0000 </r>
       <r>   11.7700    0.0000 </r>
      </set>
      <set comment="kpoint 58">
       <r>   -3.2371    1.0000 </r>
       <r>   -1.0917    1.0000 </r>
       <r>    1.8677    1.0000 </r>
       <r>    3.5760    1.0000 </r>
       <r>    7.2783    0.0000 </r>
       <r>   10.9681    0.0000 </r>
       <r>   11.2767    0.0000 </r>
       <r>   11.3816    0.0000 </r>
      </set>
      <set comment="kpoint 59">
       <r>   -4.1153    1.0000 </r>
       <r>   -0.9622    1.0000 </r>
       <r>    4.4656    1.0000 </r>
       <r>    4.4656    1.0000 </r>
       <r>    7.1172    0.0000 </r>
       <r>    8.9986    0.0000 </r>
       <r>    8.9986    0.0000 </r>
       <r>   13.3673    0.0000 </r>
      </set>
      <set comment="kpoint 60">
       <r>   -3.7665    1.0000 </r>
       <r>   -1.1368    1.0000 </r>
       <r>    3.2465    1.0000 </r>
       <r>    4.1989    1.0000 </r>
       <r>    7.8270    0.0000 </r>
       <r>    9.1342    0.0000 </r>
       <r>    9.5758    0.0000 </r>
       <r>   13.7568    0.0000 </r>
      </set>
     </set>
    </set>
   </array>
  </eigenvalues>
  <separator name="orbital magnetization" >
   <v name="MAGDIPOLOUT">      0.00000000      0.00000000      0.00000000</v>
  </separator>
  <dos>
   <i name="efermi">      5.94101281 </i>
   <total>
    <array>
     <dimension dim="1">gridpoints</dimension>
     <dimension dim="2">spin</dimension>
     <field>energy</field>
     <field>total</field>
     <field>integrated</field>
     <set>
      <set comment="spin 1">
       <r>    -8.1485     0.0000     0.0000 </r>
       <r>    -8.0647     0.0000     0.0000 </r>
       <r>    -7.9808     0.0000     0.0000 </r>
       <r>    -7.8969     0.0000     0.0000 </r>
       <r>    -7.8131     0.0000     0.0000 </r>
       <r>    -7.7292     0.0000     0.0000 </r>
       <r>    -7.6453     0.0000     0.0000 </r>
       <r>    -7.5615     0.0000     0.0000 </r>
       <r>    -7.4776     0.0000     0.0000 </r>
       <r>    -7.3937     0.0000     0.0000 </r>
       <r>    -7.3099     0.0000     0.0000 </r>
       <r>    -7.2260     0.0000     0.0000 </r>
       <r>    -7.1421     0.0000     0.0000 </r>
       <r>    -7.0583     0.0000     0.0000 </r>
       <r>    -6.9744     0.0000     0.0000 </r>
       <r>    -6.8905     0.0000     0.0000 </r>
       <r>    -6.8067     0.0000     0.0000 </r>
       <r>    -6.7228     0.0000     0.0000 </r>
       <r>    -6.6389     0.0000     0.0000 </r>
       <r>    -6.5551     0.0002     0.0000 </r>
       <r>    -6.4712     0.0010     0.0001 </r>
       <r>    -6.3873     0.0043     0.0005 </r>
       <r>    -6.3035     0.0134     0.0016 </r>
       <r>    -6.2196     0.0329     0.0043 </r>
       <r>    -6.1357     0.0643     0.0097 </r>
       <r>    -6.0519     0.1035     0.0184 </r>
       <r>    -5.9680     0.1425     0.0304 </r>
       <r>    -5.8841     0.1770     0.0452 </r>
       <r>    -5.8003     0.2094     0.0628 </r>
       <r>    -5.7164     0.2409     0.0830 </r>
       <r>    -5.6325     0.2654     0.1052 </r>
       <r>    -5.5487     0.2788     0.1286 </r>
       <r>    -5.4648     0.2920     0.1531 </r>
       <r>    -5.3809     0.3210     0.1800 </r>
       <r>    -5.2971     0.3601     0.2102 </r>
       <r>    -5.2132     0.3842     0.2425 </r>
       <r>    -5.1293     0.3843     0.2747 </r>
       <r>    -5.0455     0.3827     0.3068 </r>
       <r>    -4.9616     0.4011     0.3404 </r>
       <r>    -4.8777     0.4340     0.3768 </r>
       <r>    -4.7939     0.4673     0.4160 </r>
       <r>    -4.7100     0.4991     0.4579 </r>
       <r>    -4.6261     0.5285     0.5022 </r>
       <r>    -4.5423     0.5449     0.5479 </r>
       <r>    -4.4584     0.5402     0.5932 </r>
       <r>    -4.3745     0.5263     0.6373 </r>
       <r>    -4.2907     0.5386     0.6825 </r>
       <r>    -4.2068     0.6076     0.7334 </r>
       <r>    -4.1229     0.7131     0.7932 </r>
       <r>    -4.0391     0.7943     0.8599 </r>
       <r>    -3.9552     0.8215     0.9288 </r>
       <r>    -3.8713     0.8210     0.9976 </r>
       <r>    -3.7875     0.8237     1.0667 </r>
       <r>    -3.7036     0.8237     1.1358 </r>
       <r>    -3.6197     0.7935     1.2023 </r>
       <r>    -3.5359     0.7339     1.2639 </r>
       <r>    -3.4520     0.6985     1.3225 </r>
       <r>    -3.3681     0.7369     1.3843 </r>
       <r>    -3.2843     0.8169     1.4528 </r>
       <r>    -3.2004     0.8460     1.5237 </r>
       <r>    -3.1165     0.7707     1.5884 </r>
       <r>    -3.0327     0.6253     1.6408 </r>
       <r>    -2.9488     0.4839     1.6814 </r>
       <r>    -2.8649     0.3951     1.7145 </r>
       <r>    -2.7811     0.3732     1.7458 </r>
       <r>    -2.6972     0.4168     1.7808 </r>
       <r>    -2.6133     0.5031     1.8230 </r>
       <r>    -2.5295     0.5740     1.8711 </r>
       <r>    -2.4456     0.5643     1.9184 </r>
       <r>    -2.3618     0.4555     1.9566 </r>
       <r>    -2.2779     0.2935     1.9812 </r>
       <r>    -2.1940     0.1474     1.9936 </r>
       <r>    -2.1102     0.0567     1.9984 </r>
       <r>    -2.0263     0.0193     2.0000 </r>
       <r>    -1.9424     0.0209     2.0017 </r>
       <r>    -1.8586     0.0679     2.0074 </r>
       <r>    -1.7747     0.1871     2.0231 </r>
       <r>    -1.6908     0.3760     2.0547 </r>
       <r>    -1.6070     0.5548     2.1012 </r>
       <r>    -1.5231     0.6188     2.1531 </r>
       <r>    -1.4392     0.5646     2.2004 </r>
       <r>    -1.3554     0.5083     2.2431 </r>
       <r>    -1.2715     0.5655     2.2905 </r>
       <r>    -1.1876     0.7483     2.3532 </r>
       <r>    -1.1038     0.9712     2.4347 </r>
       <r>    -1.0199     1.1350     2.5299 </r>
       <r>    -0.9360     1.1990     2.6304 </r>
       <r>    -0.8522     1.1643     2.7281 </r>
       <r>    -0.7683     1.0340     2.8148 </r>
       <r>    -0.6844     0.8520     2.8862 </r>
       <r>    -0.6006     0.7184     2.9465 </r>
       <r>    -0.5167     0.6832     3.0038 </r>
       <r>    -0.4328     0.6698     3.0600 </r>
       <r>    -0.3490     0.5773     3.1084 </r>
       <r>    -0.2651     0.4279     3.1443 </r>
       <r>    -0.1812     0.3359     3.1724 </r>
       <r>    -0.0974     0.3636     3.2029 </r>
       <r>    -0.0135     0.4690     3.2423 </r>
       <r>     0.0704     0.5608     3.2893 </r>
       <r>     0.1542     0.5646     3.3366 </r>
       <r>     0.2381     0.4715     3.3762 </r>
       <r>     0.3220     0.3433     3.4050 </r>
       <r>     0.4058     0.2592     3.4267 </r>
       <r>     0.4897     0.2617     3.4487 </r>
       <r>     0.5736     0.3346     3.4767 </r>
       <r>     0.6574     0.4046     3.5107 </r>
       <r>     0.7413     0.3918     3.5435 </r>
       <r>     0.8252     0.2922     3.5680 </r>
       <r>     0.9090     0.1842     3.5835 </r>
       <r>     0.9929     0.1407     3.5953 </r>
       <r>     1.0768     0.1712     3.6096 </r>
       <r>     1.1606     0.2533     3.6309 </r>
       <r>     1.2445     0.3828     3.6630 </r>
       <r>     1.3284     0.5592     3.7099 </r>
       <r>     1.4122     0.7368     3.7717 </r>
       <r>     1.4961     0.8479     3.8428 </r>
       <r>     1.5800     0.8881     3.9173 </r>
       <r>     1.6638     0.9264     3.9950 </r>
       <r>     1.7477     1.0094     4.0796 </r>
       <r>     1.8316     1.1032     4.1721 </r>
       <r>     1.9154     1.1521     4.2688 </r>
       <r>     1.9993     1.1467     4.3649 </r>
       <r>     2.0832     1.1146     4.4584 </r>
       <r>     2.1670     1.0814     4.5491 </r>
       <r>     2.2509     1.0554     4.6376 </r>
       <r>     2.3348     1.0361     4.7245 </r>
       <r>     2.4186     1.0329     4.8111 </r>
       <r>     2.5025     1.0701     4.9009 </r>
       <r>     2.5864     1.1763     4.9995 </r>
       <r>     2.6702     1.3428     5.1121 </r>
       <r>     2.7541     1.4812     5.2364 </r>
       <r>     2.8380     1.4978     5.3620 </r>
       <r>     2.9218     1.4273     5.4817 </r>
       <r>     3.0057     1.3964     5.5988 </r>
       <r>     3.0896     1.4420     5.7197 </r>
       <r>     3.1734     1.4710     5.8431 </r>
       <r>     3.2573     1.4155     5.9618 </r>
       <r>     3.3412     1.3426     6.0744 </r>
       <r>     3.4250     1.3731     6.1896 </r>
       <r>     3.5089     1.5073     6.3160 </r>
       <r>     3.5928     1.5889     6.4492 </r>
       <r>     3.6766     1.4860     6.5738 </r>
       <r>     3.7605     1.2531     6.6789 </r>
       <r>     3.8444     1.0712     6.7688 </r>
       <r>     3.9282     1.0683     6.8584 </r>
       <r>     4.0121     1.2125     6.9600 </r>
       <r>     4.0960     1.3561     7.0738 </r>
       <r>     4.1798     1.3731     7.1889 </r>
       <r>     4.2637     1.2525     7.2940 </r>
       <r>     4.3475     1.0759     7.3842 </r>
       <r>     4.4314     0.9389     7.4630 </r>
       <r>     4.5153     0.8881     7.5374 </r>
       <r>     4.5991     0.8833     7.6115 </r>
       <r>     4.6830     0.8268     7.6809 </r>
       <r>     4.7669     0.6768     7.7376 </r>
       <r>     4.8507     0.5068     7.7801 </r>
       <r>     4.9346     0.4146     7.8149 </r>
       <r>     5.0185     0.4107     7.8493 </r>
       <r>     5.1023     0.4213     7.8847 </r>
       <r>     5.1862     0.3816     7.9167 </r>
       <r>     5.2701     0.2989     7.9417 </r>
       <r>     5.3539     0.2204     7.9602 </r>
       <r>     5.4378     0.1681     7.9743 </r>
       <r>     5.5217     0.1298     7.9852 </r>
       <r>     5.6055     0.0907     7.9928 </r>
       <r>     5.6894     0.0521     7.9972 </r>
       <r>     5.7733     0.0233     7.9991 </r>
       <r>     5.8571     0.0079     7.9998 </r>
       <r>     5.9410     0.0023     8.0000 </r>
       <r>     6.0249     0.0027     8.0002 </r>
       <r>     6.1087     0.0105     8.0011 </r>
       <r>     6.1926     0.0341     8.0040 </r>
       <r>     6.2765     0.0809     8.0108 </r>
       <r>     6.3603     0.1427     8.0227 </r>
       <r>     6.4442     0.1960     8.0392 </r>
       <r>     6.5281     0.2323     8.0586 </r>
       <r>     6.6119     0.2769     8.0819 </r>
       <r>     6.6958     0.3572     8.1118 </r>
       <r>     6.7797     0.4565     8.1501 </r>
       <r>     6.8635     0.5277     8.1944 </r>
       <r>     6.9474     0.5632     8.2416 </r>
       <r>     7.0313     0.6088     8.2927 </r>
       <r>     7.1151     0.6822     8.3499 </r>
       <r>     7.1990     0.7407     8.4120 </r>
       <r>     7.2829     0.7616     8.4759 </r>
       <r>     7.3667     0.7841     8.5416 </r>
       <r>     7.4506     0.8508     8.6130 </r>
       <r>     7.5345     0.9713     8.6944 </r>
       <r>     7.6183     1.1475     8.7907 </r>
       <r>     7.7022     1.3766     8.9061 </r>
       <r>     7.7861     1.5989     9.0402 </r>
       <r>     7.8699     1.6971     9.1825 </r>
       <r>     7.9538     1.6199     9.3184 </r>
       <r>     8.0377     1.4537     9.4403 </r>
       <r>     8.1215     1.3262     9.5515 </r>
       <r>     8.2054     1.2911     9.6598 </r>
       <r>     8.2893     1.3040     9.7692 </r>
       <r>     8.3731     1.2749     9.8761 </r>
       <r>     8.4570     1.1754     9.9747 </r>
       <r>     8.5409     1.0769    10.0650 </r>
       <r>     8.6247     1.0706    10.1548 </r>
       <r>     8.7086     1.2122    10.2564 </r>
       <r>     8.7925     1.5063    10.3828 </r>
       <r>     8.8763     1.8512    10.5380 </r>
       <r>     8.9602     2.0615    10.7109 </r>
       <r>     9.0441     2.0315    10.8813 </r>
       <r>     9.1279     1.8362    11.0353 </r>
       <r>     9.2118     1.6459    11.1733 </r>
       <r>     9.2957     1.5705    11.3050 </r>
       <r>     9.3795     1.5821    11.4377 </r>
       <r>     9.4634     1.5803    11.5703 </r>
       <r>     9.5473     1.5098    11.6969 </r>
       <r>     9.6311     1.3983    11.8142 </r>
       <r>     9.7150     1.3160    11.9245 </r>
       <r>     9.7989     1.3013    12.0337 </r>
       <r>     9.8827     1.3140    12.1439 </r>
       <r>     9.9666     1.2918    12.2522 </r>
       <r>    10.0505     1.2399    12.3562 </r>
       <r>    10.1343     1.2105    12.4577 </r>
       <r>    10.2182     1.2219    12.5602 </r>
       <r>    10.3021     1.2562    12.6655 </r>
       <r>    10.3859     1.3123    12.7756 </r>
       <r>    10.4698     1.4041    12.8934 </r>
       <r>    10.5537     1.4946    13.0187 </r>
       <r>    10.6375     1.4906    13.1437 </r>
       <r>    10.7214     1.3464    13.2566 </r>
       <r>    10.8053     1.1309    13.3515 </r>
       <r>    10.8891     0.9549    13.4316 </r>
       <r>    10.9730     0.8662    13.5042 </r>
       <r>    11.0568     0.8439    13.5750 </r>
       <r>    11.1407     0.8807    13.6489 </r>
       <r>    11.2246     1.0108    13.7336 </r>
       <r>    11.3084     1.2258    13.8364 </r>
       <r>    11.3923     1.4324    13.9566 </r>
       <r>    11.4762     1.5330    14.0851 </r>
       <r>    11.5600     1.4924    14.2103 </r>
       <r>    11.6439     1.3180    14.3208 </r>
       <r>    11.7278     1.0548    14.4093 </r>
       <r>    11.8116     0.8029    14.4766 </r>
       <r>    11.8955     0.6696    14.5328 </r>
       <r>    11.9794     0.6771    14.5896 </r>
       <r>    12.0632     0.7360    14.6513 </r>
       <r>    12.1471     0.7352    14.7129 </r>
       <r>    12.2310     0.6593    14.7682 </r>
       <r>    12.3148     0.5982    14.8184 </r>
       <r>    12.3987     0.6596    14.8737 </r>
       <r>    12.4826     0.8773    14.9473 </r>
       <r>    12.5664     1.1564    15.0443 </r>
       <r>    12.6503     1.3142    15.1545 </r>
       <r>    12.7342     1.2288    15.2576 </r>
       <r>    12.8180     0.9446    15.3368 </r>
       <r>    12.9019     0.6193    15.3887 </r>
       <r>    12.9858     0.4034    15.4225 </r>
       <r>    13.0696     0.3531    15.4522 </r>
       <r>    13.1535     0.4081    15.4864 </r>
       <r>    13.2374     0.4601    15.5250 </r>
       <r>    13.3212     0.4605    15.5636 </r>
       <r>    13.4051     0.4407    15.6005 </r>
       <r>    13.4890     0.4355    15.6371 </r>
       <r>    13.5728     0.4454    15.6744 </r>
       <r>    13.6567     0.4711    15.7139 </r>
       <r>    13.7406     0.5192    15.7575 </r>
       <r>    13.8244     0.5575    15.8042 </r>
       <r>    13.9083     0.5173    15.8476 </r>
       <r>    13.9922     0.3784    15.8793 </r>
       <r>    14.0760     0.2075    15.8968 </r>
       <r>    14.1599     0.0835    15.9038 </r>
       <r>    14.2438     0.0256    15.9059 </r>
       <r>    14.3276     0.0120    15.9069 </r>
       <r>    14.4115     0.0251    15.9090 </r>
       <r>    14.4954     0.0601    15.9141 </r>
       <r>    14.5792     0.1061    15.9230 </r>
       <r>    14.6631     0.1371    15.9344 </r>
       <r>    14.7470     0.1386    15.9461 </r>
       <r>    14.8308     0.1292    15.9569 </r>
       <r>    14.9147     0.1315    15.9679 </r>
       <r>    14.9986     0.1355    15.9793 </r>
       <r>    15.0824     0.1169    15.9891 </r>
       <r>    15.1663     0.0765    15.9955 </r>
       <r>    15.2502     0.0367    15.9986 </r>
       <r>    15.3340     0.0128    15.9997 </r>
       <r>    15.4179     0.0032    15.9999 </r>
       <r>    15.5018     0.0006    16.0000 </r>
       <r>    15.5856     0.0001    16.0000 </r>
       <r>    15.6695     0.0000    16.0000 </r>
       <r>    15.7534     0.0000    16.0000 </r>
       <r>    15.8372     0.0000    16.0000 </r>
       <r>    15.9211     0.0000    16.0000 </r>
       <r>    16.0050     0.0000    16.0000 </r>
       <r>    16.0888     0.0000    16.0000 </r>
       <r>    16.1727     0.0000    16.0000 </r>
       <r>    16.2566     0.0000    16.0000 </r>
       <r>    16.3404     0.0000    16.0000 </r>
       <r>    16.4243     0.0000    16.0000 </r>
       <r>    16.5082     0.0000    16.0000 </r>
       <r>    16.5920     0.0000    16.0000 </r>
       <r>    16.6759     0.0000    16.0000 </r>
       <r>    16.7598     0.0000    16.0000 </r>
       <r>    16.8436     0.0000    16.0000 </r>
       <r>    16.9275     0.0000    16.0000 </r>
       <r>    17.0114     0.0000    16.0000 </r>
      </set>
     </set>
    </array>
   </total>
  </dos>
 </calculation>
 <structure name="finalpos" >
  <crystal>
   <varray name="basis" >
    <v>      -0.00000000       2.73430413       2.73430413 </v>
    <v>       2.73430413       0.00000000       2.73430413 </v>
    <v>       2.73430413       2.73430413      -0.00000000 </v>
   </varray>
   <i name="volume">     40.88560718 </i>
   <varray name="rec_basis" >
    <v>      -0.18286188       0.18286188       0.18286188 </v>
    <v>       0.18286188      -0.18286188       0.18286188 </v>
    <v>       0.18286188       0.18286188      -0.18286188 </v>
   </varray>
  </crystal>
  <varray name="positions" >
   <v>       0.50000000       0.50000000       0.50000000 </v>
   <v>       0.75000000       0.75000000       0.75000000 </v>
  </varray>
 </structure>
</modeling>
