 running on    8 total cores
 distrk:  each k-point on    8 cores,    1 groups
 distr:  one band on    1 cores,    8 groups
 using from now: INCAR     
 vasp.5.4.4.18Apr17-6-g9f103f2a35 (build Dec 09 2018 21:25:21) complex          
  
 POSCAR found type information on POSCAR  Si
 POSCAR found :  1 types and       2 ions
 scaLAPACK will be used

 ----------------------------------------------------------------------------- 
|                                                                             |
|           W    W    AA    RRRRR   N    N  II  N    N   GGGG   !!!           |
|           W    W   A  A   R    R  NN   N  II  NN   N  G    G  !!!           |
|           W    W  A    A  R    R  N N  N  II  N N  N  G       !!!           |
|           W WW W  AAAAAA  RRRRR   N  N N  II  N  N N  G  GGG   !            |
|           WW  WW  A    A  R   R   N   NN  II  N   NN  G    G                |
|           W    W  A    A  R    R  N    N  II  N    N   GGGG   !!!           |
|                                                                             |
|      For optimal performance we recommend to set                            |
|        NCORE= 4 - approx SQRT( number of cores)                             |
|      NCORE specifies how many cores store one orbital (NPAR=cpu/NCORE).     |
|      This setting can  greatly improve the performance of VASP for DFT.     |
|      The default,   NCORE=1            might be grossly inefficient         |
|      on modern multi-core architectures or massively parallel machines.     |
|      Do your own testing !!!!                                               |
|      Unfortunately you need to use the default for GW and RPA calculations. |
|      (for HF NCORE is supported but not extensively tested yet)             |
|                                                                             |
 ----------------------------------------------------------------------------- 

 LDA part: xc-table for Pade appr. of Perdew
 POSCAR, INCAR and KPOINTS ok, starting setup
 FFT: planning ...
 WAVECAR not read
 entering main loop
       N       E                     dE             d eps       ncg     rms          rms(c)
DAV:   1     0.485350819380E+01    0.48535E+01   -0.28354E+03  2920   0.594E+02
DAV:   2    -0.108352404545E+02   -0.15689E+02   -0.15082E+02  4512   0.741E+01
DAV:   3    -0.110218812483E+02   -0.18664E+00   -0.18664E+00  3528   0.106E+01
DAV:   4    -0.110227240728E+02   -0.84282E-03   -0.84282E-03  4920   0.762E-01
DAV:   5    -0.110227247302E+02   -0.65744E-06   -0.65780E-06  3584   0.153E-02    0.301E+00
DAV:   6    -0.108980029734E+02    0.12472E+00   -0.82604E-02  3496   0.150E+00    0.178E+00
DAV:   7    -0.108411469830E+02    0.56856E-01   -0.15157E-01  3776   0.216E+00    0.154E-01
DAV:   8    -0.108424621652E+02   -0.13152E-02   -0.41232E-03  3312   0.479E-01    0.251E-02
DAV:   9    -0.108425547036E+02   -0.92538E-04   -0.98193E-05  2456   0.818E-02
   1 F= -.10842555E+02 E0= -.10842523E+02  d E =-.108426E+02
 curvature:   0.00 expect dE= 0.000E+00 dE for cont linesearch  0.000E+00
 trial: gam= 0.00000 g(F)=  0.159E-45 g(S)=  0.172E-01 ort = 0.000E+00 (trialstep = 0.100E+01)
 search vector abs. value=  0.172E-01
 bond charge predicted
       N       E                     dE             d eps       ncg     rms          rms(c)
DAV:   1    -0.108519353177E+02   -0.94732E-02   -0.26268E-01  3712   0.287E+00    0.324E-01
DAV:   2    -0.108474867536E+02    0.44486E-02   -0.37117E-03  3960   0.404E-01    0.186E-01
DAV:   3    -0.108451511907E+02    0.23356E-02   -0.47372E-03  3528   0.347E-01    0.233E-02
DAV:   4    -0.108451404324E+02    0.10758E-04   -0.53514E-05  1632   0.669E-02
   2 F= -.10845140E+02 E0= -.10845122E+02  d E =-.258573E-02
 trial-energy change:   -0.002586  1 .order   -0.002962   -0.017245    0.011321
 step:   0.6037(harm=  0.6037)  dis= 0.00000  next Energy=   -10.847760 (dE=-0.521E-02)
 bond charge predicted
       N       E                     dE             d eps       ncg     rms          rms(c)
DAV:   1    -0.108485641645E+02   -0.34130E-02   -0.42261E-02  3584   0.116E+00    0.131E-01
DAV:   2    -0.108478562637E+02    0.70790E-03   -0.59278E-04  3872   0.161E-01    0.750E-02
DAV:   3    -0.108474923997E+02    0.36386E-03   -0.74636E-04  2416   0.139E-01
   3 F= -.10847492E+02 E0= -.10847470E+02  d E =-.493770E-02
 curvature:  -0.30 expect dE=-0.416E-05 dE for cont linesearch -0.416E-05
 trial: gam= 0.00000 g(F)=  0.660E-45 g(S)=  0.138E-04 ort =-0.488E-03 (trialstep = 0.921E+00)
 search vector abs. value=  0.138E-04
 reached required accuracy - stopping structural energy minimisation
 writing wavefunctions
