       N       E                     dE             d eps       ncg     rms          rms(c)
DAV:   1    -0.147503246122E+01   -0.14750E+01   -0.21250E+03   104   0.381E+02
DAV:   2    -0.990830464274E+01   -0.84333E+01   -0.68323E+01   152   0.475E+01
DAV:   3    -0.996754735246E+01   -0.59243E-01   -0.59243E-01   112   0.536E+00
DAV:   4    -0.996760896228E+01   -0.61610E-04   -0.61609E-04   160   0.184E-01
DAV:   5    -0.996760896578E+01   -0.35026E-08   -0.37839E-08   112   0.126E-03    0.160E+00
DAV:   6    -0.996127609669E+01    0.63329E-02   -0.21383E-03   144   0.328E-01    0.100E+00
DAV:   7    -0.995617074970E+01    0.51053E-02   -0.63979E-03   112   0.588E-01    0.374E-02
DAV:   8    -0.995614806740E+01    0.22682E-04   -0.11064E-04    80   0.772E-02
   1 F= -.99561481E+01 E0= -.99427648E+01  d E =-.995615E+01
       N       E                     dE             d eps       ncg     rms          rms(c)
DAV:   1    -0.102313238785E+02   -0.27515E+00   -0.13948E+01   152   0.219E+01    0.215E+00
DAV:   2    -0.101013045795E+02    0.13002E+00   -0.26780E-01   104   0.392E+00    0.123E+00
DAV:   3    -0.100360990965E+02    0.65205E-01   -0.17231E-01   144   0.222E+00    0.111E-01
DAV:   4    -0.100363788238E+02   -0.27973E-03   -0.42672E-03    96   0.515E-01    0.954E-02
DAV:   5    -0.100363626600E+02    0.16164E-04   -0.13629E-04    48   0.750E-02
   2 F= -.10036363E+02 E0= -.10023036E+02  d E =-.802146E-01
       N       E                     dE             d eps       ncg     rms          rms(c)
DAV:   1    -0.101493636068E+02   -0.11298E+00   -0.23900E+00   136   0.887E+00    0.870E-01
DAV:   2    -0.101302392313E+02    0.19124E-01   -0.47211E-02   104   0.166E+00    0.501E-01
DAV:   3    -0.101196428664E+02    0.10596E-01   -0.28289E-02   128   0.917E-01    0.476E-02
DAV:   4    -0.101196864609E+02   -0.43595E-04   -0.88951E-04    88   0.232E-01
   3 F= -.10119686E+02 E0= -.10106371E+02  d E =-.163538E+00
       N       E                     dE             d eps       ncg     rms          rms(c)
DAV:   1    -0.101196802359E+02   -0.37370E-04   -0.28300E-04    64   0.100E-01    0.181E-02
DAV:   2    -0.101196798231E+02    0.41283E-06   -0.10642E-05    48   0.259E-02
   4 F= -.10119680E+02 E0= -.10106364E+02  d E =-.163532E+00
       N       E                     dE             d eps       ncg     rms          rms(c)
DAV:   1    -0.101196866171E+02   -0.63812E-05   -0.61907E-05    48   0.460E-02    0.377E-03
DAV:   2    -0.101196863839E+02    0.23322E-06   -0.25520E-06    48   0.132E-02
   5 F= -.10119686E+02 E0= -.10106371E+02  d E =-.163538E+00
       N       E                     dE             d eps       ncg     rms          rms(c)
DAV:   1    -0.101196901269E+02   -0.35098E-05   -0.38365E-05    48   0.363E-02    0.368E-03
DAV:   2    -0.101196897985E+02    0.32835E-06   -0.14070E-06    48   0.952E-03
   6 F= -.10119690E+02 E0= -.10106374E+02  d E =-.163542E+00
       N       E                     dE             d eps       ncg     rms          rms(c)
DAV:   1    -0.101205421330E+02   -0.85201E-03   -0.20692E-02   112   0.819E-01    0.926E-02
DAV:   2    -0.101202899896E+02    0.25214E-03   -0.15828E-04    88   0.950E-02
   7 F= -.10120290E+02 E0= -.10106974E+02  d E =-.600191E-03
       N       E                     dE             d eps       ncg     rms          rms(c)
DAV:   1    -0.101201440006E+02    0.39813E-03   -0.19550E-04    48   0.817E-02    0.360E-03
DAV:   2    -0.101201434187E+02    0.58189E-06   -0.60115E-06    48   0.234E-02
   8 F= -.10120143E+02 E0= -.10106828E+02  d E =-.453620E-03
       N       E                     dE             d eps       ncg     rms          rms(c)
DAV:   1    -0.101202589044E+02   -0.11490E-03   -0.16310E-03   104   0.230E-01    0.259E-02
DAV:   2    -0.101202396817E+02    0.19223E-04   -0.12972E-05    48   0.278E-02
   9 F= -.10120240E+02 E0= -.10106924E+02  d E =-.549883E-03
       N       E                     dE             d eps       ncg     rms          rms(c)
DAV:   1    -0.101202237895E+02    0.35115E-04   -0.14542E-04    48   0.710E-02    0.101E-02
DAV:   2    -0.101202212731E+02    0.25164E-05   -0.48140E-06    48   0.178E-02
  10 F= -.10120221E+02 E0= -.10106906E+02  d E =-.531475E-03
       N       E                     dE             d eps       ncg     rms          rms(c)
DAV:   1    -0.101202294270E+02   -0.56375E-05   -0.66872E-05    48   0.470E-02    0.425E-03
DAV:   2    -0.101202290308E+02    0.39620E-06   -0.14289E-06    48   0.105E-02
  11 F= -.10120229E+02 E0= -.10106913E+02  d E =-.539232E-03
       N       E                     dE             d eps       ncg     rms          rms(c)
DAV:   1    -0.101202311678E+02   -0.17408E-05   -0.13375E-05    48   0.212E-02    0.284E-03
DAV:   2    -0.101202308901E+02    0.27767E-06   -0.44930E-07    48   0.547E-03
  12 F= -.10120231E+02 E0= -.10106915E+02  d E =-.541092E-03
       N       E                     dE             d eps       ncg     rms          rms(c)
DAV:   1    -0.101202311264E+02    0.41345E-07   -0.31020E-06    48   0.103E-02    0.144E-03
DAV:   2    -0.101202310312E+02    0.95188E-07   -0.11795E-07    48   0.276E-03
  13 F= -.10120231E+02 E0= -.10106915E+02  d E =-.541233E-03
       N       E                     dE             d eps       ncg     rms          rms(c)
DAV:   1    -0.101202309921E+02    0.13428E-06   -0.78080E-07    48   0.517E-03    0.726E-04
DAV:   2    -0.101202309578E+02    0.34386E-07   -0.29863E-08    48   0.138E-03
  14 F= -.10120231E+02 E0= -.10106915E+02  d E =-.541159E-03
       N       E                     dE             d eps       ncg     rms          rms(c)
DAV:   1    -0.101202309003E+02    0.91873E-07   -0.11304E-07    48   0.199E-03    0.296E-04
DAV:   2    -0.101202308880E+02    0.12257E-07   -0.49166E-09    48   0.553E-04
  15 F= -.10120231E+02 E0= -.10106915E+02  d E =-.541089E-03
