       N       E                     dE             d eps       ncg     rms          rms(c)
DAV:   1    -0.102129699702E+02   -0.10213E+02   -0.50195E-05   328   0.433E-02    0.470E-03
DAV:   2    -0.102129694184E+02    0.55183E-06   -0.19500E-06   336   0.106E-02
   1 F= -.10212969E+02 E0= -.10204908E+02  d E =-.102130E+02
