unknown system                          
   1.00000000000000     
     0.000000    2.715000    2.715000
     2.715000    0.000000    2.715000
     2.715000    2.715000    0.000000
   Si
     2
Direct
  0.500000  0.500000  0.500000
  0.750000  0.750000  0.750000
 
   32   32   32
 0.87659644096E+00 0.89824150601E+00 0.96434423974E+00 0.10785630508E+01 0.12469450762E+01
 0.14776773250E+01 0.17803316055E+01 0.21641798940E+01 0.26352727645E+01 0.31923830085E+01
 0.38225611890E+01 0.44976956662E+01 0.51737506409E+01 0.57939887143E+01 0.62964658366E+01
 0.66246755197E+01 0.67388443609E+01 0.66246261177E+01 0.62963736460E+01 0.57938668258E+01
 0.51736210563E+01 0.44975908097E+01 0.38225157719E+01 0.31924175089E+01 0.26353811002E+01
 0.21643299917E+01 0.17804770168E+01 0.14777745585E+01 0.12469716568E+01 0.10785280461E+01
 0.96428321054E+00 0.89819706995E+00 0.89824150601E+00 0.93561313445E+00 0.10123280094E+01
 0.11322402363E+01 0.13007969489E+01 0.15245885396E+01 0.18104917380E+01 0.21640680193E+01
 0.25869896688E+01 0.30736680174E+01 0.36078756046E+01 0.41607038253E+01 0.46912830638E+01
 0.51510829458E+01 0.54914491200E+01 0.56727618879E+01 0.56727418803E+01 0.54913939701E+01
 0.51510071675E+01 0.46912111727E+01 0.41606687311E+01 0.36079071812E+01 0.30737730745E+01
 0.25871407348E+01 0.21642170579E+01 0.18105994581E+01 0.15246419095E+01 0.13008025694E+01
 0.11322100101E+01 0.10122768862E+01 0.93556430076E+00 0.89822121282E+00 0.96434423974E+00
 0.10123280094E+01 0.10949190133E+01 0.12157795101E+01 0.13795214390E+01 0.15911595668E+01
 0.18551934213E+01 0.21740798283E+01 0.25459904491E+01 0.29621359520E+01 0.34044758749E+01
 0.38450008568E+01 0.42476203128E+01 0.45729279833E+01 0.47850364606E+01 0.48587512664E+01
 0.47850067609E+01 0.45728883383E+01 0.42476007243E+01 0.38450268041E+01 0.34045554083E+01
 0.29622555034E+01 0.25461208986E+01 0.21741890305E+01 0.18552589339E+01 0.15911758998E+01
 0.13794989747E+01 0.12157368175E+01 0.10948739962E+01 0.10122928785E+01 0.96432541023E+00
 0.94861407253E+00 0.10785630508E+01 0.11322402363E+01 0.12157795101E+01 0.13324811947E+01
 0.14861601559E+01 0.16805125686E+01 0.19181198161E+01 0.21989788596E+01 0.25186041560E+01
 0.28660868805E+01 0.32228840040E+01 0.35632483777E+01 0.38568691402E+01 0.40735254287E+01
 0.41887136880E+01 0.41886991075E+01 0.40734938265E+01 0.38568516173E+01 0.35632775856E+01
 0.32229695078E+01 0.28662027310E+01 0.25187039570E+01 0.21990273917E+01 0.19181122062E+01
 0.16804673854E+01 0.14861010535E+01 0.13324266783E+01 0.12157419100E+01 0.11322239890E+01
 0.10785619504E+01 0.10523555062E+01 0.10523537591E+01 0.12469450762E+01 0.13007969489E+01
 0.13795214390E+01 0.14861601559E+01 0.16239766979E+01 0.17956981826E+01 0.20024378222E+01
 0.22423209460E+01 0.25089947031E+01 0.27904581137E+01 0.30688457225E+01 0.33217238586E+01
 0.35250255492E+01 0.36571119756E+01 0.37029282648E+01 0.36570862996E+01 0.35249944869E+01
 0.33217151729E+01 0.30688761832E+01 0.27905205993E+01 0.25090594391E+01 0.22423511699E+01
 0.20024104339E+01 0.17956169457E+01 0.16238706947E+01 0.14860687529E+01 0.13794740885E+01
 0.13007986419E+01 0.12469754802E+01 0.12156373935E+01 0.12053395026E+01 0.12156104271E+01
 0.14776773250E+01 0.15245885396E+01 0.15911595668E+01 0.16805125686E+01 0.17956981826E+01
 0.19387993806E+01 0.21098347694E+01 0.23055863144E+01 0.25186046915E+01 0.27367961212E+01
 0.29440155630E+01 0.31218684485E+01 0.32524992154E+01 0.33217273597E+01 0.33217132627E+01
 0.32524673368E+01 0.31218407800E+01 0.29440076622E+01 0.27368073865E+01 0.25186216443E+01
 0.23055908039E+01 0.21098101678E+01 0.19387370439E+01 0.17956060295E+01 0.16804187045E+01
 0.15911016684E+01 0.15245907655E+01 0.14777307213E+01 0.14479142390E+01 0.14334038480E+01
 0.14333757158E+01 0.14478502045E+01 0.17803316055E+01 0.18104917380E+01 0.18551934213E+01
 0.19181198161E+01 0.20024378222E+01 0.21098347694E+01 0.22395447599E+01 0.23875201300E+01
 0.25459904411E+01 0.27037101143E+01 0.28470906170E+01 0.29621204940E+01 0.30366476988E+01
 0.30624505247E+01 0.30366316752E+01 0.29620995410E+01 0.28470789172E+01 0.27037145576E+01
 0.25460046888E+01 0.23875270543E+01 0.22395264932E+01 0.21097854322E+01 0.20023706928E+01
 0.19180629672E+01 0.18551754345E+01 0.18105256752E+01 0.17804063508E+01 0.17614154403E+01
 0.17510025277E+01 0.17476710396E+01 0.17509478563E+01 0.17613317084E+01 0.21641798940E+01
 0.21640680193E+01 0.21740798283E+01 0.21989788596E+01 0.22423209460E+01 0.23055863144E+01
 0.23875201300E+01 0.24837706984E+01 0.25869891185E+01 0.26875622698E+01 0.27749721864E+01
 0.28394862233E+01 0.28737194611E+01 0.28737206262E+01 0.28394902630E+01 0.27749814344E+01
 0.26875808553E+01 0.25870191406E+01 0.24838060547E+01 0.23875452413E+01 0.23055861923E+01
 0.22422974376E+01 0.21989570771E+01 0.21740932225E+01 0.21641316135E+01 0.21642768557E+01
 0.21695174430E+01 0.21755357969E+01 0.21792978298E+01 0.21792759120E+01 0.21754716009E+01
 0.21694224417E+01 0.26352727645E+01 0.25869896688E+01 0.25459904491E+01 0.25186041560E+01
 0.25089947031E+01 0.25186046915E+01 0.25459904411E+01 0.25869891185E+01 0.26352727532E+01
 0.26833450201E+01 0.27238327703E+01 0.27507085155E+01 0.27601139078E+01 0.27507314374E+01
 0.27238738421E+01 0.26833981527E+01 0.26353322782E+01 0.25870490548E+01 0.25460457991E+01
 0.25186548579E+01 0.25090434101E+01 0.25186553934E+01 0.25460457911E+01 0.25870485045E+01
 0.26353322669E+01 0.26833986821E+01 0.27238738341E+01 0.27507308932E+01 0.27601139078E+01
 0.27507090597E+01 0.27238327783E+01 0.26833444907E+01 0.31923830085E+01 0.30736680174E+01
 0.29621359520E+01 0.28660868805E+01 0.27904581137E+01 0.27367961212E+01 0.27037101143E+01
 0.26875622698E+01 0.26833450201E+01 0.26857240785E+01 0.26900509098E+01 0.26930500631E+01
 0.26930745800E+01 0.26901172489E+01 0.26858169229E+01 0.26834496517E+01 0.26876649318E+01
 0.27037986495E+01 0.27368694414E+01 0.27905299779E+01 0.28661699260E+01 0.29622210609E+01
 0.30737276742E+01 0.31923977793E+01 0.33073989526E+01 0.34069228940E+01 0.34801324857E+01
 0.35188961582E+01 0.35189063593E+01 0.34801611438E+01 0.34069599956E+01 0.33074223931E+01
 0.38225611890E+01 0.36078756046E+01 0.34044758749E+01 0.32228840040E+01 0.30688457225E+01
 0.29440155630E+01 0.28470906170E+01 0.27749721864E+01 0.27238327703E+01 0.26900509098E+01
 0.26708744331E+01 0.26646825438E+01 0.26709474696E+01 0.26901767314E+01 0.27239830373E+01
 0.27751212107E+01 0.28472198113E+01 0.29441168675E+01 0.30689223565E+01 0.32229418482E+01
 0.34045117836E+01 0.36078779497E+01 0.38225221665E+01 0.40335118752E+01 0.42231892395E+01
 0.43738851086E+01 0.44708047738E+01 0.45042510803E+01 0.44708597025E+01 0.43739743240E+01
 0.42232840980E+01 0.40335872380E+01 0.44976956662E+01 0.41607038253E+01 0.38450008568E+01
 0.35632483777E+01 0.33217238586E+01 0.31218684485E+01 0.29621204940E+01 0.28394862233E+01
 0.27507085155E+01 0.26930500631E+01 0.26646825438E+01 0.26647305674E+01 0.26931818936E+01
 0.27508913902E+01 0.28396777569E+01 0.29622837309E+01 0.31219847683E+01 0.33217934154E+01
 0.35632760304E+01 0.38449829481E+01 0.41606342952E+01 0.44975821416E+01 0.48364184927E+01
 0.51524695330E+01 0.54191543478E+01 0.56122351680E+01 0.57135872886E+01 0.57136179647E+01
 0.56123176918E+01 0.54192698179E+01 0.51526024190E+01 0.48365533043E+01 0.51737506409E+01
 0.46912830638E+01 0.42476203128E+01 0.38568691402E+01 0.35250255492E+01 0.32524992154E+01
 0.30366476988E+01 0.28737194611E+01 0.27601139078E+01 0.26930745800E+01 0.26709474696E+01
 0.26931818936E+01 0.27602986253E+01 0.28739334984E+01 0.30368409726E+01 0.32526334067E+01
 0.35250832749E+01 0.38568548946E+01 0.42475512293E+01 0.46911771659E+01 0.51736221732E+01
 0.56712751354E+01 0.61519254232E+01 0.65783869492E+01 0.69140511657E+01 0.71286261129E+01
 0.72024302253E+01 0.71286795403E+01 0.69141468817E+01 0.65785099939E+01 0.61520624312E+01
 0.56714139299E+01 0.57939887143E+01 0.51510829458E+01 0.45729279833E+01 0.40735254287E+01
 0.36571119756E+01 0.33217273597E+01 0.30624505247E+01 0.28737206262E+01 0.27507314374E+01
 0.26901172489E+01 0.26901767314E+01 0.27508913902E+01 0.28739334984E+01 0.30626587222E+01
 0.33218811723E+01 0.36571796878E+01 0.40734982551E+01 0.45728229776E+01 0.51509399880E+01
 0.57938536039E+01 0.64751324494E+01 0.71557072468E+01 0.77871040117E+01 0.83178141852E+01
 0.87011079530E+01 0.89020290062E+01 0.89020416629E+01 0.87011400843E+01 0.83178544405E+01
 0.77871495551E+01 0.71557706864E+01 0.64752314158E+01 0.62964658366E+01 0.54914491200E+01
 0.47850364606E+01 0.41887136880E+01 0.37029282648E+01 0.33217132627E+01 0.30366316752E+01
 0.28394902630E+01 0.27238738421E+01 0.26858169229E+01 0.27239830373E+01 0.28396777569E+01
 0.30368409726E+01 0.33218811723E+01 0.37030102204E+01 0.41886967460E+01 0.47849358020E+01
 0.54913017439E+01 0.62963223942E+01 0.71734420558E+01 0.80792495147E+01 0.89553825936E+01
 0.97345425374E+01 0.10349649063E+02 0.10743971433E+02 0.10879786175E+02 0.10743910505E+02
 0.10349553797E+02 0.97344514729E+01 0.89553324485E+01 0.80792671215E+01 0.71735342809E+01
 0.66246755197E+01 0.56727618879E+01 0.48587512664E+01 0.41886991075E+01 0.36570862996E+01
 0.32524673368E+01 0.29620995410E+01 0.27749814344E+01 0.26833981527E+01 0.26834496517E+01
 0.27751212107E+01 0.29622837309E+01 0.32526334067E+01 0.36571796878E+01 0.41886967460E+01
 0.48586641238E+01 0.56726261963E+01 0.66245420813E+01 0.76913945376E+01 0.88296883617E+01
 0.99752925579E+01 0.11047532224E+02 0.11957709202E+02 0.12621256452E+02 0.12971435018E+02
 0.12971369246E+02 0.12621094031E+02 0.11957524171E+02 0.11047385541E+02 0.99752148448E+01
 0.88296920874E+01 0.76914769731E+01 0.67388443609E+01 0.56727418803E+01 0.47850067609E+01
 0.40734938265E+01 0.35249944869E+01 0.31218407800E+01 0.28470789172E+01 0.26875808553E+01
 0.26353322782E+01 0.26876649318E+01 0.28472198113E+01 0.31219847683E+01 0.35250832749E+01
 0.40734982551E+01 0.47849358020E+01 0.56726261963E+01 0.67387237225E+01 0.79676838233E+01
 0.93211678556E+01 0.10735630920E+02 0.12123333403E+02 0.13377708165E+02 0.14384443566E+02
 0.15038187159E+02 0.15264544441E+02 0.15038110368E+02 0.14384315986E+02 0.13377563351E+02
 0.12123204701E+02 0.10735554510E+02 0.93211715239E+01 0.79677639558E+01 0.66246261177E+01
 0.54913939701E+01 0.45728883383E+01 0.38568516173E+01 0.33217151729E+01 0.29440076622E+01
 0.27037145576E+01 0.25870191406E+01 0.25870490548E+01 0.27037986495E+01 0.29441168675E+01
 0.33217934154E+01 0.38568548946E+01 0.45728229776E+01 0.54913017439E+01 0.66245420813E+01
 0.79676838233E+01 0.94924082733E+01 0.11142762413E+02 0.12833014629E+02 0.14448085683E+02
 0.15846953188E+02 0.16875353176E+02 0.17418413667E+02 0.17418422667E+02 0.16875364957E+02
 0.15846938248E+02 0.14448034126E+02 0.12832953182E+02 0.11142731690E+02 0.94924266696E+01
 0.79677425669E+01 0.62963736460E+01 0.51510071675E+01 0.42476007243E+01 0.35632775856E+01
 0.30688761832E+01 0.27368073865E+01 0.25460046888E+01 0.24838060547E+01 0.25460457991E+01
 0.27368694414E+01 0.30689223565E+01 0.35632760304E+01 0.42475512293E+01 0.51509399880E+01
 0.62963223942E+01 0.76913945376E+01 0.93211678556E+01 0.11142762413E+02 0.13081321123E+02
 0.15025789233E+02 0.16815921119E+02 0.18254251376E+02 0.19182800326E+02 0.19503426639E+02
 0.19182872373E+02 0.18254368802E+02 0.16816036458E+02 0.15025858606E+02 0.13081334868E+02
 0.11142747416E+02 0.93211592004E+01 0.76914140257E+01 0.57938668258E+01 0.46912111727E+01
 0.38450268041E+01 0.32229695078E+01 0.27905205993E+01 0.25186216443E+01 0.23875270543E+01
 0.23875452413E+01 0.25186548579E+01 0.27905299779E+01 0.32229418482E+01 0.38449829481E+01
 0.46911771659E+01 0.57938536039E+01 0.71734420558E+01 0.88296883617E+01 0.10735630920E+02
 0.12833014629E+02 0.15025789233E+02 0.17155100349E+02 0.18993909011E+02 0.20341522754E+02
 0.21053463820E+02 0.21053520570E+02 0.20341684143E+02 0.18994131948E+02 0.17155301000E+02
 0.15025890304E+02 0.12833008167E+02 0.10735575374E+02 0.88296436911E+01 0.71734288095E+01
 0.51736210563E+01 0.41606687311E+01 0.34045554083E+01 0.28662027310E+01 0.25090594391E+01
 0.23055908039E+01 0.22395264932E+01 0.23055861923E+01 0.25090434101E+01 0.28661699260E+01
 0.34045117836E+01 0.41606342952E+01 0.51736221732E+01 0.64751324494E+01 0.80792495147E+01
 0.99752925579E+01 0.12123333403E+02 0.14448085683E+02 0.16815921119E+02 0.18993909011E+02
 0.20745620176E+02 0.21880986819E+02 0.22274300564E+02 0.21881110319E+02 0.20745819420E+02
 0.18994109090E+02 0.16816053320E+02 0.14448114855E+02 0.12123270903E+02 0.99751849755E+01
 0.80791504048E+01 0.64750788013E+01 0.44975908097E+01 0.36079071812E+01 0.29622555034E+01
 0.25187039570E+01 0.22423511699E+01 0.21098101678E+01 0.21097854322E+01 0.22422974376E+01
 0.25186553934E+01 0.29622210609E+01 0.36078779497E+01 0.44975821416E+01 0.56712751354E+01
 0.71557072468E+01 0.89553825936E+01 0.11047532224E+02 0.13377708165E+02 0.15846953188E+02
 0.18254251376E+02 0.20341522754E+02 0.21880986819E+02 0.22698822679E+02 0.22698860213E+02
 0.21881070594E+02 0.20341599534E+02 0.18254292543E+02 0.15846951503E+02 0.13377646532E+02
 0.11047399887E+02 0.89552136691E+01 0.71555729594E+01 0.56712210680E+01 0.38225157719E+01
 0.30737730745E+01 0.25461208986E+01 0.21990273917E+01 0.20024104339E+01 0.19387370439E+01
 0.20023706928E+01 0.21989570771E+01 0.25460457911E+01 0.30737276742E+01 0.38225221665E+01
 0.48364184927E+01 0.61519254232E+01 0.77871040117E+01 0.97345425374E+01 0.11957709202E+02
 0.14384443566E+02 0.16875353176E+02 0.19182800326E+02 0.21053463820E+02 0.22274300564E+02
 0.22698860213E+02 0.22274279485E+02 0.21053412704E+02 0.19182714824E+02 0.16875237670E+02
 0.14384300435E+02 0.11957541675E+02 0.97343683227E+01 0.77869498207E+01 0.61518127995E+01
 0.48363566532E+01 0.31924175089E+01 0.25871407348E+01 0.21741890305E+01 0.19181122062E+01
 0.17956169457E+01 0.17956060295E+01 0.19180629672E+01 0.21740932225E+01 0.25870485045E+01
 0.31923977793E+01 0.40335118752E+01 0.51524695330E+01 0.65783869492E+01 0.83178141852E+01
 0.10349649063E+02 0.12621256452E+02 0.15038187159E+02 0.17418413667E+02 0.19503426639E+02
 0.21053520570E+02 0.21881110319E+02 0.21881070594E+02 0.21053412704E+02 0.19503271365E+02
 0.17418223157E+02 0.15037968686E+02 0.12621033150E+02 0.10349460251E+02 0.83176754619E+01
 0.65782753066E+01 0.51523667050E+01 0.40334475578E+01 0.26353811002E+01 0.21642170579E+01
 0.18552589339E+01 0.16804673854E+01 0.16238706947E+01 0.16804187045E+01 0.18551754345E+01
 0.21641316135E+01 0.26353322669E+01 0.33073989526E+01 0.42231892395E+01 0.54191543478E+01
 0.69140511657E+01 0.87011079530E+01 0.10743971433E+02 0.12971435018E+02 0.15264544441E+02
 0.17418422667E+02 0.19182872373E+02 0.20341684143E+02 0.20745819420E+02 0.20341599534E+02
 0.19182714824E+02 0.17418223157E+02 0.15264341561E+02 0.12971248812E+02 0.10743803012E+02
 0.87009565535E+01 0.69139237334E+01 0.54190592977E+01 0.42231330082E+01 0.33073925888E+01
 0.21643299917E+01 0.18105994581E+01 0.15911758998E+01 0.14861010535E+01 0.14860687529E+01
 0.15911016684E+01 0.18105256752E+01 0.21642768557E+01 0.26833986821E+01 0.34069228940E+01
 0.43738851086E+01 0.56122351680E+01 0.71286261129E+01 0.89020290062E+01 0.10879786175E+02
 0.12971369246E+02 0.15038110368E+02 0.16875364957E+02 0.18254368802E+02 0.18994131948E+02
 0.18994109090E+02 0.18254292543E+02 0.16875237670E+02 0.15037968686E+02 0.12971248812E+02
 0.10879679030E+02 0.89019027282E+01 0.71284840923E+01 0.56121253683E+01 0.43738421996E+01
 0.34069343771E+01 0.26834348092E+01 0.17804770168E+01 0.15246419095E+01 0.13794989747E+01
 0.13324266783E+01 0.13794740885E+01 0.15245907655E+01 0.17804063508E+01 0.21695174430E+01
 0.27238738341E+01 0.34801324857E+01 0.44708047738E+01 0.57135872886E+01 0.72024302253E+01
 0.89020416629E+01 0.10743910505E+02 0.12621094031E+02 0.14384315986E+02 0.15846938248E+02
 0.16816036458E+02 0.17155301000E+02 0.16816053320E+02 0.15846951503E+02 0.14384300435E+02
 0.12621033150E+02 0.10743803012E+02 0.89019027282E+01 0.72022913651E+01 0.57134848203E+01
 0.44707592921E+01 0.34801428644E+01 0.27239252182E+01 0.21695895804E+01 0.14777745585E+01
 0.13008025694E+01 0.12157368175E+01 0.12157419100E+01 0.13007986419E+01 0.14777307213E+01
 0.17614154403E+01 0.21755357969E+01 0.27507308932E+01 0.35188961582E+01 0.45042510803E+01
 0.57136179647E+01 0.71286795403E+01 0.87011400843E+01 0.10349553797E+02 0.11957524171E+02
 0.13377563351E+02 0.14448034126E+02 0.15025858606E+02 0.15025890304E+02 0.14448114855E+02
 0.13377646532E+02 0.11957541675E+02 0.10349460251E+02 0.87009565535E+01 0.71284840923E+01
 0.57134848203E+01 0.45042036131E+01 0.35189182022E+01 0.27507999149E+01 0.21756291736E+01
 0.17614997961E+01 0.12469716568E+01 0.11322100101E+01 0.10948739962E+01 0.11322239890E+01
 0.12469754802E+01 0.14479142390E+01 0.17510025277E+01 0.21792978298E+01 0.27601139078E+01
 0.35189063593E+01 0.44708597025E+01 0.56123176918E+01 0.69141468817E+01 0.83178544405E+01
 0.97344514729E+01 0.11047385541E+02 0.12123204701E+02 0.12832953182E+02 0.13081334868E+02
 0.12833008167E+02 0.12123270903E+02 0.11047399887E+02 0.97343683227E+01 0.83176754619E+01
 0.69139237334E+01 0.56121253683E+01 0.44707592921E+01 0.35189182022E+01 0.27602106161E+01
 0.21794208134E+01 0.17510953998E+01 0.14479522802E+01 0.10785280461E+01 0.10122768862E+01
 0.10122928785E+01 0.10785619504E+01 0.12156373935E+01 0.14334038480E+01 0.17476710396E+01
 0.21792759120E+01 0.27507090597E+01 0.34801611438E+01 0.43739743240E+01 0.54192698179E+01
 0.65785099939E+01 0.77871495551E+01 0.89553324485E+01 0.99752148448E+01 0.10735554510E+02
 0.11142731690E+02 0.11142747416E+02 0.10735575374E+02 0.99751849755E+01 0.89552136691E+01
 0.77869498207E+01 0.65782753066E+01 0.54190592977E+01 0.43738421996E+01 0.34801428644E+01
 0.27507999149E+01 0.21794208134E+01 0.17477925140E+01 0.14334539603E+01 0.12156242154E+01
 0.96428321054E+00 0.93556430076E+00 0.96432541023E+00 0.10523555062E+01 0.12053395026E+01
 0.14333757158E+01 0.17509478563E+01 0.21754716009E+01 0.27238327783E+01 0.34069599956E+01
 0.42232840980E+01 0.51526024190E+01 0.61520624312E+01 0.71557706864E+01 0.80792671215E+01
 0.88296920874E+01 0.93211715239E+01 0.94924266696E+01 0.93211592004E+01 0.88296436911E+01
 0.80791504048E+01 0.71555729594E+01 0.61518127995E+01 0.51523667050E+01 0.42231330082E+01
 0.34069343771E+01 0.27239252182E+01 0.21756291736E+01 0.17510953998E+01 0.14334539603E+01
 0.12053365391E+01 0.10523066543E+01 0.89819706995E+00 0.89822121282E+00 0.94861407253E+00
 0.10523537591E+01 0.12156104271E+01 0.14478502045E+01 0.17613317084E+01 0.21694224417E+01
 0.26833444907E+01 0.33074223931E+01 0.40335872380E+01 0.48365533043E+01 0.56714139299E+01
 0.64752314158E+01 0.71735342809E+01 0.76914769731E+01 0.79677639558E+01 0.79677425669E+01
 0.76914140257E+01 0.71734288095E+01 0.64750788013E+01 0.56712210680E+01 0.48363566532E+01
 0.40334475578E+01 0.33073925888E+01 0.26834348092E+01 0.21695895804E+01 0.17614997961E+01
 0.14479522802E+01 0.12156242154E+01 0.10523066543E+01 0.94855722986E+00 0.89824215548E+00
 0.93561341861E+00 0.10123280799E+01 0.11322403915E+01 0.13007971066E+01 0.15245884586E+01
 0.18104915393E+01 0.21640679882E+01 0.25869897696E+01 0.30736681117E+01 0.36078759243E+01
 0.41607047150E+01 0.46912844535E+01 0.51510845535E+01 0.54914509300E+01 0.56727639078E+01
 0.56727436535E+01 0.54913948647E+01 0.51510069858E+01 0.46912100424E+01 0.41606666737E+01
 0.36079043179E+01 0.30737700176E+01 0.25871382109E+01 0.21642152824E+01 0.18105983082E+01
 0.15246414473E+01 0.13008028811E+01 0.11322107739E+01 0.10122776468E+01 0.93556499853E+00
 0.89822197447E+00 0.93561341861E+00 0.98242801204E+00 0.10631148600E+01 0.11813563469E+01
 0.13417162147E+01 0.15490736332E+01 0.18077269442E+01 0.21199327695E+01 0.24837715118E+01
 0.28905937589E+01 0.33228118005E+01 0.37531703795E+01 0.41465195483E+01 0.44644036007E+01
 0.46717223906E+01 0.47437851883E+01 0.46716923507E+01 0.44643519272E+01 0.41464702271E+01
 0.37531609458E+01 0.33228728103E+01 0.28907236352E+01 0.24839309648E+01 0.21200678265E+01
 0.18078025778E+01 0.15490900166E+01 0.13416964859E+01 0.11813225130E+01 0.10630769458E+01
 0.98239188962E+00 0.93558990101E+00 0.92027650913E+00 0.10123280799E+01 0.10631148600E+01
 0.11424749979E+01 0.12537586375E+01 0.14006834814E+01 0.15866889205E+01 0.18140231048E+01
 0.20824424556E+01 0.23875201909E+01 0.27188702376E+01 0.30589755389E+01 0.33834896186E+01
 0.36636165300E+01 0.38704764397E+01 0.39805244636E+01 0.39805111907E+01 0.38704453953E+01
 0.36635919009E+01 0.33835016294E+01 0.30590430169E+01 0.27189853153E+01 0.23876488886E+01
 0.20825429706E+01 0.18140684464E+01 0.15866787074E+01 0.14006391823E+01 0.12537080270E+01
 0.11424370914E+01 0.10630943629E+01 0.10123201260E+01 0.98760300422E+00 0.98760478698E+00
 0.11322403915E+01 0.11813563469E+01 0.12537586375E+01 0.13525429490E+01 0.14808243746E+01
 0.16410054360E+01 0.18338540730E+01 0.20573796429E+01 0.23055859256E+01 0.25674193554E+01
 0.28264765082E+01 0.30620456236E+01 0.32517041453E+01 0.33750931737E+01 0.34179294370E+01
 0.33750740224E+01 0.32516819505E+01 0.30620482637E+01 0.28265261423E+01 0.25675095202E+01
 0.23056788478E+01 0.20574329148E+01 0.18338508890E+01 0.16409589658E+01 0.14807594262E+01
 0.13524810283E+01 0.12537164815E+01 0.11813444231E+01 0.11322540208E+01 0.11038909533E+01
 0.10946148062E+01 0.11038734378E+01 0.13007971066E+01 0.13417162147E+01 0.14006834814E+01
 0.14808243746E+01 0.15849948374E+01 0.17149668982E+01 0.18705303302E+01 0.20485797860E+01
 0.22423210939E+01 0.24408842478E+01 0.26297337139E+01 0.27921498120E+01 0.29116957160E+01
 0.29751537374E+01 0.29751457868E+01 0.29116766701E+01 0.27921347303E+01 0.26297429515E+01
 0.24409267628E+01 0.22423795610E+01 0.20486177078E+01 0.18705186912E+01 0.17149048553E+01
 0.15849065867E+01 0.14807416807E+01 0.14006320684E+01 0.13417090755E+01 0.13008281592E+01
 0.12752189044E+01 0.12629040180E+01 0.12628847268E+01 0.12751767331E+01 0.15245884586E+01
 0.15490736332E+01 0.15866889205E+01 0.16410054360E+01 0.17149668982E+01 0.18100391266E+01
 0.19254153543E+01 0.20573799392E+01 0.21989793017E+01 0.23402162913E+01 0.24689550223E+01
 0.25725339335E+01 0.26398077067E+01 0.26631334301E+01 0.26397962777E+01 0.25725216003E+01
 0.24689541301E+01 0.23402313483E+01 0.21990033981E+01 0.20573977197E+01 0.19254096216E+01
 0.18099993620E+01 0.17148973895E+01 0.16409279399E+01 0.15866345181E+01 0.15490656787E+01
 0.15246270214E+01 0.15098775483E+01 0.15021196877E+01 0.14996992086E+01 0.15020765707E+01
 0.15098180815E+01 0.18104915393E+01 0.18077269442E+01 0.18140231048E+01 0.18338540730E+01
 0.18705303302E+01 0.19254153543E+01 0.19973619490E+01 0.20824421941E+01 0.21740796201E+01
 0.22636939450E+01 0.23418516218E+01 0.23997210672E+01 0.24304992952E+01 0.24305002044E+01
 0.23997265160E+01 0.23418671282E+01 0.22637211576E+01 0.21741105804E+01 0.20824608852E+01
 0.19973542414E+01 0.19253797063E+01 0.18704798788E+01 0.18338094425E+01 0.18140026919E+01
 0.18077404224E+01 0.18105365306E+01 0.18176402880E+01 0.18248786029E+01 0.18292537120E+01
 0.18292329396E+01 0.18248259704E+01 0.18175791849E+01 0.21640679882E+01 0.21199327695E+01
 0.20824424556E+01 0.20573796429E+01 0.20485797860E+01 0.20573799392E+01 0.20824421941E+01
 0.21199319359E+01 0.21640674503E+01 0.22080329261E+01 0.22451116815E+01 0.22697640676E+01
 0.22784013702E+01 0.22697881612E+01 0.22451564177E+01 0.22080908442E+01 0.21641252813E+01
 0.21199714808E+01 0.20824489349E+01 0.20573547120E+01 0.20485412866E+01 0.20573535115E+01
 0.20824460674E+01 0.21199675441E+01 0.21641217434E+01 0.22080882127E+01 0.22451541531E+01
 0.22697863410E+01 0.22784007443E+01 0.22697644627E+01 0.22451120519E+01 0.22080330552E+01
 0.25869897696E+01 0.24837715118E+01 0.23875201909E+01 0.23055859256E+01 0.22423210939E+01
 0.21989793017E+01 0.21740796201E+01 0.21640674503E+01 0.21641799963E+01 0.21694230738E+01
 0.21754719270E+01 0.21792762787E+01 0.21792992324E+01 0.21755379487E+01 0.21695192594E+01
 0.21642783463E+01 0.21641333882E+01 0.21740946463E+01 0.21989568858E+01 0.22422957633E+01
 0.23055841252E+01 0.23875429012E+01 0.24838029882E+01 0.25870160788E+01 0.26875790813E+01
 0.27749808224E+01 0.28394898072E+01 0.28737204148E+01 0.28737202377E+01 0.28394875279E+01
 0.27749728906E+01 0.26875625023E+01 0.30736681117E+01 0.28905937589E+01 0.27188702376E+01
 0.25674193554E+01 0.24408842478E+01 0.23402162913E+01 0.22636939450E+01 0.22080329261E+01
 0.21694230738E+01 0.21443933263E+01 0.21303747521E+01 0.21258838922E+01 0.21304456844E+01
 0.21445181457E+01 0.21695641367E+01 0.22081393186E+01 0.22637286544E+01 0.23401855896E+01
 0.24408360236E+01 0.25674026222E+01 0.27188928626E+01 0.28906222885E+01 0.30736661535E+01
 0.32551305405E+01 0.34195043314E+01 0.35509417060E+01 0.36358782834E+01 0.36652556206E+01
 0.36359035363E+01 0.35509888784E+01 0.34195599671E+01 0.32551697409E+01 0.36078759243E+01
 0.33228118005E+01 0.30589755389E+01 0.28264765082E+01 0.26297337139E+01 0.24689550223E+01
 0.23418516218E+01 0.22451116815E+01 0.21754719270E+01 0.21303747521E+01 0.21082157078E+01
 0.21082662457E+01 0.21305109314E+01 0.21756472481E+01 0.22452587159E+01 0.23419146707E+01
 0.24689269034E+01 0.26296591987E+01 0.28264119307E+01 0.30589427161E+01 0.33227910795E+01
 0.36078369977E+01 0.38977791870E+01 0.41711689275E+01 0.44041313969E+01 0.45741586099E+01
 0.46638871651E+01 0.46639137932E+01 0.45742289329E+01 0.44042234196E+01 0.41712591489E+01
 0.38978482336E+01 0.41607047150E+01 0.37531703795E+01 0.33834896186E+01 0.30620456236E+01
 0.27921498120E+01 0.25725339335E+01 0.23997210672E+01 0.22697640676E+01 0.21792762787E+01
 0.21258838922E+01 0.21082662457E+01 0.21259994770E+01 0.21794621063E+01 0.22699404493E+01
 0.23998111342E+01 0.25725122335E+01 0.27920553134E+01 0.30619391490E+01 0.33833999445E+01
 0.37530860149E+01 0.41606079383E+01 0.45868721885E+01 0.50042799219E+01 0.53794354980E+01
 0.56780159217E+01 0.58704709631E+01 0.59369640252E+01 0.58705225076E+01 0.56780999248E+01
 0.53795341614E+01 0.50043864569E+01 0.45869798858E+01 0.46912844535E+01 0.41465195483E+01
 0.36636165300E+01 0.32517041453E+01 0.29116957160E+01 0.26398077067E+01 0.24304992952E+01
 0.22784013702E+01 0.21792992324E+01 0.21304456844E+01 0.21305109314E+01 0.21794621063E+01
 0.22785792702E+01 0.24306046026E+01 0.26397986359E+01 0.29115946072E+01 0.32515657882E+01
 0.36634801886E+01 0.41463922020E+01 0.46911599018E+01 0.52773984513E+01 0.58723099531E+01
 0.64326349357E+01 0.69099896760E+01 0.72584657941E+01 0.74424114769E+01 0.74424281705E+01
 0.72585124767E+01 0.69100599522E+01 0.64327251676E+01 0.58724183234E+01 0.52775190703E+01
 0.51510845535E+01 0.44644036007E+01 0.38704764397E+01 0.33750931737E+01 0.29751537374E+01
 0.26631334301E+01 0.24305002044E+01 0.22697881612E+01 0.21755379487E+01 0.21445181457E+01
 0.21756472481E+01 0.22699404493E+01 0.24306046026E+01 0.26631332932E+01 0.29750570605E+01
 0.33749474221E+01 0.38703193936E+01 0.44642469049E+01 0.51509357601E+01 0.59112039599E+01
 0.67094839861E+01 0.74941254840E+01 0.82020890618E+01 0.87676757771E+01 0.91333492462E+01
 0.92598774837E+01 0.91333543964E+01 0.87676834300E+01 0.82021024062E+01 0.74941603486E+01
 0.67095600333E+01 0.59113250146E+01 0.54914509300E+01 0.46717223906E+01 0.39805244636E+01
 0.34179294370E+01 0.29751457868E+01 0.26397962777E+01 0.23997265160E+01 0.22451564177E+01
 0.21695192594E+01 0.21695641367E+01 0.22452587159E+01 0.23998111342E+01 0.26397986359E+01
 0.29750570605E+01 0.34177895043E+01 0.39803717536E+01 0.46715647250E+01 0.54912893626E+01
 0.64247739549E+01 0.74375824790E+01 0.84734902238E+01 0.94570407110E+01 0.10301675314E+02
 0.10922645789E+02 0.11252035085E+02 0.11252011803E+02 0.10922582809E+02 0.10301593547E+02
 0.94569753142E+01 0.84734826521E+01 0.74376559064E+01 0.64249121916E+01 0.56727639078E+01
 0.47437851883E+01 0.39805111907E+01 0.33750740224E+01 0.29116766701E+01 0.25725216003E+01
 0.23418671282E+01 0.22080908442E+01 0.21642783463E+01 0.22081393186E+01 0.23419146707E+01
 0.25725122335E+01 0.29115946072E+01 0.33749474221E+01 0.39803717536E+01 0.47436385290E+01
 0.56726079944E+01 0.67602670765E+01 0.79779972536E+01 0.92708047715E+01 0.10556518001E+02
 0.11730950393E+02 0.12680283670E+02 0.13299850808E+02 0.13515329165E+02 0.13299775369E+02
 0.12680167301E+02 0.11730837661E+02 0.10556447486E+02 0.92708065734E+01 0.79780811758E+01
 0.67604085101E+01 0.56727436535E+01 0.46716923507E+01 0.38704453953E+01 0.32516819505E+01
 0.27921347303E+01 0.24689541301E+01 0.22637211576E+01 0.21641252813E+01 0.21641333882E+01
 0.22637286544E+01 0.24689269034E+01 0.27920553134E+01 0.32515657882E+01 0.38703193936E+01
 0.46715647250E+01 0.56726079944E+01 0.68769861434E+01 0.82663813871E+01 0.97935900959E+01
 0.11378040466E+02 0.12906096374E+02 0.14239327332E+02 0.15233328236E+02 0.15765729656E+02
 0.15765717839E+02 0.15233294469E+02 0.14239275412E+02 0.12906037338E+02 0.11378002868E+02
 0.97936105991E+01 0.82664716416E+01 0.68771180378E+01 0.54913948647E+01 0.44643519272E+01
 0.36635919009E+01 0.30620482637E+01 0.26297429515E+01 0.23402313483E+01 0.21741105804E+01
 0.21199714808E+01 0.21740946463E+01 0.23401855896E+01 0.26296591987E+01 0.30619391490E+01
 0.36634801886E+01 0.44642469049E+01 0.54912893626E+01 0.67602670765E+01 0.82663813871E+01
 0.99758450254E+01 0.11818496655E+02 0.13682845367E+02 0.15417326206E+02 0.16843859944E+02
 0.17787635782E+02 0.18118278316E+02 0.17787690941E+02 0.16843934796E+02 0.15417376663E+02
 0.13682856959E+02 0.11818498297E+02 0.99758793978E+01 0.82664622011E+01 0.67603721385E+01
 0.51510069858E+01 0.41464702271E+01 0.33835016294E+01 0.28265261423E+01 0.24409267628E+01
 0.21990033981E+01 0.20824608852E+01 0.20824489349E+01 0.21989568858E+01 0.24408360236E+01
 0.28264119307E+01 0.33833999445E+01 0.41463922020E+01 0.51509357601E+01 0.64247739549E+01
 0.79779972536E+01 0.97935900959E+01 0.11818496655E+02 0.13954862954E+02 0.16053818522E+02
 0.17919403359E+02 0.19330013521E+02 0.20090269365E+02 0.20090315954E+02 0.19330139494E+02
 0.17919564437E+02 0.16053950825E+02 0.13954926605E+02 0.11818509584E+02 0.97936057889E+01