   2   2   0   0
  0.2001288E+02  0.3839590E-09  0.3839590E-09  0.3839590E-09  0.5000000E-15
  1.000000000000000E-004
  CAR 
 unknown system                          
     17.39782138     -8.08068177  301      6.14498215      1.00000000
     -8.081  0.0000E+00  0.0000E+00
     -7.996  0.0000E+00  0.0000E+00
     -7.911  0.0000E+00  0.0000E+00
     -7.826  0.0000E+00  0.0000E+00
     -7.741  0.0000E+00  0.0000E+00
     -7.656  0.0000E+00  0.0000E+00
     -7.571  0.0000E+00  0.0000E+00
     -7.486  0.0000E+00  0.0000E+00
     -7.401  0.0000E+00  0.0000E+00
     -7.316  0.0000E+00  0.0000E+00
     -7.231  0.1362E-17  0.1156E-18
     -7.146  0.1471E-15  0.1261E-16
     -7.062  0.1227E-13  0.1055E-14
     -6.977  0.7171E-12  0.6196E-13
     -6.892  0.2942E-10  0.2561E-11
     -6.807  0.8489E-09  0.7466E-10
     -6.722  0.1726E-07  0.1540E-08
     -6.637  0.2480E-06  0.2261E-07
     -6.552  0.2534E-05  0.2378E-06
     -6.467  0.1855E-04  0.1813E-05
     -6.382  0.9855E-04  0.1018E-04
     -6.297  0.3870E-03  0.4305E-04
     -6.212  0.1150E-02  0.1407E-03
     -6.127  0.2660E-02  0.3666E-03
     -6.042  0.4928E-02  0.7851E-03
     -5.957  0.7555E-02  0.1427E-02
     -5.873  0.1002E-01  0.2278E-02
     -5.788  0.1218E-01  0.3312E-02
     -5.703  0.1428E-01  0.4525E-02
     -5.618  0.1629E-01  0.5909E-02
     -5.533  0.1770E-01  0.7412E-02
     -5.448  0.1839E-01  0.8974E-02
     -5.363  0.1938E-01  0.1062E-01
     -5.278  0.2158E-01  0.1245E-01
     -5.193  0.2414E-01  0.1450E-01
     -5.108  0.2531E-01  0.1665E-01
     -5.023  0.2500E-01  0.1878E-01
     -4.938  0.2504E-01  0.2090E-01
     -4.853  0.2657E-01  0.2316E-01
     -4.768  0.2883E-01  0.2561E-01
     -4.684  0.3093E-01  0.2823E-01
     -4.599  0.3295E-01  0.3103E-01
     -4.514  0.3479E-01  0.3399E-01
     -4.429  0.3564E-01  0.3701E-01
     -4.344  0.3508E-01  0.3999E-01
     -4.259  0.3411E-01  0.4289E-01
     -4.174  0.3524E-01  0.4588E-01
     -4.089  0.4028E-01  0.4931E-01
     -4.004  0.4732E-01  0.5332E-01
     -3.919  0.5219E-01  0.5776E-01
     -3.834  0.5345E-01  0.6230E-01
     -3.749  0.5325E-01  0.6682E-01
     -3.664  0.5354E-01  0.7136E-01
     -3.579  0.5372E-01  0.7593E-01
     -3.495  0.5187E-01  0.8033E-01
     -3.410  0.4795E-01  0.8440E-01
     -3.325  0.4561E-01  0.8828E-01
     -3.240  0.4824E-01  0.9238E-01
     -3.155  0.5363E-01  0.9693E-01
     -3.070  0.5552E-01  0.1016E+00
     -2.985  0.5042E-01  0.1059E+00
     -2.900  0.4074E-01  0.1094E+00
     -2.815  0.3143E-01  0.1121E+00
     -2.730  0.2564E-01  0.1142E+00
     -2.645  0.2425E-01  0.1163E+00
     -2.560  0.2721E-01  0.1186E+00
     -2.475  0.3306E-01  0.1214E+00
     -2.390  0.3791E-01  0.1246E+00
     -2.306  0.3741E-01  0.1278E+00
     -2.221  0.3033E-01  0.1304E+00
     -2.136  0.1965E-01  0.1321E+00
     -2.051  0.9920E-02  0.1329E+00
     -1.966  0.3822E-02  0.1332E+00
     -1.881  0.1250E-02  0.1333E+00
     -1.796  0.1184E-02  0.1334E+00
     -1.711  0.3943E-02  0.1338E+00
     -1.626  0.1139E-01  0.1347E+00
     -1.541  0.2383E-01  0.1368E+00
     -1.456  0.3631E-01  0.1398E+00
     -1.371  0.4154E-01  0.1434E+00
     -1.286  0.3877E-01  0.1467E+00
     -1.201  0.3583E-01  0.1497E+00
     -1.117  0.4046E-01  0.1531E+00
     -1.032  0.5265E-01  0.1576E+00
     -0.947  0.6608E-01  0.1632E+00
     -0.862  0.7490E-01  0.1696E+00
     -0.777  0.7756E-01  0.1762E+00
     -0.692  0.7431E-01  0.1825E+00
     -0.607  0.6539E-01  0.1880E+00
     -0.522  0.5432E-01  0.1926E+00
     -0.437  0.4745E-01  0.1967E+00
     -0.352  0.4643E-01  0.2006E+00
     -0.267  0.4490E-01  0.2044E+00
     -0.182  0.3704E-01  0.2076E+00
     -0.097  0.2615E-01  0.2098E+00
     -0.012  0.2064E-01  0.2116E+00
      0.072  0.2393E-01  0.2136E+00
      0.157  0.3193E-01  0.2163E+00
      0.242  0.3764E-01  0.2195E+00
      0.327  0.3658E-01  0.2226E+00
      0.412  0.2960E-01  0.2251E+00
      0.497  0.2144E-01  0.2269E+00
      0.582  0.1678E-01  0.2284E+00
      0.667  0.1780E-01  0.2299E+00
      0.752  0.2319E-01  0.2318E+00
      0.837  0.2776E-01  0.2342E+00
      0.922  0.2611E-01  0.2364E+00
      1.007  0.1858E-01  0.2380E+00
      1.092  0.1106E-01  0.2389E+00
      1.177  0.8578E-02  0.2397E+00
      1.261  0.1194E-01  0.2407E+00
      1.346  0.2011E-01  0.2424E+00
      1.431  0.3257E-01  0.2451E+00
      1.516  0.4716E-01  0.2492E+00
      1.601  0.5842E-01  0.2541E+00
      1.686  0.6267E-01  0.2594E+00
      1.771  0.6314E-01  0.2648E+00
      1.856  0.6505E-01  0.2703E+00
      1.941  0.6861E-01  0.2762E+00
      2.026  0.7091E-01  0.2822E+00
      2.111  0.7171E-01  0.2883E+00
      2.196  0.7264E-01  0.2944E+00
      2.281  0.7337E-01  0.3007E+00
      2.366  0.7230E-01  0.3068E+00
      2.450  0.6939E-01  0.3127E+00
      2.535  0.6682E-01  0.3184E+00
      2.620  0.6731E-01  0.3241E+00
      2.705  0.7256E-01  0.3303E+00
      2.790  0.8243E-01  0.3373E+00
      2.875  0.9316E-01  0.3452E+00
      2.960  0.9841E-01  0.3535E+00
      3.045  0.9628E-01  0.3617E+00
      3.130  0.9278E-01  0.3696E+00
      3.215  0.9372E-01  0.3775E+00
      3.300  0.9644E-01  0.3857E+00
      3.385  0.9458E-01  0.3938E+00
      3.470  0.8829E-01  0.4013E+00
      3.555  0.8551E-01  0.4085E+00
      3.639  0.9208E-01  0.4163E+00
      3.724  0.1022E+00  0.4250E+00
      3.809  0.1034E+00  0.4338E+00
      3.894  0.9159E-01  0.4416E+00
      3.979  0.7563E-01  0.4480E+00
      4.064  0.6782E-01  0.4538E+00
      4.149  0.7257E-01  0.4599E+00
      4.234  0.8356E-01  0.4670E+00
      4.319  0.9023E-01  0.4747E+00
      4.404  0.8702E-01  0.4821E+00
      4.489  0.7659E-01  0.4886E+00
      4.574  0.6565E-01  0.4942E+00
      4.659  0.5937E-01  0.4992E+00
      4.743  0.5835E-01  0.5042E+00
      4.828  0.5785E-01  0.5091E+00
      4.913  0.5175E-01  0.5135E+00
      4.998  0.4018E-01  0.5169E+00
      5.083  0.2986E-01  0.5194E+00
      5.168  0.2609E-01  0.5216E+00
      5.253  0.2720E-01  0.5239E+00
      5.338  0.2748E-01  0.5263E+00
      5.423  0.2377E-01  0.5283E+00
      5.508  0.1799E-01  0.5298E+00
      5.593  0.1330E-01  0.5309E+00
      5.678  0.1035E-01  0.5318E+00
      5.763  0.7933E-02  0.5325E+00
      5.848  0.5313E-02  0.5330E+00
      5.932  0.2857E-02  0.5332E+00
      6.017  0.1177E-02  0.5333E+00
      6.102  0.3724E-03  0.5333E+00
      6.187  0.1688E-03  0.5333E+00
      6.272  0.4649E-03  0.5334E+00
      6.357  0.1650E-02  0.5335E+00
      6.442  0.4320E-02  0.5339E+00
      6.527  0.8281E-02  0.5346E+00
      6.612  0.1208E-01  0.5356E+00
      6.697  0.1464E-01  0.5369E+00
      6.782  0.1709E-01  0.5383E+00
      6.867  0.2166E-01  0.5402E+00
      6.952  0.2815E-01  0.5425E+00
      7.037  0.3347E-01  0.5454E+00
      7.121  0.3582E-01  0.5484E+00
      7.206  0.3779E-01  0.5516E+00
      7.291  0.4208E-01  0.5552E+00
      7.376  0.4649E-01  0.5592E+00
      7.461  0.4774E-01  0.5632E+00
      7.546  0.4732E-01  0.5672E+00
      7.631  0.4967E-01  0.5714E+00
      7.716  0.5709E-01  0.5763E+00
      7.801  0.6860E-01  0.5821E+00
      7.886  0.8225E-01  0.5891E+00
      7.971  0.9581E-01  0.5972E+00
      8.056  0.1052E+00  0.6062E+00
      8.141  0.1063E+00  0.6152E+00
      8.226  0.1001E+00  0.6237E+00
      8.310  0.9228E-01  0.6315E+00
      8.395  0.8805E-01  0.6390E+00
      8.480  0.8773E-01  0.6465E+00
      8.565  0.8716E-01  0.6539E+00
      8.650  0.8211E-01  0.6608E+00
      8.735  0.7432E-01  0.6672E+00
      8.820  0.7024E-01  0.6731E+00
      8.905  0.7477E-01  0.6795E+00
      8.990  0.8978E-01  0.6871E+00
      9.075  0.1129E+00  0.6967E+00
      9.160  0.1336E+00  0.7080E+00
      9.245  0.1391E+00  0.7198E+00
      9.330  0.1273E+00  0.7307E+00
      9.415  0.1093E+00  0.7399E+00
      9.499  0.9817E-01  0.7483E+00
      9.584  0.9807E-01  0.7566E+00
      9.669  0.1031E+00  0.7654E+00
      9.754  0.1051E+00  0.7743E+00
      9.839  0.1008E+00  0.7828E+00
      9.924  0.9300E-01  0.7907E+00
     10.009  0.8739E-01  0.7982E+00
     10.094  0.8564E-01  0.8054E+00
     10.179  0.8435E-01  0.8126E+00
     10.264  0.8128E-01  0.8195E+00
     10.349  0.7811E-01  0.8261E+00
     10.434  0.7715E-01  0.8327E+00
     10.519  0.7902E-01  0.8394E+00
     10.604  0.8308E-01  0.8465E+00
     10.688  0.8840E-01  0.8540E+00
     10.773  0.9415E-01  0.8620E+00
     10.858  0.9798E-01  0.8703E+00
     10.943  0.9572E-01  0.8784E+00
     11.028  0.8572E-01  0.8857E+00
     11.113  0.7196E-01  0.8918E+00
     11.198  0.6075E-01  0.8970E+00
     11.283  0.5507E-01  0.9016E+00
     11.368  0.5413E-01  0.9062E+00
     11.453  0.5793E-01  0.9112E+00
     11.538  0.6794E-01  0.9169E+00
     11.623  0.8244E-01  0.9239E+00
     11.708  0.9541E-01  0.9320E+00
     11.793  0.1013E+00  0.9406E+00
     11.877  0.9779E-01  0.9489E+00
     11.962  0.8492E-01  0.9562E+00
     12.047  0.6640E-01  0.9618E+00
     12.132  0.5020E-01  0.9661E+00
     12.217  0.4336E-01  0.9697E+00
     12.302  0.4552E-01  0.9736E+00
     12.387  0.4919E-01  0.9778E+00
     12.472  0.4739E-01  0.9818E+00
     12.557  0.4079E-01  0.9853E+00
     12.642  0.3690E-01  0.9884E+00
     12.727  0.4293E-01  0.9921E+00
     12.812  0.5939E-01  0.9971E+00
     12.897  0.7819E-01  0.1004E+01
     12.982  0.8742E-01  0.1011E+01
     13.066  0.8032E-01  0.1018E+01
     13.151  0.6056E-01  0.1023E+01
     13.236  0.3900E-01  0.1026E+01
     13.321  0.2584E-01  0.1029E+01
     13.406  0.2399E-01  0.1031E+01
     13.491  0.2836E-01  0.1033E+01
     13.576  0.3180E-01  0.1036E+01
     13.661  0.3149E-01  0.1038E+01
     13.746  0.2907E-01  0.1041E+01
     13.831  0.2699E-01  0.1043E+01
     13.916  0.2650E-01  0.1045E+01
     14.001  0.2815E-01  0.1048E+01
     14.086  0.3183E-01  0.1051E+01
     14.171  0.3515E-01  0.1054E+01
     14.255  0.3360E-01  0.1056E+01
     14.340  0.2528E-01  0.1059E+01
     14.425  0.1419E-01  0.1060E+01
     14.510  0.5785E-02  0.1060E+01
     14.595  0.1742E-02  0.1060E+01
     14.680  0.6637E-03  0.1060E+01
     14.765  0.1266E-02  0.1061E+01
     14.850  0.3310E-02  0.1061E+01
     14.935  0.6372E-02  0.1061E+01
     15.020  0.8835E-02  0.1062E+01
     15.105  0.9290E-02  0.1063E+01
     15.190  0.8564E-02  0.1064E+01
     15.275  0.8474E-02  0.1064E+01
     15.360  0.8895E-02  0.1065E+01
     15.444  0.8134E-02  0.1066E+01
     15.529  0.5712E-02  0.1066E+01
     15.614  0.2949E-02  0.1067E+01
     15.699  0.1103E-02  0.1067E+01
     15.784  0.2971E-03  0.1067E+01
     15.869  0.5730E-04  0.1067E+01
     15.954  0.7882E-05  0.1067E+01
     16.039  0.7705E-06  0.1067E+01
     16.124  0.5334E-07  0.1067E+01
     16.209  0.2609E-08  0.1067E+01
     16.294  0.8993E-10  0.1067E+01
     16.379  0.2182E-11  0.1067E+01
     16.464  0.3719E-13  0.1067E+01
     16.549  0.4453E-15  0.1067E+01
     16.633  0.4085E-17  0.1067E+01
     16.718  0.0000E+00  0.1067E+01
     16.803  0.0000E+00  0.1067E+01
     16.888  0.0000E+00  0.1067E+01
     16.973  0.0000E+00  0.1067E+01
     17.058  0.0000E+00  0.1067E+01
     17.143  0.0000E+00  0.1067E+01
     17.228  0.0000E+00  0.1067E+01
     17.313  0.0000E+00  0.1067E+01
     17.398  0.0000E+00  0.1067E+01
