       N       E                     dE             d eps       ncg     rms          rms(c)
DAV:   1     0.105869149650E+01    0.10587E+01   -0.23033E+03   976   0.450E+02
DAV:   2    -0.108806590379E+02   -0.11939E+02   -0.11454E+02  1496   0.633E+01
DAV:   3    -0.110024445125E+02   -0.12179E+00   -0.12179E+00  1128   0.820E+00
DAV:   4    -0.110029210406E+02   -0.47653E-03   -0.47653E-03  1560   0.546E-01
DAV:   5    -0.110029213280E+02   -0.28739E-06   -0.28722E-06  1224   0.103E-02    0.300E+00
DAV:   6    -0.108788054067E+02    0.12412E+00   -0.81672E-02  1160   0.149E+00    0.178E+00
DAV:   7    -0.108223773033E+02    0.56428E-01   -0.14980E-01  1200   0.214E+00    0.153E-01
DAV:   8    -0.108236721285E+02   -0.12948E-02   -0.39147E-03  1088   0.462E-01    0.247E-02
DAV:   9    -0.108237632038E+02   -0.91075E-04   -0.89622E-05   808   0.754E-02
   1 F= -.10823763E+02 E0= -.10823741E+02  d E =-.108238E+02
