    2    2   15    1
  0.2001288E+02  0.3839590E-09  0.3839590E-09  0.3839590E-09  0.5000000E-15
  1.000000000000000E-004
  CAR 
 unknown system                          
      8      4      8
 
  0.0000000E+00  0.0000000E+00  0.0000000E+00  0.3703704E-01
    1       -6.045096   1.000000
    2        5.939412   0.989451
    3        5.939442   0.989445
    4        5.939442   0.989445
    5        8.463959   0.000000
    6        8.463986   0.000000
    7        8.463986   0.000000
    8        9.321817   0.000000
 
  0.3333333E+00  0.6723763E-17  0.1473614E-18  0.2962963E+00
    1       -4.664611   1.000000
    2        0.585113   1.000000
    3        4.928564   1.000000
    4        4.928595   1.000000
    5        7.688959   0.000000
    6        9.405697   0.000000
    7        9.405764   0.000000
    8       13.787827   0.000000
 
  0.3333333E+00  0.3333333E+00  0.1682863E-16  0.2222222E+00
    1       -4.136463   1.000000
    2        0.923151   1.000000
    3        3.499169   1.000000
    4        3.499187   1.000000
    5        6.627198   0.005277
    6        7.886134   0.000000
    7       13.194740   0.000000
    8       13.194753   0.000000
 
 -0.3333333E+00  0.3333333E+00  0.1344753E-16  0.4444444E+00
    1       -2.770414   1.000000
    2       -0.843333   1.000000
    3        1.490728   1.000000
    4        3.807907   1.000000
    5        7.466716   0.000000
    6       11.725986   0.000000
    7       12.388373   0.000000
    8       13.011770   0.000000
