<?xml version="1.0" encoding="ISO-8859-1"?>
<modeling>
 <generator>
  <i name="program" type="string">vasp </i>
  <i name="version" type="string">5.4.4.18Apr17-6-g9f103f2a35  </i>
  <i name="subversion" type="string">(build Dec 09 2018 21:25:21) complex            parallel </i>
  <i name="platform" type="string">IFC18.0.1.163_CrayMPICH7.7.0_MKL18.0.1.163 </i>
  <i name="date" type="string">2019 03 19 </i>
  <i name="time" type="string">13:38:29 </i>
 </generator>
 <incar>
  <i type="string" name="PREC">normal</i>
  <i type="int" name="IBRION">     2</i>
  <i name="EDIFF">      0.00040000</i>
  <i name="EDIFFG">     -0.01000000</i>
  <i type="int" name="NSW">    15</i>
  <i type="int" name="ISIF">     2</i>
  <i name="ENCUT">    300.00000000</i>
  <i type="int" name="NBANDS">     8</i>
  <i type="logical" name="LREAL"> F  </i>
  <i type="int" name="ISMEAR">     0</i>
  <i name="SIGMA">      0.20000000</i>
  <v type="int" name="KPOINT_BSE">    -1     0     0     0</v>
 </incar>
 <structure name="primitive_cell" >
  <crystal>
   <varray name="basis" >
    <v>       0.00000000       2.71500000       2.71500000 </v>
    <v>       2.71500000       0.00000000       2.71500000 </v>
    <v>       2.71500000       2.71500000       0.00000000 </v>
   </varray>
   <i name="volume">     40.02575175 </i>
   <varray name="rec_basis" >
    <v>      -0.18416206       0.18416206       0.18416206 </v>
    <v>       0.18416206      -0.18416206       0.18416206 </v>
    <v>       0.18416206       0.18416206      -0.18416206 </v>
   </varray>
  </crystal>
  <varray name="positions" >
   <v>      -0.50000000      -0.50000000      -0.50000000 </v>
   <v>      -0.25000000      -0.25000000      -0.25000000 </v>
  </varray>
 </structure>
 <varray name="primitive_index" >
  <v type="int" >        1 </v>
  <v type="int" >        2 </v>
 </varray>
 <kpoints>
  <generation param="Monkhorst-Pack">
   <v type="int" name="divisions">       3        3        3 </v>
   <v name="usershift">      0.00000000       0.00000000       0.00000000 </v>
   <v name="genvec1">      0.33333333      -0.00000000       0.00000000 </v>
   <v name="genvec2">     -0.00000000       0.33333333      -0.00000000 </v>
   <v name="genvec3">      0.00000000       0.00000000       0.33333333 </v>
   <v name="shift">      0.00000000       0.00000000       0.00000000 </v>
  </generation>
  <varray name="kpointlist" >
   <v>       0.00000000       0.00000000       0.00000000 </v>
   <v>       0.33333333       0.00000000       0.00000000 </v>
   <v>       0.33333333       0.33333333       0.00000000 </v>
   <v>      -0.33333333       0.33333333       0.00000000 </v>
  </varray>
  <varray name="weights" >
   <v>       0.03703704 </v>
   <v>       0.29629630 </v>
   <v>       0.22222222 </v>
   <v>       0.44444444 </v>
  </varray>
 </kpoints>
 <parameters>
  <separator name="general" >
   <i type="string" name="SYSTEM">unknown system</i>
   <i type="logical" name="LCOMPAT"> F  </i>
  </separator>
  <separator name="electronic" >
   <i type="string" name="PREC">normal</i>
   <i name="ENMAX">    300.00000000</i>
   <i name="ENAUG">    322.06900000</i>
   <i name="EDIFF">      0.00040000</i>
   <i type="int" name="IALGO">    38</i>
   <i type="int" name="IWAVPR">    11</i>
   <i type="int" name="NBANDS">     8</i>
   <i name="NELECT">      8.00000000</i>
   <i type="int" name="TURBO">     0</i>
   <i type="int" name="IRESTART">     0</i>
   <i type="int" name="NREBOOT">     0</i>
   <i type="int" name="NMIN">     0</i>
   <i name="EREF">      0.00000000</i>
   <separator name="electronic smearing" >
    <i type="int" name="ISMEAR">     0</i>
    <i name="SIGMA">      0.20000000</i>
    <i name="KSPACING">      0.50000000</i>
    <i type="logical" name="KGAMMA"> T  </i>
   </separator>
   <separator name="electronic projectors" >
    <i type="logical" name="LREAL"> F  </i>
    <v name="ROPT">      0.00000000</v>
    <i type="int" name="LMAXPAW">  -100</i>
    <i type="int" name="LMAXMIX">     2</i>
    <i type="logical" name="NLSPLINE"> F  </i>
   </separator>
   <separator name="electronic startup" >
    <i type="int" name="ISTART">     0</i>
    <i type="int" name="ICHARG">     2</i>
    <i type="int" name="INIWAV">     1</i>
   </separator>
   <separator name="electronic spin" >
    <i type="int" name="ISPIN">     1</i>
    <i type="logical" name="LNONCOLLINEAR"> F  </i>
    <v name="MAGMOM">      1.00000000      1.00000000</v>
    <i name="NUPDOWN">     -1.00000000</i>
    <i type="logical" name="LSORBIT"> F  </i>
    <v name="SAXIS">      0.00000000      0.00000000      1.00000000</v>
    <i type="logical" name="LSPIRAL"> F  </i>
    <v name="QSPIRAL">      0.00000000      0.00000000      0.00000000</v>
    <i type="logical" name="LZEROZ"> F  </i>
   </separator>
   <separator name="electronic exchange-correlation" >
    <i type="logical" name="LASPH"> F  </i>
    <i type="logical" name="LMETAGGA"> F  </i>
   </separator>
   <separator name="electronic convergence" >
    <i type="int" name="NELM">    60</i>
    <i type="int" name="NELMDL">    -5</i>
    <i type="int" name="NELMIN">     2</i>
    <i name="ENINI">    300.00000000</i>
    <separator name="electronic convergence detail" >
     <i type="logical" name="LDIAG"> T  </i>
     <i type="logical" name="LSUBROT"> F  </i>
     <i name="WEIMIN">      0.00100000</i>
     <i name="EBREAK">      0.00001250</i>
     <i name="DEPER">      0.30000000</i>
     <i type="int" name="NRMM">     4</i>
     <i name="TIME">      0.40000000</i>
    </separator>
   </separator>
   <separator name="electronic mixer" >
    <i name="AMIX">      0.40000000</i>
    <i name="BMIX">      1.00000000</i>
    <i name="AMIN">      0.10000000</i>
    <i name="AMIX_MAG">      1.60000000</i>
    <i name="BMIX_MAG">      1.00000000</i>
    <separator name="electronic mixer details" >
     <i type="int" name="IMIX">     4</i>
     <i type="logical" name="MIXFIRST"> F  </i>
     <i type="int" name="MAXMIX">   -45</i>
     <i name="WC">    100.00000000</i>
     <i type="int" name="INIMIX">     1</i>
     <i type="int" name="MIXPRE">     1</i>
     <i type="int" name="MREMOVE">     5</i>
    </separator>
   </separator>
   <separator name="electronic dipolcorrection" >
    <i type="logical" name="LDIPOL"> F  </i>
    <i type="logical" name="LMONO"> F  </i>
    <i type="int" name="IDIPOL">     0</i>
    <i name="EPSILON">      1.00000000</i>
    <v name="DIPOL">   -100.00000000   -100.00000000   -100.00000000</v>
    <i name="EFIELD">      0.00000000</i>
   </separator>
  </separator>
  <separator name="grids" >
   <i type="int" name="NGX">    16</i>
   <i type="int" name="NGY">    16</i>
   <i type="int" name="NGZ">    16</i>
   <i type="int" name="NGXF">    32</i>
   <i type="int" name="NGYF">    32</i>
   <i type="int" name="NGZF">    32</i>
   <i type="logical" name="ADDGRID"> F  </i>
  </separator>
  <separator name="ionic" >
   <i type="int" name="NSW">    15</i>
   <i type="int" name="IBRION">     2</i>
   <i type="int" name="MDALGO">     0</i>
   <i type="int" name="ISIF">     2</i>
   <i name="PSTRESS">      0.00000000</i>
   <i name="EDIFFG">     -0.01000000</i>
   <i type="int" name="NFREE">     1</i>
   <i name="POTIM">      0.50000000</i>
   <i name="SMASS">     -3.00000000</i>
   <i name="SCALEE">      1.00000000</i>
  </separator>
  <separator name="ionic md" >
   <i name="TEBEG">      0.00010000</i>
   <i name="TEEND">      0.00010000</i>
   <i type="int" name="NBLOCK">     1</i>
   <i type="int" name="KBLOCK">    15</i>
   <i type="int" name="NPACO">   256</i>
   <i name="APACO">     16.00000000</i>
  </separator>
  <separator name="symmetry" >
   <i type="int" name="ISYM">     2</i>
   <i name="SYMPREC">      0.00001000</i>
  </separator>
  <separator name="dos" >
   <i type="int" name="LORBIT">     0</i>
   <v name="RWIGS">     -1.00000000</v>
   <i type="int" name="NEDOS">   301</i>
   <i name="EMIN">     10.00000000</i>
   <i name="EMAX">    -10.00000000</i>
   <i name="EFERMI">      0.00000000</i>
  </separator>
  <separator name="writing" >
   <i type="int" name="NWRITE">     2</i>
   <i type="logical" name="LWAVE"> T  </i>
   <i type="logical" name="LDOWNSAMPLE"> F  </i>
   <i type="logical" name="LCHARG"> T  </i>
   <i type="logical" name="LPARD"> F  </i>
   <i type="logical" name="LVTOT"> F  </i>
   <i type="logical" name="LVHAR"> F  </i>
   <i type="logical" name="LELF"> F  </i>
   <i type="logical" name="LOPTICS"> F  </i>
   <v name="STM">      0.00000000      0.00000000      0.00000000      0.00000000      0.00000000      0.00000000      0.00000000</v>
  </separator>
  <separator name="performance" >
   <i type="int" name="NPAR">     8</i>
   <i type="int" name="NSIM">     4</i>
   <i type="int" name="NBLK">    -1</i>
   <i type="logical" name="LPLANE"> T  </i>
   <i type="logical" name="LSCALAPACK"> T  </i>
   <i type="logical" name="LSCAAWARE"> F  </i>
   <i type="logical" name="LSCALU"> F  </i>
   <i type="logical" name="LASYNC"> F  </i>
   <i type="logical" name="LORBITALREAL"> F  </i>
  </separator>
  <separator name="miscellaneous" >
   <i type="int" name="IDIOT">     3</i>
   <i type="int" name="ISPECIAL">     0</i>
   <i type="logical" name="LMUSIC"> F  </i>
   <v name="POMASS">     28.08500000</v>
   <v name="DARWINR">      0.00000000</v>
   <v name="DARWINV">      1.00000000</v>
   <i type="logical" name="LCORR"> T  </i>
  </separator>
  <i type="logical" name="GGA_COMPAT"> T  </i>
  <i type="logical" name="LBERRY"> F  </i>
  <i type="int" name="ICORELEVEL">     0</i>
  <i type="logical" name="LDAU"> F  </i>
  <i type="int" name="I_CONSTRAINED_M">     0</i>
  <separator name="electronic exchange-correlation" >
   <i type="string" name="GGA">--</i>
   <i type="int" name="VOSKOWN">     0</i>
   <i type="logical" name="LHFCALC"> F  </i>
   <i type="string" name="PRECFOCK"></i>
   <i type="logical" name="LSYMGRAD"> F  </i>
   <i type="logical" name="LHFONE"> F  </i>
   <i type="logical" name="LRHFCALC"> F  </i>
   <i type="logical" name="LTHOMAS"> F  </i>
   <i type="logical" name="LMODELHF"> F  </i>
   <i name="ENCUT4O">     -1.00000000</i>
   <i type="int" name="EXXOEP">     0</i>
   <i type="int" name="FOURORBIT">     0</i>
   <i name="AEXX">      0.00000000</i>
   <i name="HFALPHA">      0.00000000</i>
   <i name="MCALPHA">      0.00000000</i>
   <i name="ALDAX">      1.00000000</i>
   <i name="AGGAX">      1.00000000</i>
   <i name="ALDAC">      1.00000000</i>
   <i name="AGGAC">      1.00000000</i>
   <i type="int" name="NKREDX">     1</i>
   <i type="int" name="NKREDY">     1</i>
   <i type="int" name="NKREDZ">     1</i>
   <i type="logical" name="SHIFTRED"> F  </i>
   <i type="logical" name="ODDONLY"> F  </i>
   <i type="logical" name="EVENONLY"> F  </i>
   <i type="int" name="LMAXFOCK">     0</i>
   <i type="int" name="NMAXFOCKAE">     0</i>
   <i type="logical" name="LFOCKAEDFT"> F  </i>
   <i name="HFSCREEN">      0.00000000</i>
   <i name="HFSCREENC">      0.00000000</i>
   <i type="int" name="NBANDSGWLOW">     0</i>
  </separator>
  <separator name="vdW DFT" >
   <i type="logical" name="LUSE_VDW"> F  </i>
   <i name="Zab_VDW">     -0.84910000</i>
   <i name="PARAM1">      0.12340000</i>
   <i name="PARAM2">      1.00000000</i>
   <i name="PARAM3">      0.00000000</i>
  </separator>
  <separator name="model GW" >
   <i type="int" name="MODEL_GW">     0</i>
   <i name="MODEL_EPS0">     12.00772552</i>
   <i name="MODEL_ALPHA">      1.00000000</i>
  </separator>
  <separator name="linear response parameters" >
   <i type="logical" name="LEPSILON"> F  </i>
   <i type="logical" name="LRPA"> F  </i>
   <i type="logical" name="LNABLA"> F  </i>
   <i type="logical" name="LVEL"> F  </i>
   <i type="int" name="KINTER">     0</i>
   <i name="CSHIFT">      0.10000000</i>
   <i name="OMEGAMAX">     -1.00000000</i>
   <i name="DEG_THRESHOLD">      0.00200000</i>
   <i name="RTIME">     -0.10000000</i>
   <i name="WPLASMAI">      0.00000000</i>
   <v name="DFIELD">      0.00000000      0.00000000      0.00000000</v>
   <v name="WPLASMA">      0.00000000      0.00000000      0.00000000      0.00000000      0.00000000      0.00000000      0.00000000      0.00000000      0.00000000</v>
  </separator>
  <separator name="orbital magnetization" >
   <i type="logical" name="NUCIND"> F  </i>
   <v name="MAGPOS">      0.00000000      0.00000000      0.00000000</v>
   <i type="logical" name="LNICSALL"> T  </i>
   <i type="logical" name="ORBITALMAG"> F  </i>
   <i type="logical" name="LMAGBLOCH"> F  </i>
   <i type="logical" name="LCHIMAG"> F  </i>
   <i type="logical" name="LGAUGE"> T  </i>
   <i type="int" name="MAGATOM">     0</i>
   <v name="MAGDIPOL">      0.00000000      0.00000000      0.00000000</v>
   <v name="AVECCONST">      0.00000000      0.00000000      0.00000000</v>
  </separator>
  <separator name="response functions" >
   <i type="logical" name="LADDER"> F  </i>
   <i type="logical" name="LRPAFORCE"> F  </i>
   <i type="logical" name="LFXC"> F  </i>
   <i type="logical" name="LHARTREE"> T  </i>
   <i type="int" name="IBSE">     0</i>
   <v type="int" name="KPOINT">    -1     0     0     0</v>
   <i type="logical" name="LTCTE"> F  </i>
   <i type="logical" name="LTETE"> F  </i>
   <i type="logical" name="LTRIPLET"> F  </i>
   <i type="logical" name="LFXCEPS"> F  </i>
   <i type="logical" name="LFXHEG"> F  </i>
   <i type="int" name="NATURALO">     2</i>
   <i type="logical" name="L2ORDER"> F  </i>
   <i type="logical" name="LMP2LT"> F  </i>
   <i type="logical" name="LUSEW"> F  </i>
   <i name="ENCUTGW">     -2.00000000</i>
   <i name="ENCUTGWSOFT">     -2.00000000</i>
   <i name="ENCUTLF">     -1.00000000</i>
   <i type="int" name="LMAXMP2">    -1</i>
   <i name="SCISSOR">      0.00000000</i>
   <i type="int" name="NOMEGA">     0</i>
   <i type="int" name="NOMEGAR">     0</i>
   <i type="int" name="NBANDSGW">    -1</i>
   <i type="int" name="NBANDSO">    -1</i>
   <i type="int" name="NBANDSV">    -1</i>
   <i type="int" name="NELM">     1</i>
   <i type="int" name="NELMHF">     1</i>
   <i type="int" name="DIM">     3</i>
   <i type="int" name="ANTIRES">     0</i>
   <i name="OMEGAMAX">    -30.00000000</i>
   <i name="OMEGAMIN">    -30.00000000</i>
   <i name="OMEGATL">   -200.00000000</i>
   <i type="int" name="OMEGAGRID">   140</i>
   <i name="CSHIFT">     -0.10000000</i>
   <i type="logical" name="SELFENERGY"> F  </i>
   <i type="logical" name="LSPECTRAL"> F  </i>
   <i type="logical" name="LSPECTRALGW"> F  </i>
   <i type="logical" name="LSINGLES"> F  </i>
   <i type="logical" name="LFERMIGW"> F  </i>
   <i type="logical" name="ODDONLYGW"> F  </i>
   <i type="logical" name="EVENONLYGW"> F  </i>
   <i type="int" name="NKREDLFX">     1</i>
   <i type="int" name="NKREDLFY">     1</i>
   <i type="int" name="NKREDLFZ">     1</i>
   <i type="int" name="MAXMEM">  2800</i>
   <i type="int" name="TELESCOPE">     0</i>
   <i type="int" name="TAUPAR">     1</i>
   <i type="int" name="OMEGAPAR">    -1</i>
   <i name="LAMBDA">      1.00000000</i>
  </separator>
  <separator name="External order field" >
   <i name="OFIELD_KAPPA">      0.00000000</i>
   <v name="OFIELD_K">      0.00000000      0.00000000      0.00000000</v>
   <i name="OFIELD_Q6_NEAR">      0.00000000</i>
   <i name="OFIELD_Q6_FAR">      0.00000000</i>
   <i name="OFIELD_A">      0.00000000</i>
  </separator>
 </parameters>
 <atominfo>
  <atoms>       2 </atoms>
  <types>       1 </types>
  <array name="atoms" >
   <dimension dim="1">ion</dimension>
   <field type="string">element</field>
   <field type="int">atomtype</field>
   <set>
    <rc><c>Si</c><c>   1</c></rc>
    <rc><c>Si</c><c>   1</c></rc>
   </set>
  </array>
  <array name="atomtypes" >
   <dimension dim="1">type</dimension>
   <field type="int">atomspertype</field>
   <field type="string">element</field>
   <field>mass</field>
   <field>valence</field>
   <field type="string">pseudopotential</field>
   <set>
    <rc><c>   2</c><c>Si</c><c>     28.08500000</c><c>      4.00000000</c><c> PAW_PBE Si 05Jan2001                   </c></rc>
   </set>
  </array>
 </atominfo>
 <structure name="initialpos" >
  <crystal>
   <varray name="basis" >
    <v>       0.00000000       2.71500000       2.71500000 </v>
    <v>       2.71500000       0.00000000       2.71500000 </v>
    <v>       2.71500000       2.71500000       0.00000000 </v>
   </varray>
   <i name="volume">     40.02575175 </i>
   <varray name="rec_basis" >
    <v>      -0.18416206       0.18416206       0.18416206 </v>
    <v>       0.18416206      -0.18416206       0.18416206 </v>
    <v>       0.18416206       0.18416206      -0.18416206 </v>
   </varray>
  </crystal>
  <varray name="positions" >
   <v>       0.50000000       0.50000000       0.50000000 </v>
   <v>       0.75000000       0.75000000       0.75000000 </v>
  </varray>
 </structure>
 <calculation>
  <scstep>
   <time name="dav">    0.03    0.03</time>
   <time name="total">    0.06    0.07</time>
   <energy>
    <i name="alphaZ">      3.36414203 </i>
    <i name="ewald">   -228.56352493 </i>
    <i name="hartreedc">    -11.00108243 </i>
    <i name="XCdc">    -18.60181216 </i>
    <i name="pawpsdc">     65.95520812 </i>
    <i name="pawaedc">    -30.76852678 </i>
    <i name="eentropy">     -0.03994703 </i>
    <i name="bandstr">     15.77448559 </i>
    <i name="atom">    206.12968587 </i>
    <i name="e_fr_energy">      2.24862826 </i>
    <i name="e_wo_entrp">      2.28857530 </i>
    <i name="e_0_energy">      2.26860178 </i>
   </energy>
  </scstep>
  <scstep>
   <time name="dav">    0.05    0.05</time>
   <time name="total">    0.05    0.05</time>
   <energy>
    <i name="e_fr_energy">    -10.30498006 </i>
    <i name="e_wo_entrp">    -10.30491489 </i>
    <i name="e_0_energy">    -10.30494747 </i>
   </energy>
  </scstep>
  <scstep>
   <time name="dav">    0.04    0.04</time>
   <time name="total">    0.04    0.04</time>
   <energy>
    <i name="e_fr_energy">    -10.45836829 </i>
    <i name="e_wo_entrp">    -10.45831642 </i>
    <i name="e_0_energy">    -10.45834236 </i>
   </energy>
  </scstep>
  <scstep>
   <time name="dav">    0.04    0.04</time>
   <time name="total">    0.04    0.04</time>
   <energy>
    <i name="e_fr_energy">    -10.45876418 </i>
    <i name="e_wo_entrp">    -10.45871244 </i>
    <i name="e_0_energy">    -10.45873831 </i>
   </energy>
  </scstep>
  <scstep>
   <time name="dav">    0.04    0.04</time>
   <time name="total">    0.05    0.05</time>
   <energy>
    <i name="e_fr_energy">    -10.45876490 </i>
    <i name="e_wo_entrp">    -10.45871316 </i>
    <i name="e_0_energy">    -10.45873903 </i>
   </energy>
  </scstep>
  <scstep>
   <time name="dav">    0.03    0.03</time>
   <time name="total">    0.07    0.07</time>
   <energy>
    <i name="e_fr_energy">    -10.29153543 </i>
    <i name="e_wo_entrp">    -10.29119221 </i>
    <i name="e_0_energy">    -10.29136382 </i>
   </energy>
  </scstep>
  <scstep>
   <time name="dav">    0.03    0.03</time>
   <time name="total">    0.07    0.07</time>
   <energy>
    <i name="e_fr_energy">    -10.21730434 </i>
    <i name="e_wo_entrp">    -10.21492606 </i>
    <i name="e_0_energy">    -10.21611520 </i>
   </energy>
  </scstep>
  <scstep>
   <time name="dav">    0.02    0.03</time>
   <time name="total">    0.06    0.07</time>
   <energy>
    <i name="e_fr_energy">    -10.22008068 </i>
    <i name="e_wo_entrp">    -10.21824437 </i>
    <i name="e_0_energy">    -10.21916253 </i>
   </energy>
  </scstep>
  <scstep>
   <time name="dav">    0.02    0.03</time>
   <time name="total">    0.05    0.06</time>
   <energy>
    <i name="alphaZ">      3.36414203 </i>
    <i name="ewald">   -228.56352493 </i>
    <i name="hartreedc">    -15.70315442 </i>
    <i name="XCdc">    -17.86224259 </i>
    <i name="pawpsdc">     74.99113174 </i>
    <i name="pawaedc">    -40.05188111 </i>
    <i name="eentropy">     -0.00183132 </i>
    <i name="bandstr">      7.47742163 </i>
    <i name="atom">    206.12968587 </i>
    <i name="e_fr_energy">    -10.22025310 </i>
    <i name="e_wo_entrp">    -10.21842178 </i>
    <i name="e_0_energy">    -10.21933744 </i>
   </energy>
  </scstep>
  <structure>
   <crystal>
    <varray name="basis" >
     <v>       0.00000000       2.71500000       2.71500000 </v>
     <v>       2.71500000       0.00000000       2.71500000 </v>
     <v>       2.71500000       2.71500000       0.00000000 </v>
    </varray>
    <i name="volume">     40.02575175 </i>
    <varray name="rec_basis" >
     <v>      -0.18416206       0.18416206       0.18416206 </v>
     <v>       0.18416206      -0.18416206       0.18416206 </v>
     <v>       0.18416206       0.18416206      -0.18416206 </v>
    </varray>
   </crystal>
   <varray name="positions" >
    <v>       0.50000000       0.50000000       0.50000000 </v>
    <v>       0.75000000       0.75000000       0.75000000 </v>
   </varray>
  </structure>
  <varray name="forces" >
   <v>       0.00000000       0.00000000      -0.00000000 </v>
   <v>      -0.00000000      -0.00000000       0.00000000 </v>
  </varray>
  <varray name="stress" >
   <v>      38.85710768       0.00000000      -0.00000000 </v>
   <v>       0.00000000      38.85710768      -0.00000000 </v>
   <v>      -0.00000000      -0.00000000      38.85710768 </v>
  </varray>
  <energy>
   <i name="e_fr_energy">    -10.22025310 </i>
   <i name="e_wo_entrp">    -10.21933744 </i>
   <i name="e_0_energy">     -0.00183132 </i>
  </energy>
  <time name="totalsc">    0.94    1.34</time>
  <eigenvalues>
   <array>
    <dimension dim="1">band</dimension>
    <dimension dim="2">kpoint</dimension>
    <dimension dim="3">spin</dimension>
    <field>eigene</field>
    <field>occ</field>
    <set>
     <set comment="spin 1">
      <set comment="kpoint 1">
       <r>   -6.0451    1.0000 </r>
       <r>    5.9394    0.9895 </r>
       <r>    5.9394    0.9894 </r>
       <r>    5.9394    0.9894 </r>
       <r>    8.4640    0.0000 </r>
       <r>    8.4640    0.0000 </r>
       <r>    8.4640    0.0000 </r>
       <r>    9.3218    0.0000 </r>
      </set>
      <set comment="kpoint 2">
       <r>   -4.6646    1.0000 </r>
       <r>    0.5851    1.0000 </r>
       <r>    4.9286    1.0000 </r>
       <r>    4.9286    1.0000 </r>
       <r>    7.6890    0.0000 </r>
       <r>    9.4057    0.0000 </r>
       <r>    9.4058    0.0000 </r>
       <r>   13.7878    0.0000 </r>
      </set>
      <set comment="kpoint 3">
       <r>   -4.1365    1.0000 </r>
       <r>    0.9232    1.0000 </r>
       <r>    3.4992    1.0000 </r>
       <r>    3.4992    1.0000 </r>
       <r>    6.6272    0.0053 </r>
       <r>    7.8861    0.0000 </r>
       <r>   13.1947    0.0000 </r>
       <r>   13.1948    0.0000 </r>
      </set>
      <set comment="kpoint 4">
       <r>   -2.7704    1.0000 </r>
       <r>   -0.8433    1.0000 </r>
       <r>    1.4907    1.0000 </r>
       <r>    3.8079    1.0000 </r>
       <r>    7.4667    0.0000 </r>
       <r>   11.7260    0.0000 </r>
       <r>   12.3884    0.0000 </r>
       <r>   13.0118    0.0000 </r>
      </set>
     </set>
    </set>
   </array>
  </eigenvalues>
  <separator name="orbital magnetization" >
   <v name="MAGDIPOLOUT">      0.00000000      0.00000000      0.00000000</v>
  </separator>
  <dos>
   <i name="efermi">      6.26556114 </i>
   <total>
    <array>
     <dimension dim="1">gridpoints</dimension>
     <dimension dim="2">spin</dimension>
     <field>energy</field>
     <field>total</field>
     <field>integrated</field>
     <set>
      <set comment="spin 1">
       <r>    -8.0451     0.0000     0.0000 </r>
       <r>    -7.9657     0.0000     0.0000 </r>
       <r>    -7.8862     0.0000     0.0000 </r>
       <r>    -7.8068     0.0000     0.0000 </r>
       <r>    -7.7273     0.0000     0.0000 </r>
       <r>    -7.6479     0.0000     0.0000 </r>
       <r>    -7.5684     0.0000     0.0000 </r>
       <r>    -7.4890     0.0000     0.0000 </r>
       <r>    -7.4096     0.0000     0.0000 </r>
       <r>    -7.3301     0.0000     0.0000 </r>
       <r>    -7.2507     0.0000     0.0000 </r>
       <r>    -7.1712     0.0000     0.0000 </r>
       <r>    -7.0918     0.0000     0.0000 </r>
       <r>    -7.0123     0.0000     0.0000 </r>
       <r>    -6.9329     0.0000     0.0000 </r>
       <r>    -6.8534     0.0000     0.0000 </r>
       <r>    -6.7740     0.0000     0.0000 </r>
       <r>    -6.6946     0.0000     0.0000 </r>
       <r>    -6.6151     0.0000     0.0000 </r>
       <r>    -6.5357     0.0002     0.0000 </r>
       <r>    -6.4562     0.0015     0.0001 </r>
       <r>    -6.3768     0.0072     0.0007 </r>
       <r>    -6.2973     0.0259     0.0028 </r>
       <r>    -6.2179     0.0687     0.0082 </r>
       <r>    -6.1385     0.1340     0.0189 </r>
       <r>    -6.0590     0.1923     0.0341 </r>
       <r>    -5.9796     0.2029     0.0503 </r>
       <r>    -5.9001     0.1575     0.0628 </r>
       <r>    -5.8207     0.0899     0.0699 </r>
       <r>    -5.7412     0.0377     0.0729 </r>
       <r>    -5.6618     0.0116     0.0738 </r>
       <r>    -5.5824     0.0026     0.0740 </r>
       <r>    -5.5029     0.0004     0.0741 </r>
       <r>    -5.4235     0.0001     0.0741 </r>
       <r>    -5.3440     0.0000     0.0741 </r>
       <r>    -5.2646     0.0001     0.0741 </r>
       <r>    -5.1851     0.0008     0.0741 </r>
       <r>    -5.1057     0.0059     0.0746 </r>
       <r>    -5.0263     0.0326     0.0772 </r>
       <r>    -4.9468     0.1322     0.0877 </r>
       <r>    -4.8674     0.3941     0.1190 </r>
       <r>    -4.7879     0.8637     0.1876 </r>
       <r>    -4.7085     1.3919     0.2982 </r>
       <r>    -4.6290     1.6505     0.4293 </r>
       <r>    -4.5496     1.4456     0.5442 </r>
       <r>    -4.4702     0.9624     0.6206 </r>
       <r>    -4.3907     0.5848     0.6671 </r>
       <r>    -4.3113     0.5538     0.7111 </r>
       <r>    -4.2318     0.8318     0.7771 </r>
       <r>    -4.1524     1.1548     0.8689 </r>
       <r>    -4.0729     1.2215     0.9659 </r>
       <r>    -3.9935     0.9547     1.0418 </r>
       <r>    -3.9141     0.5490     1.0854 </r>
       <r>    -3.8346     0.2321     1.1038 </r>
       <r>    -3.7552     0.0722     1.1096 </r>
       <r>    -3.6757     0.0165     1.1109 </r>
       <r>    -3.5963     0.0028     1.1111 </r>
       <r>    -3.5168     0.0003     1.1111 </r>
       <r>    -3.4374     0.0000     1.1111 </r>
       <r>    -3.3580     0.0002     1.1111 </r>
       <r>    -3.2785     0.0016     1.1113 </r>
       <r>    -3.1991     0.0118     1.1122 </r>
       <r>    -3.1196     0.0621     1.1171 </r>
       <r>    -3.0402     0.2401     1.1362 </r>
       <r>    -2.9607     0.6821     1.1904 </r>
       <r>    -2.8813     1.4246     1.3036 </r>
       <r>    -2.8019     2.1878     1.4774 </r>
       <r>    -2.7224     2.4708     1.6737 </r>
       <r>    -2.6430     2.0520     1.8367 </r>
       <r>    -2.5635     1.2532     1.9362 </r>
       <r>    -2.4841     0.5627     1.9809 </r>
       <r>    -2.4046     0.1858     1.9957 </r>
       <r>    -2.3252     0.0451     1.9993 </r>
       <r>    -2.2458     0.0080     1.9999 </r>
       <r>    -2.1663     0.0011     2.0000 </r>
       <r>    -2.0869     0.0001     2.0000 </r>
       <r>    -2.0074     0.0000     2.0000 </r>
       <r>    -1.9280     0.0000     2.0000 </r>
       <r>    -1.8485     0.0000     2.0000 </r>
       <r>    -1.7691     0.0000     2.0000 </r>
       <r>    -1.6896     0.0000     2.0000 </r>
       <r>    -1.6102     0.0000     2.0000 </r>
       <r>    -1.5308     0.0000     2.0000 </r>
       <r>    -1.4513     0.0001     2.0000 </r>
       <r>    -1.3719     0.0009     2.0001 </r>
       <r>    -1.2924     0.0073     2.0007 </r>
       <r>    -1.2130     0.0417     2.0040 </r>
       <r>    -1.1335     0.1746     2.0178 </r>
       <r>    -1.0541     0.5369     2.0605 </r>
       <r>    -0.9747     1.2137     2.1569 </r>
       <r>    -0.8952     2.0175     2.3172 </r>
       <r>    -0.8158     2.4660     2.5131 </r>
       <r>    -0.7363     2.2166     2.6892 </r>
       <r>    -0.6569     1.4652     2.8056 </r>
       <r>    -0.5774     0.7121     2.8622 </r>
       <r>    -0.4980     0.2545     2.8824 </r>
       <r>    -0.4186     0.0668     2.8877 </r>
       <r>    -0.3391     0.0129     2.8887 </r>
       <r>    -0.2597     0.0018     2.8889 </r>
       <r>    -0.1802     0.0002     2.8889 </r>
       <r>    -0.1008     0.0000     2.8889 </r>
       <r>    -0.0213     0.0001     2.8889 </r>
       <r>     0.0581     0.0007     2.8889 </r>
       <r>     0.1375     0.0051     2.8893 </r>
       <r>     0.2170     0.0287     2.8916 </r>
       <r>     0.2964     0.1193     2.9011 </r>
       <r>     0.3759     0.3649     2.9301 </r>
       <r>     0.4553     0.8218     2.9954 </r>
       <r>     0.5348     1.3684     3.1041 </r>
       <r>     0.6142     1.7094     3.2399 </r>
       <r>     0.6936     1.6820     3.3735 </r>
       <r>     0.7731     1.4809     3.4912 </r>
       <r>     0.8525     1.3868     3.6013 </r>
       <r>     0.9320     1.3752     3.7106 </r>
       <r>     1.0114     1.2152     3.8071 </r>
       <r>     1.0909     0.8611     3.8755 </r>
       <r>     1.1703     0.5402     3.9184 </r>
       <r>     1.2497     0.5300     3.9606 </r>
       <r>     1.3292     0.9700     4.0376 </r>
       <r>     1.4086     1.7341     4.1754 </r>
       <r>     1.4881     2.3705     4.3637 </r>
       <r>     1.5675     2.3937     4.5539 </r>
       <r>     1.6470     1.7783     4.6951 </r>
       <r>     1.7264     0.9715     4.7723 </r>
       <r>     1.8058     0.3902     4.8033 </r>
       <r>     1.8853     0.1152     4.8125 </r>
       <r>     1.9647     0.0250     4.8145 </r>
       <r>     2.0442     0.0040     4.8148 </r>
       <r>     2.1236     0.0005     4.8148 </r>
       <r>     2.2031     0.0000     4.8148 </r>
       <r>     2.2825     0.0000     4.8148 </r>
       <r>     2.3619     0.0000     4.8148 </r>
       <r>     2.4414     0.0000     4.8148 </r>
       <r>     2.5208     0.0000     4.8148 </r>
       <r>     2.6003     0.0000     4.8148 </r>
       <r>     2.6797     0.0000     4.8148 </r>
       <r>     2.7592     0.0000     4.8148 </r>
       <r>     2.8386     0.0000     4.8148 </r>
       <r>     2.9180     0.0002     4.8148 </r>
       <r>     2.9975     0.0020     4.8150 </r>
       <r>     3.0769     0.0137     4.8161 </r>
       <r>     3.1564     0.0701     4.8216 </r>
       <r>     3.2358     0.2644     4.8426 </r>
       <r>     3.3153     0.7346     4.9010 </r>
       <r>     3.3947     1.5084     5.0208 </r>
       <r>     3.4742     2.3175     5.2050 </r>
       <r>     3.5536     2.7633     5.4245 </r>
       <r>     3.6330     2.8009     5.6470 </r>
       <r>     3.7125     2.7746     5.8674 </r>
       <r>     3.7919     2.8153     6.0911 </r>
       <r>     3.8714     2.6088     6.2983 </r>
       <r>     3.9508     1.9494     6.4532 </r>
       <r>     4.0303     1.1055     6.5410 </r>
       <r>     4.1097     0.4655     6.5780 </r>
       <r>     4.1891     0.1445     6.5895 </r>
       <r>     4.2686     0.0330     6.5921 </r>
       <r>     4.3480     0.0058     6.5926 </r>
       <r>     4.4275     0.0033     6.5928 </r>
       <r>     4.5069     0.0185     6.5943 </r>
       <r>     4.5864     0.0944     6.6018 </r>
       <r>     4.6658     0.3552     6.6300 </r>
       <r>     4.7452     0.9823     6.7080 </r>
       <r>     4.8247     1.9969     6.8667 </r>
       <r>     4.9041     2.9850     7.1038 </r>
       <r>     4.9836     3.2812     7.3645 </r>
       <r>     5.0630     2.6524     7.5752 </r>
       <r>     5.1425     1.5767     7.7005 </r>
       <r>     5.2219     0.6891     7.7552 </r>
       <r>     5.3013     0.2214     7.7728 </r>
       <r>     5.3808     0.0524     7.7770 </r>
       <r>     5.4602     0.0099     7.7778 </r>
       <r>     5.5397     0.0067     7.7783 </r>
       <r>     5.6191     0.0264     7.7804 </r>
       <r>     5.6986     0.0909     7.7876 </r>
       <r>     5.7780     0.2310     7.8060 </r>
       <r>     5.8574     0.4314     7.8402 </r>
       <r>     5.9369     0.5924     7.8873 </r>
       <r>     6.0163     0.5983     7.9348 </r>
       <r>     6.0958     0.4447     7.9702 </r>
       <r>     6.1752     0.2461     7.9897 </r>
       <r>     6.2547     0.1171     7.9990 </r>
       <r>     6.3341     0.1121     8.0079 </r>
       <r>     6.4135     0.2653     8.0290 </r>
       <r>     6.4930     0.5934     8.0761 </r>
       <r>     6.5724     0.9958     8.1552 </r>
       <r>     6.6519     1.2307     8.2530 </r>
       <r>     6.7313     1.1186     8.3419 </r>
       <r>     6.8108     0.7477     8.4013 </r>
       <r>     6.8902     0.3677     8.4305 </r>
       <r>     6.9696     0.1350     8.4412 </r>
       <r>     7.0491     0.0504     8.4452 </r>
       <r>     7.1285     0.0835     8.4518 </r>
       <r>     7.2080     0.2859     8.4746 </r>
       <r>     7.2874     0.7840     8.5368 </r>
       <r>     7.3669     1.6087     8.6646 </r>
       <r>     7.4463     2.5075     8.8638 </r>
       <r>     7.5257     3.0828     9.1087 </r>
       <r>     7.6052     3.1910     9.3623 </r>
       <r>     7.6846     3.0160     9.6019 </r>
       <r>     7.7641     2.7461     9.8200 </r>
       <r>     7.8435     2.4014    10.0108 </r>
       <r>     7.9230     1.9316    10.1642 </r>
       <r>     8.0024     1.3465    10.2712 </r>
       <r>     8.0818     0.7721    10.3325 </r>
       <r>     8.1613     0.3737    10.3622 </r>
       <r>     8.2407     0.2282    10.3804 </r>
       <r>     8.3202     0.3008    10.4043 </r>
       <r>     8.3996     0.4805    10.4424 </r>
       <r>     8.4791     0.6104    10.4909 </r>
       <r>     8.5585     0.5752    10.5366 </r>
       <r>     8.6380     0.3989    10.5683 </r>
       <r>     8.7174     0.2035    10.5845 </r>
       <r>     8.7968     0.0765    10.5905 </r>
       <r>     8.8763     0.0229    10.5924 </r>
       <r>     8.9557     0.0175    10.5938 </r>
       <r>     9.0352     0.0707    10.5994 </r>
       <r>     9.1146     0.2762    10.6213 </r>
       <r>     9.1941     0.8121    10.6858 </r>
       <r>     9.2735     1.7769    10.8270 </r>
       <r>     9.3529     2.8850    11.0562 </r>
       <r>     9.4324     3.4687    11.3318 </r>
       <r>     9.5118     3.0832    11.5767 </r>
       <r>     9.5913     2.0233    11.7374 </r>
       <r>     9.6707     0.9791    11.8152 </r>
       <r>     9.7502     0.3491    11.8429 </r>
       <r>     9.8296     0.0916    11.8502 </r>
       <r>     9.9090     0.0177    11.8516 </r>
       <r>     9.9885     0.0025    11.8518 </r>
       <r>    10.0679     0.0003    11.8519 </r>
       <r>    10.1474     0.0000    11.8519 </r>
       <r>    10.2268     0.0000    11.8519 </r>
       <r>    10.3063     0.0000    11.8519 </r>
       <r>    10.3857     0.0000    11.8519 </r>
       <r>    10.4651     0.0000    11.8519 </r>
       <r>    10.5446     0.0000    11.8519 </r>
       <r>    10.6240     0.0000    11.8519 </r>
       <r>    10.7035     0.0000    11.8519 </r>
       <r>    10.7829     0.0000    11.8519 </r>
       <r>    10.8624     0.0000    11.8519 </r>
       <r>    10.9418     0.0000    11.8519 </r>
       <r>    11.0212     0.0000    11.8519 </r>
       <r>    11.1007     0.0001    11.8519 </r>
       <r>    11.1801     0.0006    11.8519 </r>
       <r>    11.2596     0.0048    11.8523 </r>
       <r>    11.3390     0.0293    11.8546 </r>
       <r>    11.4185     0.1312    11.8650 </r>
       <r>    11.4979     0.4315    11.8993 </r>
       <r>    11.5773     1.0431    11.9822 </r>
       <r>    11.6568     1.8540    12.1295 </r>
       <r>    11.7362     2.4231    12.3220 </r>
       <r>    11.8157     2.3292    12.5070 </r>
       <r>    11.8951     1.6485    12.6380 </r>
       <r>    11.9746     0.8720    12.7072 </r>
       <r>    12.0540     0.4087    12.7397 </r>
       <r>    12.1334     0.3905    12.7707 </r>
       <r>    12.2129     0.8201    12.8359 </r>
       <r>    12.2923     1.5828    12.9616 </r>
       <r>    12.3718     2.2913    13.1437 </r>
       <r>    12.4512     2.4433    13.3378 </r>
       <r>    12.5307     1.9190    13.4902 </r>
       <r>    12.6101     1.1263    13.5797 </r>
       <r>    12.6895     0.5718    13.6251 </r>
       <r>    12.7690     0.5129    13.6659 </r>
       <r>    12.8484     1.0057    13.7458 </r>
       <r>    12.9279     1.9623    13.9017 </r>
       <r>    13.0073     3.0652    14.1452 </r>
       <r>    13.0868     3.8560    14.4515 </r>
       <r>    13.1662     4.0059    14.7697 </r>
       <r>    13.2456     3.4561    15.0443 </r>
       <r>    13.3251     2.4296    15.2373 </r>
       <r>    13.4045     1.3636    15.3456 </r>
       <r>    13.4840     0.6624    15.3983 </r>
       <r>    13.5634     0.4832    15.4367 </r>
       <r>    13.6429     0.7621    15.4972 </r>
       <r>    13.7223     1.2675    15.5979 </r>
       <r>    13.8018     1.6244    15.7269 </r>
       <r>    13.8812     1.5384    15.8491 </r>
       <r>    13.9606     1.0719    15.9343 </r>
       <r>    14.0401     0.5492    15.9779 </r>
       <r>    14.1195     0.2069    15.9944 </r>
       <r>    14.1990     0.0573    15.9989 </r>
       <r>    14.2784     0.0117    15.9998 </r>
       <r>    14.3579     0.0017    16.0000 </r>
       <r>    14.4373     0.0002    16.0000 </r>
       <r>    14.5167     0.0000    16.0000 </r>
       <r>    14.5962     0.0000    16.0000 </r>
       <r>    14.6756     0.0000    16.0000 </r>
       <r>    14.7551     0.0000    16.0000 </r>
       <r>    14.8345     0.0000    16.0000 </r>
       <r>    14.9140     0.0000    16.0000 </r>
       <r>    14.9934     0.0000    16.0000 </r>
       <r>    15.0728     0.0000    16.0000 </r>
       <r>    15.1523     0.0000    16.0000 </r>
       <r>    15.2317     0.0000    16.0000 </r>
       <r>    15.3112     0.0000    16.0000 </r>
       <r>    15.3906     0.0000    16.0000 </r>
       <r>    15.4701     0.0000    16.0000 </r>
       <r>    15.5495     0.0000    16.0000 </r>
       <r>    15.6289     0.0000    16.0000 </r>
       <r>    15.7084     0.0000    16.0000 </r>
       <r>    15.7878     0.0000    16.0000 </r>
      </set>
     </set>
    </array>
   </total>
  </dos>
 </calculation>
 <structure name="finalpos" >
  <crystal>
   <varray name="basis" >
    <v>       0.00000000       2.71500000       2.71500000 </v>
    <v>       2.71500000       0.00000000       2.71500000 </v>
    <v>       2.71500000       2.71500000       0.00000000 </v>
   </varray>
   <i name="volume">     40.02575175 </i>
   <varray name="rec_basis" >
    <v>      -0.18416206       0.18416206       0.18416206 </v>
    <v>       0.18416206      -0.18416206       0.18416206 </v>
    <v>       0.18416206       0.18416206      -0.18416206 </v>
   </varray>
  </crystal>
  <varray name="positions" >
   <v>       0.50000000       0.50000000       0.50000000 </v>
   <v>       0.75000000       0.75000000       0.75000000 </v>
  </varray>
 </structure>
</modeling>
