unknown system                          
   1.00000000000000     
     0.000000    2.715000    2.715000
     2.715000    0.000000    2.715000
     2.715000    2.715000    0.000000
   Si
     2
Direct
  0.500000  0.500000  0.500000
  0.750000  0.750000  0.750000
 
   28   28   28
 0.89006282757E+00 0.91703236898E+00 0.10001979015E+01 0.11466617104E+01 0.13684787493E+01
 0.16814441450E+01 0.21013856148E+01 0.26378611293E+01 0.32865700261E+01 0.40226422315E+01
 0.47969847586E+01 0.55376585299E+01 0.61581467161E+01 0.65731938466E+01 0.67193717685E+01
 0.65731414327E+01 0.61580868893E+01 0.55376266763E+01 0.47969726757E+01 0.40226266596E+01
 0.32865555953E+01 0.26378768026E+01 0.21014430827E+01 0.16815166218E+01 0.13685245305E+01
 0.11466616620E+01 0.10001677048E+01 0.91700502419E+00 0.91703236898E+00 0.96249541628E+00
 0.10568967488E+01 0.12074061971E+01 0.14245984833E+01 0.17206917451E+01 0.21057050123E+01
 0.25818590538E+01 0.31375894565E+01 0.37431566075E+01 0.43498106647E+01 0.48940225279E+01
 0.53074200394E+01 0.55312234049E+01 0.55312101567E+01 0.53073975902E+01 0.48940171616E+01
 0.43498221631E+01 0.37431681546E+01 0.31376029881E+01 0.25818964482E+01 0.21057722407E+01
 0.17207617002E+01 0.14246376266E+01 0.12074075927E+01 0.10568794643E+01 0.96248007465E+00
 0.91702703669E+00 0.10001979015E+01 0.10568967488E+01 0.11560101249E+01 0.13043580956E+01
 0.15106221953E+01 0.17832733917E+01 0.21270082587E+01 0.25381676988E+01 0.30004379034E+01
 0.34826094890E+01 0.39399771498E+01 0.43201707446E+01 0.45729361767E+01 0.46616666935E+01
 0.45729279059E+01 0.43201669130E+01 0.39399868425E+01 0.34826334704E+01 0.30004785810E+01
 0.25382274318E+01 0.21270731561E+01 0.17833144111E+01 0.15106225194E+01 0.13043322228E+01
 0.11559876832E+01 0.10568923373E+01 0.10002028049E+01 0.98175955465E+00 0.11466617104E+01
 0.12074061971E+01 0.13043580956E+01 0.14437264957E+01 0.16321182694E+01 0.18744861527E+01
 0.21711504270E+01 0.25143712542E+01 0.28856414132E+01 0.32551843983E+01 0.35847567025E+01
 0.38338743352E+01 0.39682877138E+01 0.39682833165E+01 0.38338675921E+01 0.35847614566E+01
 0.32552117074E+01 0.28856921041E+01 0.25144302740E+01 0.21711877078E+01 0.18744754580E+01
 0.16320636395E+01 0.14436643801E+01 0.13043258450E+01 0.12074109826E+01 0.11466820822E+01
 0.11175187523E+01 0.11175084937E+01 0.13684787493E+01 0.14245984833E+01 0.15106221953E+01
 0.16321182694E+01 0.17938021442E+01 0.19977690699E+01 0.22412589752E+01 0.25143699364E+01
 0.27986886690E+01 0.30679682612E+01 0.32915162601E+01 0.34399776417E+01 0.34920592506E+01
 0.34399712925E+01 0.32915170333E+01 0.30679881830E+01 0.27987238561E+01 0.25143987311E+01
 0.22412539293E+01 0.19977176379E+01 0.17937222519E+01 0.16320508297E+01 0.15105999530E+01
 0.14246206002E+01 0.13685172561E+01 0.13372126910E+01 0.13271875741E+01 0.13371864702E+01
 0.16814441450E+01 0.17206917451E+01 0.17832733917E+01 0.18744861527E+01 0.19977690699E+01
 0.21533789386E+01 0.23369396877E+01 0.25381668000E+01 0.27404844919E+01 0.29223426332E+01
 0.30606028231E+01 0.31354672461E+01 0.31354645028E+01 0.30605996538E+01 0.29223454503E+01
 0.27404878754E+01 0.25381555537E+01 0.23369045096E+01 0.21533272999E+01 0.19977211932E+01
 0.18744625670E+01 0.17832835311E+01 0.17207293039E+01 0.16814911569E+01 0.16596937486E+01
 0.16502655685E+01 0.16502518861E+01 0.16596569176E+01 0.21013856148E+01 0.21057050123E+01
 0.21270082587E+01 0.21711504270E+01 0.22412589752E+01 0.23369396877E+01 0.24535741158E+01
 0.25818616689E+01 0.27080940236E+01 0.28157312004E+01 0.28884742767E+01 0.29142190424E+01
 0.28884752304E+01 0.28157273359E+01 0.27080775257E+01 0.25818315563E+01 0.24535436733E+01
 0.23369302631E+01 0.22412813851E+01 0.21711939506E+01 0.21270518076E+01 0.21057383710E+01
 0.21014142168E+01 0.21065577331E+01 0.21135318203E+01 0.21165668061E+01 0.21135109735E+01
 0.21065288426E+01 0.26378611293E+01 0.25818590538E+01 0.25381676988E+01 0.25143712542E+01
 0.25143699364E+01 0.25381668000E+01 0.25818616689E+01 0.26378642595E+01 0.26956252344E+01
 0.27432764682E+01 0.27702555792E+01 0.27702633697E+01 0.27432878808E+01 0.26956217720E+01
 0.26378501923E+01 0.25818666038E+01 0.25382165652E+01 0.25144578716E+01 0.25144601138E+01
 0.25382200997E+01 0.25818679161E+01 0.26378515852E+01 0.26956255311E+01 0.27432904702E+01
 0.27702616211E+01 0.27702527421E+01 0.27432760530E+01 0.26956247704E+01 0.32865700261E+01
 0.31375894565E+01 0.30004379034E+01 0.28856414132E+01 0.27986886690E+01 0.27404844919E+01
 0.27080940236E+01 0.26956252344E+01 0.26953537879E+01 0.26993259700E+01 0.27014333111E+01
 0.26993528533E+01 0.26953822573E+01 0.26956482911E+01 0.27081402147E+01 0.27405782395E+01
 0.27988086589E+01 0.28857338669E+01 0.30004660117E+01 0.31375614499E+01 0.32865228530E+01
 0.34320517911E+01 0.35556751081E+01 0.36390787934E+01 0.36685763623E+01 0.36390782458E+01
 0.35556866212E+01 0.34320857115E+01 0.40226422315E+01 0.37431566075E+01 0.34826094890E+01
 0.32551843983E+01 0.30679682612E+01 0.29223426332E+01 0.28157312004E+01 0.27432764682E+01
 0.26993259700E+01 0.26788600180E+01 0.26788801754E+01 0.26993719445E+01 0.27433316033E+01
 0.28158079165E+01 0.29224566504E+01 0.30680919004E+01 0.32552565911E+01 0.34825965906E+01
 0.37430828578E+01 0.40225567770E+01 0.42993429975E+01 0.45457568655E+01 0.47320883095E+01
 0.48327353154E+01 0.48327475388E+01 0.47321212248E+01 0.45458061694E+01 0.42994113857E+01
 0.47969847586E+01 0.43498106647E+01 0.39399771498E+01 0.35847567025E+01 0.32915162601E+01
 0.30606028231E+01 0.28884742767E+01 0.27702555792E+01 0.27014333111E+01 0.26788801754E+01
 0.27014710784E+01 0.27703215292E+01 0.28885696244E+01 0.30607299321E+01 0.32916422602E+01
 0.35848165342E+01 0.39399318845E+01 0.43496877390E+01 0.47968474026E+01 0.52526842109E+01
 0.56780241804E+01 0.60277544269E+01 0.62587604953E+01 0.63396215592E+01 0.62587878584E+01
 0.60278050217E+01 0.56780994838E+01 0.52527931262E+01 0.55376585299E+01 0.48940225279E+01
 0.43201707446E+01 0.38338743352E+01 0.34399776417E+01 0.31354672461E+01 0.29142190424E+01
 0.27702633697E+01 0.26993528533E+01 0.26993719445E+01 0.27703215292E+01 0.29143204699E+01
 0.31356083639E+01 0.34401194201E+01 0.38339431361E+01 0.43201123874E+01 0.48938547027E+01
 0.55374583245E+01 0.62166038553E+01 0.68800398867E+01 0.74639862013E+01 0.79016859784E+01
 0.81367682680E+01 0.81367525315E+01 0.79016583023E+01 0.74639903653E+01 0.68801147242E+01
 0.62167591077E+01 0.61581467161E+01 0.53074200394E+01 0.45729361767E+01 0.39682877138E+01
 0.34920592506E+01 0.31354645028E+01 0.28884752304E+01 0.27432878808E+01 0.26953822573E+01
 0.27433316033E+01 0.28885696244E+01 0.31356083639E+01 0.34922148319E+01 0.39683740290E+01
 0.45728785208E+01 0.53072188263E+01 0.61578905751E+01 0.70895322310E+01 0.80417068322E+01
 0.89316091450E+01 0.96639932376E+01 0.10147973826E+02 0.10317362175E+02 0.10147861652E+02
 0.96638460653E+01 0.89315294427E+01 0.80417636785E+01 0.70897259168E+01 0.65731938466E+01
 0.55312234049E+01 0.46616666935E+01 0.39682833165E+01 0.34399712925E+01 0.30605996538E+01
 0.28157273359E+01 0.26956217720E+01 0.26956482911E+01 0.28158079165E+01 0.30607299321E+01
 0.34401194201E+01 0.39683740290E+01 0.46616149733E+01 0.55310107192E+01 0.65729101858E+01
 0.77582618384E+01 0.90249259091E+01 0.10276253320E+02 0.11388521418E+02 0.12228885282E+02
 0.12682614765E+02 0.12682542634E+02 0.12228700169E+02 0.11388307731E+02 0.10276121110E+02
 0.90249618394E+01 0.77584707703E+01 0.67193717685E+01 0.55312101567E+01 0.45729279059E+01
 0.38338675921E+01 0.32915170333E+01 0.29223454503E+01 0.27080775257E+01 0.26378501923E+01
 0.27081402147E+01 0.29224566504E+01 0.32916422602E+01 0.38339431361E+01 0.45728785208E+01
 0.55310107192E+01 0.67191013776E+01 0.81224463811E+01 0.96881370005E+01 0.11317370019E+02
 0.12866549187E+02 0.14161397236E+02 0.15026981083E+02 0.15331203037E+02 0.15026939280E+02
 0.14161285525E+02 0.12866379047E+02 0.11317234274E+02 0.96881515229E+01 0.81226391568E+01
 0.65731414327E+01 0.53073975902E+01 0.43201669130E+01 0.35847614566E+01 0.30679881830E+01
 0.27404878754E+01 0.25818315563E+01 0.25818666038E+01 0.27405782395E+01 0.30680919004E+01
 0.35848165342E+01 0.43201123874E+01 0.53072188263E+01 0.65729101858E+01 0.81224463811E+01
 0.99228509911E+01 0.11888597322E+02 0.13873680325E+02 0.15674617479E+02 0.17044572126E+02
 0.17780713852E+02 0.17780781531E+02 0.17044699174E+02 0.15674660526E+02 0.13873587875E+02
 0.11888470036E+02 0.99228377793E+01 0.81225980117E+01 0.61580868893E+01 0.48940171616E+01
 0.39399868425E+01 0.32552117074E+01 0.27987238561E+01 0.25381555537E+01 0.24535436733E+01
 0.25382165652E+01 0.27988086589E+01 0.32552565911E+01 0.39399318845E+01 0.48938547027E+01
 0.61578905751E+01 0.77582618384E+01 0.96881370005E+01 0.11888597322E+02 0.14232129703E+02
 0.16507629155E+02 0.18407374346E+02 0.19657910361E+02 0.20093136456E+02 0.19658141621E+02
 0.18407654457E+02 0.16507758680E+02 0.14232060954E+02 0.11888455945E+02 0.96880893675E+01
 0.77583709963E+01 0.55376266763E+01 0.43498221631E+01 0.34826334704E+01 0.28856921041E+01
 0.25143987311E+01 0.23369045096E+01 0.23369302631E+01 0.25144578716E+01 0.28857338669E+01
 0.34825965906E+01 0.43496877390E+01 0.55374583245E+01 0.70895322310E+01 0.90249259091E+01
 0.11317370019E+02 0.13873680325E+02 0.16507629155E+02 0.18888490291E+02 0.20674454778E+02
 0.21627309467E+02 0.21627461495E+02 0.20674803017E+02 0.18888799179E+02 0.16507720793E+02
 0.13873556571E+02 0.11317186518E+02 0.90248497484E+01 0.70896160379E+01 0.47969726757E+01
 0.37431681546E+01 0.30004785810E+01 0.25144302740E+01 0.22412539293E+01 0.21533272999E+01
 0.22412813851E+01 0.25144601138E+01 0.30004660117E+01 0.37430828578E+01 0.47968474026E+01
 0.62166038553E+01 0.80417068322E+01 0.10276253320E+02 0.12866549187E+02 0.15674617479E+02
 0.18407374346E+02 0.20674454778E+02 0.22164101658E+02 0.22682585071E+02 0.22164380108E+02
 0.20674815020E+02 0.18407580412E+02 0.15674567748E+02 0.12866324910E+02 0.10276033788E+02
 0.80416261107E+01 0.62166713190E+01 0.40226266596E+01 0.31376029881E+01 0.25382274318E+01
 0.21711877078E+01 0.19977176379E+01 0.19977211932E+01 0.21711939506E+01 0.25382200997E+01
 0.31375614499E+01 0.40225567770E+01 0.52526842109E+01 0.68800398867E+01 0.89316091450E+01
 0.11388521418E+02 0.14161397236E+02 0.17044572126E+02 0.19657910361E+02 0.21627309467E+02
 0.22682585071E+02 0.22682722404E+02 0.21627610223E+02 0.19658139688E+02 0.17044571171E+02
 0.14161184438E+02 0.11388241773E+02 0.89314098849E+01 0.68799797020E+01 0.52527279432E+01
 0.32865555953E+01 0.25818964482E+01 0.21270731561E+01 0.18744754580E+01 0.17937222519E+01
 0.18744625670E+01 0.21270518076E+01 0.25818679161E+01 0.32865228530E+01 0.42993429975E+01
 0.56780241804E+01 0.74639862013E+01 0.96639932376E+01 0.12228885282E+02 0.15026981083E+02
 0.17780713852E+02 0.20093136456E+02 0.21627461495E+02 0.22164380108E+02 0.21627610223E+02
 0.20093280921E+02 0.17780703387E+02 0.15026796726E+02 0.12228624154E+02 0.96637702175E+01
 0.74638579562E+01 0.56779870793E+01 0.42993601828E+01 0.26378768026E+01 0.21057722407E+01
 0.17833144111E+01 0.16320636395E+01 0.16320508297E+01 0.17832835311E+01 0.21057383710E+01
 0.26378515852E+01 0.34320517911E+01 0.45457568655E+01 0.60277544269E+01 0.79016859784E+01
 0.10147973826E+02 0.12682614765E+02 0.15331203037E+02 0.17780781531E+02 0.19658141621E+02
 0.20674803017E+02 0.20674815020E+02 0.19658139688E+02 0.17780703387E+02 0.15331041328E+02
 0.12682421096E+02 0.10147805634E+02 0.79015665047E+01 0.60276837457E+01 0.45457296030E+01
 0.34320571784E+01 0.21014430827E+01 0.17207617002E+01 0.15106225194E+01 0.14436643801E+01
 0.15105999530E+01 0.17207293039E+01 0.21014142168E+01 0.26956255311E+01 0.35556751081E+01
 0.47320883095E+01 0.62587604953E+01 0.81367682680E+01 0.10317362175E+02 0.12682542634E+02
 0.15026939280E+02 0.17044699174E+02 0.18407654457E+02 0.18888799179E+02 0.18407580412E+02
 0.17044571171E+02 0.15026796726E+02 0.12682421096E+02 0.10317269355E+02 0.81366883171E+01
 0.62586876156E+01 0.47320384020E+01 0.35556601181E+01 0.26956393667E+01 0.16815166218E+01
 0.14246376266E+01 0.13043322228E+01 0.13043258450E+01 0.14246206002E+01 0.16814911569E+01
 0.21065577331E+01 0.27432904702E+01 0.36390787934E+01 0.48327353154E+01 0.63396215592E+01
 0.81367525315E+01 0.10147861652E+02 0.12228700169E+02 0.14161285525E+02 0.15674660526E+02
 0.16507758680E+02 0.16507720793E+02 0.15674567748E+02 0.14161184438E+02 0.12228624154E+02
 0.10147805634E+02 0.81366883171E+01 0.63395428785E+01 0.48326719624E+01 0.36390587715E+01
 0.27433085735E+01 0.21065879860E+01 0.13685245305E+01 0.12074075927E+01 0.11559876832E+01
 0.12074109826E+01 0.13685172561E+01 0.16596937486E+01 0.21135318203E+01 0.27702616211E+01
 0.36685763623E+01 0.48327475388E+01 0.62587878584E+01 0.79016583023E+01 0.96638460653E+01
 0.11388307731E+02 0.12866379047E+02 0.13873587875E+02 0.14232060954E+02 0.13873556571E+02
 0.12866324910E+02 0.11388241773E+02 0.96637702175E+01 0.79015665047E+01 0.62586876156E+01
 0.48326719624E+01 0.36685584896E+01 0.27702985971E+01 0.21135850737E+01 0.16597270851E+01
 0.11466616620E+01 0.10568794643E+01 0.10568923373E+01 0.11466820822E+01 0.13372126910E+01
 0.16502655685E+01 0.21165668061E+01 0.27702527421E+01 0.36390782458E+01 0.47321212248E+01
 0.60278050217E+01 0.74639903653E+01 0.89315294427E+01 0.10276121110E+02 0.11317234274E+02
 0.11888470036E+02 0.11888455945E+02 0.11317186518E+02 0.10276033788E+02 0.89314098849E+01
 0.74638579562E+01 0.60276837457E+01 0.47320384020E+01 0.36390587715E+01 0.27702985971E+01
 0.21166429882E+01 0.16503210283E+01 0.13372216951E+01 0.10001677048E+01 0.96248007465E+00
 0.10002028049E+01 0.11175187523E+01 0.13271875741E+01 0.16502518861E+01 0.21135109735E+01
 0.27432760530E+01 0.35556866212E+01 0.45458061694E+01 0.56780994838E+01 0.68801147242E+01
 0.80417636785E+01 0.90249618394E+01 0.96881515229E+01 0.99228377793E+01 0.96880893675E+01
 0.90248497484E+01 0.80416261107E+01 0.68799797020E+01 0.56779870793E+01 0.45457296030E+01
 0.35556601181E+01 0.27433085735E+01 0.21135850737E+01 0.16503210283E+01 0.13272086913E+01
 0.11174908705E+01 0.91700502419E+00 0.91702703669E+00 0.98175955465E+00 0.11175084937E+01
 0.13371864702E+01 0.16596569176E+01 0.21065288426E+01 0.26956247704E+01 0.34320857115E+01
 0.42994113857E+01 0.52527931262E+01 0.62167591077E+01 0.70897259168E+01 0.77584707703E+01
 0.81226391568E+01 0.81225980117E+01 0.77583709963E+01 0.70896160379E+01 0.62166713190E+01
 0.52527279432E+01 0.42993601828E+01 0.34320571784E+01 0.26956393667E+01 0.21065879860E+01
 0.16597270851E+01 0.13372216951E+01 0.11174908705E+01 0.98171628898E+00 0.91703294190E+00
 0.96249674963E+00 0.10568978003E+01 0.12074069312E+01 0.14245997021E+01 0.17206933643E+01
 0.21057060921E+01 0.25818593916E+01 0.31375895259E+01 0.37431560910E+01 0.43498087542E+01
 0.48940196355E+01 0.53074176025E+01 0.55312220611E+01 0.55312096273E+01 0.53073981269E+01
 0.48940193707E+01 0.43498254578E+01 0.37431710293E+01 0.31376048113E+01 0.25818975008E+01
 0.21057722378E+01 0.17207599967E+01 0.14246347983E+01 0.12074051334E+01 0.10568779222E+01
 0.96247898506E+00 0.91702648393E+00 0.96249674963E+00 0.10177118032E+01 0.11140218949E+01
 0.12578995664E+01 0.14577423463E+01 0.17218689226E+01 0.20549756206E+01 0.24535731369E+01
 0.29017557136E+01 0.33690868932E+01 0.38121060549E+01 0.41801073941E+01 0.44246153302E+01
 0.45104163385E+01 0.44246076449E+01 0.41801058232E+01 0.38121155667E+01 0.33691000987E+01
 0.29017743679E+01 0.24536122646E+01 0.20550370333E+01 0.17219269334E+01 0.14577688869E+01
 0.12578950726E+01 0.11140101696E+01 0.10177101773E+01 0.96250157098E+00 0.94451452581E+00
 0.10568978003E+01 0.11140218949E+01 0.12047922911E+01 0.13349210360E+01 0.15107617789E+01
 0.17372962806E+01 0.20151073229E+01 0.23369417591E+01 0.26851408677E+01 0.30313917402E+01
 0.33396820373E+01 0.35723048032E+01 0.36976553049E+01 0.36976509378E+01 0.35722947495E+01
 0.33396730956E+01 0.30313925989E+01 0.26851620817E+01 0.23369875421E+01 0.20151621681E+01
 0.17373297593E+01 0.15107567644E+01 0.13348929602E+01 0.12047726498E+01 0.11140261425E+01
 0.10569148770E+01 0.10293757530E+01 0.10293668203E+01 0.12074069312E+01 0.12578995664E+01
 0.13349210360E+01 0.14436371274E+01 0.15887645216E+01 0.17727281669E+01 0.19932898550E+01
 0.22412610270E+01 0.24993753584E+01 0.27433175020E+01 0.29452072224E+01 0.30789019094E+01
 0.31257241705E+01 0.30788921387E+01 0.29451924398E+01 0.27433105924E+01 0.24993919848E+01
 0.22413018901E+01 0.19933296305E+01 0.17727326546E+01 0.15887250722E+01 0.14435827576E+01
 0.13348905097E+01 0.12579056155E+01 0.12074319679E+01 0.11790684542E+01 0.11699378391E+01
 0.11790491371E+01 0.14245997021E+01 0.14577423463E+01 0.15107617789E+01 0.15887645216E+01
 0.16954400458E+01 0.18315434365E+01 0.19932890447E+01 0.21711503516E+01 0.23498127353E+01
 0.25098344159E+01 0.26309589134E+01 0.26963183571E+01 0.26963144629E+01 0.26309490869E+01
 0.25098260943E+01 0.23498168183E+01 0.21711684314E+01 0.19933037055E+01 0.18315305921E+01
 0.16953956468E+01 0.15887139806E+01 0.15107374495E+01 0.14577538900E+01 0.14246300455E+01
 0.14061376267E+01 0.13980611413E+01 0.13980515957E+01 0.14061115713E+01 0.17206933643E+01
 0.17218689226E+01 0.17372962806E+01 0.17727281669E+01 0.18315434365E+01 0.19137314686E+01
 0.20151068487E+01 0.21270089368E+01 0.22369029145E+01 0.23301622990E+01 0.23928760215E+01
 0.24150023254E+01 0.23928740070E+01 0.23301574577E+01 0.22368971081E+01 0.21270048671E+01
 0.20151022549E+01 0.19137205389E+01 0.18315261541E+01 0.17727138908E+01 0.17372954402E+01
 0.17218836149E+01 0.17207169674E+01 0.17268889654E+01 0.17338006342E+01 0.17366806728E+01
 0.17337867895E+01 0.17268660945E+01 0.21057060921E+01 0.20549756206E+01 0.20151073229E+01
 0.19932898550E+01 0.19932890447E+01 0.20151068487E+01 0.20549774968E+01 0.21057084652E+01
 0.21575843417E+01 0.22000310450E+01 0.22239204583E+01 0.22239246575E+01 0.22000378643E+01
 0.21575852767E+01 0.21057049607E+01 0.20549787323E+01 0.20151183027E+01 0.19933081852E+01
 0.19933098551E+01 0.20151212309E+01 0.20549805209E+01 0.21057068195E+01 0.21575884033E+01
 0.22000398529E+01 0.22239234681E+01 0.22239182451E+01 0.22000302106E+01 0.21575835076E+01
 0.25818593916E+01 0.24535731369E+01 0.23369417591E+01 0.22412610270E+01 0.21711503516E+01
 0.21270089368E+01 0.21057084652E+01 0.21013887766E+01 0.21065292097E+01 0.21135107865E+01
 0.21165675881E+01 0.21135305722E+01 0.21065527928E+01 0.21014092738E+01 0.21057364970E+01
 0.21270510410E+01 0.21711927378E+01 0.22412825468E+01 0.23369353195E+01 0.24535488974E+01
 0.25818338834E+01 0.27080788936E+01 0.28157292460E+01 0.28884748435E+01 0.29142148702E+01
 0.28884700387E+01 0.28157297854E+01 0.27080931267E+01 0.31375895259E+01 0.29017557136E+01
 0.26851408677E+01 0.24993753584E+01 0.23498127353E+01 0.22369029145E+01 0.21575843417E+01
 0.21065292097E+01 0.20774416996E+01 0.20646232411E+01 0.20646413813E+01 0.20774844287E+01
 0.21065798721E+01 0.21576419681E+01 0.22369659831E+01 0.23498554156E+01 0.24993651637E+01
 0.26850790426E+01 0.29016811529E+01 0.31375393093E+01 0.33740387761E+01 0.35866704737E+01
 0.37486024695E+01 0.38364403780E+01 0.38364427598E+01 0.37486071907E+01 0.35866771738E+01
 0.33740592588E+01 0.37431560910E+01 0.33690868932E+01 0.30313917402E+01 0.27433175020E+01
 0.25098344159E+01 0.23301622990E+01 0.22000310450E+01 0.21135107865E+01 0.20646232411E+01
 0.20488984985E+01 0.20646648372E+01 0.21135793511E+01 0.22001122520E+01 0.23302377191E+01
 0.25098656781E+01 0.27432652797E+01 0.30312642523E+01 0.33689485320E+01 0.37430709515E+01
 0.41300658354E+01 0.44960912986E+01 0.48005126342E+01 0.50032656317E+01 0.50745470602E+01
 0.50032826098E+01 0.48005260798E+01 0.44960949823E+01 0.41300905561E+01 0.43498087542E+01
 0.38121060549E+01 0.33396820373E+01 0.29452072224E+01 0.26309589134E+01 0.23928760215E+01
 0.22239204583E+01 0.21165675881E+01 0.20646413813E+01 0.20646648372E+01 0.21166334973E+01
 0.22240141935E+01 0.23929652513E+01 0.26309890521E+01 0.29451291395E+01 0.33395039081E+01
 0.38119059224E+01 0.43496745783E+01 0.49258578158E+01 0.54974379126E+01 0.60077693322E+01
 0.63947719561E+01 0.66042271344E+01 0.66042362766E+01 0.63947857743E+01 0.60077676379E+01
 0.54974326197E+01 0.49259007921E+01 0.48940196355E+01 0.41801073941E+01 0.35723048032E+01
 0.30789019094E+01 0.26963183571E+01 0.24150023254E+01 0.22239246575E+01 0.21135305722E+01
 0.20774844287E+01 0.21135793511E+01 0.22240141935E+01 0.24150997034E+01 0.26963588384E+01
 0.30788218144E+01 0.35721010645E+01 0.41798595337E+01 0.48938352880E+01 0.56875241315E+01
 0.65115854594E+01 0.72937816261E+01 0.79463521030E+01 0.83819884982E+01 0.85353162269E+01
 0.83819752635E+01 0.79463190218E+01 0.72937348319E+01 0.65115650978E+01 0.56875922202E+01
 0.53074176025E+01 0.44246153302E+01 0.36976553049E+01 0.31257241705E+01 0.26963144629E+01
 0.23928740070E+01 0.22000378643E+01 0.21065527928E+01 0.21065798721E+01 0.22001122520E+01
 0.23929652513E+01 0.26963588384E+01 0.31256507458E+01 0.36974458151E+01 0.44243402210E+01
 0.53071978876E+01 0.63259839838E+01 0.74313684152E+01 0.85403592056E+01 0.95401715042E+01
 0.10304179959E+02 0.10719715776E+02 0.10719702037E+02 0.10304132223E+02 0.95400843166E+01
 0.85402580380E+01 0.74313220345E+01 0.63260658124E+01 0.55312220611E+01 0.45104163385E+01
 0.36976509378E+01 0.30788921387E+01 0.26309490869E+01 0.23301574577E+01 0.21575852767E+01
 0.21014092738E+01 0.21576419681E+01 0.23302377191E+01 0.26309890521E+01 0.30788218144E+01
 0.36974458151E+01 0.45101368053E+01 0.55309924473E+01 0.67532660488E+01 0.81368128831E+01
 0.95979305390E+01 0.11006536618E+02 0.12197390874E+02 0.13000213771E+02 0.13284282335E+02
 0.13000234093E+02 0.12197372955E+02 0.11006435408E+02 0.95977836290E+01 0.81367301014E+01
 0.67533415921E+01 0.55312096273E+01 0.44246076449E+01 0.35722947495E+01 0.29451924398E+01
 0.25098260943E+01 0.22368971081E+01 0.21057049607E+01 0.21057364970E+01 0.22369659831E+01
 0.25098656781E+01 0.29451291395E+01 0.35721010645E+01 0.44243402210E+01 0.55309924473E+01
 0.69038159624E+01 0.85212749578E+01 0.10312427590E+02 0.12145210990E+02 0.13827529013E+02
 0.15132028630E+02 0.15848424655E+02 0.15848499371E+02 0.15132176112E+02 0.13827595969E+02
 0.12145117447E+02 0.10312242655E+02 0.85211538828E+01 0.69038699850E+01 0.53073981269E+01
 0.41801058232E+01 0.33396730956E+01 0.27433105924E+01 0.23498168183E+01 0.21270048671E+01
 0.20549787323E+01 0.21270510410E+01 0.23498554156E+01 0.27432652797E+01 0.33395039081E+01
 0.41798595337E+01 0.53071978876E+01 0.67532660488E+01 0.85212749578E+01 0.10565492206E+02
 0.12771015611E+02 0.14941473305E+02 0.16809680441E+02 0.18086107781E+02 0.18540998379E+02
 0.18086324833E+02 0.16809940837E+02 0.14941580529E+02 0.12770908316E+02 0.10565276742E+02
 0.85211280822E+01 0.67533016901E+01 0.48940193707E+01 0.38121155667E+01 0.30313925989E+01
 0.24993919848E+01 0.21711684314E+01 0.20151022549E+01 0.20151183027E+01 0.21711927378E+01
 0.24993651637E+01 0.30312642523E+01 0.38119059224E+01 0.48938352880E+01 0.63259839838E+01
 0.81368128831E+01 0.10312427590E+02 0.12771015611E+02 0.15338460976E+02 0.17739873549E+02
 0.19629271246E+02 0.20672998767E+02 0.20673120377E+02 0.19629551420E+02 0.17740122691E+02
 0.15338523344E+02 0.12770872976E+02 0.10312199424E+02 0.81366672078E+01 0.63260197547E+01
 0.43498254578E+01 0.33691000987E+01 0.26851620817E+01 0.22413018901E+01 0.19933037055E+01
 0.19137205389E+01 0.19933081852E+01 0.22412825468E+01 0.26850790426E+01 0.33689485320E+01
 0.43496745783E+01 0.56875241315E+01 0.74313684152E+01 0.95979305390E+01 0.12145210990E+02
 0.14941473305E+02 0.17739873549E+02 0.20180787215E+02 0.21853890445E+02 0.22449428122E+02
 0.21854046267E+02 0.20181002370E+02 0.17740014660E+02 0.14941451661E+02 0.12145038760E+02
 0.95977165431E+01 0.74312500227E+01 0.56875661342E+01 0.37431710293E+01 0.29017743679E+01
 0.23369875421E+01 0.19933296305E+01 0.18315305921E+01 0.18315261541E+01 0.19933098551E+01
 0.23369353195E+01 0.29016811529E+01 0.37430709515E+01 0.49258578158E+01 0.65115854594E+01
 0.85403592056E+01 0.11006536618E+02 0.13827529013E+02 0.16809680441E+02 0.19629271246E+02
 0.21853890445E+02 0.23082373251E+02 0.23082412073E+02 0.21853981342E+02 0.19629353874E+02
 0.16809691297E+02 0.13827435835E+02 0.11006363067E+02 0.85401850871E+01 0.65115010716E+01
 0.49258912245E+01 0.31376048113E+01 0.24536122646E+01 0.20151621681E+01 0.17727326546E+01
 0.16953956468E+01 0.17727138908E+01 0.20151212309E+01 0.24535488974E+01 0.31375393093E+01
 0.41300658354E+01 0.54974379126E+01 0.72937816261E+01 0.95401715042E+01 0.12197390874E+02
 0.15132028630E+02 0.18086107781E+02 0.20672998767E+02 0.22449428122E+02 0.23082412073E+02
 0.22449407177E+02 0.20672954112E+02 0.18086041597E+02 0.15131941822E+02 0.12197278346E+02
 0.95400369925E+01 0.72936619498E+01 0.54973828952E+01 0.41300884937E+01 0.25818975008E+01
 0.20550370333E+01 0.17373297593E+01 0.15887250722E+01 0.15887139806E+01 0.17372954402E+01
 0.20549805209E+01 0.25818338834E+01 0.33740387761E+01 0.44960912986E+01 0.60077693322E+01
 0.79463521030E+01 0.10304179959E+02 0.13000213771E+02 0.15848424655E+02 0.18540998379E+02
 0.20673120377E+02 0.21854046267E+02 0.21853981342E+02 0.20672954112E+02 0.18540802976E+02
 0.15848270590E+02 0.13000120994E+02 0.10304113497E+02 0.79462780290E+01 0.60077029988E+01
 0.44960715622E+01 0.33740753184E+01 0.21057722378E+01 0.17219269334E+01 0.15107567644E+01
 0.14435827576E+01 0.15107374495E+01 0.17218836149E+01 0.21057068195E+01 0.27080788936E+01
 0.35866704737E+01 0.48005126342E+01 0.63947719561E+01 0.83819884982E+01 0.10719715776E+02
 0.13284282335E+02 0.15848499371E+02 0.18086324833E+02 0.19629551420E+02 0.20181002370E+02
 0.19629353874E+02 0.18086041597E+02 0.15848270590E+02 0.13284175892E+02 0.10719694571E+02
 0.83819750668E+01 0.63947393908E+01 0.48004943534E+01 0.35866990751E+01 0.27081436995E+01
 0.17207599967E+01 0.14577688869E+01 0.13348929602E+01 0.13348905097E+01 0.14577538900E+01
 0.17207169674E+01 0.21575884033E+01 0.28157292460E+01 0.37486024695E+01 0.50032656317E+01
 0.66042271344E+01 0.85353162269E+01 0.10719702037E+02 0.13000234093E+02 0.15132176112E+02
 0.16809940837E+02 0.17740122691E+02 0.17740014660E+02 0.16809691297E+02 0.15131941822E+02
 0.13000120994E+02 0.10719694571E+02 0.85353304302E+01 0.66042173465E+01 0.50032581265E+01
 0.37486376522E+01 0.28158032786E+01 0.21576613705E+01 0.14246347983E+01 0.12578950726E+01
 0.12047726498E+01 0.12579056155E+01 0.14246300455E+01 0.17268889654E+01 0.22000398529E+01
 0.28884748435E+01 0.38364403780E+01 0.50745470602E+01 0.66042362766E+01 0.83819752635E+01
 0.10304132223E+02 0.12197372955E+02 0.13827595969E+02 0.14941580529E+02 0.15338523344E+02
 0.14941451661E+02 0.13827435835E+02 0.12197278346E+02 0.10304113497E+02 0.83819750668E+01
 0.66042173465E+01 0.50745356476E+01 0.38364808739E+01 0.28885660547E+01 0.22001323808E+01
 0.17269383900E+01 0.12074051334E+01 0.11140101696E+01 0.11140261425E+01 0.12074319679E+01
 0.14061376267E+01 0.17338006342E+01 0.22239234681E+01 0.29142148702E+01 0.38364427598E+01
 0.50032826098E+01 0.63947857743E+01 0.79463190218E+01 0.95400843166E+01 0.11006435408E+02
 0.12145117447E+02 0.12770908316E+02 0.12770872976E+02 0.12145038760E+02 0.11006363067E+02
 0.95400369925E+01 0.79462780290E+01 0.63947393908E+01 0.50032581265E+01 0.38364808739E+01
 0.29143180199E+01 0.22240417694E+01 0.17338738996E+01 0.14061460025E+01 0.10568779222E+01
 0.10177101773E+01 0.10569148770E+01 0.11790684542E+01 0.13980611413E+01 0.17366806728E+01
 0.22239182451E+01 0.28884700387E+01 0.37486071907E+01 0.48005260798E+01 0.60077676379E+01
 0.72937348319E+01 0.85402580380E+01 0.95977836290E+01 0.10312242655E+02 0.10565276742E+02
 0.10312199424E+02 0.95977165431E+01 0.85401850871E+01 0.72936619498E+01 0.60077029988E+01
 0.48004943534E+01 0.37486376522E+01 0.28885660547E+01 0.22240417694E+01 0.17367733966E+01
 0.13980863004E+01 0.11790380161E+01 0.96247898506E+00 0.96250157098E+00 0.10293757530E+01
 0.11699378391E+01 0.13980515957E+01 0.17337867895E+01 0.22000302106E+01 0.28157297854E+01
 0.35866771738E+01 0.44960949823E+01 0.54974326197E+01 0.65115650978E+01 0.74313220345E+01
 0.81367301014E+01 0.85211538828E+01 0.85211280822E+01 0.81366672078E+01 0.74312500227E+01
 0.65115010716E+01 0.54973828952E+01 0.44960715622E+01 0.35866990751E+01 0.28158032786E+01
 0.22001323808E+01 0.17338738996E+01 0.13980863004E+01 0.11699155506E+01 0.10293299027E+01
 0.91702648393E+00 0.94451452581E+00 0.10293668203E+01 0.11790491371E+01 0.14061115713E+01
 0.17268660945E+01 0.21575835076E+01 0.27080931267E+01 0.33740592588E+01 0.41300905561E+01
 0.49259007921E+01 0.56875922202E+01 0.63260658124E+01 0.67533415921E+01 0.69038699850E+01
 0.67533016901E+01 0.63260197547E+01 0.56875661342E+01 0.49258912245E+01 0.41300884937E+01
 0.33740753184E+01 0.27081436995E+01 0.21576613705E+01 0.17269383900E+01 0.14061460025E+01
 0.11790380161E+01 0.10293299027E+01 0.94448412859E+00 0.10002001528E+01 0.10568994257E+01
 0.11560116554E+01 0.13043588081E+01 0.15106234779E+01 0.17832748160E+01 0.21270082220E+01
 0.25381662419E+01 0.30004362085E+01 0.34826073471E+01 0.39399737436E+01 0.43201672774E+01
 0.45729348947E+01 0.46616678137E+01 0.45729300830E+01 0.43201699599E+01 0.39399912141E+01
 0.34826377953E+01 0.30004806133E+01 0.25382269925E+01 0.21270715738E+01 0.17833118181E+01
 0.15106184307E+01 0.13043280095E+01 0.11559855470E+01 0.10568923128E+01 0.10002033866E+01
 0.98176058526E+00 0.10568994257E+01 0.11140231798E+01 0.12047927290E+01 0.13349209970E+01
 0.15107618404E+01 0.17372961008E+01 0.20151062470E+01 0.23369400199E+01 0.26851391507E+01
 0.30313901477E+01 0.33396805680E+01 0.35723042444E+01 0.36976564535E+01 0.36976533797E+01
 0.35722974367E+01 0.33396755924E+01 0.30313947447E+01 0.26851630970E+01 0.23369867018E+01
 0.20151599226E+01 0.17373271416E+01 0.15107541909E+01 0.13348905997E+01 0.12047712896E+01
 0.11140264711E+01 0.10569163787E+01 0.10293773984E+01 0.10293683679E+01 0.11560116554E+01
 0.12047927290E+01 0.12789861182E+01 0.13835972613E+01 0.15233337394E+01 0.17007324023E+01