   2   2   0   0
  0.2001288E+02  0.3839590E-09  0.3839590E-09  0.3839590E-09  0.5000000E-15
  1.000000000000000E-004
  CAR 
 unknown system                          
     17.62900787     -8.09937914  301      6.15171193      1.00000000
     -8.099  0.0000E+00  0.0000E+00
     -8.014  0.0000E+00  0.0000E+00
     -7.928  0.0000E+00  0.0000E+00
     -7.842  0.0000E+00  0.0000E+00
     -7.756  0.0000E+00  0.0000E+00
     -7.671  0.0000E+00  0.0000E+00
     -7.585  0.0000E+00  0.0000E+00
     -7.499  0.0000E+00  0.0000E+00
     -7.413  0.0000E+00  0.0000E+00
     -7.328  0.0000E+00  0.0000E+00
     -7.242  0.1036E-17  0.8882E-19
     -7.156  0.1248E-15  0.1079E-16
     -7.070  0.1055E-13  0.9156E-15
     -6.984  0.6221E-12  0.5427E-13
     -6.899  0.2571E-10  0.2259E-11
     -6.813  0.7467E-09  0.6630E-10
     -6.727  0.1531E-07  0.1379E-08
     -6.641  0.2227E-06  0.2048E-07
     -6.556  0.2314E-05  0.2190E-06
     -6.470  0.1733E-04  0.1705E-05
     -6.384  0.9450E-04  0.9809E-05
     -6.298  0.3802E-03  0.4242E-04
     -6.213  0.1149E-02  0.1409E-03
     -6.127  0.2670E-02  0.3699E-03
     -6.041  0.4937E-02  0.7933E-03
     -5.955  0.7589E-02  0.1444E-02
     -5.870  0.1017E-01  0.2317E-02
     -5.784  0.1240E-01  0.3380E-02
     -5.698  0.1428E-01  0.4604E-02
     -5.612  0.1603E-01  0.5979E-02
     -5.527  0.1769E-01  0.7496E-02
     -5.441  0.1902E-01  0.9127E-02
     -5.355  0.2016E-01  0.1086E-01
     -5.269  0.2157E-01  0.1271E-01
     -5.183  0.2323E-01  0.1470E-01
     -5.098  0.2465E-01  0.1681E-01
     -5.012  0.2547E-01  0.1900E-01
     -4.926  0.2608E-01  0.2123E-01
     -4.840  0.2743E-01  0.2359E-01
     -4.755  0.2969E-01  0.2613E-01
     -4.669  0.3161E-01  0.2884E-01
     -4.583  0.3220E-01  0.3161E-01
     -4.497  0.3228E-01  0.3437E-01
     -4.412  0.3337E-01  0.3724E-01
     -4.326  0.3579E-01  0.4030E-01
     -4.240  0.3850E-01  0.4361E-01
     -4.154  0.4086E-01  0.4711E-01
     -4.069  0.4303E-01  0.5080E-01
     -3.983  0.4489E-01  0.5465E-01
     -3.897  0.4656E-01  0.5864E-01
     -3.811  0.4919E-01  0.6286E-01
     -3.726  0.5331E-01  0.6743E-01
     -3.640  0.5693E-01  0.7232E-01
     -3.554  0.5735E-01  0.7723E-01
     -3.468  0.5499E-01  0.8195E-01
     -3.383  0.5221E-01  0.8643E-01
     -3.297  0.4907E-01  0.9064E-01
     -3.211  0.4491E-01  0.9449E-01
     -3.125  0.4206E-01  0.9810E-01
     -3.039  0.4307E-01  0.1018E+00
     -2.954  0.4611E-01  0.1057E+00
     -2.868  0.4645E-01  0.1097E+00
     -2.782  0.4174E-01  0.1133E+00
     -2.696  0.3401E-01  0.1162E+00
     -2.611  0.2731E-01  0.1186E+00
     -2.525  0.2460E-01  0.1207E+00
     -2.439  0.2631E-01  0.1229E+00
     -2.353  0.2977E-01  0.1255E+00
     -2.268  0.3062E-01  0.1281E+00
     -2.182  0.2637E-01  0.1304E+00
     -2.096  0.1837E-01  0.1319E+00
     -2.010  0.1015E-01  0.1328E+00
     -1.925  0.4610E-02  0.1332E+00
     -1.839  0.2880E-02  0.1335E+00
     -1.753  0.5449E-02  0.1339E+00
     -1.667  0.1257E-01  0.1350E+00
     -1.582  0.2219E-01  0.1369E+00
     -1.496  0.2914E-01  0.1394E+00
     -1.410  0.2985E-01  0.1420E+00
     -1.324  0.2700E-01  0.1443E+00
     -1.238  0.2734E-01  0.1466E+00
     -1.153  0.3617E-01  0.1497E+00
     -1.067  0.5370E-01  0.1543E+00
     -0.981  0.7378E-01  0.1607E+00
     -0.895  0.8649E-01  0.1681E+00
     -0.810  0.8539E-01  0.1754E+00
     -0.724  0.7329E-01  0.1817E+00
     -0.638  0.5959E-01  0.1868E+00
     -0.552  0.5050E-01  0.1911E+00
     -0.467  0.4457E-01  0.1950E+00
     -0.381  0.3933E-01  0.1983E+00
     -0.295  0.3687E-01  0.2015E+00
     -0.209  0.3897E-01  0.2048E+00
     -0.124  0.4148E-01  0.2084E+00
     -0.038  0.3884E-01  0.2117E+00
      0.048  0.3213E-01  0.2145E+00
      0.134  0.2766E-01  0.2168E+00
      0.219  0.2811E-01  0.2193E+00
      0.305  0.2942E-01  0.2218E+00
      0.391  0.2695E-01  0.2241E+00
      0.477  0.2172E-01  0.2260E+00
      0.563  0.1856E-01  0.2275E+00
      0.648  0.2026E-01  0.2293E+00
      0.734  0.2488E-01  0.2314E+00
      0.820  0.2713E-01  0.2337E+00
      0.906  0.2363E-01  0.2358E+00
      0.991  0.1705E-01  0.2372E+00
      1.077  0.1304E-01  0.2384E+00
      1.163  0.1418E-01  0.2396E+00
      1.249  0.1866E-01  0.2412E+00
      1.334  0.2357E-01  0.2432E+00
      1.420  0.2837E-01  0.2456E+00
      1.506  0.3478E-01  0.2486E+00
      1.592  0.4413E-01  0.2524E+00
      1.677  0.5630E-01  0.2572E+00
      1.763  0.6940E-01  0.2632E+00
      1.849  0.7836E-01  0.2699E+00
      1.935  0.7820E-01  0.2766E+00
      2.020  0.7067E-01  0.2827E+00
      2.106  0.6375E-01  0.2881E+00
      2.192  0.6356E-01  0.2936E+00
      2.278  0.6874E-01  0.2995E+00
      2.363  0.7321E-01  0.3057E+00
      2.449  0.7378E-01  0.3121E+00
      2.535  0.7286E-01  0.3183E+00
      2.621  0.7326E-01  0.3246E+00
      2.707  0.7465E-01  0.3310E+00
      2.792  0.7714E-01  0.3376E+00
      2.878  0.8321E-01  0.3448E+00
      2.964  0.9251E-01  0.3527E+00
      3.050  0.9912E-01  0.3612E+00
      3.135  0.9838E-01  0.3696E+00
      3.221  0.9382E-01  0.3777E+00
      3.307  0.9275E-01  0.3856E+00
      3.393  0.9610E-01  0.3939E+00
      3.478  0.9752E-01  0.4022E+00
      3.564  0.9369E-01  0.4103E+00
      3.650  0.8893E-01  0.4179E+00
      3.736  0.8796E-01  0.4254E+00
      3.821  0.8963E-01  0.4331E+00
      3.907  0.8947E-01  0.4408E+00
      3.993  0.8531E-01  0.4481E+00
      4.079  0.7960E-01  0.4549E+00
      4.164  0.7707E-01  0.4616E+00
      4.250  0.7995E-01  0.4684E+00
      4.336  0.8426E-01  0.4756E+00
      4.422  0.8300E-01  0.4828E+00
      4.508  0.7490E-01  0.4892E+00
      4.593  0.6607E-01  0.4948E+00
      4.679  0.6140E-01  0.5001E+00
      4.765  0.5886E-01  0.5052E+00
      4.851  0.5380E-01  0.5098E+00
      4.936  0.4585E-01  0.5137E+00
      5.022  0.3855E-01  0.5170E+00
      5.108  0.3380E-01  0.5199E+00
      5.194  0.3021E-01  0.5225E+00
      5.279  0.2629E-01  0.5248E+00
      5.365  0.2259E-01  0.5267E+00
      5.451  0.1992E-01  0.5284E+00
      5.537  0.1754E-01  0.5299E+00
      5.622  0.1436E-01  0.5311E+00
      5.708  0.1064E-01  0.5321E+00
      5.794  0.7198E-02  0.5327E+00
      5.880  0.4347E-02  0.5330E+00
      5.965  0.2201E-02  0.5332E+00
      6.051  0.8776E-03  0.5333E+00
      6.137  0.2917E-03  0.5333E+00
      6.223  0.2389E-03  0.5334E+00
      6.309  0.7640E-03  0.5334E+00
      6.394  0.2247E-02  0.5336E+00
      6.480  0.4904E-02  0.5340E+00
      6.566  0.8276E-02  0.5347E+00
      6.652  0.1185E-01  0.5358E+00
      6.737  0.1601E-01  0.5371E+00
      6.823  0.2109E-01  0.5389E+00
      6.909  0.2615E-01  0.5412E+00
      6.995  0.2995E-01  0.5437E+00
      7.080  0.3230E-01  0.5465E+00
      7.166  0.3355E-01  0.5494E+00
      7.252  0.3452E-01  0.5524E+00
      7.338  0.3723E-01  0.5555E+00
      7.423  0.4356E-01  0.5593E+00
      7.509  0.5266E-01  0.5638E+00
      7.595  0.6069E-01  0.5690E+00
      7.681  0.6425E-01  0.5745E+00
      7.766  0.6472E-01  0.5801E+00
      7.852  0.6799E-01  0.5859E+00
      7.938  0.7743E-01  0.5925E+00
      8.024  0.8916E-01  0.6002E+00
      8.110  0.9704E-01  0.6085E+00
      8.195  0.9983E-01  0.6171E+00
      8.281  0.1003E+00  0.6257E+00
      8.367  0.1000E+00  0.6343E+00
      8.453  0.9771E-01  0.6426E+00
      8.538  0.9197E-01  0.6505E+00
      8.624  0.8396E-01  0.6577E+00
      8.710  0.7670E-01  0.6643E+00
      8.796  0.7291E-01  0.6705E+00
      8.881  0.7408E-01  0.6769E+00
      8.967  0.8115E-01  0.6839E+00
      9.053  0.9391E-01  0.6919E+00
      9.139  0.1092E+00  0.7013E+00
      9.224  0.1217E+00  0.7117E+00
      9.310  0.1275E+00  0.7227E+00
      9.396  0.1267E+00  0.7335E+00
      9.482  0.1214E+00  0.7439E+00
      9.567  0.1133E+00  0.7537E+00
      9.653  0.1043E+00  0.7626E+00
      9.739  0.9668E-01  0.7709E+00
      9.825  0.9143E-01  0.7787E+00
      9.910  0.8784E-01  0.7863E+00
      9.996  0.8647E-01  0.7937E+00
     10.082  0.8830E-01  0.8013E+00
     10.168  0.9042E-01  0.8090E+00
     10.254  0.8851E-01  0.8166E+00
     10.339  0.8344E-01  0.8238E+00
     10.425  0.7991E-01  0.8306E+00
     10.511  0.7931E-01  0.8374E+00
     10.597  0.7887E-01  0.8442E+00
     10.682  0.7787E-01  0.8509E+00
     10.768  0.7939E-01  0.8577E+00
     10.854  0.8484E-01  0.8649E+00
     10.940  0.9070E-01  0.8727E+00
     11.025  0.9185E-01  0.8806E+00
     11.111  0.8668E-01  0.8880E+00
     11.197  0.7780E-01  0.8947E+00
     11.283  0.6909E-01  0.9006E+00
     11.368  0.6356E-01  0.9061E+00
     11.454  0.6322E-01  0.9115E+00
     11.540  0.6839E-01  0.9174E+00
     11.626  0.7621E-01  0.9239E+00
     11.711  0.8173E-01  0.9309E+00
     11.797  0.8261E-01  0.9380E+00
     11.883  0.8015E-01  0.9449E+00
     11.969  0.7515E-01  0.9513E+00
     12.055  0.6668E-01  0.9570E+00
     12.140  0.5584E-01  0.9618E+00
     12.226  0.4736E-01  0.9659E+00
     12.312  0.4572E-01  0.9698E+00
     12.398  0.5101E-01  0.9742E+00
     12.483  0.5962E-01  0.9793E+00
     12.569  0.6750E-01  0.9851E+00
     12.655  0.7216E-01  0.9913E+00
     12.741  0.7288E-01  0.9975E+00
     12.826  0.6914E-01  0.1003E+01
     12.912  0.6033E-01  0.1009E+01
     12.998  0.4865E-01  0.1013E+01
     13.084  0.3858E-01  0.1016E+01
     13.169  0.3226E-01  0.1019E+01
     13.255  0.2867E-01  0.1021E+01
     13.341  0.2682E-01  0.1024E+01
     13.427  0.2756E-01  0.1026E+01
     13.512  0.3289E-01  0.1029E+01
     13.598  0.4347E-01  0.1033E+01
     13.684  0.5505E-01  0.1037E+01
     13.770  0.5875E-01  0.1042E+01
     13.856  0.4954E-01  0.1047E+01
     13.941  0.3308E-01  0.1049E+01
     14.027  0.1959E-01  0.1051E+01
     14.113  0.1361E-01  0.1052E+01
     14.199  0.1260E-01  0.1053E+01
     14.284  0.1218E-01  0.1054E+01
     14.370  0.1089E-01  0.1055E+01
     14.456  0.1057E-01  0.1056E+01
     14.542  0.1308E-01  0.1057E+01
     14.627  0.1733E-01  0.1059E+01
     14.713  0.1957E-01  0.1060E+01
     14.799  0.1695E-01  0.1062E+01
     14.885  0.1081E-01  0.1063E+01
     14.970  0.5042E-02  0.1063E+01
     15.056  0.1993E-02  0.1063E+01
     15.142  0.1551E-02  0.1064E+01
     15.228  0.2730E-02  0.1064E+01
     15.313  0.4406E-02  0.1064E+01
     15.399  0.5540E-02  0.1065E+01
     15.485  0.5858E-02  0.1065E+01
     15.571  0.5683E-02  0.1066E+01
     15.656  0.4977E-02  0.1066E+01
     15.742  0.3575E-02  0.1066E+01
     15.828  0.1944E-02  0.1067E+01
     15.914  0.7693E-03  0.1067E+01
     16.000  0.2179E-03  0.1067E+01
     16.085  0.4384E-04  0.1067E+01
     16.171  0.6242E-05  0.1067E+01
     16.257  0.6271E-06  0.1067E+01
     16.343  0.4434E-07  0.1067E+01
     16.428  0.2202E-08  0.1067E+01
     16.514  0.7664E-10  0.1067E+01
     16.600  0.1866E-11  0.1067E+01
     16.686  0.3175E-13  0.1067E+01
     16.771  0.3770E-15  0.1067E+01
     16.857  0.3107E-17  0.1067E+01
     16.943  0.0000E+00  0.1067E+01
     17.029  0.0000E+00  0.1067E+01
     17.114  0.0000E+00  0.1067E+01
     17.200  0.0000E+00  0.1067E+01
     17.286  0.0000E+00  0.1067E+01
     17.372  0.0000E+00  0.1067E+01
     17.457  0.0000E+00  0.1067E+01
     17.543  0.0000E+00  0.1067E+01
     17.629  0.0000E+00  0.1067E+01
