    2    2   15    1
  0.2001288E+02  0.3839590E-09  0.3839590E-09  0.3839590E-09  0.5000000E-15
  1.000000000000000E-004
  CAR 
 unknown system                          
      8    110      8
 
  0.5000000E-01  0.5000000E-01  0.5000000E-01  0.2000000E-02
    1       -6.098077   1.000000
    2        5.494778   0.999998
    3        5.798650   0.993959
    4        5.798650   0.993959
    5        8.484732   0.000000
    6        8.506897   0.000000
    7        8.506897   0.000000
    8        9.449072   0.000000
 
  0.1500000E+00  0.5000000E-01  0.5000000E-01  0.6000000E-02
    1       -5.923893   1.000000
    2        4.349924   1.000000
    3        5.218537   1.000000
    4        5.720879   0.998892
    5        8.566199   0.000000
    6        8.672904   0.000000
    7        8.921310   0.000000
    8       10.532634   0.000000
 
  0.2500000E+00  0.5000000E-01  0.5000000E-01  0.6000000E-02
    1       -5.496603   1.000000
    2        2.517086   1.000000
    3        4.782103   1.000000
    4        5.368075   1.000000
    5        8.223542   0.000000
    6        9.138518   0.000000
    7        9.472571   0.000000
    8       11.997843   0.000000
 
  0.3500000E+00  0.5000000E-01  0.5000000E-01  0.6000000E-02
    1       -4.848453   1.000000
    2        0.777280   1.000000
    3        4.490631   1.000000
    4        4.998250   1.000000
    5        7.890121   0.000000
    6        9.334588   0.000000
    7        9.529959   0.000000
    8       13.165777   0.000000
 
  0.4500000E+00  0.5000000E-01  0.5000000E-01  0.6000000E-02
    1       -4.103393   1.000000
    2       -0.615359   1.000000
    3        4.363099   1.000000
    4        4.720490   1.000000
    5        7.682542   0.000000
    6        9.305320   0.000000
    7        9.313179   0.000000
    8       13.731939   0.000000
 
 -0.4500000E+00  0.5000000E-01  0.5000000E-01  0.6000000E-02
    1       -3.783884   1.000000
    2       -1.098551   1.000000
    3        4.402053   1.000000
    4        4.575174   1.000000
    5        7.631247   0.000000
    6        9.166474   0.000000
    7        9.357229   0.000000
    8       13.706365   0.000000
 
 -0.3500000E+00  0.5000000E-01  0.5000000E-01  0.6000000E-02
    1       -4.344399   1.000000
    2       -0.211347   1.000000
    3        4.583152   1.000000
    4        4.592030   1.000000
    5        7.739622   0.000000
    6        9.178231   0.000000
    7        9.538875   0.000000
    8       13.409541   0.000000
 
 -0.2500000E+00  0.5000000E-01  0.5000000E-01  0.6000000E-02
    1       -5.084632   1.000000
    2        1.331002   1.000000
    3        4.754106   1.000000
    4        4.911895   1.000000
    5        7.994157   0.000000
    6        9.193043   0.000000
    7        9.709420   0.000000
    8       12.326838   0.000000
 
 -0.1500000E+00  0.5000000E-01  0.5000000E-01  0.6000000E-02
    1       -5.665772   1.000000
    2        3.137795   1.000000
    3        5.075613   1.000000
    4        5.308783   1.000000
    5        8.321757   0.000000
    6        8.901759   0.000000
    7        9.497347   0.000000
    8       11.441962   0.000000
 
 -0.5000000E-01  0.5000000E-01  0.5000000E-01  0.6000000E-02
    1       -6.010713   1.000000
    2        4.940791   1.000000
    3        5.488339   0.999999
    4        5.622682   0.999913
    5        8.312257   0.000000
    6        8.761824   0.000000
    7        8.918597   0.000000
    8        9.970739   0.000000
 
  0.1500000E+00  0.1500000E+00  0.5000000E-01  0.6000000E-02
    1       -5.836418   1.000000
    2        4.249522   1.000000
    3        5.046204   1.000000
    4        5.158235   1.000000
    5        7.994573   0.000000
    6        9.337589   0.000000
    7        9.564545   0.000000
    8       10.483629   0.000000
 
  0.2500000E+00  0.1500000E+00  0.5000000E-01  0.1200000E-01
    1       -5.492309   1.000000
    2        2.998061   1.000000
    3        4.292382   1.000000
    4        4.965964   1.000000
    5        8.060078   0.000000
    6        9.531321   0.000000
    7       10.197056   0.000000
    8       10.681507   0.000000
 
  0.3500000E+00  0.1500000E+00  0.5000000E-01  0.1200000E-01
    1       -4.912703   1.000000
    2        1.342475   1.000000
    3        3.860341   1.000000
    4        4.596010   1.000000
    5        8.286209   0.000000
    6        9.475840   0.000000
    7       10.462589   0.000000
    8       10.910047   0.000000
 
  0.4500000E+00  0.1500000E+00  0.5000000E-01  0.1200000E-01
    1       -4.172609   1.000000
    2       -0.146492   1.000000
    3        3.588736   1.000000
    4        4.309887   1.000000
    5        8.242466   0.000000
    6        9.308311   0.000000
    7       10.322532   0.000000
    8       12.082400   0.000000
 
 -0.4500000E+00  0.1500000E+00  0.5000000E-01  0.1200000E-01
    1       -3.609682   1.000000
    2       -1.018620   1.000000
    3        3.409091   1.000000
    4        4.263469   1.000000
    5        8.245045   0.000000
    6        9.163564   0.000000
    7       10.154758   0.000000
    8       13.700919   0.000000
 
 -0.3500000E+00  0.1500000E+00  0.5000000E-01  0.1200000E-01
    1       -3.933610   1.000000
    2       -0.536971   1.000000
    3        3.345856   1.000000
    4        4.456729   1.000000
    5        8.380024   0.000000
    6        9.169054   0.000000
    7       10.126236   0.000000
    8       13.158841   0.000000
 
 -0.2500000E+00  0.1500000E+00  0.5000000E-01  0.1200000E-01
    1       -4.679467   1.000000
    2        0.817374   1.000000
    3        3.461745   1.000000
    4        4.816999   1.000000
    5        8.607633   0.000000
    6        9.244152   0.000000
    7       10.180002   0.000000
    8       11.758139   0.000000
 
 -0.1500000E+00  0.1500000E+00  0.5000000E-01  0.1200000E-01
    1       -5.325393   1.000000
    2        2.416956   1.000000
    3        3.841410   1.000000
    4        5.230190   1.000000
    5        8.719010   0.000000
    6        9.120435   0.000000
    7        9.968880   0.000000
    8       11.141174   0.000000
 
 -0.5000000E-01  0.1500000E+00  0.5000000E-01  0.1200000E-01
    1       -5.750708   1.000000
    2        3.685766   1.000000
    3        4.769599   1.000000
    4        5.464233   0.999999
    5        8.394512   0.000000
    6        8.970067   0.000000
    7        9.444885   0.000000
    8       11.002660   0.000000
 
  0.2500000E+00  0.2500000E+00  0.5000000E-01  0.6000000E-02
    1       -5.231612   1.000000
    2        2.658881   1.000000
    3        4.132292   1.000000
    4        4.158717   1.000000
    5        7.280305   0.000000
    6        9.458366   0.000000
    7       11.042584   0.000000
    8       11.155058   0.000000
 
  0.3500000E+00  0.2500000E+00  0.5000000E-01  0.1200000E-01
    1       -4.727746   1.000000
    2        1.554702   1.000000
    3        3.433565   1.000000
    4        3.913844   1.000000
    5        7.416062   0.000000
    6        9.049938   0.000000
    7       11.196794   0.000000
    8       11.916066   0.000000
 
  0.4500000E+00  0.2500000E+00  0.5000000E-01  0.1200000E-01
    1       -4.026175   1.000000
    2        0.254447   1.000000
    3        2.817997   1.000000
    4        3.685602   1.000000
    5        7.666069   0.000000
    6        9.771547   0.000000
    7       10.892859   0.000000
    8       11.980679   0.000000
 
 -0.4500000E+00  0.2500000E+00  0.5000000E-01  0.1200000E-01
    1       -3.325403   1.000000
    2       -0.786192   1.000000
    3        2.336605   1.000000
    4        3.706614   1.000000
    5        7.783221   0.000000
    6       10.525422   0.000000
    7       11.434793   0.000000
    8       11.784118   0.000000
 
 -0.3500000E+00  0.2500000E+00  0.5000000E-01  0.1200000E-01
    1       -3.349545   1.000000
    2       -0.746406   1.000000
    3        2.084127   1.000000
    4        3.959636   1.000000
    5        8.067406   0.000000
    6       10.302633   0.000000
    7       11.589934   0.000000
    8       13.052358   0.000000
 
 -0.2500000E+00  0.2500000E+00  0.5000000E-01  0.1200000E-01
    1       -4.057477   1.000000
    2        0.281294   1.000000
    3        2.180857   1.000000
    4        4.383948   1.000000
    5        8.524704   0.000000
    6       10.058121   0.000000
    7       11.329799   0.000000
    8       11.589749   0.000000
 
 -0.1500000E+00  0.2500000E+00  0.5000000E-01  0.1200000E-01
    1       -4.750286   1.000000
    2        1.269639   1.000000
    3        2.941355   1.000000
    4        4.854538   1.000000
    5        8.924828   0.000000
    6        9.345056   0.000000
    7       10.587607   0.000000
    8       11.145328   0.000000
 
 -0.5000000E-01  0.2500000E+00  0.5000000E-01  0.1200000E-01
    1       -5.244623   1.000000
    2        1.914569   1.000000
    3        4.337963   1.000000
    4        5.096471   1.000000
    5        8.378282   0.000000
    6        9.119606   0.000000
    7        9.877403   0.000000
    8       11.601811   0.000000
 
  0.3500000E+00  0.3500000E+00  0.5000000E-01  0.6000000E-02
    1       -4.299412   1.000000
    2        0.937873   1.000000
    3        3.366828   1.000000
    4        3.481453   1.000000
    5        6.745558   0.000014
    6        8.061581   0.000000
    7       12.830972   0.000000
    8       12.890495   0.000000
 
  0.4500000E+00  0.3500000E+00  0.5000000E-01  0.1200000E-01
    1       -3.654777   1.000000
    2       -0.000188   1.000000
    3        2.815692   1.000000
    4        3.211793   1.000000
    5        7.002694   0.000000
    6        7.942555   0.000000
    7       12.828122   0.000000
    8       13.773506   0.000000
 
 -0.4500000E+00  0.3500000E+00  0.5000000E-01  0.1200000E-01
    1       -2.903780   1.000000
    2       -0.894003   1.000000
    3        1.991771   1.000000
    4        3.221179   1.000000
    5        7.213175   0.000000
    6        9.179417   0.000000
    7       12.482743   0.000000
    8       13.737799   0.000000
 
 -0.3500000E+00  0.3500000E+00  0.5000000E-01  0.1200000E-01
    1       -2.670639   1.000000
    2       -1.126034   1.000000
    3        1.484895   1.000000
    4        3.465400   1.000000
    5        7.499671   0.000000
    6       11.047244   0.000000
    7       12.142689   0.000000
    8       13.135726   0.000000
 
 -0.2500000E+00  0.3500000E+00  0.5000000E-01  0.1200000E-01
    1       -3.316214   1.000000
    2       -0.526495   1.000000
    3        1.652627   1.000000
    4        3.897689   1.000000
    5        7.992053   0.000000
    6       10.964959   0.000000
    7       12.160825   0.000000
    8       12.395768   0.000000
 
 -0.1500000E+00  0.3500000E+00  0.5000000E-01  0.1200000E-01
    1       -4.012542   1.000000
    2       -0.094720   1.000000
    3        2.676773   1.000000
    4        4.410477   1.000000
    5        8.521433   0.000000
    6        9.550479   0.000000
    7       10.754830   0.000000
    8       12.281629   0.000000
 
 -0.5000000E-01  0.3500000E+00  0.5000000E-01  0.1200000E-01
    1       -4.541510   1.000000
    2        0.281221   1.000000
    3        4.090529   1.000000
    4        4.732479   1.000000
    5        8.130104   0.000000
    6        9.185110   0.000000
    7        9.806209   0.000000
    8       12.587250   0.000000
 
  0.4500000E+00  0.4500000E+00  0.5000000E-01  0.6000000E-02
    1       -3.068228   1.000000
    2       -0.771861   1.000000
    3        2.938594   1.000000
    4        3.090085   1.000000
    5        6.543775   0.002898
    6        7.106449   0.000000
    7       14.712236   0.000000
    8       14.727852   0.000000
 
 -0.4500000E+00  0.4500000E+00  0.5000000E-01  0.1200000E-01
    1       -2.320383   1.000000
    2       -1.568559   1.000000
    3        2.532945   1.000000
    4        2.924350   1.000000
    5        6.871612   0.000000
    6        7.399674   0.000000
    7       14.586557   0.000000
    8       15.335501   0.000000
 
 -0.3500000E+00  0.4500000E+00  0.5000000E-01  0.1200000E-01
    1       -2.334098   1.000000
    2       -1.467086   1.000000
    3        1.812104   1.000000
    4        3.132375   1.000000
    5        7.119715   0.000000
    6        9.061294   0.000000
    7       13.319700   0.000000
    8       14.241347   0.000000
 
 -0.2500000E+00  0.4500000E+00  0.5000000E-01  0.1200000E-01
    1       -2.929665   1.000000
    2       -0.998691   1.000000
    3        1.800643   1.000000
    4        3.545858   1.000000
    5        7.597920   0.000000
    6       11.040433   0.000000
    7       11.486736   0.000000
    8       12.630088   0.000000
 
 -0.1500000E+00  0.4500000E+00  0.5000000E-01  0.1200000E-01
    1       -3.439935   1.000000
    2       -0.957823   1.000000
    3        2.724429   1.000000
    4        4.081378   1.000000
    5        8.192582   0.000000
    6        9.642941   0.000000
    7       10.828146   0.000000
    8       13.569147   0.000000
 
 -0.5000000E-01  0.4500000E+00  0.5000000E-01  0.1200000E-01
    1       -3.844973   1.000000
    2       -0.896342   1.000000
    3        3.992366   1.000000
    4        4.509055   1.000000
    5        7.981660   0.000000
    6        9.112138   0.000000
    7        9.634740   0.000000
    8       13.761027   0.000000
 
 -0.4500000E+00 -0.4500000E+00  0.5000000E-01  0.6000000E-02
    1       -2.354731   1.000000
    2       -1.585519   1.000000
    3        2.852355   1.000000
    4        3.011156   1.000000
    5        6.573694   0.001486
    6        6.833809   0.000001
    7       15.565195   0.000000
    8       15.630133   0.000000
 
 -0.3500000E+00 -0.4500000E+00  0.5000000E-01  0.1200000E-01
    1       -3.015672   1.000000
    2       -0.792740   1.000000
    3        2.628339   1.000000
    4        3.019105   1.000000
    5        6.906666   0.000000
    6        7.591924   0.000000
    7       13.700497   0.000000
    8       14.717184   0.000000
 
 -0.2500000E+00 -0.4500000E+00  0.5000000E-01  0.1200000E-01
    1       -3.486916   1.000000
    2       -0.304706   1.000000
    3        2.339888   1.000000
    4        3.401957   1.000000
    5        7.400372   0.000000
    6        9.413493   0.000000
    7       11.670402   0.000000
    8       12.839565   0.000000
 
 -0.1500000E+00 -0.4500000E+00  0.5000000E-01  0.1200000E-01
    1       -3.757768   1.000000
    2       -0.502432   1.000000
    3        2.973325   1.000000
    4        3.956449   1.000000
    5        8.031572   0.000000
    6        9.859167   0.000000
    7       10.993969   0.000000
    8       11.699606   0.000000
 
 -0.3500000E+00 -0.3500000E+00  0.5000000E-01  0.6000000E-02
    1       -3.718807   1.000000
    2        0.073809   1.000000
    3        3.110033   1.000000
    4        3.247796   1.000000
    5        6.598652   0.000824
    6        7.518804   0.000000
    7       13.772925   0.000000
    8       13.800455   0.000000
 
 -0.2500000E+00 -0.3500000E+00  0.5000000E-01  0.1200000E-01
    1       -4.227662   1.000000
    2        0.788303   1.000000
    3        3.087876   1.000000
    4        3.508651   1.000000
    5        7.172431   0.000000
    6        8.435604   0.000000
    7       11.994843   0.000000
    8       12.829529   0.000000
 
 -0.1500000E+00 -0.3500000E+00  0.5000000E-01  0.1200000E-01
    1       -4.504578   1.000000
    2        0.795435   1.000000
    3        3.349657   1.000000
    4        4.087206   1.000000
    5        7.980787   0.000000
    6       10.124241   0.000000
    7       10.286953   0.000000
    8       11.191294   0.000000
 
 -0.2500000E+00 -0.2500000E+00  0.5000000E-01  0.6000000E-02
    1       -4.804980   1.000000
    2        1.805319   1.000000
    3        3.709044   1.000000
    4        3.787079   1.000000
    5        6.978197   0.000000
    6        8.722552   0.000000
    7       11.914627   0.000000
    8       12.011557   0.000000
 
 -0.1500000E+00 -0.2500000E+00  0.5000000E-01  0.1200000E-01
    1       -5.150483   1.000000
    2        2.290141   1.000000
    3        3.839834   1.000000
    4        4.415703   1.000000
    5        7.719600   0.000000
    6        9.694981   0.000000
    7       10.498138   0.000000
    8       11.032767   0.000000
 
 -0.1500000E+00 -0.1500000E+00  0.5000000E-01  0.6000000E-02
    1       -5.576243   1.000000
    2        3.480625   1.000000
    3        4.586828   1.000000
    4        4.626141   1.000000
    5        7.630788   0.000000
    6        9.939166   0.000000
    7       10.324828   0.000000
    8       10.429591   0.000000
 
  0.1500000E+00  0.1500000E+00  0.1500000E+00  0.2000000E-02
    1       -5.837659   1.000000
    2        3.778642   1.000000
    3        5.464109   0.999999
    4        5.464109   0.999999
    5        8.272426   0.000000
    6        8.989376   0.000000
    7        8.989376   0.000000
    8       11.003428   0.000000
 
  0.2500000E+00  0.1500000E+00  0.1500000E+00  0.6000000E-02
    1       -5.579902   1.000000
    2        3.051669   1.000000
    3        4.317636   1.000000
    4        5.534290   0.999994
    5        8.753851   0.000000
    6        9.006741   0.000000
    7        9.326949   0.000000
    8       11.484940   0.000000
 
  0.3500000E+00  0.1500000E+00  0.1500000E+00  0.6000000E-02
    1       -5.077076   1.000000
    2        1.834503   1.000000
    3        3.373369   1.000000
    4        5.206632   1.000000
    5        8.827102   0.000000
    6        9.511368   0.000000
    7        9.800279   0.000000
    8       11.649038   0.000000
 
  0.4500000E+00  0.1500000E+00  0.1500000E+00  0.6000000E-02
    1       -4.376314   1.000000
    2        0.333776   1.000000
    3        3.057494   1.000000
    4        4.761633   1.000000
    5        8.470449   0.000000
    6        9.858761   0.000000
    7        9.876353   0.000000
    8       12.713295   0.000000
 
 -0.4500000E+00  0.1500000E+00  0.1500000E+00  0.6000000E-02
    1       -3.676404   1.000000
    2       -0.818731   1.000000
    3        3.047032   1.000000
    4        4.383228   1.000000
    5        8.159062   0.000000
    6        9.722149   0.000000
    7       10.051409   0.000000
    8       14.125268   0.000000
 
 -0.3500000E+00  0.1500000E+00  0.1500000E+00  0.6000000E-02
    1       -3.670056   1.000000
    2       -0.830361   1.000000
    3        3.258343   1.000000
    4        4.151983   1.000000
    5        7.994063   0.000000
    6        9.724876   0.000000
    7       10.295034   0.000000
    8       12.710863   0.000000
 
 -0.2500000E+00  0.1500000E+00  0.1500000E+00  0.6000000E-02
    1       -4.368014   1.000000
    2        0.315468   1.000000
    3        3.648948   1.000000
    4        4.104344   1.000000
    5        7.979891   0.000000
    6        9.869126   0.000000
    7       10.607159   0.000000
    8       11.099433   0.000000
 
 -0.1500000E+00  0.1500000E+00  0.1500000E+00  0.6000000E-02
    1       -5.070788   1.000000
    2        1.872413   1.000000
    3        4.158992   1.000000
    4        4.253314   1.000000
    5        7.910952   0.000000
    6        9.846784   0.000000
    7       10.401706   0.000000
    8       10.745524   0.000000
 
  0.2500000E+00  0.2500000E+00  0.1500000E+00  0.6000000E-02
    1       -5.409485   1.000000
    2        2.499299   1.000000
    3        4.655311   1.000000
    4        4.798201   1.000000
    5        8.228158   0.000000
    6        9.238762   0.000000
    7       10.099128   0.000000
    8       11.010477   0.000000
 
  0.3500000E+00  0.2500000E+00  0.1500000E+00  0.1200000E-01
    1       -4.989228   1.000000
    2        1.791251   1.000000
    3        3.398827   1.000000
    4        4.701558   1.000000
    5        8.432810   0.000000
    6        9.573338   0.000000
    7       10.408702   0.000000
    8       10.852441   0.000000
 
  0.4500000E+00  0.2500000E+00  0.1500000E+00  0.1200000E-01
    1       -4.349255   1.000000
    2        0.723058   1.000000
    3        2.573406   1.000000
    4        4.294924   1.000000
    5        9.032551   0.000000
    6        9.311539   0.000000
    7       10.506468   0.000000
    8       11.605477   0.000000
 
 -0.4500000E+00  0.2500000E+00  0.1500000E+00  0.1200000E-01
    1       -3.602752   1.000000
    2       -0.464895   1.000000
    3        2.333707   1.000000
    4        3.889659   1.000000
    5        8.840371   0.000000
    6        9.267256   0.000000
    7       11.686540   0.000000
    8       11.942854   0.000000
 
 -0.3500000E+00  0.2500000E+00  0.1500000E+00  0.1200000E-01
    1       -3.266660   1.000000
    2       -0.933034   1.000000
    3        2.380903   1.000000
    4        3.687039   1.000000
    5        8.518846   0.000000
    6        9.471453   0.000000
    7       11.801250   0.000000
    8       12.554844   0.000000
 
 -0.2500000E+00  0.2500000E+00  0.1500000E+00  0.1200000E-01
    1       -3.836039   1.000000
    2       -0.116695   1.000000
    3        2.595877   1.000000
    4        3.775588   1.000000
    5        8.355285   0.000000
    6        9.819805   0.000000
    7       10.768679   0.000000
    8       11.887753   0.000000
 
 -0.1500000E+00  0.2500000E+00  0.1500000E+00  0.1200000E-01
    1       -4.574725   1.000000
    2        1.163921   1.000000
    3        3.011369   1.000000
    4        4.112019   1.000000
    5        8.141767   0.000000
    6        9.662615   0.000000
    7       10.243021   0.000000
    8       11.781126   0.000000
 
  0.3500000E+00  0.3500000E+00  0.1500000E+00  0.6000000E-02
    1       -4.652625   1.000000
    2        1.241214   1.000000
    3        3.527241   1.000000
    4        3.899732   1.000000
    5        7.574519   0.000000
    6        9.492459   0.000000
    7       10.939986   0.000000
    8       11.422989   0.000000
 
  0.4500000E+00  0.3500000E+00  0.1500000E+00  0.1200000E-01
    1       -4.086226   1.000000
    2        0.520705   1.000000
    3        2.691855   1.000000
    4        3.568174   1.000000
    5        7.896327   0.000000
    6        9.113367   0.000000
    7       10.908247   0.000000
    8       12.754474   0.000000
 
 -0.4500000E+00  0.3500000E+00  0.1500000E+00  0.1200000E-01
    1       -3.353401   1.000000
    2       -0.365701   1.000000
    3        2.081198   1.000000
    4        3.118413   1.000000
    5        8.624941   0.000000
    6        9.587502   0.000000
    7       10.484742   0.000000
    8       13.695243   0.000000
 
 -0.3500000E+00  0.3500000E+00  0.1500000E+00  0.1200000E-01
    1       -2.769548   1.000000
    2       -1.040495   1.000000
    3        1.772678   1.000000
    4        2.970862   1.000000
    5        8.877626   0.000000
    6        9.982611   0.000000
    7       11.401506   0.000000
    8       12.673994   0.000000
 
 -0.2500000E+00  0.3500000E+00  0.1500000E+00  0.1200000E-01
    1       -3.136964   1.000000
    2       -0.622091   1.000000
    3        1.772301   1.000000
    4        3.202660   1.000000
    5        9.257002   0.000000
    6        9.689649   0.000000
    7       10.748079   0.000000
    8       13.533644   0.000000
 
 -0.1500000E+00  0.3500000E+00  0.1500000E+00  0.1200000E-01
    1       -3.880528   1.000000
    2        0.183508   1.000000
    3        2.283682   1.000000
    4        3.679478   1.000000
    5        8.809250   0.000000
    6        9.762678   0.000000
    7       10.056160   0.000000
    8       12.641028   0.000000
 
  0.4500000E+00  0.4500000E+00  0.1500000E+00  0.6000000E-02
    1       -3.596727   1.000000
    2       -0.107421   1.000000
    3        2.551768   1.000000
    4        3.380397   1.000000
    5        7.029192   0.000000
    6        8.552454   0.000000
    7       12.775055   0.000000
    8       12.895298   0.000000
 
 -0.4500000E+00  0.4500000E+00  0.1500000E+00  0.1200000E-01
    1       -2.916249   1.000000
    2       -0.844323   1.000000
    3        2.280860   1.000000
    4        2.832632   1.000000
    5        7.594345   0.000000
    6        8.379925   0.000000
    7       12.448744   0.000000
    8       14.680293   0.000000
 
 -0.3500000E+00  0.4500000E+00  0.1500000E+00  0.1200000E-01
    1       -2.196461   1.000000
    2       -1.519097   1.000000
    3        1.937176   1.000000
    4        2.434202   1.000000
    5        8.437861   0.000000
    6        9.207099   0.000000
    7       12.015182   0.000000
    8       12.907052   0.000000
 
 -0.2500000E+00  0.4500000E+00  0.1500000E+00  0.1200000E-01
    1       -2.491749   1.000000
    2       -1.219354   1.000000
    3        1.612552   1.000000
    4        2.766816   1.000000
    5        8.799297   0.000000
    6       10.631384   0.000000
    7       11.350541   0.000000
    8       11.807897   0.000000
 
 -0.1500000E+00  0.4500000E+00  0.1500000E+00  0.1200000E-01
    1       -3.172361   1.000000
    2       -0.779192   1.000000
    3        2.029196   1.000000
    4        3.366953   1.000000
    5        9.037550   0.000000
    6        9.350826   0.000000
    7       11.583263   0.000000
    8       12.791548   0.000000
 
 -0.4500000E+00 -0.4500000E+00  0.1500000E+00  0.6000000E-02
    1       -2.319325   1.000000
    2       -1.535952   1.000000
    3        2.129998   1.000000
    4        3.150462   1.000000
    5        6.764988   0.000008
    6        8.143902   0.000000
    7       14.456829   0.000000
    8       14.702479   0.000000
 
 -0.3500000E+00 -0.4500000E+00  0.1500000E+00  0.1200000E-01
    1       -2.261287   1.000000
    2       -1.542533   1.000000
    3        2.196390   1.000000
    4        2.682569   1.000000
    5        7.536583   0.000000
    6        8.224244   0.000000
    7       13.307216   0.000000
    8       14.219641   0.000000
 
 -0.2500000E+00 -0.4500000E+00  0.1500000E+00  0.1200000E-01
    1       -2.781754   1.000000
    2       -0.937396   1.000000
    3        1.970170   1.000000
    4        2.684187   1.000000
    5        8.498791   0.000000
    6        9.336953   0.000000
    7       11.207265   0.000000
    8       13.854813   0.000000
 
 -0.3500000E+00 -0.3500000E+00  0.1500000E+00  0.6000000E-02
    1       -2.974951   1.000000
    2       -0.826504   1.000000
    3        2.269565   1.000000
    4        3.227724   1.000000
    5        6.857553   0.000000
    6        8.280458   0.000000
    7       13.692204   0.000000
    8       13.734398   0.000000
 
 -0.2500000E+00 -0.3500000E+00  0.1500000E+00  0.1200000E-01
    1       -3.530410   1.000000
    2       -0.149692   1.000000
    3        2.446951   1.000000
    4        3.131226   1.000000
    5        7.713107   0.000000
    6        8.676987   0.000000
    7       11.647651   0.000000
    8       13.742028   0.000000
 
 -0.2500000E+00 -0.2500000E+00  0.1500000E+00  0.6000000E-02
    1       -4.159425   1.000000
    2        0.585055   1.000000
    3        2.976304   1.000000
    4        3.605274   1.000000
    5        7.270501   0.000000
    6        8.957121   0.000000
    7       11.837720   0.000000
    8       12.136849   0.000000
 
  0.2500000E+00  0.2500000E+00  0.2500000E+00  0.2000000E-02
    1       -5.330764   1.000000
    2        1.910575   1.000000
    3        5.086647   1.000000
    4        5.086647   1.000000
    5        7.886860   0.000000
    6        9.378956   0.000000
    7        9.378956   0.000000
    8       12.772371   0.000000
 
  0.3500000E+00  0.2500000E+00  0.2500000E+00  0.6000000E-02
    1       -5.000107   1.000000
    2        1.345747   1.000000
    3        3.904882   1.000000
    4        5.136196   1.000000
    5        8.426441   0.000000
    6        9.410981   0.000000
    7        9.656007   0.000000
    8       12.305286   0.000000
 
  0.4500000E+00  0.2500000E+00  0.2500000E+00  0.6000000E-02
    1       -4.437521   1.000000
    2        0.762690   1.000000
    3        2.526170   1.000000
    4        4.763002   1.000000
    5        8.558525   0.000000
    6       10.190412   0.000000
    7       10.450323   0.000000
    8       11.929245   0.000000
 
 -0.4500000E+00  0.2500000E+00  0.2500000E+00  0.6000000E-02
    1       -3.708516   1.000000
    2       -0.138017   1.000000
    3        1.865971   1.000000
    4        4.271811   1.000000
    5        8.058014   0.000000
    6       11.042199   0.000000
    7       11.288550   0.000000
    8       12.551599   0.000000
 
 -0.3500000E+00  0.2500000E+00  0.2500000E+00  0.6000000E-02
    1       -3.111747   1.000000
    2       -0.929606   1.000000
    3        1.893820   1.000000
    4        3.867323   1.000000
    5        7.618944   0.000000
    6       11.365307   0.000000
    7       11.463365   0.000000
    8       12.359419   0.000000
 
 -0.2500000E+00  0.2500000E+00  0.2500000E+00  0.6000000E-02
    1       -3.410762   1.000000
    2       -0.548298   1.000000
    3        2.303179   1.000000
    4        3.634563   1.000000
    5        7.388053   0.000000
    6       10.337495   0.000000
    7       11.626379   0.000000
    8       11.823402   0.000000
 
  0.3500000E+00  0.3500000E+00  0.2500000E+00  0.6000000E-02
    1       -4.761872   1.000000
    2        0.798427   1.000000
    3        4.351632   1.000000
    4        4.415156   1.000000
    5        8.178569   0.000000
    6        9.256317   0.000000
    7       10.113490   0.000000
    8       11.656790   0.000000
 
  0.4500000E+00  0.3500000E+00  0.2500000E+00  0.1200000E-01
    1       -4.288319   1.000000
    2        0.332638   1.000000
    3        3.025904   1.000000
    4        4.302218   1.000000
    5        8.611908   0.000000
    6        9.328095   0.000000
    7       10.928673   0.000000
    8       11.255010   0.000000
 
 -0.4500000E+00  0.3500000E+00  0.2500000E+00  0.1200000E-01
    1       -3.619358   1.000000
    2       -0.176690   1.000000
    3        1.924735   1.000000
    4        3.814452   1.000000
    5        8.793857   0.000000
    6        9.846107   0.000000
    7       11.069342   0.000000
    8       12.502571   0.000000
 