    2    2   15    1
  0.2001288E+02  0.3839590E-09  0.3839590E-09  0.3839590E-09  0.5000000E-15
  1.000000000000000E-004
  CAR 
 unknown system                          
      8    110      8
 
  0.5000000E-01  0.5000000E-01  0.5000000E-01  0.2000000E-02
    1       -6.099379   1.000000
    2        5.493451   0.999998
    3        5.797299   0.993896
    4        5.797299   0.993896
    5        8.484129   0.000000
    6        8.506530   0.000000
    7        8.506530   0.000000
    8        9.447037   0.000000
 
  0.1500000E+00  0.5000000E-01  0.5000000E-01  0.6000000E-02
    1       -5.925189   1.000000
    2        4.348640   1.000000
    3        5.217336   1.000000
    4        5.719555   0.998878
    5        8.565007   0.000000
    6        8.672540   0.000000
    7        8.920581   0.000000
    8       10.530724   0.000000
 
  0.2500000E+00  0.5000000E-01  0.5000000E-01  0.6000000E-02
    1       -5.497884   1.000000
    2        2.515801   1.000000
    3        4.780947   1.000000
    4        5.366859   1.000000
    5        8.221842   0.000000
    6        9.138094   0.000000
    7        9.471850   0.000000
    8       11.995551   0.000000
 
  0.3500000E+00  0.5000000E-01  0.5000000E-01  0.6000000E-02
    1       -4.849702   1.000000
    2        0.775947   1.000000
    3        4.489495   1.000000
    4        4.997109   1.000000
    5        7.888196   0.000000
    6        9.334115   0.000000
    7        9.529235   0.000000
    8       13.163115   0.000000
 
  0.4500000E+00  0.5000000E-01  0.5000000E-01  0.6000000E-02
    1       -4.104581   1.000000
    2       -0.616767   1.000000
    3        4.361965   1.000000
    4        4.719393   1.000000
    5        7.680529   0.000000
    6        9.304800   0.000000
    7        9.312436   0.000000
    8       13.727069   0.000000
 
 -0.4500000E+00  0.5000000E-01  0.5000000E-01  0.6000000E-02
    1       -3.785027   1.000000
    2       -1.100007   1.000000
    3        4.400909   1.000000
    4        4.574098   1.000000
    5        7.629210   0.000000
    6        9.165756   0.000000
    7        9.356678   0.000000
    8       13.701177   0.000000
 
 -0.3500000E+00  0.5000000E-01  0.5000000E-01  0.6000000E-02
    1       -4.345611   1.000000
    2       -0.212726   1.000000
    3        4.582080   1.000000
    4        4.590864   1.000000
    5        7.737603   0.000000
    6        9.177590   0.000000
    7        9.538308   0.000000
    8       13.406554   0.000000
 
 -0.2500000E+00  0.5000000E-01  0.5000000E-01  0.6000000E-02
    1       -5.085893   1.000000
    2        1.329687   1.000000
    3        4.753016   1.000000
    4        4.910694   1.000000
    5        7.992233   0.000000
    6        9.192518   0.000000
    7        9.708841   0.000000
    8       12.325104   0.000000
 
 -0.1500000E+00  0.5000000E-01  0.5000000E-01  0.6000000E-02
    1       -5.667060   1.000000
    2        3.136517   1.000000
    3        5.074473   1.000000
    4        5.307526   1.000000
    5        8.320107   0.000000
    6        8.901288   0.000000
    7        9.496772   0.000000
    8       11.439896   0.000000
 
 -0.5000000E-01  0.5000000E-01  0.5000000E-01  0.6000000E-02
    1       -6.012012   1.000000
    2        4.939479   1.000000
    3        5.487102   0.999999
    4        5.621369   0.999912
    5        8.311530   0.000000
    6        8.761135   0.000000
    7        8.918101   0.000000
    8        9.968798   0.000000
 
  0.1500000E+00  0.1500000E+00  0.5000000E-01  0.6000000E-02
    1       -5.837712   1.000000
    2        4.248206   1.000000
    3        5.045075   1.000000
    4        5.157016   1.000000
    5        7.993454   0.000000
    6        9.336754   0.000000
    7        9.563917   0.000000
    8       10.481796   0.000000
 
  0.2500000E+00  0.1500000E+00  0.5000000E-01  0.1200000E-01
    1       -5.493590   1.000000
    2        2.996785   1.000000
    3        4.291241   1.000000
    4        4.964796   1.000000
    5        8.058668   0.000000
    6        9.530371   0.000000
    7       10.196188   0.000000
    8       10.679817   0.000000
 
  0.3500000E+00  0.1500000E+00  0.5000000E-01  0.1200000E-01
    1       -4.913961   1.000000
    2        1.341189   1.000000
    3        3.859146   1.000000
    4        4.594886   1.000000
    5        8.284514   0.000000
    6        9.474955   0.000000
    7       10.461768   0.000000
    8       10.908116   0.000000
 
  0.4500000E+00  0.1500000E+00  0.5000000E-01  0.1200000E-01
    1       -4.173819   1.000000
    2       -0.147838   1.000000
    3        3.587491   1.000000
    4        4.308820   1.000000
    5        8.240705   0.000000
    6        9.307069   0.000000
    7       10.321786   0.000000
    8       12.080500   0.000000
 
 -0.4500000E+00  0.1500000E+00  0.5000000E-01  0.1200000E-01
    1       -3.610824   1.000000
    2       -1.020039   1.000000
    3        3.407829   1.000000
    4        4.262422   1.000000
    5        8.243332   0.000000
    6        9.162127   0.000000
    7       10.153998   0.000000
    8       13.698432   0.000000
 
 -0.3500000E+00  0.1500000E+00  0.5000000E-01  0.1200000E-01
    1       -3.934795   1.000000
    2       -0.538344   1.000000
    3        3.344602   1.000000
    4        4.455657   1.000000
    5        8.378380   0.000000
    6        9.167680   0.000000
    7       10.125389   0.000000
    8       13.156811   0.000000
 
 -0.2500000E+00  0.1500000E+00  0.5000000E-01  0.1200000E-01
    1       -4.680711   1.000000
    2        0.816073   1.000000
    3        3.460507   1.000000
    4        4.815876   1.000000
    5        8.606048   0.000000
    6        9.243161   0.000000
    7       10.178968   0.000000
    8       11.756303   0.000000
 
 -0.1500000E+00  0.1500000E+00  0.5000000E-01  0.1200000E-01
    1       -5.326668   1.000000
    2        2.415691   1.000000
    3        3.840202   1.000000
    4        5.228994   1.000000
    5        8.717674   0.000000
    6        9.119676   0.000000
    7        9.967673   0.000000
    8       11.139370   0.000000
 
 -0.5000000E-01  0.1500000E+00  0.5000000E-01  0.1200000E-01
    1       -5.751999   1.000000
    2        3.684486   1.000000
    3        4.768436   1.000000
    4        5.462973   0.999999
    5        8.393388   0.000000
    6        8.969246   0.000000
    7        9.444071   0.000000
    8       11.000813   0.000000
 
  0.2500000E+00  0.2500000E+00  0.5000000E-01  0.6000000E-02
    1       -5.232887   1.000000
    2        2.657587   1.000000
    3        4.131225   1.000000
    4        4.157707   1.000000
    5        7.278529   0.000000
    6        9.456506   0.000000
    7       11.041634   0.000000
    8       11.154232   0.000000
 
  0.3500000E+00  0.2500000E+00  0.5000000E-01  0.1200000E-01
    1       -4.729003   1.000000
    2        1.553458   1.000000
    3        3.432427   1.000000
    4        3.912811   1.000000
    5        7.414184   0.000000
    6        9.047973   0.000000
    7       11.195690   0.000000
    8       11.915083   0.000000
 
  0.4500000E+00  0.2500000E+00  0.5000000E-01  0.1200000E-01
    1       -4.027397   1.000000
    2        0.253201   1.000000
    3        2.816709   1.000000
    4        3.684584   1.000000
    5        7.664116   0.000000
    6        9.769551   0.000000
    7       10.891621   0.000000
    8       11.979692   0.000000
 
 -0.4500000E+00  0.2500000E+00  0.5000000E-01  0.1200000E-01
    1       -3.326563   1.000000
    2       -0.787499   1.000000
    3        2.335252   1.000000
    4        3.705594   1.000000
    5        7.781288   0.000000
    6       10.523639   0.000000
    7       11.433094   0.000000
    8       11.783203   0.000000
 
 -0.3500000E+00  0.2500000E+00  0.5000000E-01  0.1200000E-01
    1       -3.350702   1.000000
    2       -0.747713   1.000000
    3        2.082747   1.000000
    4        3.958597   1.000000
    5        8.065619   0.000000
    6       10.301013   0.000000
    7       11.588675   0.000000
    8       13.050319   0.000000
 
 -0.2500000E+00  0.2500000E+00  0.5000000E-01  0.1200000E-01
    1       -4.058691   1.000000
    2        0.280053   1.000000
    3        2.179476   1.000000
    4        4.382875   1.000000
    5        8.523218   0.000000
    6       10.056702   0.000000
    7       11.328334   0.000000
    8       11.587836   0.000000
 
 -0.1500000E+00  0.2500000E+00  0.5000000E-01  0.1200000E-01
    1       -4.751536   1.000000
    2        1.268387   1.000000
    3        2.940059   1.000000
    4        4.853411   1.000000
    5        8.923693   0.000000
    6        9.343797   0.000000
    7       10.586160   0.000000
    8       11.143442   0.000000
 
 -0.5000000E-01  0.2500000E+00  0.5000000E-01  0.1200000E-01
    1       -5.245893   1.000000
    2        1.913278   1.000000
    3        4.336797   1.000000
    4        5.095288   1.000000
    5        8.376505   0.000000
    6        9.119058   0.000000
    7        9.876628   0.000000
    8       11.600005   0.000000
 
  0.3500000E+00  0.3500000E+00  0.5000000E-01  0.6000000E-02
    1       -4.300659   1.000000
    2        0.936648   1.000000
    3        3.365811   1.000000
    4        3.480496   1.000000
    5        6.743402   0.000014
    6        8.059387   0.000000
    7       12.829882   0.000000
    8       12.889544   0.000000
 
  0.4500000E+00  0.3500000E+00  0.5000000E-01  0.1200000E-01
    1       -3.656001   1.000000
    2       -0.001383   1.000000
    3        2.814544   1.000000
    4        3.210791   1.000000
    5        7.000529   0.000000
    6        7.940352   0.000000
    7       12.826957   0.000000
    8       13.772432   0.000000
 
 -0.4500000E+00  0.3500000E+00  0.5000000E-01  0.1200000E-01
    1       -2.904961   1.000000
    2       -0.895194   1.000000
    3        1.990409   1.000000
    4        3.220170   1.000000
    5        7.210980   0.000000
    6        9.177333   0.000000
    7       12.481498   0.000000
    8       13.736650   0.000000
 
 -0.3500000E+00  0.3500000E+00  0.5000000E-01  0.1200000E-01
    1       -2.671774   1.000000
    2       -1.127248   1.000000
    3        1.483427   1.000000
    4        3.464380   1.000000
    5        7.497578   0.000000
    6       11.044879   0.000000
    7       12.141705   0.000000
    8       13.134434   0.000000
 
 -0.2500000E+00  0.3500000E+00  0.5000000E-01  0.1200000E-01
    1       -3.317383   1.000000
    2       -0.527725   1.000000
    3        1.651179   1.000000
    4        3.896650   1.000000
    5        7.990204   0.000000
    6       10.963418   0.000000
    7       12.159459   0.000000
    8       12.393566   0.000000
 
 -0.1500000E+00  0.3500000E+00  0.5000000E-01  0.1200000E-01
    1       -4.013746   1.000000
    2       -0.096030   1.000000
    3        2.675458   1.000000
    4        4.409404   1.000000
    5        8.519969   0.000000
    6        9.548914   0.000000
    7       10.753688   0.000000
    8       12.279816   0.000000
 
 -0.5000000E-01  0.3500000E+00  0.5000000E-01  0.1200000E-01
    1       -4.542741   1.000000
    2        0.279877   1.000000
    3        4.089349   1.000000
    4        4.731362   1.000000
    5        8.128209   0.000000
    6        9.184338   0.000000
    7        9.805500   0.000000
    8       12.585327   0.000000
 
  0.4500000E+00  0.4500000E+00  0.5000000E-01  0.6000000E-02
    1       -3.069443   1.000000
    2       -0.773053   1.000000
    3        2.937590   1.000000
    4        3.089150   1.000000
    5        6.541421   0.002929
    6        7.104091   0.000000
    7       14.711246   0.000000
    8       14.726663   0.000000
 
 -0.4500000E+00  0.4500000E+00  0.5000000E-01  0.1200000E-01
    1       -2.321576   1.000000
    2       -1.569745   1.000000
    3        2.531791   1.000000
    4        2.923345   1.000000
    5        6.869285   0.000000
    6        7.397440   0.000000
    7       14.585371   0.000000
    8       15.334523   0.000000
 
 -0.3500000E+00  0.4500000E+00  0.5000000E-01  0.1200000E-01
    1       -2.335254   1.000000
    2       -1.468277   1.000000
    3        1.810722   1.000000
    4        3.131365   1.000000
    5        7.117469   0.000000
    6        9.059202   0.000000
    7       13.318495   0.000000
    8       14.240157   0.000000
 
 -0.2500000E+00  0.4500000E+00  0.5000000E-01  0.1200000E-01
    1       -2.930806   1.000000
    2       -0.999951   1.000000
    3        1.799226   1.000000
    4        3.544840   1.000000
    5        7.595880   0.000000
    6       11.037880   0.000000
    7       11.485862   0.000000
    8       12.628977   0.000000
 
 -0.1500000E+00  0.4500000E+00  0.5000000E-01  0.1200000E-01
    1       -3.441077   1.000000
    2       -0.959204   1.000000
    3        2.723113   1.000000
    4        4.080339   1.000000
    5        8.190893   0.000000
    6        9.641306   0.000000
    7       10.827163   0.000000
    8       13.567157   0.000000
 
 -0.5000000E-01  0.4500000E+00  0.5000000E-01  0.1200000E-01
    1       -3.846134   1.000000
    2       -0.897766   1.000000
    3        3.991164   1.000000
    4        4.507986   1.000000
    5        7.979740   0.000000
    6        9.111162   0.000000
    7        9.634108   0.000000
    8       13.757194   0.000000
 
 -0.4500000E+00 -0.4500000E+00  0.5000000E-01  0.6000000E-02
    1       -2.355933   1.000000
    2       -1.586713   1.000000
    3        2.851351   1.000000
    4        3.010224   1.000000
    5        6.571284   0.001504
    6        6.831439   0.000001
    7       15.564286   0.000000
    8       15.629008   0.000000
 
 -0.3500000E+00 -0.4500000E+00  0.5000000E-01  0.1200000E-01
    1       -3.016879   1.000000
    2       -0.793924   1.000000
    3        2.627188   1.000000
    4        3.018102   1.000000
    5        6.904403   0.000000
    6        7.589688   0.000000
    7       13.699297   0.000000
    8       14.716108   0.000000
 
 -0.2500000E+00 -0.4500000E+00  0.5000000E-01  0.1200000E-01
    1       -3.488117   1.000000
    2       -0.305921   1.000000
    3        2.338560   1.000000
    4        3.400949   1.000000
    5        7.398276   0.000000
    6        9.411432   0.000000
    7       11.669159   0.000000
    8       12.838486   0.000000
 
 -0.1500000E+00 -0.4500000E+00  0.5000000E-01  0.1200000E-01
    1       -3.758953   1.000000
    2       -0.503767   1.000000
    3        2.972022   1.000000
    4        3.955421   1.000000
    5        8.029775   0.000000
    6        9.857630   0.000000
    7       10.993108   0.000000
    8       11.697793   0.000000
 
 -0.3500000E+00 -0.3500000E+00  0.5000000E-01  0.6000000E-02
    1       -3.720037   1.000000
    2        0.072606   1.000000
    3        3.109024   1.000000
    4        3.246853   1.000000
    5        6.596380   0.000832
    6        7.516504   0.000000
    7       13.771772   0.000000
    8       13.799467   0.000000
 
 -0.2500000E+00 -0.3500000E+00  0.5000000E-01  0.1200000E-01
    1       -4.228903   1.000000
    2        0.787086   1.000000
    3        3.086731   1.000000
    4        3.507644   1.000000
    5        7.170392   0.000000
    6        8.433486   0.000000
    7       11.993711   0.000000
    8       12.828497   0.000000
 
 -0.1500000E+00 -0.3500000E+00  0.5000000E-01  0.1200000E-01
    1       -4.505819   1.000000
    2        0.794163   1.000000
    3        3.348410   1.000000
    4        4.086155   1.000000
    5        7.978998   0.000000
    6       10.123392   0.000000
    7       10.284740   0.000000
    8       11.190360   0.000000
 
 -0.2500000E+00 -0.2500000E+00  0.5000000E-01  0.6000000E-02
    1       -4.806241   1.000000
    2        1.804059   1.000000
    3        3.708012   1.000000
    4        3.786100   1.000000
    5        6.976204   0.000000
    6        8.720506   0.000000
    7       11.913610   0.000000
    8       12.010665   0.000000
 
 -0.1500000E+00 -0.2500000E+00  0.5000000E-01  0.1200000E-01
    1       -5.151753   1.000000
    2        2.288875   1.000000
    3        3.838697   1.000000
    4        4.414621   1.000000
    5        7.717930   0.000000
    6        9.693353   0.000000
    7       10.496929   0.000000
    8       11.031832   0.000000
 
 -0.1500000E+00 -0.1500000E+00  0.5000000E-01  0.6000000E-02
    1       -5.577529   1.000000
    2        3.479308   1.000000
    3        4.585771   1.000000
    4        4.625016   1.000000
    5        7.629304   0.000000
    6        9.937863   0.000000
    7       10.324096   0.000000
    8       10.428278   0.000000
 
  0.1500000E+00  0.1500000E+00  0.1500000E+00  0.2000000E-02
    1       -5.838952   1.000000
    2        3.777369   1.000000
    3        5.462874   0.999999
    4        5.462874   0.999999
    5        8.270984   0.000000
    6        8.988911   0.000000
    7        8.988911   0.000000
    8       11.001278   0.000000
 
  0.2500000E+00  0.1500000E+00  0.1500000E+00  0.6000000E-02
    1       -5.581186   1.000000
    2        3.050401   1.000000
    3        4.316450   1.000000
    4        5.533026   0.999994
    5        8.752628   0.000000
    6        9.006377   0.000000
    7        9.325533   0.000000
    8       11.482938   0.000000
 
  0.3500000E+00  0.1500000E+00  0.1500000E+00  0.6000000E-02
    1       -5.078340   1.000000
    2        1.833244   1.000000
    3        3.372112   1.000000
    4        5.205451   1.000000
    5        8.826070   0.000000
    6        9.510993   0.000000
    7        9.798141   0.000000
    8       11.646822   0.000000
 
  0.4500000E+00  0.1500000E+00  0.1500000E+00  0.6000000E-02
    1       -4.377539   1.000000
    2        0.332466   1.000000
    3        3.056217   1.000000
    4        4.760536   1.000000
    5        8.469059   0.000000
    6        9.856714   0.000000
    7        9.875891   0.000000
    8       12.710806   0.000000
 
 -0.4500000E+00  0.1500000E+00  0.1500000E+00  0.6000000E-02
    1       -3.677564   1.000000
    2       -0.820119   1.000000
    3        3.045750   1.000000
    4        4.382183   1.000000
    5        8.157447   0.000000
    6        9.720240   0.000000
    7       10.050852   0.000000
    8       14.122199   0.000000
 
 -0.3500000E+00  0.1500000E+00  0.1500000E+00  0.6000000E-02
    1       -3.671216   1.000000
    2       -0.831748   1.000000
    3        3.257058   1.000000
    4        4.150966   1.000000
    5        7.992312   0.000000
    6        9.723208   0.000000
    7       10.294416   0.000000
    8       12.708930   0.000000
 
 -0.2500000E+00  0.1500000E+00  0.1500000E+00  0.6000000E-02
    1       -4.369242   1.000000
    2        0.314156   1.000000
    3        3.647669   1.000000
    4        4.103334   1.000000
    5        7.978101   0.000000
    6        9.867859   0.000000
    7       10.606490   0.000000
    8       11.097505   0.000000
 
 -0.1500000E+00  0.1500000E+00  0.1500000E+00  0.6000000E-02
    1       -5.072054   1.000000
    2        1.871141   1.000000
    3        4.157751   1.000000
    4        4.252293   1.000000
    5        7.909271   0.000000
    6        9.845751   0.000000
    7       10.399799   0.000000
    8       10.744793   0.000000
 
  0.2500000E+00  0.2500000E+00  0.1500000E+00  0.6000000E-02
    1       -5.410763   1.000000
    2        2.498022   1.000000
    3        4.654241   1.000000
    4        4.796941   1.000000
    5        8.226578   0.000000
    6        9.237950   0.000000
    7       10.098460   0.000000
    8       11.008682   0.000000
 
  0.3500000E+00  0.2500000E+00  0.1500000E+00  0.1200000E-01
    1       -4.990490   1.000000
    2        1.789998   1.000000
    3        3.397600   1.000000
    4        4.700431   1.000000
    5        8.431269   0.000000
    6        9.572457   0.000000
    7       10.406791   0.000000
    8       10.851244   0.000000
 
  0.4500000E+00  0.2500000E+00  0.1500000E+00  0.1200000E-01
    1       -4.350488   1.000000
    2        0.721820   1.000000
    3        2.572084   1.000000
    4        4.293816   1.000000
    5        9.030981   0.000000
    6        9.310239   0.000000
    7       10.504657   0.000000
    8       11.604107   0.000000
 
 -0.4500000E+00  0.2500000E+00  0.1500000E+00  0.1200000E-01
    1       -3.603932   1.000000
    2       -0.466190   1.000000
    3        2.332362   1.000000
    4        3.888563   1.000000
    5        8.838799   0.000000
    6        9.265517   0.000000
    7       11.685589   0.000000
    8       11.940856   0.000000
 
 -0.3500000E+00  0.2500000E+00  0.1500000E+00  0.1200000E-01
    1       -3.267802   1.000000
    2       -0.934373   1.000000
    3        2.379561   1.000000
    4        3.685952   1.000000
    5        8.517091   0.000000
    6        9.469780   0.000000
    7       11.800192   0.000000
    8       12.553008   0.000000
 
 -0.2500000E+00  0.2500000E+00  0.1500000E+00  0.1200000E-01
    1       -3.837243   1.000000
    2       -0.117968   1.000000
    3        2.594563   1.000000
    4        3.774500   1.000000
    5        8.353481   0.000000
    6        9.818230   0.000000
    7       10.767043   0.000000
    8       11.886622   0.000000
 
 -0.1500000E+00  0.2500000E+00  0.1500000E+00  0.1200000E-01
    1       -4.575972   1.000000
    2        1.162685   1.000000
    3        3.010126   1.000000
    4        4.110930   1.000000
    5        8.140028   0.000000
    6        9.660847   0.000000
    7       10.241724   0.000000
    8       11.779983   0.000000
 
  0.3500000E+00  0.3500000E+00  0.1500000E+00  0.6000000E-02
    1       -4.653877   1.000000
    2        1.239963   1.000000
    3        3.526009   1.000000
    4        3.898743   1.000000
    5        7.572653   0.000000
    6        9.490606   0.000000
    7       10.938631   0.000000
    8       11.422220   0.000000
 
  0.4500000E+00  0.3500000E+00  0.1500000E+00  0.1200000E-01
    1       -4.087455   1.000000
    2        0.519494   1.000000
    3        2.690598   1.000000
    4        3.567084   1.000000
    5        7.894426   0.000000
    6        9.111335   0.000000
    7       10.907035   0.000000
    8       12.753335   0.000000
 
 -0.4500000E+00  0.3500000E+00  0.1500000E+00  0.1200000E-01
    1       -3.354593   1.000000
    2       -0.366890   1.000000
    3        2.079843   1.000000
    4        3.117237   1.000000
    5        8.623022   0.000000
    6        9.585295   0.000000
    7       10.483589   0.000000
    8       13.694016   0.000000
 
 -0.3500000E+00  0.3500000E+00  0.1500000E+00  0.1200000E-01
    1       -2.770689   1.000000
    2       -1.041719   1.000000
    3        1.771265   1.000000
    4        2.969667   1.000000
    5        8.875659   0.000000
    6        9.980807   0.000000
    7       11.399815   0.000000
    8       12.672569   0.000000
 
 -0.2500000E+00  0.3500000E+00  0.1500000E+00  0.1200000E-01
    1       -3.138135   1.000000
    2       -0.623291   1.000000
    3        1.770883   1.000000
    4        3.201482   1.000000
    5        9.255047   0.000000
    6        9.687933   0.000000
    7       10.746498   0.000000
    8       13.531857   0.000000
 
 -0.1500000E+00  0.3500000E+00  0.1500000E+00  0.1200000E-01
    1       -3.881741   1.000000
    2        0.182292   1.000000
    3        2.282339   1.000000
    4        3.678352   1.000000
    5        8.807475   0.000000
    6        9.760715   0.000000
    7       10.054859   0.000000
    8       12.639731   0.000000
 
  0.4500000E+00  0.4500000E+00  0.1500000E+00  0.6000000E-02
    1       -3.597943   1.000000
    2       -0.108620   1.000000
    3        2.550512   1.000000
    4        3.379446   1.000000
    5        7.026996   0.000000
    6        8.550353   0.000000
    7       12.773566   0.000000
    8       12.894498   0.000000
 
 -0.4500000E+00  0.4500000E+00  0.1500000E+00  0.1200000E-01
    1       -2.917442   1.000000
    2       -0.845496   1.000000
    3        2.279586   1.000000
    4        2.831499   1.000000
    5        7.592220   0.000000
    6        8.377799   0.000000
    7       12.447455   0.000000
    8       14.679346   0.000000
 
 -0.3500000E+00  0.4500000E+00  0.1500000E+00  0.1200000E-01
    1       -2.197618   1.000000
    2       -1.520259   1.000000
    3        1.935811   1.000000
    4        2.432946   1.000000
    5        8.435788   0.000000
    6        9.205003   0.000000
    7       12.013823   0.000000
    8       12.905627   0.000000
 
 -0.2500000E+00  0.4500000E+00  0.1500000E+00  0.1200000E-01
    1       -2.492887   1.000000
    2       -1.220537   1.000000
    3        1.611108   1.000000
    4        2.765593   1.000000
    5        8.797293   0.000000
    6       10.629132   0.000000
    7       11.349048   0.000000
    8       11.806721   0.000000
 
 -0.1500000E+00  0.4500000E+00  0.1500000E+00  0.1200000E-01
    1       -3.173518   1.000000
    2       -0.780459   1.000000
    3        2.027817   1.000000
    4        3.365811   1.000000
    5        9.035649   0.000000
    6        9.349190   0.000000
    7       11.581580   0.000000
    8       12.790304   0.000000
 
 -0.4500000E+00 -0.4500000E+00  0.1500000E+00  0.6000000E-02
    1       -2.320504   1.000000
    2       -1.537139   1.000000
    3        2.128713   1.000000
    4        3.149523   1.000000
    5        6.762629   0.000008
    6        8.141764   0.000000
    7       14.456128   0.000000
    8       14.700817   0.000000
 
 -0.3500000E+00 -0.4500000E+00  0.1500000E+00  0.1200000E-01
    1       -2.262463   1.000000
    2       -1.543707   1.000000
    3        2.195112   1.000000
    4        2.681422   1.000000
    5        7.534403   0.000000
    6        8.222120   0.000000
    7       13.305900   0.000000
    8       14.218315   0.000000
 
 -0.2500000E+00 -0.4500000E+00  0.1500000E+00  0.1200000E-01
    1       -2.782927   1.000000
    2       -0.938565   1.000000
    3        1.968806   1.000000
    4        2.682964   1.000000
    5        8.496772   0.000000
    6        9.334827   0.000000
    7       11.205977   0.000000
    8       13.853373   0.000000
 
 -0.3500000E+00 -0.3500000E+00  0.1500000E+00  0.6000000E-02
    1       -2.976149   1.000000
    2       -0.827688   1.000000
    3        2.268292   1.000000
    4        3.226781   1.000000
    5        6.855250   0.000000
    6        8.278328   0.000000
    7       13.691420   0.000000
    8       13.732806   0.000000
 
 -0.2500000E+00 -0.3500000E+00  0.1500000E+00  0.1200000E-01
    1       -3.531621   1.000000
    2       -0.150881   1.000000
    3        2.445684   1.000000
    4        3.130117   1.000000
    5        7.711079   0.000000
    6        8.674880   0.000000
    7       11.646405   0.000000
    8       13.740904   0.000000
 
 -0.2500000E+00 -0.2500000E+00  0.1500000E+00  0.6000000E-02
    1       -4.160659   1.000000
    2        0.583829   1.000000
    3        2.975067   1.000000
    4        3.604307   1.000000
    5        7.268456   0.000000
    6        8.955091   0.000000
    7       11.836326   0.000000
    8       12.136057   0.000000
 
  0.2500000E+00  0.2500000E+00  0.2500000E+00  0.2000000E-02
    1       -5.332037   1.000000
    2        1.909274   1.000000
    3        5.085498   1.000000
    4        5.085498   1.000000
    5        7.885004   0.000000
    6        9.378447   0.000000
    7        9.378447   0.000000
    8       12.769575   0.000000
 
  0.3500000E+00  0.2500000E+00  0.2500000E+00  0.6000000E-02
    1       -5.001366   1.000000
    2        1.344450   1.000000
    3        3.903678   1.000000
    4        5.135030   1.000000
    5        8.424841   0.000000
    6        9.410560   0.000000
    7        9.654716   0.000000
    8       12.302910   0.000000
 
  0.4500000E+00  0.2500000E+00  0.2500000E+00  0.6000000E-02
    1       -4.438755   1.000000
    2        0.761442   1.000000
    3        2.524825   1.000000
    4        4.761907   1.000000
    5        8.557240   0.000000
    6       10.190008   0.000000
    7       10.447829   0.000000
    8       11.927002   0.000000
 
 -0.4500000E+00  0.2500000E+00  0.2500000E+00  0.6000000E-02
    1       -3.709709   1.000000
    2       -0.139255   1.000000
    3        1.864551   1.000000
    4        4.270782   1.000000
    5        8.056312   0.000000
    6       11.041759   0.000000
    7       11.285888   0.000000
    8       12.549396   0.000000
 
 -0.3500000E+00  0.2500000E+00  0.2500000E+00  0.6000000E-02
    1       -3.112887   1.000000
    2       -0.930904   1.000000
    3        1.892417   1.000000
    4        3.866334   1.000000
    5        7.616982   0.000000
    6       11.362703   0.000000
    7       11.462772   0.000000
    8       12.358008   0.000000
 
 -0.2500000E+00  0.2500000E+00  0.2500000E+00  0.6000000E-02
    1       -3.411945   1.000000
    2       -0.549558   1.000000
    3        2.301827   1.000000
    4        3.633594   1.000000
    5        7.385982   0.000000
    6       10.335349   0.000000
    7       11.624861   0.000000
    8       11.822710   0.000000
 
  0.3500000E+00  0.3500000E+00  0.2500000E+00  0.6000000E-02
    1       -4.763119   1.000000
    2        0.797110   1.000000
    3        4.350375   1.000000
    4        4.414112   1.000000
    5        8.176707   0.000000
    6        9.255488   0.000000
    7       10.112853   0.000000
    8       11.654927   0.000000
 
  0.4500000E+00  0.3500000E+00  0.2500000E+00  0.1200000E-01
    1       -4.289544   1.000000
    2        0.331347   1.000000
    3        3.024629   1.000000
    4        4.301123   1.000000
    5        8.610251   0.000000
    6        9.326791   0.000000
    7       10.927707   0.000000
    8       11.253108   0.000000
 
 -0.4500000E+00  0.3500000E+00  0.2500000E+00  0.1200000E-01
    1       -3.620551   1.000000
    2       -0.177913   1.000000
    3        1.923331   1.000000
    4        3.813341   1.000000
    5        8.792185   0.000000
    6        9.844447   0.000000
    7       11.067691   0.000000
    8       12.501023   0.000000
 