 running on    8 total cores
 distrk:  each k-point on    8 cores,    1 groups
 distr:  one band on    1 cores,    8 groups
 using from now: INCAR     
 vasp.5.4.4.18Apr17-6-g9f103f2a35 (build Dec 09 2018 21:25:21) complex          
  
 POSCAR found type information on POSCAR  Si
 POSCAR found :  1 types and       2 ions
 scaLAPACK will be used

 ----------------------------------------------------------------------------- 
|                                                                             |
|           W    W    AA    RRRRR   N    N  II  N    N   GGGG   !!!           |
|           W    W   A  A   R    R  NN   N  II  NN   N  G    G  !!!           |
|           W    W  A    A  R    R  N N  N  II  N N  N  G       !!!           |
|           W WW W  AAAAAA  RRRRR   N  N N  II  N  N N  G  GGG   !            |
|           WW  WW  A    A  R   R   N   NN  II  N   NN  G    G                |
|           W    W  A    A  R    R  N    N  II  N    N   GGGG   !!!           |
|                                                                             |
|      For optimal performance we recommend to set                            |
|        NCORE= 4 - approx SQRT( number of cores)                             |
|      NCORE specifies how many cores store one orbital (NPAR=cpu/NCORE).     |
|      This setting can  greatly improve the performance of VASP for DFT.     |
|      The default,   NCORE=1            might be grossly inefficient         |
|      on modern multi-core architectures or massively parallel machines.     |
|      Do your own testing !!!!                                               |
|      Unfortunately you need to use the default for GW and RPA calculations. |
|      (for HF NCORE is supported but not extensively tested yet)             |
|                                                                             |
 ----------------------------------------------------------------------------- 

 LDA part: xc-table for Pade appr. of Perdew
 POSCAR, INCAR and KPOINTS ok, starting setup
 FFT: planning ...
 WAVECAR not read
 entering main loop
       N       E                     dE             d eps       ncg     rms          rms(c)
DAV:   1    -0.109998685838E+01   -0.11000E+01   -0.20356E+03  1840   0.376E+02
DAV:   2    -0.108852384658E+02   -0.97853E+01   -0.93133E+01  2752   0.556E+01
DAV:   3    -0.109765196251E+02   -0.91281E-01   -0.91281E-01  2152   0.682E+00
DAV:   4    -0.109767664928E+02   -0.24687E-03   -0.24687E-03  2904   0.359E-01
DAV:   5    -0.109767665330E+02   -0.40181E-07   -0.39593E-07  2120   0.442E-03    0.299E+00
DAV:   6    -0.108528073712E+02    0.12396E+00   -0.80485E-02  2064   0.147E+00    0.177E+00
DAV:   7    -0.107962210354E+02    0.56586E-01   -0.14801E-01  2272   0.212E+00    0.151E-01
DAV:   8    -0.107975028581E+02   -0.12818E-02   -0.36265E-03  2000   0.435E-01    0.247E-02
DAV:   9    -0.107975961544E+02   -0.93296E-04   -0.87101E-05  1456   0.740E-02
   1 F= -.10797596E+02 E0= -.10797569E+02  d E =-.107976E+02
 curvature:   0.00 expect dE= 0.000E+00 dE for cont linesearch  0.000E+00
 trial: gam= 0.00000 g(F)=  0.118E-43 g(S)=  0.000E+00 ort = 0.000E+00 (trialstep = 0.100E+01)
 search vector abs. value=  0.100E-09
 reached required accuracy - stopping structural energy minimisation
 writing wavefunctions
