    2    2   15    1
  0.1529437E+02  0.3691622E-09  0.3691622E-09  0.3691622E-09  0.5000000E-15
  1.000000000000000E-004
  CAR 
 unknown system                          
      8      6      8
 
  0.0000000E+00  0.0000000E+00  0.0000000E+00  0.3703704E-01
    1       -4.615408   1.000000
    2        6.193644   1.000000
    3        6.308366   1.000000
    4        6.308393   1.000000
    5       10.665770   0.000000
    6       17.076346   0.000000
    7       17.378758   0.000000
    8       17.378791   0.000000
 
  0.3333333E+00 -0.7127914E-16  0.7127914E-16  0.2962963E+00
    1       -1.503066   1.000000
    2        5.365010   1.000000
    3        6.822053   1.000000
    4        7.495832   1.000000
    5       10.303913   0.000000
    6       12.775618   0.000000
    7       13.068694   0.000000
    8       14.055883   0.000000
 
  0.3333333E+00  0.3333333E+00  0.1273482E-15  0.2962963E+00
    1        1.051111   1.000000
    2        1.070018   1.000000
    3        6.299613   1.000000
    4        8.265387   0.999758
    5        8.854092   0.250241
    6       11.017539   0.000000
    7       15.546395   0.000000
    8       16.578034   0.000000
 
 -0.3333333E+00  0.3333333E+00  0.6449678E-17  0.1481481E+00
    1       -3.296677   1.000000
    2        0.573231   1.000000
    3        7.548728   1.000000
    4        9.410495   0.000002
    5       11.255133   0.000000
    6       13.134559   0.000000
    7       16.609487   0.000000
    8       18.934813   0.000000
 
 -0.3333333E+00  0.3333333E+00  0.3333333E+00  0.1481481E+00
    1       -2.009101   1.000000
    2        1.120447   1.000000
    3        2.904636   1.000000
    4        5.969230   1.000000
    5       15.267392   0.000000
    6       16.867677   0.000000
    7       18.107485   0.000000
    8       19.147114   0.000000
 
 -0.3333333E+00 -0.3333333E+00  0.3333333E+00  0.7407407E-01
    1        2.784042   1.000000
    2        2.880303   1.000000
    3        4.626265   1.000000
    4        4.626271   1.000000
    5        5.200900   1.000000
    6       15.173252   0.000000
    7       16.083803   0.000000
    8       16.083813   0.000000
