unknown system                          
   1.00000000000000     
    -2.428877    2.428877    1.337749
     2.428877   -2.428877    1.337749
     2.428877    2.428877   -1.337749
   Si
     2
Direct
  0.750000  0.250000  0.500000
  0.500000  0.500000  0.000000
 
   36   36   36
  9.7227      9.6530      9.4504      9.1322      8.7235      8.2517      7.7428      7.2179      6.6933      6.1817    
  5.6941      5.2414      4.8342      4.4814      4.1898      3.9628      3.8017      3.7057      3.6739      3.7057    
  3.8017      3.9628      4.1898      4.4814      4.8342      5.2414      5.6941      6.1817      6.6933      7.2179    
  7.7428      8.2517      8.7235      9.1322      9.4504      9.6530      9.6530      9.8074      9.8204      9.6952    
  9.4463      9.0960      8.6693      8.1900      7.6783      7.1500      6.6190      6.0987      5.6032      5.1463    
  4.7404      4.3944      4.1138      3.9005      3.7542      3.6737      3.6581      3.7074      3.8224      4.0035    
  4.2504      4.5606      4.9298      5.3516      5.8189      6.3240      6.8582      7.4097      7.9620      8.4918    
  8.9705      9.3671      9.4504      9.8204      10.056      10.144      10.085      9.8933      9.5880      9.1933    
  8.7316      8.2217      7.6793      7.1187      6.5553      6.0064      5.4895      5.0206      4.6118      4.2708    
  4.0008      3.8021      3.6733      3.6130      3.6206      3.6962      3.8402      4.0523      4.3313      4.6746    
  5.0787      5.5398      6.0531      6.6118      7.2047      7.8138      8.4132      8.9705      9.1322      9.6952    
  10.144      10.450      10.600      10.594      10.443      10.169      9.7949      9.3417      8.8263      8.2628    
  7.6655      7.0512      6.4402      5.8543      5.3139      4.8352      4.4287      4.0993      3.8479      3.6728    
  3.5720      3.5438      3.5876      3.7033      3.8908      4.1500      4.4802      4.8807      5.3506      5.8878    
  6.4867      7.1355      7.8138      8.4918      8.7235      9.4463      10.085      10.600      10.961      11.154    
  11.181      11.055      10.801      10.439      9.9903      9.4668      8.8798      8.2421      7.5713      6.8914    
  6.2292      5.6107      5.0571      4.5822      4.1928      3.8903      3.6725      3.5363      3.4789      3.4986    
  3.5950      3.7682      4.0192      4.3493      4.7607      5.2551      5.8323      6.4867      7.2047      7.9620    
  8.2517      9.0960      9.8933      10.594      11.154      11.546      11.752      11.779      11.655      11.412    
  11.072      10.640      10.117      9.5081      8.8291      8.0988      7.3451      6.6016      5.9009      5.2697    
  4.7260      4.2783      3.9282      3.6725      3.5070      3.4273      3.4309      3.5169      3.6859      3.9402    
  4.2835      4.7205      5.2551      5.8878      6.6118      7.4097      7.7428      8.6693      9.5880      10.443    
  11.181      11.752      12.113      12.264      12.243      12.101      11.881      11.593      11.221      10.737    
  10.125      9.4069      8.6157      7.7857      6.9581      6.1737      5.4654      4.8551      4.3529      3.9603    
  3.6729      3.4846      3.3900      3.3854      3.4698      3.6446      3.9138      4.2835      4.7607      5.3506    
  6.0531      6.8582      7.2179      8.1900      9.1933      10.169      11.055      11.779      12.264      12.495    
  12.517      12.410      12.252      12.089      11.911      11.662      11.273      10.700      9.9563      9.1042    
  8.1972      7.2856      6.4189      5.6367      4.9646      4.4140      3.9855      3.6733      3.4696      3.3675    
  3.3626      3.4541      3.6446      3.9402      4.3493      4.8807      5.5398      6.3240      6.6933      7.6783    
  8.7316      9.7949      10.801      11.655      12.243      12.517      12.516      12.346      12.137      11.994    
  11.951      11.960      11.912      11.684      11.198      10.457      9.5477      8.5648      7.5718      6.6272    
  5.7772      5.0506      4.4594      4.0029      3.6737      3.4621      3.3600      3.3626      3.4698      3.6859    
  4.0192      4.4802      5.0787      5.8189      6.1817      7.1500      8.2217      9.3417      10.439      11.412    
  12.101      12.410      12.346      12.023      11.622      11.328      11.261      11.428      11.720      11.956    
  11.953      11.598      10.888      9.9311      8.8752      7.8058      6.7907      5.8816      5.1099      4.4873    
  4.0119      3.6739      3.4621      3.3675      3.3854      3.5169      3.7682      4.1500      4.6746      5.3516    
  5.6941      6.6190      7.6793      8.8263      9.9903      11.072      11.881      12.252      12.137      11.622    
  10.916      10.284      9.9591      10.059      10.541      11.215      11.814      12.089      11.895      11.234    
  10.242      9.1175      7.9793      6.9032      5.9459      5.1401      4.4968      4.0119      3.6737      3.4696    
  3.3900      3.4309      3.5950      3.8908      4.3313      4.9298      5.2414      6.0987      7.1187      8.2628    
  9.4668      10.640      11.593      12.089      11.994      11.328      10.284      9.1769      8.3551      8.0878    
  8.4677      9.3751      10.518      11.536      12.118      12.098      11.491      10.470      9.2836      8.0859    
  6.9605      5.9676      5.1401      4.4873      4.0029      3.6733      3.4846      3.4273      3.4986      3.7033    
  4.0523      4.5606      4.8342      5.6032      6.5553      7.6655      8.8798      10.117      11.221      11.911    
  11.951      11.261      9.9591      8.3551      6.8781      5.9525      5.8599      6.6386      8.0667      9.7378    
  11.197      12.084      12.224      11.660      10.609      9.3680      8.1218      6.9605      5.9459      5.1099    
  4.4594      3.9855      3.6729      3.5070      3.4789      3.5876      3.8402      4.2504      4.4814      5.1463    
  6.0064      7.0512      8.2421      9.5081      10.737      11.662      11.960      11.428      10.059      8.0878    
  5.9525      4.1911      3.2838      3.4944      4.7765      6.7865      8.9993      10.878      12.029      12.289    
  11.743      10.656      9.3680      8.0859      6.9032      5.8816      5.0506      4.4140      3.9603      3.6725    
  3.5363      3.5438      3.6962      4.0035      4.1898      4.7404      5.4895      6.4402      7.5713      8.8291    
  10.125      11.273      11.912      11.720      10.541      8.4677      5.8599      3.2838      1.3696     0.62296    
  1.2558      3.1103      5.7116      8.4251      10.653      11.991      12.309      11.743      10.609      9.2836    
  7.9793      6.7907      5.7772      4.9646      4.3529      3.9282      3.6725      3.5720      3.6206      3.8224    
  3.9628      4.3944      5.0206      5.8543      6.8914      8.0988      9.4069      10.700      11.684      11.956    
  11.215      9.3751      6.6386      3.4944     0.62296     -1.2820     -1.7270     -.58540      1.8566      4.9964    
  8.1116      10.571      11.991      12.289      11.660      10.470      9.1175      7.8058      6.6272      5.6367    
  4.8551      4.2783      3.8903      3.6728      3.6130      3.7074      3.8017      4.1138      4.6118      5.3139    
  6.2292      7.3451      8.6157      9.9563      11.198      11.953      11.814      10.518      8.0667      4.7765    
  1.2558     -1.7270     -3.4533     -3.4811     -1.7958      1.1836      4.7457      8.1116      10.653      12.029    
  12.224      11.491      10.242      8.8752      7.5718      6.4189      5.4654      4.7260      4.1928      3.8479    
  3.6733      3.6581      3.7057      3.9005      4.2708      4.8352      5.6108      6.6016      7.7857      9.1043    
  10.457      11.598      12.089      11.536      9.7378      6.7865      3.1103     -.58542     -3.4812     -4.8770    
 -4.4184     -2.2178      1.1836      4.9964      8.4251      10.878      12.084      12.098      11.234      9.9311    
  8.5648      7.2856      6.1737      5.2697      4.5822      4.0993      3.8021      3.6737      3.6739      3.7542    
  4.0008      4.4287      5.0571      5.9009      6.9582      8.1972      9.5477      10.888      11.895      12.118    
  11.197      8.9993      5.7116      1.8565     -1.7958     -4.4185     -5.3728     -4.4184     -1.7958      1.8566    
  5.7116      8.9993      11.197      12.118      11.895      10.888      9.5477      8.1972      6.9581      5.9009    
  5.0571      4.4287      4.0008      3.7542      3.7057      3.6737      3.8021      4.0993      4.5822      5.2698    
  6.1737      7.2856      8.5648      9.9311      11.234      12.098      12.084      10.878      8.4251      4.9964    
  1.1836     -2.2178     -4.4185     -4.8770     -3.4811     -.58540      3.1103      6.7865      9.7378      11.536    
  12.089      11.598      10.457      9.1042      7.7857      6.6016      5.6107      4.8352      4.2708      3.9005    
  3.8017      3.6581      3.6733      3.8479      4.1929      4.7260      5.4654      6.4189      7.5718      8.8751    
  10.242      11.491      12.224      12.029      10.653      8.1115      4.7456      1.1836     -1.7958     -3.4812    
 -3.4533     -1.7270      1.2558      4.7765      8.0667      10.518      11.814      11.953      11.198      9.9563    
  8.6157      7.3451      6.2292      5.3139      4.6118      4.1138      3.9628      3.7074      3.6131      3.6728    
  3.8903      4.2784      4.8551      5.6367      6.6272      7.8058      9.1175      10.470      11.660      12.289    
  11.991      10.571      8.1115      4.9964      1.8565     -.58542     -1.7270     -1.2820     0.62296      3.4944    
  6.6386      9.3751      11.215      11.956      11.684      10.700      9.4069      8.0988      6.8914      5.8543    
  5.0206      4.3944      4.1898      3.8224      3.6207      3.5720      3.6726      3.9282      4.3530      4.9646    
  5.7772      6.7907      7.9793      9.2835      10.609      11.743      12.309      11.991      10.653      8.4251    
  5.7116      3.1103      1.2558     0.62296      1.3696      3.2838      5.8599      8.4677      10.541      11.720    
  11.912      11.273      10.125      8.8291      7.5713      6.4402      5.4895      4.7404      4.4814      4.0035    
  3.6962      3.5438      3.5363      3.6726      3.9603      4.4140      5.0506      5.8816      6.9032      8.0858    
  9.3679      10.656      11.743      12.289      12.029      10.878      8.9993      6.7865      4.7765      3.4944    
  3.2838      4.1911      5.9525      8.0878      10.059      11.428      11.960      11.662      10.737      9.5081    
  8.2421      7.0512      6.0064      5.1463      4.8342      4.2504      3.8402      3.5876      3.4789      3.5070    
  3.6729      3.9855      4.4594      5.1099      5.9459      6.9605      8.1218      9.3679      10.609      11.660    
  12.224      12.084      11.197      9.7378      8.0667      6.6386      5.8599      5.9525      6.8781      8.3551    
  9.9591      11.261      11.951      11.911      11.221      10.117      8.8798      7.6655      6.5553      5.6032    
  5.2414      4.5606      4.0523      3.7033      3.4986      3.4273      3.4846      3.6733      4.0030      4.4873    
  5.1401      5.9676      6.9605      8.0858      9.2835      10.470      11.491      12.098      12.118      11.536    
  10.518      9.3751      8.4677      8.0878      8.3551      9.1769      10.284      11.328      11.994      12.089    
  11.593      10.640      9.4668      8.2628      7.1187      6.0987      5.6941      4.9298      4.3313      3.8908    
  3.5950      3.4310      3.3900      3.4697      3.6738      4.0119      4.4968      5.1401      5.9459      6.9032    
  7.9793      9.1175      10.242      11.234      11.895      12.089      11.814      11.215      10.541      10.059    
  9.9591      10.284      10.916      11.622      12.137      12.252      11.881      11.072      9.9903      8.8263    
  7.6793      6.6190      6.1817      5.3516      4.6746      4.1500      3.7682      3.5169      3.3854      3.3675    
  3.4621      3.6739      4.0119      4.4873      5.1099      5.8816      6.7907      7.8058      8.8751      9.9311    
  10.888      11.598      11.953      11.956      11.720      11.428      11.261      11.328      11.622      12.023    
  12.346      12.410      12.101      11.412      10.439      9.3417      8.2217      7.1500      6.6933      5.8189    
  5.0787      4.4801      4.0191      3.6859      3.4698      3.3626      3.3600      3.4621      3.6738      4.0030    
  4.4594      5.0506      5.7772      6.6272      7.5718      8.5648      9.5477      10.457      11.198      11.684    
  11.912      11.960      11.951      11.994      12.137      12.346      12.516      12.517      12.243      11.655    
  10.801      9.7949      8.7316      7.6783      7.2179      6.3240      5.5398      4.8806      4.3493      3.9402    
  3.6446      3.4541      3.3626      3.3675      3.4697      3.6733      3.9855      4.4140      4.9646      5.6367    
  6.4189      7.2856      8.1972      9.1043      9.9563      10.700      11.273      11.662      11.911      12.089    
  12.252      12.410      12.517      12.495      12.264      11.779      11.055      10.169      9.1933      8.1900    
  7.7428      6.8582      6.0531      5.3506      4.7606      4.2835      3.9138      3.6446      3.4698      3.3854    
  3.3900      3.4846      3.6729      3.9603      4.3530      4.8551      5.4654      6.1737      6.9582      7.7857    
  8.6157      9.4069      10.125      10.737      11.221      11.593      11.881      12.101      12.243      12.264    
  12.113      11.752      11.181      10.443      9.5880      8.6693      8.2517      7.4097      6.6118      5.8878    
  5.2551      4.7205      4.2835      3.9402      3.6859      3.5169      3.4310      3.4273      3.5070      3.6726    
  3.9282      4.2784      4.7260      5.2698      5.9009      6.6016      7.3451      8.0988      8.8291      9.5081    
  10.117      10.640      11.072      11.412      11.655      11.779      11.752      11.546      11.154      10.594    
  9.8933      9.0960      8.7235      7.9620      7.2047      6.4867      5.8323      5.2551      4.7606      4.3493    
  4.0191      3.7682      3.5950      3.4986      3.4789      3.5363      3.6726      3.8903      4.1929      4.5822    
  5.0571      5.6108      6.2292      6.8914      7.5713      8.2421      8.8798      9.4668      9.9903      10.439    
  10.801      11.055      11.181      11.154      10.961      10.600      10.085      9.4463      9.1322      8.4918    
  7.8138      7.1355      6.4867      5.8878      5.3506      4.8806      4.4801      4.1500      3.8908      3.7033    
  3.5876      3.5438      3.5720      3.6728      3.8479      4.0993      4.4287      4.8352      5.3139      5.8543    
  6.4402      7.0512      7.6655      8.2628      8.8263      9.3417      9.7949      10.169      10.443      10.594    
  10.600      10.450      10.144      9.6952      9.4504      8.9704      8.4132      7.8138      7.2047      6.6118    
  6.0531      5.5398      5.0787      4.6746      4.3313      4.0523      3.8402      3.6962      3.6207      3.6131    
  3.6733      3.8021      4.0008      4.2708      4.6118      5.0206      5.4895      6.0064      6.5553      7.1187    
  7.6793      8.2217      8.7316      9.1933      9.5880      9.8933      10.085      10.144      10.056      9.8204    
  9.6530      9.3671      8.9704      8.4918      7.9620      7.4097      6.8582      6.3240      5.8189      5.3516    
  4.9298      4.5606      4.2504      4.0035      3.8224      3.7074      3.6581      3.6737      3.7542      3.9005    
  4.1138      4.3944      4.7404      5.1463      5.6032      6.0987      6.6190      7.1500      7.6783      8.1900    
  8.6693      9.0960      9.4463      9.6952      9.8204      9.8074      9.6530      9.5432      9.3134      8.9814    
  8.5714      8.1101      7.6221      7.1273      6.6402      6.1715      5.7299      5.3239      4.9621      4.6521    
  4.3999      4.2091      4.0809      4.0154      4.0118      4.0702      4.1909      4.3746      4.6213      4.9286    
  5.2915      5.7013      6.1472      6.6170      7.0989      7.5817      8.0537      8.5008      8.9049      9.2440    
  9.4945      9.6355      9.5432      9.6530      9.6355      9.4945      9.2440      8.9049      8.5008      8.0537    
  7.5817      7.0989      6.6170      6.1472      5.7013      5.2915      4.9286      4.6213      4.3746      4.1909    
  4.0702      4.0118      4.0154      4.0809      4.2091      4.3999      4.6521      4.9621      5.3239      5.7299    
  6.1715      6.6402      7.1273      7.6221      8.1101      8.5714      8.9814      9.3134      9.2972      9.6189    
  9.8204      9.8907      9.8304      9.6510      9.3708      9.0110      8.5915      8.1292      7.6377      7.1297    
  6.6188      6.1203      5.6502      5.2232      4.8508      4.5403      4.2953      4.1164      4.0029      3.9540    
  3.9693      4.0489      4.1931      4.4009      4.6702      4.9971      5.3771      5.8048      6.2751      6.7812    
  7.3132      7.8556      8.3861      8.8768      8.9346      9.4457      9.8572      10.144      10.292      10.300    
  10.179      9.9440      9.6161      9.2129      8.7496      8.2390      7.6943      7.1314      6.5692      6.0280    
  5.5269      5.0810      4.7005      4.3905      4.1524      3.9855      3.8882      3.8594      3.8988      4.0061    
  4.1808      4.4218      4.7275      5.0960      5.5253      6.0128      6.5534      7.1372      7.7467      8.3566    
  8.4823      9.1497      9.7482      10.241      10.600      10.811      10.872      10.793      10.591      10.285    
  9.8897      9.4184      8.8817      8.2927      7.6693      7.0341      6.4128      5.8294      5.3038      4.8493    
  4.4731      4.1771      3.9603      3.8201      3.7547      3.7625      3.8429      3.9958      4.2212      4.5194    
  4.8914      5.3381      5.8588      6.4493      7.0986      7.7862      7.9704      8.7551      9.5077      10.183    
  10.742      11.154      11.407      11.501      11.447      11.267      10.979      10.590      10.108      9.5424    
  8.9044      8.2142      7.4992      6.7908      6.1196      5.5107      4.9812      4.5401      4.1897      3.9282    
  3.7520      3.6578      3.6430      3.7067      3.8490      4.0711      4.3756      4.7661      5.2458      5.8155    
  6.4704      7.1970      7.4269      8.2890      9.1579      9.9838      10.717      11.318      11.752      12.003    
  12.086      12.034      11.876      11.622      11.264      10.789      10.197      9.5076      8.7468      7.9474    
  7.1479      6.3864      5.6938      5.0911      4.5890      4.1897      3.8903      3.6858      3.5711      3.5428    
  3.5995      3.7420      3.9731      4.2975      4.7211      5.2491      5.8824      6.6143      6.8752      7.7776    
  8.7247      9.6652      10.543      11.306      11.891      12.264      12.441      12.471      12.411      12.294    
  12.114      11.834      11.410      10.818      10.080      9.2473      8.3614      7.4700      6.6190      5.8456    
  5.1746      4.6179      4.1772      3.8479      3.6232      3.4965      3.4636      3.5229      3.6761      3.9280    
  4.2854      4.7564      5.3469      6.0567      6.3329      7.2429      8.2327      9.2526      10.243      11.138    
  11.847      12.304      12.517      12.552      12.502      12.447      12.415      12.372      12.236      11.918    
  11.369      10.602      9.6969      8.7253      7.7442      6.8080      5.9602      5.2286      4.6258      4.1525    
  3.8021      3.5658      3.4356      3.4067      3.4778      3.6521      3.9361      4.3392      4.8708      5.5365    
  5.8133      6.7024      7.7031      8.7698      9.8413      10.845      11.661      12.183      12.388      12.346    
  12.188      12.057      12.049      12.173      12.347      12.430      12.281      11.817      11.049      10.079    
  9.0250      7.9597      6.9460      6.0329      5.2509      4.6124      4.1164      3.7542      3.5150      3.3897    
  3.3731      3.4650      3.6702      3.9974      4.4581      5.0622      5.3270      6.1705      7.1534      8.2370    
  9.3619      10.453      11.376      11.970      12.161      11.995      11.622      11.251      11.070      11.180    
  11.551      12.033      12.412      12.487      12.147      11.402      10.379      9.2493      8.1083      7.0277    
  6.0612      5.2408      4.5782      4.0702      3.7057      3.4723      3.3599      3.3639      3.4851      3.7305    
  4.1114      4.6404      4.8835      5.6600      6.5987      7.6707      8.8223      9.9794      11.014      11.715    
  11.936      11.662      11.029      10.284      9.7159      9.5506      9.8733      10.592      11.471      12.210    
  12.552      12.359      11.652      10.589      9.3906      8.1849      7.0503      6.0441      5.1989      4.5246    
  4.0154      3.6581      3.4388      3.3472      3.3794      3.5382      3.8328      4.2768      4.4915      5.1833    
  6.0539      7.0860      8.2365      9.4352      10.575      11.427      11.760      11.470      10.625      9.4681    
  8.3551      7.6473      7.5925      8.2355      9.3986      10.743      11.882      12.506      12.464      11.797    
  10.702      9.4450      8.1875      7.0135      5.9828      5.1270      4.4536      3.9540      3.6131      3.4158    
  3.3523      3.4199      3.6239      3.9760      4.1582      4.7522      5.5339      6.4990      7.6180      8.8313    
  10.049      11.077      11.615      11.451      10.543      9.0660      7.3819      5.9525      5.2003      5.3685    
  6.4346      8.1148      9.9605      11.504      12.393      12.482      11.843      10.716      9.4120      8.1169    
  6.9195      5.8801      5.0281      4.3679      3.8882      3.5720      3.4040      3.3752      3.4850      3.7412    
  3.8884      4.3762      5.0535      5.9271      6.9834      8.1785      9.4354      10.620      11.426      11.538    
  10.781      9.2009      7.0886      4.9305      3.2838      2.6078      3.1118      4.6800      6.9100      9.2463    
  11.153      12.258      12.435      11.796      10.633      9.2941      7.9766      6.7723      5.7400      4.9059    
  4.2706      3.8201      3.5363      3.4040      3.4159      3.5737      3.6842      4.0623      4.6255      5.3886    
  6.3527      7.4930      8.7500      10.028      11.100      11.593      11.201      9.8075      7.5605      4.8748    
  2.3523     0.62299     0.15211      1.0840      3.1910      5.9500      8.7127      10.898      12.136      12.337    
  11.665      10.460      9.0966      7.7724      6.5777      5.5680      4.7649      4.1651      3.7520      3.5070    
  3.4158      3.4733      3.5459      3.8139      4.2590      4.8997      5.7484      6.7984      8.0124      9.3153    
  10.576      11.464      11.582      10.655      8.6424      5.8016      2.6658     -.67485E-01 -1.7270     -1.8771    
 -.46474      2.1619      5.3698      8.4423      10.781      12.045      12.195      11.453      10.201      8.8273    
  7.5122      6.3432      5.3706      4.6103      4.0548      3.6858      3.4846      3.4388      3.4723      3.6318    
  3.9594      4.4731      5.1914      6.1222      7.2502      8.5252      9.8576      11.053      11.709      11.431    
  9.9925      7.4410      4.1405     0.72641     -2.0389     -3.4811     -3.2283     -1.3361      1.7301      5.2507    
  8.4731      10.815      11.985      12.008      11.163      9.8668      8.4958      7.2055      6.0776      5.1549    
  4.4471      3.9431      3.6232      3.4696      3.4621      3.5150      3.7285      4.1166      4.6986      5.4915    
  6.4981      7.6936      9.0152      10.357      11.449      11.854      11.203      9.3309      6.3753      2.7959    
 -.69685     -3.3142     -4.4185     -3.7288     -1.4166      1.9527      5.6054      8.7906      10.973      11.932    
  11.763      10.796      9.4672      8.1135      6.8634      5.7903      4.9283      4.2808      3.8333      3.5658    
  3.5150      3.4621      3.5658      3.8333      4.2808      4.9283      5.7903      6.8634      8.1135      9.4671    
  10.796      11.763      11.932      10.973      8.7906      5.6053      1.9527     -1.4167     -3.7288     -4.4185    
 -3.3142     -.69686      2.7959      6.3753      9.3310      11.203      11.854      11.449      10.357      9.0153    
  7.6936      6.4981      5.4915      4.6986      4.1166      3.7285      3.6318      3.4723      3.4696      3.6232    
  3.9431      4.4471      5.1549      6.0776      7.2055      8.4957      9.8667      11.163      12.008      11.985    
  10.815      8.4730      5.2507      1.7301     -1.3362     -3.2283     -3.4812     -2.0389     0.72638      4.1404    
  7.4410      9.9925      11.431      11.709      11.053      9.8576      8.5252      7.2503      6.1222      5.1914    
  4.4731      3.9594      3.8139      3.5459      3.4388      3.4846      3.6858      4.0548      4.6103      5.3706    
  6.3432      7.5121      8.8273      10.201      11.453      12.195      12.045      10.781      8.4423      5.3698    
  2.1619     -.46478     -1.8772     -1.7271     -.67536E-01  2.6658      5.8016      8.6424      10.655      11.582    
  11.464      10.576      9.3153      8.0124      6.7984      5.7484      4.8997      4.2590      4.0623      3.6842    
  3.4733      3.4158      3.5070      3.7520      4.1651      4.7649      5.5680      6.5777      7.7723      9.0966    
  10.460      11.665      12.337      12.136      10.898      8.7127      5.9499      3.1909      1.0840     0.15205    
 0.62293      2.3522      4.8748      7.5605      9.8075      11.201      11.593      11.100      10.028      8.7500    
  7.4930      6.3527      5.3886      4.6254      4.3762      3.8884      3.5737      3.4159      3.4041      3.5363    
  3.8202      4.2706      4.9059      5.7400      6.7722      7.9765      9.2940      10.633      11.796      12.435    
  12.258      11.153      9.2463      6.9100      4.6800      3.1118      2.6078      3.2837      4.9305      7.0885    
  9.2009      10.781      11.538      11.426      10.620      9.4355      8.1785      6.9834      5.9271      5.0535    
  4.7522      4.1582      3.7412      3.4850      3.3752      3.4041      3.5721      3.8882      4.3679      5.0281    
  5.8800      6.9195      8.1168      9.4119      10.716      11.843      12.482      12.393      11.504      9.9605    
  8.1148      6.4346      5.3685      5.2002      5.9525      7.3819      9.0660      10.543      11.451      11.615    
  11.077      10.050      8.8313      7.6180      6.4990      5.5339      5.1833      4.4915      3.9760      3.6239    
  3.4199      3.3523      3.4158      3.6131      3.9540      4.4536      5.1270      5.9828      7.0135      8.1875    
  9.4450      10.702      11.797      12.464      12.506      11.882      10.743      9.3986      8.2354      7.5925    
  7.6473      8.3551      9.4681      10.625      11.470      11.760      11.427      10.575      9.4352      8.2365    
  7.0860      6.0539      5.6600      4.8835      4.2768      3.8328      3.5382      3.3794      3.3473      3.4389    
  3.6582      4.0154      4.5246      5.1989      6.0441      7.0503      8.1849      9.3906      10.589      11.652    
  12.359      12.552      12.210      11.471      10.592      9.8733      9.5506      9.7159      10.284      11.029    
  11.662      11.936      11.715      11.014      9.9794      8.8223      7.6707      6.5987      6.1704      5.3270    
  4.6404      4.1113      3.7305      3.4851      3.3639      3.3600      3.4723      3.7057      4.0702      4.5782    
  5.2408      6.0612      7.0277      8.1083      9.2493      10.380      11.402      12.147      12.487      12.412    
  12.033      11.551      11.180      11.070      11.251      11.622      11.995      12.161      11.970      11.376    
  10.453      9.3619      8.2370      7.1534      6.7024      5.8133      5.0622      4.4581      3.9974      3.6701    
  3.4651      3.3732      3.3898      3.5151      3.7542      4.1164      4.6124      5.2509      6.0329      6.9460    
  7.9597      9.0250      10.079      11.049      11.817      12.281      12.430      12.347      12.173      12.049    
  12.057      12.188      12.346      12.388      12.183      11.661      10.845      9.8413      8.7698      7.7031    
  7.2429      6.3329      5.5365      4.8708      4.3392      3.9361      3.6521      3.4778      3.4067      3.4356    
  3.5658      3.8021      4.1525      4.6258      5.2286      5.9602      6.8080      7.7443      8.7254      9.6969    
  10.602      11.369      11.918      12.236      12.372      12.415      12.447      12.502      12.552      12.517    
  12.304      11.847      11.138      10.243      9.2526      8.2327      7.7776      6.8752      6.0567      5.3469    
  4.7564      4.2854      3.9279      3.6761      3.5229      3.4636      3.4965      3.6232      3.8479      4.1771    
  4.6179      5.1746      5.8456      6.6190      7.4701      8.3615      9.2474      10.080      10.818      11.410    
  11.834      12.114      12.294      12.411      12.471      12.441      12.264      11.891      11.306      10.543    
  9.6652      8.7247      8.2890      7.4269      6.6143      5.8824      5.2491      4.7211      4.2975      3.9731    
  3.7420      3.5995      3.5428      3.5711      3.6858      3.8903      4.1897      4.5890      5.0911      5.6938    
  6.3864      7.1479      7.9474      8.7469      9.5076      10.197      10.789      11.264      11.622      11.876    
  12.034      12.086      12.003      11.752      11.318      10.717      9.9838      9.1579      8.7551      7.9704    