   2   2   0   0
  0.1578395E+02  0.3686253E-09  0.3686253E-09  0.3686253E-09  0.5000000E-15
  1.000000000000000E-004
  CAR 
 unknown system                          
     22.71335327     -6.62819308  301      8.69542209      1.00000000
     -6.628  0.0000E+00  0.0000E+00
     -6.530  0.0000E+00  0.0000E+00
     -6.433  0.0000E+00  0.0000E+00
     -6.335  0.0000E+00  0.0000E+00
     -6.237  0.0000E+00  0.0000E+00
     -6.139  0.0000E+00  0.0000E+00
     -6.041  0.0000E+00  0.0000E+00
     -5.944  0.0000E+00  0.0000E+00
     -5.846  0.0000E+00  0.0000E+00
     -5.748  0.1301E-16  0.1272E-17
     -5.650  0.2631E-14  0.2586E-15
     -5.552  0.3368E-12  0.3320E-13
     -5.455  0.2695E-10  0.2669E-11
     -5.357  0.1349E-08  0.1346E-09
     -5.259  0.4229E-07  0.4271E-08
     -5.161  0.8318E-06  0.8562E-07
     -5.063  0.1028E-04  0.1091E-05
     -4.966  0.7998E-04  0.8914E-05
     -4.868  0.3933E-03  0.4738E-04
     -4.770  0.1232E-02  0.1679E-03
     -4.672  0.2523E-02  0.4147E-03
     -4.574  0.3675E-02  0.7740E-03
     -4.476  0.4825E-02  0.1246E-02
     -4.379  0.7382E-02  0.1968E-02
     -4.281  0.1151E-01  0.3093E-02
     -4.183  0.1451E-01  0.4513E-02
     -4.085  0.1430E-01  0.5912E-02
     -3.987  0.1200E-01  0.7085E-02
     -3.890  0.9640E-02  0.8028E-02
     -3.792  0.8734E-02  0.8882E-02
     -3.694  0.1084E-01  0.9943E-02
     -3.596  0.1643E-01  0.1155E-01
     -3.498  0.2282E-01  0.1378E-01
     -3.401  0.2474E-01  0.1620E-01
     -3.303  0.2057E-01  0.1821E-01
     -3.205  0.1607E-01  0.1978E-01
     -3.107  0.1672E-01  0.2142E-01
     -3.009  0.2035E-01  0.2341E-01
     -2.912  0.2148E-01  0.2551E-01
     -2.814  0.1964E-01  0.2743E-01
     -2.716  0.1918E-01  0.2931E-01
     -2.618  0.2186E-01  0.3145E-01
     -2.520  0.2488E-01  0.3388E-01
     -2.423  0.2593E-01  0.3642E-01
     -2.325  0.2535E-01  0.3890E-01
     -2.227  0.2379E-01  0.4122E-01
     -2.129  0.2314E-01  0.4349E-01
     -2.031  0.2647E-01  0.4607E-01
     -1.934  0.3133E-01  0.4914E-01
     -1.836  0.3081E-01  0.5215E-01
     -1.738  0.2417E-01  0.5452E-01
     -1.640  0.1740E-01  0.5622E-01
     -1.542  0.1492E-01  0.5768E-01
     -1.445  0.1757E-01  0.5940E-01
     -1.347  0.2584E-01  0.6192E-01
     -1.249  0.3856E-01  0.6569E-01
     -1.151  0.4912E-01  0.7050E-01
     -1.053  0.5027E-01  0.7542E-01
     -0.955  0.4343E-01  0.7966E-01
     -0.858  0.3660E-01  0.8324E-01
     -0.760  0.3350E-01  0.8652E-01
     -0.662  0.3074E-01  0.8953E-01
     -0.564  0.2581E-01  0.9205E-01
     -0.466  0.2077E-01  0.9408E-01
     -0.369  0.1824E-01  0.9587E-01
     -0.271  0.1967E-01  0.9779E-01
     -0.173  0.2516E-01  0.1003E+00
     -0.075  0.3190E-01  0.1034E+00
      0.023  0.3622E-01  0.1069E+00
      0.120  0.3872E-01  0.1107E+00
      0.218  0.4252E-01  0.1149E+00
      0.316  0.4741E-01  0.1195E+00
      0.414  0.4982E-01  0.1244E+00
      0.512  0.4778E-01  0.1290E+00
      0.609  0.4385E-01  0.1333E+00
      0.707  0.4105E-01  0.1373E+00
      0.805  0.4091E-01  0.1413E+00
      0.903  0.4336E-01  0.1456E+00
      1.001  0.4511E-01  0.1500E+00
      1.098  0.4688E-01  0.1546E+00
      1.196  0.5338E-01  0.1598E+00
      1.294  0.5894E-01  0.1656E+00
      1.392  0.5191E-01  0.1706E+00
      1.490  0.3469E-01  0.1740E+00
      1.587  0.2069E-01  0.1761E+00
      1.685  0.1566E-01  0.1776E+00
      1.783  0.1550E-01  0.1791E+00
      1.881  0.1628E-01  0.1807E+00
      1.979  0.1976E-01  0.1826E+00
      2.076  0.2908E-01  0.1855E+00
      2.174  0.4155E-01  0.1895E+00
      2.272  0.5096E-01  0.1945E+00
      2.370  0.5377E-01  0.1998E+00
      2.468  0.5091E-01  0.2048E+00
      2.565  0.4707E-01  0.2094E+00
      2.663  0.4599E-01  0.2139E+00
      2.761  0.4680E-01  0.2184E+00
      2.859  0.4785E-01  0.2231E+00
      2.957  0.4911E-01  0.2279E+00
      3.055  0.4731E-01  0.2326E+00
      3.152  0.3781E-01  0.2363E+00
      3.250  0.2538E-01  0.2387E+00
      3.348  0.2075E-01  0.2408E+00
      3.446  0.2602E-01  0.2433E+00
      3.544  0.3336E-01  0.2466E+00
      3.641  0.3617E-01  0.2501E+00
      3.739  0.3467E-01  0.2535E+00
      3.837  0.3271E-01  0.2567E+00
      3.935  0.3502E-01  0.2601E+00
      4.033  0.4594E-01  0.2646E+00
      4.130  0.6422E-01  0.2709E+00
      4.228  0.7875E-01  0.2786E+00
      4.326  0.7983E-01  0.2864E+00
      4.424  0.7231E-01  0.2935E+00
      4.522  0.6452E-01  0.2998E+00
      4.619  0.5600E-01  0.3053E+00
      4.717  0.4635E-01  0.3098E+00
      4.815  0.4059E-01  0.3138E+00
      4.913  0.4125E-01  0.3178E+00
      5.011  0.4331E-01  0.3220E+00
      5.108  0.4047E-01  0.3260E+00
      5.206  0.3533E-01  0.3295E+00
      5.304  0.3676E-01  0.3330E+00
      5.402  0.4711E-01  0.3377E+00
      5.500  0.5895E-01  0.3434E+00
      5.597  0.6407E-01  0.3497E+00
      5.695  0.6370E-01  0.3559E+00
      5.793  0.6582E-01  0.3624E+00
      5.891  0.6960E-01  0.3692E+00
      5.989  0.6656E-01  0.3757E+00
      6.086  0.5695E-01  0.3812E+00
      6.184  0.4859E-01  0.3860E+00
      6.282  0.4678E-01  0.3906E+00
      6.380  0.5208E-01  0.3957E+00
      6.478  0.5977E-01  0.4015E+00
      6.576  0.6270E-01  0.4076E+00
      6.673  0.5934E-01  0.4134E+00
      6.771  0.5571E-01  0.4189E+00
      6.869  0.5926E-01  0.4247E+00
      6.967  0.6995E-01  0.4315E+00
      7.065  0.8062E-01  0.4394E+00
      7.162  0.8786E-01  0.4480E+00
      7.260  0.9124E-01  0.4569E+00
      7.358  0.8758E-01  0.4655E+00
      7.456  0.7755E-01  0.4731E+00
      7.554  0.6588E-01  0.4795E+00
      7.651  0.5499E-01  0.4849E+00
      7.749  0.4690E-01  0.4895E+00
      7.847  0.4290E-01  0.4937E+00
      7.945  0.4091E-01  0.4977E+00
      8.043  0.3984E-01  0.5016E+00
      8.140  0.4081E-01  0.5056E+00
      8.238  0.4315E-01  0.5098E+00
      8.336  0.4391E-01  0.5141E+00
      8.434  0.4372E-01  0.5184E+00
      8.532  0.4847E-01  0.5231E+00
      8.629  0.5936E-01  0.5289E+00
      8.727  0.6716E-01  0.5355E+00
      8.825  0.6318E-01  0.5417E+00
      8.923  0.5341E-01  0.5469E+00
      9.021  0.5283E-01  0.5521E+00
      9.118  0.6173E-01  0.5581E+00
      9.216  0.6148E-01  0.5641E+00
      9.314  0.4372E-01  0.5684E+00
      9.412  0.2336E-01  0.5707E+00
      9.510  0.1542E-01  0.5722E+00
      9.607  0.2021E-01  0.5742E+00
      9.705  0.2982E-01  0.5771E+00
      9.803  0.3711E-01  0.5807E+00
      9.901  0.4092E-01  0.5847E+00
      9.999  0.4449E-01  0.5891E+00
     10.096  0.4814E-01  0.5938E+00
     10.194  0.4835E-01  0.5985E+00
     10.292  0.4603E-01  0.6030E+00
     10.390  0.4758E-01  0.6076E+00
     10.488  0.5645E-01  0.6132E+00
     10.586  0.6866E-01  0.6199E+00
     10.683  0.7580E-01  0.6273E+00
     10.781  0.7535E-01  0.6347E+00
     10.879  0.7365E-01  0.6419E+00
     10.977  0.7258E-01  0.6490E+00
     11.075  0.6708E-01  0.6555E+00
     11.172  0.5808E-01  0.6612E+00
     11.270  0.5621E-01  0.6667E+00
     11.368  0.6901E-01  0.6735E+00
     11.466  0.8970E-01  0.6822E+00
     11.564  0.1053E+00  0.6925E+00
     11.661  0.1092E+00  0.7032E+00
     11.759  0.1008E+00  0.7131E+00
     11.857  0.8213E-01  0.7211E+00
     11.955  0.5987E-01  0.7270E+00
     12.053  0.4312E-01  0.7312E+00
     12.150  0.3440E-01  0.7345E+00
     12.248  0.2942E-01  0.7374E+00
     12.346  0.2941E-01  0.7403E+00
     12.444  0.4149E-01  0.7443E+00
     12.542  0.6258E-01  0.7505E+00
     12.639  0.7753E-01  0.7581E+00
     12.737  0.7771E-01  0.7657E+00
     12.835  0.7095E-01  0.7726E+00
     12.933  0.6863E-01  0.7793E+00
     13.031  0.7017E-01  0.7862E+00
     13.128  0.6739E-01  0.7928E+00
     13.226  0.5812E-01  0.7984E+00
     13.324  0.4843E-01  0.8032E+00
     13.422  0.4608E-01  0.8077E+00
     13.520  0.5765E-01  0.8133E+00
     13.617  0.8319E-01  0.8215E+00
     13.715  0.1073E+00  0.8320E+00
     13.813  0.1131E+00  0.8430E+00
     13.911  0.1045E+00  0.8532E+00
     14.009  0.9446E-01  0.8625E+00
     14.106  0.8441E-01  0.8707E+00
     14.204  0.7132E-01  0.8777E+00
     14.302  0.5839E-01  0.8834E+00
     14.400  0.5254E-01  0.8886E+00
     14.498  0.5680E-01  0.8941E+00
     14.596  0.6666E-01  0.9006E+00
     14.693  0.7438E-01  0.9079E+00
     14.791  0.7512E-01  0.9153E+00
     14.889  0.6887E-01  0.9220E+00
     14.987  0.6061E-01  0.9279E+00
     15.085  0.5655E-01  0.9334E+00
     15.182  0.5774E-01  0.9391E+00
     15.280  0.6137E-01  0.9451E+00
     15.378  0.6346E-01  0.9513E+00
     15.476  0.6036E-01  0.9572E+00
     15.574  0.5406E-01  0.9625E+00
     15.671  0.4779E-01  0.9672E+00
     15.769  0.4055E-01  0.9711E+00
     15.867  0.3357E-01  0.9744E+00
     15.965  0.3071E-01  0.9774E+00
     16.063  0.3216E-01  0.9806E+00
     16.160  0.3480E-01  0.9840E+00
     16.258  0.3838E-01  0.9877E+00
     16.356  0.4640E-01  0.9923E+00
     16.454  0.5772E-01  0.9979E+00
     16.552  0.6563E-01  0.1004E+01
     16.649  0.6727E-01  0.1011E+01
     16.747  0.6309E-01  0.1017E+01
     16.845  0.5306E-01  0.1022E+01
     16.943  0.3979E-01  0.1026E+01
     17.041  0.2706E-01  0.1029E+01
     17.138  0.1758E-01  0.1031E+01
     17.236  0.1307E-01  0.1032E+01
     17.334  0.1262E-01  0.1033E+01
     17.432  0.1401E-01  0.1034E+01
     17.530  0.1689E-01  0.1036E+01
     17.627  0.2281E-01  0.1038E+01
     17.725  0.3167E-01  0.1041E+01
     17.823  0.3834E-01  0.1045E+01
     17.921  0.3694E-01  0.1049E+01
     18.019  0.2829E-01  0.1052E+01
     18.117  0.1811E-01  0.1053E+01
     18.214  0.1033E-01  0.1054E+01
     18.312  0.5430E-02  0.1055E+01
     18.410  0.2661E-02  0.1055E+01
     18.508  0.1623E-02  0.1055E+01
     18.606  0.2604E-02  0.1056E+01
     18.703  0.5765E-02  0.1056E+01
     18.801  0.9842E-02  0.1057E+01
     18.899  0.1256E-01  0.1058E+01
     18.997  0.1259E-01  0.1059E+01
     19.095  0.1012E-01  0.1060E+01
     19.192  0.6258E-02  0.1061E+01
     19.290  0.2866E-02  0.1061E+01
     19.388  0.1370E-02  0.1062E+01
     19.486  0.2041E-02  0.1062E+01
     19.584  0.4183E-02  0.1062E+01
     19.681  0.5983E-02  0.1063E+01
     19.779  0.5960E-02  0.1063E+01
     19.877  0.4901E-02  0.1064E+01
     19.975  0.4120E-02  0.1064E+01
     20.073  0.3690E-02  0.1065E+01
     20.170  0.3513E-02  0.1065E+01
     20.268  0.3339E-02  0.1065E+01
     20.366  0.2602E-02  0.1065E+01
     20.464  0.1664E-02  0.1066E+01
     20.562  0.1543E-02  0.1066E+01
     20.659  0.2331E-02  0.1066E+01
     20.757  0.2892E-02  0.1066E+01
     20.855  0.2344E-02  0.1067E+01
     20.953  0.1204E-02  0.1067E+01
     21.051  0.3902E-03  0.1067E+01
     21.148  0.7977E-04  0.1067E+01
     21.246  0.1027E-04  0.1067E+01
     21.344  0.8315E-06  0.1067E+01
     21.442  0.4229E-07  0.1067E+01
     21.540  0.1349E-08  0.1067E+01
     21.637  0.2695E-10  0.1067E+01
     21.735  0.3368E-12  0.1067E+01
     21.833  0.2631E-14  0.1067E+01
     21.931  0.1301E-16  0.1067E+01
     22.029  0.0000E+00  0.1067E+01
     22.127  0.0000E+00  0.1067E+01
     22.224  0.0000E+00  0.1067E+01
     22.322  0.0000E+00  0.1067E+01
     22.420  0.0000E+00  0.1067E+01
     22.518  0.0000E+00  0.1067E+01
     22.616  0.0000E+00  0.1067E+01
     22.713  0.0000E+00  0.1067E+01
