    2    2   15    1
  0.1578395E+02  0.3686253E-09  0.3686253E-09  0.3686253E-09  0.5000000E-15
  1.000000000000000E-004
  CAR 
 unknown system                          
      8     56      8
 
  0.6250000E-01  0.6250000E-01  0.6250000E-01  0.1562500E-01
    1       -4.219768   1.000000
    2        4.444649   1.000000
    3        6.709224   1.000000
    4        8.238080   0.999389
    5       11.864586   0.000000
    6       13.734151   0.000000
    7       14.300354   0.000000
    8       16.155390   0.000000
 
  0.1875000E+00  0.6250000E-01  0.6250000E-01  0.3125000E-01
    1       -3.001689   1.000000
    2        4.199007   1.000000
    3        7.008832   1.000000
    4        9.173971   0.000357
    5       10.834521   0.000000
    6       10.943310   0.000000
    7       13.699222   0.000000
    8       14.459142   0.000000
 
  0.3125000E+00  0.6250000E-01  0.6250000E-01  0.3125000E-01
    1       -1.001707   1.000000
    2        4.496896   1.000000
    3        5.569652   1.000000
    4        7.278758   1.000000
    5        8.632456   0.671925
    6       11.757267   0.000000
    7       13.218954   0.000000
    8       13.605449   0.000000
 
  0.4375000E+00  0.6250000E-01  0.6250000E-01  0.1562500E-01
    1        1.337387   1.000000
    2        2.249774   1.000000
    3        5.797155   1.000000
    4        6.185671   1.000000
    5        8.515819   0.897955
    6       10.590722   0.000000
    7       13.125116   0.000000
    8       14.066151   0.000000
 
 -0.6250000E-01  0.6250000E-01  0.6250000E-01  0.7812500E-02
    1       -4.628193   1.000000
    2        5.052305   1.000000
    3        5.901956   1.000000
    4        7.906708   1.000000
    5       10.995176   0.000000
    6       14.883761   0.000000
    7       17.361687   0.000000
    8       17.457858   0.000000
 
  0.1875000E+00  0.1875000E+00  0.6250000E-01  0.1562500E-01
    1       -1.184906   1.000000
    2        4.486403   1.000000
    3        6.455029   1.000000
    4        6.647811   1.000000
    5        9.601141   0.000000
    6       11.601810   0.000000
    7       12.893989   0.000000
    8       13.086078   0.000000
 
  0.3125000E+00  0.1875000E+00  0.6250000E-01  0.3125000E-01
    1        1.282989   1.000000
    2        2.980931   1.000000
    3        4.329506   1.000000
    4        5.805026   1.000000
    5        9.858265   0.000000
    6       11.593806   0.000000
    7       12.618108   0.000000
    8       14.660002   0.000000
 
  0.4375000E+00  0.1875000E+00  0.6250000E-01  0.3125000E-01
    1       -0.086132   1.000000
    2        2.752017   1.000000
    3        4.929531   1.000000
    4        7.282425   1.000000
    5        9.102167   0.002013
    6       11.763455   0.000000
    7       13.683928   0.000000
    8       14.573204   0.000000
 
 -0.4375000E+00  0.1875000E+00  0.6250000E-01  0.3125000E-01
    1       -2.252624   1.000000
    2        2.130974   1.000000
    3        7.554236   1.000000
    4        8.832998   0.165324
    5       10.363784   0.000000
    6       11.490829   0.000000
    7       12.699438   0.000000
    8       15.044086   0.000000
 
 -0.3125000E+00  0.1875000E+00  0.6250000E-01  0.1562500E-01
    1       -3.652970   1.000000
    2        2.220340   1.000000
    3        7.216633   1.000000
    4        9.161013   0.000497
    5       12.154459   0.000000
    6       13.667412   0.000000
    7       14.215844   0.000000
    8       14.849344   0.000000
 
 -0.1875000E+00  0.1875000E+00  0.6250000E-01  0.1562500E-01
    1       -4.249271   1.000000
    2        3.034594   1.000000
    3        6.019319   1.000000
    4        9.142012   0.000795
    5       12.808901   0.000000
    6       12.964527   0.000000
    7       15.894844   0.000000
    8       17.249530   0.000000
 
 -0.6250000E-01  0.1875000E+00  0.6250000E-01  0.1562500E-01
    1       -4.030785   1.000000
    2        4.163756   1.000000
    3        5.383963   1.000000
    4        9.724182   0.000000
    5       12.589755   0.000000
    6       12.721124   0.000000
    7       13.761310   0.000000
    8       15.747150   0.000000
 
  0.3125000E+00  0.3125000E+00  0.6250000E-01  0.1562500E-01
    1        1.144154   1.000000
    2        1.210523   1.000000
    3        4.737305   1.000000
    4        7.225100   1.000000
    5        9.841889   0.000000
    6       10.669743   0.000000
    7       14.714799   0.000000
    8       15.567556   0.000000
 
  0.4375000E+00  0.3125000E+00  0.6250000E-01  0.3125000E-01
    1       -1.137335   1.000000
    2        0.331900   1.000000
    3        8.081696   0.999993
    4        8.690424   0.514096
    5       10.012220   0.000000
    6       11.407107   0.000000
    7       12.509323   0.000000
    8       13.902220   0.000000
 
 -0.4375000E+00  0.3125000E+00  0.6250000E-01  0.1562500E-01
    1       -2.713238   1.000000
    2        0.245151   1.000000
    3        8.053839   0.999997
    4       10.125449   0.000000
    5       10.643602   0.000000
    6       12.729612   0.000000
    7       13.776987   0.000000
    8       13.862634   0.000000
 
 -0.3125000E+00  0.3125000E+00  0.6250000E-01  0.1562500E-01
    1       -3.494354   1.000000
    2        0.932707   1.000000
    3        6.704327   1.000000
    4       10.080437   0.000000
    5       10.833299   0.000000
    6       14.172443   0.000000
    7       15.870399   0.000000
    8       16.943799   0.000000
 
 -0.1875000E+00  0.3125000E+00  0.6250000E-01  0.3125000E-01
    1       -3.465336   1.000000
    2        2.345288   1.000000
    3        5.505600   1.000000
    4       10.676144   0.000000
    5       11.071439   0.000000
    6       12.979857   0.000000
    7       14.751205   0.000000
    8       15.661937   0.000000
 
 -0.6250000E-01  0.3125000E+00  0.6250000E-01  0.1562500E-01
    1       -2.627486   1.000000
    2        4.025913   1.000000
    3        5.390570   1.000000
    4        8.475783   0.939799
    5       11.109963   0.000000
    6       12.660267   0.000000
    7       13.325650   0.000000
    8       13.681724   0.000000
 
  0.4375000E+00  0.4375000E+00  0.6250000E-01  0.7812500E-02
    1       -1.408982   1.000000
    2       -1.408982   1.000000
    3        9.199792   0.000181
    4        9.199792   0.000181
    5       11.377396   0.000000
    6       11.377398   0.000000
    7       13.578935   0.000000
    8       13.578936   0.000000
 
 -0.4375000E+00  0.4375000E+00  0.6250000E-01  0.1562500E-01
    1       -2.369788   1.000000
    2       -0.886889   1.000000
    3        7.748772   1.000000
    4        9.132164   0.001007
    5       11.192920   0.000000
    6       12.566789   0.000000
    7       16.644464   0.000000
    8       16.742881   0.000000
 
 -0.3125000E+00  0.4375000E+00  0.6250000E-01  0.3125000E-01
    1       -2.528303   1.000000
    2        0.412854   1.000000
    3        6.340384   1.000000
    4        9.074179   0.003701
    5       11.425555   0.000000
    6       12.904944   0.000000
    7       14.847764   0.000000
    8       15.368089   0.000000
 
 -0.1875000E+00  0.4375000E+00  0.6250000E-01  0.3125000E-01
    1       -1.882692   1.000000
    2        2.416178   1.000000
    3        5.598526   1.000000
    4        7.836398   1.000000
    5        9.696870   0.000000
    6       12.518467   0.000000
    7       14.014799   0.000000
    8       15.354158   0.000000
 
 -0.6250000E-01  0.4375000E+00  0.6250000E-01  0.1562500E-01
    1       -0.455079   1.000000
    2        4.072541   1.000000
    3        5.219341   1.000000
    4        6.008532   1.000000
    5        9.164740   0.000452
    6       11.574510   0.000000
    7       11.896171   0.000000
    8       15.192626   0.000000
 
 -0.4375000E+00 -0.4375000E+00  0.6250000E-01  0.1562500E-01
    1       -1.232499   1.000000
    2       -1.225955   1.000000
    3        7.540707   1.000000
    4        7.553888   1.000000
    5       11.516216   0.000000
    6       13.413157   0.000000
    7       14.254532   0.000000
    8       14.853686   0.000000
 
 -0.3125000E+00 -0.4375000E+00  0.6250000E-01  0.3125000E-01
    1       -0.775792   1.000000
    2        0.675478   1.000000
    3        6.498950   1.000000
    4        7.415527   1.000000
    5        8.275562   0.998505
    6       12.170000   0.000000
    7       15.108999   0.000000
    8       16.416875   0.000000
 
 -0.1875000E+00 -0.4375000E+00  0.6250000E-01  0.3125000E-01
    1        0.443513   1.000000
    2        3.067040   1.000000
    3        4.228184   1.000000
    4        6.442793   1.000000
    5        8.673676   0.561103
    6       10.612292   0.000000
    7       13.114127   0.000000
    8       16.503099   0.000000
 
 -0.6250000E-01 -0.4375000E+00  0.6250000E-01  0.1562500E-01
    1        0.930900   1.000000
    2        2.657201   1.000000
    3        6.249740   1.000000
    4        6.979306   1.000000
    5        7.601952   1.000000
    6       10.206037   0.000000
    7       11.655602   0.000000
    8       15.404267   0.000000
 
 -0.3125000E+00 -0.3125000E+00  0.6250000E-01  0.1562500E-01
    1        1.580114   1.000000
    2        1.754170   1.000000
    3        3.929348   1.000000
    4        7.315555   1.000000
    5        7.723346   1.000000
    6       10.234876   0.000000
    7       14.966781   0.000000
    8       15.637974   0.000000
 
 -0.1875000E+00 -0.3125000E+00  0.6250000E-01  0.3125000E-01
    1        0.617036   1.000000
    2        3.657155   1.000000
    3        4.999817   1.000000
    4        7.175536   1.000000
    5        8.286942   0.998064
    6       10.097933   0.000000
    7       11.686172   0.000000
    8       14.094268   0.000000
 
 -0.6250000E-01 -0.3125000E+00  0.6250000E-01  0.1562500E-01
    1       -1.555517   1.000000
    2        5.844373   1.000000
    3        6.849637   1.000000
    4        7.220920   1.000000
    5        8.463208   0.949705
    6       10.936445   0.000000
    7       11.677537   0.000000
    8       13.341340   0.000000
 
 -0.1875000E+00 -0.1875000E+00  0.6250000E-01  0.1562500E-01
    1       -1.740791   1.000000
    2        6.474691   1.000000
    3        7.139897   1.000000
    4        7.434752   1.000000
    5        8.797714   0.234745
    6       10.463907   0.000000
    7       11.635106   0.000000
    8       11.859295   0.000000
 
 -0.6250000E-01 -0.1875000E+00  0.6250000E-01  0.1562500E-01
    1       -3.377723   1.000000
    2        6.162072   1.000000
    3        6.904003   1.000000
    4        8.760879   0.321735
    5       10.892731   0.000000
    6       11.324807   0.000000
    7       12.106677   0.000000
    8       13.852336   0.000000
 
 -0.6250000E-01 -0.6250000E-01  0.6250000E-01  0.3906250E-02
    1       -4.409189   1.000000
    2        6.539308   1.000000
    3        6.539309   1.000000
    4        6.821513   1.000000
    5       10.748977   0.000000
    6       14.531253   0.000000
    7       14.645594   0.000000
    8       16.525798   0.000000
 
  0.1875000E+00  0.1875000E+00  0.1875000E+00  0.1562500E-01
    1       -0.264851   1.000000
    2        2.609619   1.000000
    3        6.023302   1.000000
    4        6.112402   1.000000
    5       10.594161   0.000000
    6       12.442080   0.000000
    7       13.666411   0.000000
    8       14.108273   0.000000
 
  0.3125000E+00  0.1875000E+00  0.1875000E+00  0.1562500E-01
    1        2.044913   1.000000
    2        2.789883   1.000000
    3        3.818852   1.000000
    4        4.466212   1.000000
    5       11.521271   0.000000
    6       13.438642   0.000000
    7       13.748803   0.000000
    8       13.938001   0.000000
 
 -0.1875000E+00  0.1875000E+00  0.1875000E+00  0.7812500E-02
    1       -3.872143   1.000000
    2        2.858420   1.000000
    3        4.277155   1.000000
    4       10.685302   0.000000
    5       11.267610   0.000000
    6       14.039085   0.000000
    7       16.289019   0.000000
    8       16.810294   0.000000
 
  0.3125000E+00  0.3125000E+00  0.1875000E+00  0.7812500E-02
    1        1.007822   1.000000
    2        1.007823   1.000000
    3        5.902600   1.000000
    4        5.902601   1.000000
    5       11.845441   0.000000
    6       11.845443   0.000000
    7       13.655819   0.000000
    8       13.655824   0.000000
 
 -0.3125000E+00  0.3125000E+00  0.1875000E+00  0.1562500E-01
    1       -3.121283   1.000000
    2        1.222926   1.000000
    3        4.498746   1.000000
    4        8.654127   0.614857
    5       12.606069   0.000000
    6       15.518620   0.000000
    7       16.118107   0.000000
    8       16.900518   0.000000
 
 -0.1875000E+00  0.3125000E+00  0.1875000E+00  0.1562500E-01
    1       -2.904405   1.000000
    2        2.322320   1.000000
    3        3.831090   1.000000
    4        8.810089   0.208736
    5       11.409788   0.000000
    6       14.048953   0.000000
    7       16.058631   0.000000
    8       16.380692   0.000000
 
 -0.4375000E+00  0.4375000E+00  0.1875000E+00  0.1562500E-01
    1       -2.004652   1.000000
    2       -0.539314   1.000000
    3        5.509037   1.000000
    4        6.911745   1.000000
    5       13.652768   0.000000
    6       14.653896   0.000000
    7       16.215723   0.000000
    8       16.599729   0.000000
 
 -0.3125000E+00  0.4375000E+00  0.1875000E+00  0.3125000E-01
    1       -1.976748   1.000000
    2        0.879234   1.000000
    3        4.194247   1.000000
    4        6.936034   1.000000
    5       11.048059   0.000000
    6       15.364080   0.000000
    7       16.429543   0.000000
    8       17.879915   0.000000
 
 -0.1875000E+00  0.4375000E+00  0.1875000E+00  0.1562500E-01
    1       -1.148178   1.000000
    2        2.555613   1.000000
    3        4.106338   1.000000
    4        7.030349   1.000000
    5        7.937621   1.000000
    6       13.764235   0.000000
    7       15.172052   0.000000
    8       16.516247   0.000000
 
 -0.4375000E+00 -0.4375000E+00  0.1875000E+00  0.1562500E-01
    1       -0.705130   1.000000
    2       -0.691262   1.000000
    3        5.360207   1.000000
    4        5.382189   1.000000
    5       10.903239   0.000000
    6       16.034588   0.000000
    7       16.697276   0.000000
    8       17.014721   0.000000
 
 -0.3125000E+00 -0.4375000E+00  0.1875000E+00  0.3125000E-01
    1       -0.064534   1.000000
    2        1.316839   1.000000
    3        4.607678   1.000000
    4        5.874295   1.000000
    5        7.062474   1.000000
    6       13.947336   0.000000
    7       16.706157   0.000000
    8       17.752193   0.000000
 
 -0.1875000E+00 -0.4375000E+00  0.1875000E+00  0.1562500E-01
    1        1.290780   1.000000
    2        3.021161   1.000000
    3        4.182234   1.000000
    4        5.093474   1.000000
    5        7.286554   1.000000
    6       11.729139   0.000000
    7       13.051803   0.000000
    8       16.673634   0.000000
 
 -0.3125000E+00 -0.3125000E+00  0.1875000E+00  0.1562500E-01
    1        2.131675   1.000000
    2        2.598629   1.000000
    3        3.662002   1.000000
    4        5.786149   1.000000
    5        5.901920   1.000000
    6       11.975706   0.000000
    7       14.431505   0.000000
    8       15.244934   0.000000
 
 -0.1875000E+00 -0.3125000E+00  0.1875000E+00  0.1562500E-01
    1        0.269271   1.000000
    2        4.653491   1.000000
    3        5.583828   1.000000
    4        6.652016   1.000000
    5        7.453055   1.000000
    6       10.482384   0.000000
    7       11.537262   0.000000
    8       13.032603   0.000000
 
 -0.1875000E+00 -0.1875000E+00  0.1875000E+00  0.3906250E-02
    1       -1.926684   1.000000
    2        7.823758   1.000000
    3        7.823758   1.000000
    4        7.919610   1.000000
    5        8.139631   0.999958
    6        9.439932   0.000000
    7       11.354757   0.000000
    8       11.354760   0.000000
 
 -0.3125000E+00  0.3125000E+00  0.3125000E+00  0.7812500E-02
    1       -2.380209   1.000000
    2        1.366333   1.000000
    3        2.951163   1.000000
    4        6.587858   1.000000
    5       14.265855   0.000000
    6       15.148005   0.000000
    7       16.718145   0.000000
    8       18.132989   0.000000
 
 -0.4375000E+00  0.4375000E+00  0.3125000E+00  0.1562500E-01
    1       -1.285736   1.000000
    2        0.110242   1.000000
    3        3.474291   1.000000
    4        4.834041   1.000000
    5       14.596844   0.000000
    6       14.784783   0.000000
    7       17.698528   0.000000
    8       18.768833   0.000000
 
 -0.3125000E+00  0.4375000E+00  0.3125000E+00  0.1562500E-01
    1       -1.071756   1.000000
    2        1.199541   1.000000
    3        2.814211   1.000000
    4        5.032008   1.000000
    5       10.593751   0.000000
    6       17.530335   0.000000
    7       17.885047   0.000000
    8       18.899283   0.000000
 
 -0.4375000E+00 -0.4375000E+00  0.3125000E+00  0.1562500E-01
    1        0.123207   1.000000
    2        0.147269   1.000000
    3        3.496616   1.000000
    4        3.511374   1.000000
    5       10.432976   0.000000
    6       17.771595   0.000000
    7       19.050167   0.000000
    8       19.653226   0.000000
 
 -0.3125000E+00 -0.4375000E+00  0.3125000E+00  0.1562500E-01
    1        0.943800   1.000000
    2        1.812760   1.000000
    3        3.430000   1.000000
    4        4.268974   1.000000
    5        6.631630   1.000000
    6       15.620332   0.000000
    7       16.844952   0.000000
    8       18.027355   0.000000
 
 -0.3125000E+00 -0.3125000E+00  0.3125000E+00  0.3906250E-02
    1        2.348106   1.000000
    2        3.315046   1.000000
    3        4.059249   1.000000
    4        4.770875   1.000000
    5        4.770875   1.000000
    6       13.704118   0.000000
    7       14.249907   0.000000
    8       14.249913   0.000000
 
 -0.4375000E+00  0.4375000E+00  0.4375000E+00  0.7812500E-02
    1       -0.263899   1.000000
    2        0.612042   1.000000
    3        2.260606   1.000000
    4        3.124700   1.000000
    5       14.497771   0.000000
    6       14.535674   0.000000
    7       19.944416   0.000000
    8       20.713353   0.000000
 
 -0.4375000E+00 -0.4375000E+00  0.4375000E+00  0.3906250E-02
    1        0.802883   1.000000
    2        0.841912   1.000000
    3        2.467832   1.000000
    4        2.467832   1.000000
    5       10.269329   0.000000
    6       18.285519   0.000000
    7       20.223844   0.000000
    8       20.243686   0.000000
