unknown system                          
           1
    -2.428877    2.428877    1.337749
     2.428877   -2.428877    1.337749
     2.428877    2.428877   -1.337749
   Si
   2
Direct configuration=     1
   0.75000000  0.25000000  0.50000000
   0.50000000  0.50000000  0.00000000
