unknown system                          
   1.00000000000000     
    -2.450000    2.450000    1.274000
     2.450000   -2.450000    1.274000
     2.450000    2.450000   -1.274000
   Si
     2
Direct
  0.250000  0.750000  0.500000
  0.000000  0.000000  0.000000
 
   28   28   28
 -.55861919970E+01 -.40548550993E+01 -.67359086928E-01 0.48631096552E+01 0.90506415360E+01
 0.11374352800E+02 0.11641607292E+02 0.10460087365E+02 0.87677535696E+01 0.71549114898E+01
 0.58002411488E+01 0.47661790849E+01 0.40531333903E+01 0.36389440883E+01 0.35034090044E+01
 0.36389472388E+01 0.40531499043E+01 0.47662060815E+01 0.58002605888E+01 0.71549153571E+01
 0.87677530972E+01 0.10460092725E+02 0.11641614294E+02 0.11374354437E+02 0.90506381520E+01
 0.48631029957E+01 -.67369142630E-01 -.40548639926E+01 -.40548639926E+01 -.48580513486E+01
 -.27205141603E+01 0.15056813022E+01 0.62302335913E+01 0.98855906317E+01 0.11587351868E+02
 0.11372021680E+02 0.99693197797E+01 0.82777023486E+01 0.67315661535E+01 0.54670330605E+01
 0.45258432543E+01 0.38994118416E+01 0.35644762025E+01 0.35033946850E+01 0.37121108833E+01
 0.42014187157E+01 0.49930369841E+01 0.61063480755E+01 0.75304951993E+01 0.91831281097E+01
 0.10837517586E+02 0.11792608105E+02 0.11147253653E+02 0.84498678921E+01 0.41010562142E+01
 -.62704104490E+00 -.67369142630E-01 -.27205181495E+01 -.28038908097E+01 -.29216760565E+00
 0.37991467823E+01 0.79271080360E+01 0.10751981559E+02 0.11678475808E+02 0.10960087509E+02
 0.93934548867E+01 0.77416311894E+01 0.62854877742E+01 0.51259127366E+01 0.42853703609E+01
 0.37485306169E+01 0.34926617619E+01 0.35033668507E+01 0.37800367606E+01 0.43359874544E+01
 0.51932091613E+01 0.63668482831E+01 0.78351947974E+01 0.94990487199E+01 0.11089748198E+02
 0.11861763393E+02 0.11004540298E+02 0.82315260726E+01 0.41010562142E+01 0.48631029957E+01
 0.15056767480E+01 -.29216343627E+00 0.21526172555E+00 0.28046537018E+01 0.64016001231E+01
 0.96270729692E+01 0.11446118492E+02 0.11564841177E+02 0.10410533049E+02 0.87716118240E+01
 0.71897191733E+01 0.58415063983E+01 0.47952648334E+01 0.40573177201E+01 0.36082303590E+01
 0.34272015428E+01 0.35033652920E+01 0.38391127874E+01 0.44493077691E+01 0.53548596384E+01
 0.65656081206E+01 0.80498141486E+01 0.96965281631E+01 0.11215130134E+02 0.11880706845E+02
 0.11004540298E+02 0.84498678921E+01 0.90506381520E+01 0.62302259919E+01 0.37991495337E+01
 0.28046663977E+01 0.36893967649E+01 0.60555379348E+01 0.88774696852E+01 0.11029763653E+02
 0.11815948186E+02 0.11215599480E+02 0.97638651371E+01 0.81381087467E+01 0.66513033544E+01
 0.54223756810E+01 0.44913536839E+01 0.38525880676E+01 0.34851789943E+01 0.33712719746E+01
 0.35034178973E+01 0.38862562495E+01 0.45350406121E+01 0.54683204848E+01 0.66901269926E+01
 0.81606726246E+01 0.97636979521E+01 0.11215130134E+02 0.11861763393E+02 0.11147253653E+02
 0.11374354437E+02 0.98855846320E+01 0.79271001091E+01 0.64016096100E+01 0.60555562497E+01
 0.70726563855E+01 0.89701626965E+01 0.10862916573E+02 0.11928824437E+02 0.11798241527E+02
 0.10663815637E+02 0.90875191759E+01 0.75259867140E+01 0.61528939597E+01 0.50474300967E+01
 0.42274781827E+01 0.36799074915E+01 0.33846544058E+01 0.33273568843E+01 0.35035144424E+01
 0.39190593195E+01 0.45884350293E+01 0.55267983244E+01 0.67325286992E+01 0.81606726246E+01
 0.96965281631E+01 0.11089748198E+02 0.11792608105E+02 0.11641614294E+02 0.11587359617E+02
 0.10751973880E+02 0.96270661135E+01 0.88774829516E+01 0.89701812324E+01 0.98991442960E+01
 0.11183307139E+02 0.12138881470E+02 0.12252405763E+02 0.11430632953E+02 0.99996463972E+01
 0.84319318209E+01 0.69659923153E+01 0.57168652439E+01 0.47319167408E+01 0.40136585569E+01
 0.35456777128E+01 0.33104637022E+01 0.32972025177E+01 0.35036085685E+01 0.39358773553E+01
 0.46065624422E+01 0.55267983244E+01 0.66901269926E+01 0.80498141486E+01 0.94990487199E+01
 0.10837517586E+02 0.10460092725E+02 0.11372042374E+02 0.11678487776E+02 0.11446111490E+02
 0.11029759622E+02 0.10862929179E+02 0.11183319913E+02 0.11872597490E+02 0.12519324492E+02
 0.12664111157E+02 0.12067459382E+02 0.10836421090E+02 0.93326378598E+01 0.78347488858E+01
 0.64849436497E+01 0.53608912327E+01 0.44869669091E+01 0.38568033480E+01 0.34541565957E+01
 0.32650647914E+01 0.32818774428E+01 0.35036475750E+01 0.39358773553E+01 0.45884350293E+01
 0.54683204848E+01 0.65656081206E+01 0.78351947974E+01 0.91831281097E+01 0.87677530972E+01
 0.99693361085E+01 0.10960115018E+02 0.11564854485E+02 0.11815944950E+02 0.11928824640E+02
 0.12138889154E+02 0.12519327339E+02 0.12909313219E+02 0.13006672139E+02 0.12562943698E+02
 0.11549451350E+02 0.10184105218E+02 0.87249964104E+01 0.73304119121E+01 0.61047674880E+01
 0.50979898128E+01 0.43200342111E+01 0.37611986474E+01 0.34078354135E+01 0.32497925949E+01
 0.32818774428E+01 0.35036085685E+01 0.39190593195E+01 0.45350406121E+01 0.53548596384E+01
 0.63668482831E+01 0.75304951993E+01 0.71549153571E+01 0.82777064780E+01 0.93934753492E+01
 0.10410558420E+02 0.11215611372E+02 0.11798244512E+02 0.12252410570E+02 0.12664111627E+02
 0.13006664552E+02 0.13127712479E+02 0.12843603425E+02 0.12075281428E+02 0.10926631306E+02
 0.95904186989E+01 0.82228398705E+01 0.69479511844E+01 0.58420582870E+01 0.49369237598E+01
 0.42355518883E+01 0.37290995282E+01 0.34078354135E+01 0.32650647914E+01 0.32972025177E+01
 0.35035144424E+01 0.38862562495E+01 0.44493077691E+01 0.51932091613E+01 0.61063480755E+01
 0.58002605888E+01 0.67315715871E+01 0.77416380541E+01 0.87716286703E+01 0.97638807332E+01
 0.10663824163E+02 0.11430642479E+02 0.12067467773E+02 0.12562937665E+02 0.12843588827E+02
 0.12792752695E+02 0.12328890779E+02 0.11482523610E+02 0.10367057542E+02 0.91171585651E+01
 0.78647722269E+01 0.67093273904E+01 0.57079216737E+01 0.48826948945E+01 0.42355518883E+01
 0.37611986474E+01 0.34541565957E+01 0.33104637022E+01 0.33273568843E+01 0.35034178973E+01
 0.38391127874E+01 0.43359874544E+01 0.49930369841E+01 0.47662060815E+01 0.54670500700E+01
 0.62854944935E+01 0.71897264735E+01 0.81381164219E+01 0.90875214733E+01 0.99996505029E+01
 0.10836434596E+02 0.11549461138E+02 0.12075272243E+02 0.12328874925E+02 0.12234042879E+02
 0.11768748862E+02 0.10974738915E+02 0.99487546261E+01 0.88125078189E+01 0.76785028026E+01
 0.66282342378E+01 0.57079216737E+01 0.49369237598E+01 0.43200342111E+01 0.38568033480E+01
 0.35456777128E+01 0.33846544058E+01 0.33712719746E+01 0.35033652920E+01 0.37800367606E+01
 0.42014187157E+01 0.40531499043E+01 0.45258606711E+01 0.51259234793E+01 0.58415138657E+01
 0.66513092266E+01 0.75259841678E+01 0.84319224368E+01 0.93326371092E+01 0.10184117920E+02
 0.10926639919E+02 0.11482515555E+02 0.11768737038E+02 0.11723202802E+02 0.11331156246E+02
 0.10635662371E+02 0.97254536278E+01 0.87074052604E+01 0.76785028026E+01 0.67093273904E+01
 0.58420582870E+01 0.50979898128E+01 0.44869669091E+01 0.40136585569E+01 0.36799074915E+01
 0.34851789943E+01 0.34272015428E+01 0.35033668507E+01 0.37121108833E+01 0.36389472388E+01
 0.38994163253E+01 0.42853730901E+01 0.47952681304E+01 0.54223827164E+01 0.61528976600E+01
 0.69659833173E+01 0.78347333758E+01 0.87249907407E+01 0.95904256009E+01 0.10367063064E+02
 0.10974735000E+02 0.11331150692E+02 0.11375834097E+02 0.11092438133E+02 0.10516725254E+02
 0.97254536278E+01 0.88125078189E+01 0.78647722269E+01 0.69479511844E+01 0.61047674880E+01
 0.53608912327E+01 0.47319167408E+01 0.42274781827E+01 0.38525880676E+01 0.36082303590E+01
 0.34926617619E+01 0.35033946850E+01 0.35034090044E+01 0.35644725022E+01 0.37485214414E+01
 0.40573072878E+01 0.44913505323E+01 0.50474347810E+01 0.57168672742E+01 0.64849347925E+01
 0.73303969080E+01 0.82228296092E+01 0.91171569088E+01 0.99487566202E+01 0.10635662812E+02
 0.11092437096E+02 0.11253025714E+02 0.11092438133E+02 0.10635662371E+02 0.99487546261E+01
 0.91171585651E+01 0.82228398705E+01 0.73304119121E+01 0.64849436497E+01 0.57168652439E+01
 0.50474300967E+01 0.44913536839E+01 0.40573177201E+01 0.37485306169E+01 0.35644762025E+01
 0.36389440883E+01 0.35033917344E+01 0.34926519221E+01 0.36082125637E+01 0.38525713773E+01
 0.42274705606E+01 0.47319169086E+01 0.53608928320E+01 0.61047647676E+01 0.69479412358E+01
 0.78647582891E+01 0.88124986390E+01 0.97254533156E+01 0.10516727524E+02 0.11092437096E+02
 0.11375834097E+02 0.11331156246E+02 0.10974738915E+02 0.10367057542E+02 0.95904186989E+01
 0.87249964104E+01 0.78347488858E+01 0.69659923153E+01 0.61528939597E+01 0.54223756810E+01
 0.47952648334E+01 0.42853703609E+01 0.38994118416E+01 0.40531333903E+01 0.37121030343E+01
 0.35033615084E+01 0.34271892383E+01 0.34851621147E+01 0.36798933731E+01 0.40136483378E+01
 0.44869611255E+01 0.50979921111E+01 0.58420639932E+01 0.67093230407E+01 0.76784867894E+01
 0.87073931000E+01 0.97254533156E+01 0.10635662812E+02 0.11331150692E+02 0.11723202802E+02
 0.11768748862E+02 0.11482523610E+02 0.10926631306E+02 0.10184105218E+02 0.93326378598E+01
 0.84319318209E+01 0.75259867140E+01 0.66513033544E+01 0.58415063983E+01 0.51259127366E+01
 0.45258432543E+01 0.47661790849E+01 0.42013975884E+01 0.37800278765E+01 0.35033584615E+01
 0.33712623889E+01 0.33846480852E+01 0.35456728854E+01 0.38567918049E+01 0.43200227124E+01
 0.49369270955E+01 0.57079332604E+01 0.66282322628E+01 0.76784867894E+01 0.88124986390E+01
 0.99487566202E+01 0.10974735000E+02 0.11768737038E+02 0.12234042879E+02 0.12328890779E+02
 0.12075281428E+02 0.11549451350E+02 0.10836421090E+02 0.99996463972E+01 0.90875191759E+01
 0.81381087467E+01 0.71897191733E+01 0.62854877742E+01 0.54670330605E+01 0.58002411488E+01
 0.49930104912E+01 0.43359715794E+01 0.38391063016E+01 0.35034104998E+01 0.33273542682E+01
 0.33104730809E+01 0.34541628033E+01 0.37611865009E+01 0.42355368734E+01 0.48826987056E+01
 0.57079332604E+01 0.67093230407E+01 0.78647582891E+01 0.91171569088E+01 0.10367063064E+02
 0.11482515555E+02 0.12328874925E+02 0.12792752695E+02 0.12843603425E+02 0.12562943698E+02
 0.12067459382E+02 0.11430632953E+02 0.10663815637E+02 0.97638651371E+01 0.87716118240E+01
 0.77416311894E+01 0.67315661535E+01 0.71549114898E+01 0.61063318312E+01 0.51931942261E+01
 0.44493052557E+01 0.38862540785E+01 0.35035071223E+01 0.32972079917E+01 0.32650879057E+01
 0.34078489048E+01 0.37290872067E+01 0.42355368734E+01 0.49369270955E+01 0.58420639932E+01
 0.69479412358E+01 0.82228296092E+01 0.95904256009E+01 0.10926639919E+02 0.12075272243E+02
 0.12843588827E+02 0.13127712479E+02 0.13006672139E+02 0.12664111157E+02 0.12252405763E+02
 0.11798241527E+02 0.11215599480E+02 0.10410533049E+02 0.93934548867E+01 0.82777023486E+01
 0.87677535696E+01 0.75304931827E+01 0.63668405254E+01 0.53548635951E+01 0.45350545112E+01
 0.39190614231E+01 0.35036015464E+01 0.32818882705E+01 0.32498211306E+01 0.34078489048E+01
 0.37611865009E+01 0.43200227124E+01 0.50979921111E+01 0.61047647676E+01 0.73303969080E+01
 0.87249907407E+01 0.10184117920E+02 0.11549461138E+02 0.12562937665E+02 0.13006664552E+02
 0.12909313219E+02 0.12519324492E+02 0.12138881470E+02 0.11928824437E+02 0.11815948186E+02
 0.11564841177E+02 0.10960087509E+02 0.99693197797E+01 0.10460087365E+02 0.91831339791E+01
 0.78351948413E+01 0.65656113444E+01 0.54683436201E+01 0.45884621522E+01 0.39358820473E+01
 0.35036407009E+01 0.32818882705E+01 0.32650879057E+01 0.34541628033E+01 0.38567918049E+01
 0.44869611255E+01 0.53608928320E+01 0.64849347925E+01 0.78347333758E+01 0.93326371092E+01
 0.10836434596E+02 0.12067467773E+02 0.12664111627E+02 0.12519327339E+02 0.11872597490E+02
 0.11183307139E+02 0.10862916573E+02 0.11029763653E+02 0.11446118492E+02 0.11678475808E+02
 0.11372021680E+02 0.11641607292E+02 0.10837526556E+02 0.94990595178E+01 0.80498160911E+01
 0.66901394160E+01 0.55268334336E+01 0.46065946046E+01 0.39358820473E+01 0.35036015464E+01
 0.32972079917E+01 0.33104730809E+01 0.35456728854E+01 0.40136483378E+01 0.47319169086E+01
 0.57168672742E+01 0.69659833173E+01 0.84319224368E+01 0.99996505029E+01 0.11430642479E+02
 0.12252410570E+02 0.12138889154E+02 0.11183319913E+02 0.98991442960E+01 0.89701626965E+01
 0.88774696852E+01 0.96270729692E+01 0.10751981559E+02 0.11587351868E+02 0.11374352800E+02
 0.11792616977E+02 0.11089770265E+02 0.96965423587E+01 0.81606757326E+01 0.67325447012E+01
 0.55268334336E+01 0.45884621522E+01 0.39190614231E+01 0.35035071223E+01 0.33273542682E+01
 0.33846480852E+01 0.36798933731E+01 0.42274705606E+01 0.50474347810E+01 0.61528976600E+01
 0.75259841678E+01 0.90875214733E+01 0.10663824163E+02 0.11798244512E+02 0.11928824640E+02
 0.10862929179E+02 0.89701812324E+01 0.70726563855E+01 0.60555379348E+01 0.64016001231E+01
 0.79271080360E+01 0.98855906317E+01 0.90506415360E+01 0.11147258055E+02 0.11861784763E+02
 0.11215159941E+02 0.97637133531E+01 0.81606757326E+01 0.66901394160E+01 0.54683436201E+01
 0.45350545112E+01 0.38862540785E+01 0.35034104998E+01 0.33712623889E+01 0.34851621147E+01
 0.38525713773E+01 0.44913505323E+01 0.54223827164E+01 0.66513092266E+01 0.81381164219E+01
 0.97638807332E+01 0.11215611372E+02 0.11815944950E+02 0.11029759622E+02 0.88774829516E+01
 0.60555562497E+01 0.36893967649E+01 0.28046537018E+01 0.37991467823E+01 0.62302335913E+01
 0.48631096552E+01 0.84498691029E+01 0.11004548450E+02 0.11880732935E+02 0.11215159941E+02
 0.96965423587E+01 0.80498160911E+01 0.65656113444E+01 0.53548635951E+01 0.44493052557E+01
 0.38391063016E+01 0.35033584615E+01 0.34271892383E+01 0.36082125637E+01 0.40573072878E+01
 0.47952681304E+01 0.58415138657E+01 0.71897264735E+01 0.87716286703E+01 0.10410558420E+02
 0.11564854485E+02 0.11446111490E+02 0.96270661135E+01 0.64016096100E+01 0.28046663977E+01
 0.21526172555E+00 -.29216760565E+00 0.15056813022E+01 -.67359086928E-01 0.41010621473E+01
 0.82315264577E+01 0.11004548450E+02 0.11861784763E+02 0.11089770265E+02 0.94990595178E+01
 0.78351948413E+01 0.63668405254E+01 0.51931942261E+01 0.43359715794E+01 0.37800278765E+01
 0.35033615084E+01 0.34926519221E+01 0.37485214414E+01 0.42853730901E+01 0.51259234793E+01
 0.62854944935E+01 0.77416380541E+01 0.93934753492E+01 0.10960115018E+02 0.11678487776E+02
 0.10751973880E+02 0.79271001091E+01 0.37991495337E+01 -.29216343627E+00 -.28038908097E+01
 -.27205141603E+01 -.40548550993E+01 -.62702895853E+00 0.41010621473E+01 0.84498691029E+01
 0.11147258055E+02 0.11792616977E+02 0.10837526556E+02 0.91831339791E+01 0.75304931827E+01
 0.61063318312E+01 0.49930104912E+01 0.42013975884E+01 0.37121030343E+01 0.35033917344E+01
 0.35644725022E+01 0.38994163253E+01 0.45258606711E+01 0.54670500700E+01 0.67315715871E+01
 0.82777064780E+01 0.99693361085E+01 0.11372042374E+02 0.11587359617E+02 0.98855846320E+01
 0.62302259919E+01 0.15056767480E+01 -.27205181495E+01 -.48580513486E+01 -.40547486737E+01
 -.29392295626E+01 0.54395383886E+00 0.50461395008E+01 0.89749146196E+01 0.11209049933E+02
 0.11490004421E+02 0.10346007674E+02 0.86674567535E+01 0.70526518835E+01 0.56857450701E+01
 0.46326650843E+01 0.38958348466E+01 0.34528509051E+01 0.32817723464E+01 0.33728691862E+01
 0.37318737215E+01 0.43780330699E+01 0.53349635483E+01 0.66090578682E+01 0.81535790940E+01
 0.98251628217E+01 0.11158522995E+02 0.11271936233E+02 0.95093776729E+01 0.59247044306E+01
 0.14558344864E+01 -.23603111965E+01 -.29392337856E+01 -.40547560873E+01 -.23603275053E+01
 0.14558020073E+01 0.59246697312E+01 0.95093544189E+01 0.11271910163E+02 0.11158479182E+02
 0.98251215603E+01 0.81535670902E+01 0.66090619513E+01 0.53349530816E+01 0.43780113550E+01
 0.37318655685E+01 0.33728737556E+01 0.32817721985E+01 0.34528536550E+01 0.38958602752E+01
 0.46327015237E+01 0.56857635840E+01 0.70526562131E+01 0.86674764131E+01 0.10346047543E+02
 0.11490041692E+02 0.11209075522E+02 0.89749389130E+01 0.50461618135E+01 0.54396206713E+00
 0.65723062447E+00 -.22390478598E+01 -.27204344103E+01 -.61226628800E+00 0.32106025717E+01
 0.72700007943E+01 0.10195204643E+02 0.11297152666E+02 0.10731180793E+02 0.92386549420E+01
 0.76080346879E+01 0.61546758672E+01 0.49876070529E+01 0.41349010631E+01 0.35831921558E+01
 0.33091850936E+01 0.32971242430E+01 0.35454252918E+01 0.40673076543E+01 0.48861726238E+01
 0.60215786021E+01 0.74612951204E+01 0.91217601142E+01 0.10776999506E+02 0.11747742836E+02
 0.11198573446E+02 0.87498372107E+01 0.48310128907E+01 0.53381586950E+01 0.17814635507E+01
 -.38491470799E+00 -.29211594618E+00 0.19854599908E+01 0.54733026527E+01 0.87973555048E+01
 0.10841472244E+02 0.11196724708E+02 0.10201576729E+02 0.86213625524E+01 0.70585327859E+01
 0.57125276567E+01 0.46608020856E+01 0.39149128417E+01 0.34567770558E+01 0.32648555333E+01
 0.33273291430E+01 0.36464098382E+01 0.42378724875E+01 0.51251903767E+01 0.63236563169E+01
 0.78110822135E+01 0.94896670505E+01 0.11102517077E+02 0.11952583800E+02 0.11301167493E+02
 0.89149174762E+01 0.94507905779E+01 0.64735419866E+01 0.37092733329E+01 0.22918334283E+01
 0.28046721454E+01 0.49775130508E+01 0.78350681055E+01 0.10204399179E+02 0.11276512996E+02
 0.10915446448E+02 0.95907963750E+01 0.80040994796E+01 0.65311382941E+01 0.53033502124E+01
 0.43694557433E+01 0.37279100476E+01 0.33583553326E+01 0.32421117479E+01 0.33713090460E+01
 0.37512439377E+01 0.43990159821E+01 0.53366408300E+01 0.65740499526E+01 0.80799902158E+01
 0.97473814447E+01 0.11310112454E+02 0.12110178147E+02 0.11526780688E+02 0.11829260843E+02
 0.10241976708E+02 0.80130000553E+01 0.60888563302E+01 0.53296742936E+01 0.60555231652E+01
 0.78757729072E+01 0.99073329085E+01 0.11243846488E+02 0.11393771535E+02 0.10451867073E+02
 0.89499291202E+01 0.74143647714E+01 0.60492547840E+01 0.49447173115E+01 0.41257052204E+01
 0.35816197826E+01 0.32921328303E+01 0.32421274635E+01 0.34273029374E+01 0.38550260165E+01
 0.45423092752E+01 0.55082533538E+01 0.67568427999E+01 0.82496018112E+01 0.98760598022E+01
 0.11386374651E+02 0.12203957613E+02 0.12198427302E+02 0.12118996499E+02 0.11106995011E+02
 0.96569411908E+01 0.85056804079E+01 0.82405004921E+01 0.89701209710E+01 0.10265303688E+02
 0.11406255246E+02 0.11778562351E+02 0.11177959553E+02 0.98624534833E+01 0.83300893341E+01
 0.68781703815E+01 0.56328406004E+01 0.46505627510E+01 0.39386089727E+01 0.34814244542E+01
 0.32606203600E+01 0.32648952514E+01 0.34928097528E+01 0.39526055276E+01 0.46597908656E+01
 0.56293772938E+01 0.68594563053E+01 0.83069360310E+01 0.98640301232E+01 0.11317222322E+02
 0.11092656096E+02 0.12051503097E+02 0.12289535232E+02 0.11845898232E+02 0.11102249544E+02
 0.10575942025E+02 0.10614456654E+02 0.11183250216E+02 0.11886427501E+02 0.12206233535E+02
 0.11805210757E+02 0.10704986215E+02 0.92446384387E+01 0.77634796368E+01 0.64190334840E+01
 0.52979974945E+01 0.44310882279E+01 0.38141716731E+01 0.34303986679E+01 0.32646459776E+01
 0.33092296673E+01 0.35646388708E+01 0.40387756800E+01 0.47444310201E+01 0.56918449402E+01
 0.68739642441E+01 0.82461505022E+01 0.97087963048E+01 0.94182714149E+01 0.10714220658E+02
 0.11731739864E+02 0.12250172441E+02 0.12292050075E+02 0.12112451633E+02 0.12027919008E+02
 0.12199854904E+02 0.12519266390E+02 0.12673643242E+02 0.12350734130E+02 0.11442200695E+02
 0.10116930695E+02 0.86707685882E+01 0.72805453972E+01 0.60571378082E+01 0.50569011289E+01
 0.42930062064E+01 0.37556490662E+01 0.34295598818E+01 0.33035268100E+01 0.33729002747E+01
 0.36390840288E+01 0.41085934378E+01 0.47907058316E+01 0.56908534320E+01 0.67982206575E+01
 0.80697568348E+01 0.77889297234E+01 0.90106869264E+01 0.10201998280E+02 0.11234520332E+02
 0.11954759641E+02 0.12353970418E+02 0.12568061790E+02 0.12751301239E+02 0.12939766126E+02
 0.13006624581E+02 0.12745150438E+02 0.12021336457E+02 0.10888046402E+02 0.95523745351E+01
 0.81839329680E+01 0.69090265968E+01 0.58087215201E+01 0.49179815136E+01 0.42400049495E+01
 0.37640224811E+01 0.34782330539E+01 0.33753217884E+01 0.34528418779E+01 0.37121886974E+01
 0.41577949773E+01 0.47952087561E+01 0.56257032925E+01 0.66365140526E+01 0.63994700278E+01
 0.74226286394E+01 0.85129390370E+01 0.95950054325E+01 0.10591484376E+02 0.11418168970E+02
 0.12036160813E+02 0.12485055753E+02 0.12804208688E+02 0.12959743020E+02 0.12843572317E+02
 0.12350618117E+02 0.11477121931E+02 0.10341572856E+02 0.90801785804E+01 0.78231813630E+01
 0.66719659342E+01 0.56856414228E+01 0.48862190485E+01 0.42732758781E+01 0.38384783029E+01
 0.35743847130E+01 0.34770559018E+01 0.35453655716E+01 0.37800426721E+01 0.41832300595E+01
 0.47571657579E+01 0.55001782284E+01 0.53223849979E+01 0.61030749306E+01 0.69955656062E+01
 0.79576177077E+01 0.89341300905E+01 0.98687972031E+01 0.10715579782E+02 0.11434076134E+02
 0.11998757138E+02 0.12379723941E+02 0.12514627719E+02 0.12328875658E+02 0.11794156020E+02
 0.10954417044E+02 0.99010330714E+01 0.87523272337E+01 0.76201447743E+01 0.65860397142E+01
 0.56950317866E+01 0.49634093500E+01 0.43919166462E+01 0.39767097183E+01 0.37147849945E+01
 0.36048232539E+01 0.36463104066E+01 0.38390515293E+01 0.41832214298E+01 0.46787033075E+01
 0.45647590789E+01 0.51039955134E+01 0.57669365413E+01 0.65354076355E+01 0.73793858807E+01
 0.82594444826E+01 0.91333380308E+01 0.99615534729E+01 0.10705719468E+02 0.11319955251E+02
 0.11744269643E+02 0.11911339873E+02 0.11768745349E+02 0.11305055640E+02 0.10562698155E+02
 0.96285736429E+01 0.86078845770E+01 0.75958404377E+01 0.66602352273E+01 0.58390012968E+01
 0.51482573319E+01 0.45930366195E+01 0.41748995323E+01 0.38949175437E+01 0.37537385242E+01
 0.37511229188E+01 0.38861450487E+01 0.41577680606E+01 0.41085460342E+01 0.44226115683E+01
 0.48590002715E+01 0.54121270379E+01 0.60698286050E+01 0.68115354719E+01 0.76093123939E+01
 0.84309730469E+01 0.92416353152E+01 0.10000475476E+02 0.10654574791E+02 0.11137508609E+02
 0.11379941194E+02 0.11331159590E+02 0.10980674254E+02 0.10366646630E+02 0.95655063283E+01
 0.86686073656E+01 0.77584506609E+01 0.68949429355E+01 0.61143347317E+01 0.54361912030E+01
 0.48714643694E+01 0.44273476385E+01 0.41086630693E+01 0.39177909876E+01 0.38549053316E+01
 0.39189197912E+01 0.39357289563E+01 0.40387067151E+01 0.42611072495E+01 0.46022242219E+01
 0.50590667801E+01 0.56240251013E+01 0.62833928407E+01 0.70176128508E+01 0.78023079678E+01
 0.86074304858E+01 0.93928955057E+01 0.10103397168E+02 0.10669045166E+02 0.11017057427E+02
 0.11092445269E+02 0.10877882079E+02 0.10401465508E+02 0.97276391120E+01 0.89364283811E+01
 0.81022075354E+01 0.72815206319E+01 0.65121639027E+01 0.58188557711E+01 0.52190866987E+01
 0.47258482891E+01 0.43478961484E+01 0.40897256672E+01 0.39525045377E+01 0.40387065846E+01
 0.39357352557E+01 0.39525178185E+01 0.40897463613E+01 0.43479169558E+01 0.47258642341E+01
 0.52191070800E+01 0.58188879509E+01 0.65121929734E+01 0.72815273518E+01 0.81021994927E+01
 0.89364289359E+01 0.97276514198E+01 0.10401473547E+02 0.10877881961E+02 0.11092446967E+02
 0.11017058415E+02 0.10669032306E+02 0.10103375254E+02 0.93928846651E+01 0.86074319735E+01
 0.78022999643E+01 0.70175852028E+01 0.62833609046E+01 0.56240034722E+01 0.50590522809E+01
 0.46022111126E+01 0.42610989914E+01 0.44226174157E+01 0.41085595272E+01 0.39189362918E+01
 0.38549281402E+01 0.39178216608E+01 0.41086890367E+01 0.44273598528E+01 0.48714766362E+01
 0.54362183319E+01 0.61143629189E+01 0.68949487989E+01 0.77584392030E+01 0.86686020254E+01
 0.95655107271E+01 0.10366646814E+02 0.10980670539E+02 0.11331163157E+02 0.11379944382E+02
 0.11137492268E+02 0.10654543576E+02 0.10000454029E+02 0.92416290885E+01 0.84309626691E+01
 0.76092883310E+01 0.68115104320E+01 0.60698132257E+01 0.54121183957E+01 0.48589968119E+01
 0.51040030794E+01 0.45647792959E+01 0.41577918364E+01 0.38861654751E+01 0.37511498969E+01
 0.37537759355E+01 0.38949453430E+01 0.41749038848E+01 0.45930372236E+01 0.51482762606E+01
 0.58390250637E+01 0.66602387633E+01 0.75958290847E+01 0.86078791443E+01 0.96285720930E+01
 0.10562687077E+02 0.11305043344E+02 0.11768746995E+02 0.11911342805E+02 0.11744249808E+02
 0.11319918336E+02 0.10705691910E+02 0.99615410902E+01 0.91333253238E+01 0.82594271610E+01
 0.73793740965E+01 0.65354037105E+01 0.57669360979E+01 0.61030825616E+01 0.53224039936E+01
 0.46787359018E+01 0.41832489881E+01 0.38390681211E+01 0.36463359239E+01 0.36048629243E+01
 0.37148104454E+01 0.39767046343E+01 0.43919065943E+01 0.49634190231E+01 0.56950463768E+01
 0.65860376912E+01 0.76201357045E+01 0.87523256879E+01 0.99010265609E+01 0.10954393154E+02
 0.11794132789E+02 0.12328871354E+02 0.12514625887E+02 0.12379700940E+02 0.11998721459E+02
 0.11434050302E+02 0.10715565146E+02 0.98687845598E+01 0.89341237454E+01 0.79576231489E+01
 0.69955741281E+01 0.74226461608E+01 0.63994835018E+01 0.55002073585E+01 0.47572060682E+01
 0.41832537171E+01 0.37800490782E+01 0.35453848039E+01 0.34770918623E+01 0.35744031499E+01
 0.38384651757E+01 0.42732599057E+01 0.48862199467E+01 0.56856423102E+01 0.66719549158E+01
 0.78231744422E+01 0.90801809679E+01 0.10341561301E+02 0.11477087445E+02 0.12350586265E+02
 0.12843560110E+02 0.12959733029E+02 0.12804185073E+02 0.12485030088E+02 0.12036144954E+02
 0.11418157024E+02 0.10591476301E+02 0.95950140416E+01 0.85129615620E+01 0.90107217606E+01
 0.77889497517E+01 0.66365297555E+01 0.56257388990E+01 0.47952499354E+01 0.41578084354E+01
 0.37121822237E+01 0.34528514727E+01 0.33753472091E+01 0.34782401850E+01 0.37640047447E+01
 0.42399890641E+01 0.49179750122E+01 0.58087066412E+01 0.69090051241E+01 0.81839261015E+01
 0.95523771615E+01 0.10888029680E+02 0.12021297827E+02 0.12745116855E+02 0.13006606093E+02
 0.12939748513E+02 0.12751282462E+02 0.12568054122E+02 0.12353970089E+02 0.11954754645E+02
 0.11234521718E+02 0.10202023416E+02 0.10714259750E+02 0.94183102636E+01 0.80697721951E+01
 0.67982343681E+01 0.56908894233E+01 0.47907402162E+01 0.41085938206E+01 0.36390663720E+01
 0.33728987441E+01 0.33035356995E+01 0.34295529982E+01 0.37556304826E+01 0.42929948434E+01
 0.50568890264E+01 0.60571093237E+01 0.72805156536E+01 0.86707592927E+01 0.10116928531E+02
 0.11442180137E+02 0.12350700718E+02 0.12673617236E+02 0.12519246729E+02 0.12199834892E+02
 0.12027912094E+02 0.12112466274E+02 0.12292066095E+02 0.12250176415E+02 0.11731753558E+02
 0.12051527962E+02 0.11092702196E+02 0.97088298197E+01 0.82461557637E+01 0.68739719217E+01
 0.56918737164E+01 0.47444519299E+01 0.40387641217E+01 0.35646151198E+01 0.33092176052E+01
 0.32646354271E+01 0.34303778363E+01 0.38141548221E+01 0.44310824446E+01 0.52979818016E+01
 0.64189979882E+01 0.77634476511E+01 0.92446258086E+01 0.10704976197E+02 0.11805190122E+02
 0.12206214926E+02 0.11886417511E+02 0.11183236178E+02 0.10614442265E+02 0.10575952655E+02
 0.11102285152E+02 0.11845926339E+02 0.12289547070E+02 0.12119012072E+02 0.12198457780E+02
 0.11317265676E+02 0.98640508130E+01 0.83069292142E+01 0.68594549705E+01 0.56293916282E+01
 0.46597942298E+01 0.39525861592E+01 0.34927861873E+01 0.32648752600E+01 0.32605922572E+01
 0.34813932108E+01 0.39385947872E+01 0.46505603163E+01 0.56328235199E+01 0.68781372620E+01
 0.83300634837E+01 0.98624394416E+01 0.11177942912E+02 0.11778547473E+02 0.11406258172E+02
 0.10265314174E+02 0.89701182611E+01 0.82404988838E+01 0.85057097977E+01 0.96569905227E+01
 0.11107027209E+02 0.10242003769E+02 0.11829274154E+02 0.12203985098E+02 0.11386405491E+02
 0.98760642506E+01 0.82495848841E+01 0.67568314355E+01 0.55082487035E+01 0.45422946604E+01
 0.38550040233E+01 0.34272846003E+01 0.32421036015E+01 0.32920940444E+01 0.35815849009E+01
 0.41256936900E+01 0.49447145168E+01 0.60492387707E+01 0.74143433782E+01 0.89499174610E+01
 0.10451856067E+02 0.11393753796E+02 0.11243843456E+02 0.99073588714E+01 0.78758025833E+01
 0.60555338158E+01 0.53296881452E+01 0.60888995528E+01 0.80130517020E+01 0.64735836040E+01
 0.94508049179E+01 0.11526785840E+02 0.12110193709E+02 0.11310123864E+02 0.97473709995E+01
 0.80799682819E+01 0.65740300947E+01 0.53366171988E+01 0.43989868382E+01 0.37512237515E+01
 0.33712981182E+01 0.32420885141E+01 0.33583160199E+01 0.37278801905E+01 0.43694471545E+01
 0.53033443587E+01 0.65311260460E+01 0.80040962381E+01 0.95908038058E+01 0.10915443600E+02
 0.11276501589E+02 0.10204411742E+02 0.78351124752E+01 0.49775550009E+01 0.28046933020E+01
 0.22918591900E+01 0.37093200734E+01 0.17815011300E+01 0.53381806971E+01 0.89149155876E+01
 0.11301160856E+02 0.11952581208E+02 0.11102506904E+02 0.94896468523E+01 0.78110616697E+01
 0.63236318820E+01 0.51251528833E+01 0.42378356190E+01 0.36463942787E+01 0.33273247255E+01
 0.32648367152E+01 0.34567476535E+01 0.39148963264E+01 0.46607978226E+01 0.57125188373E+01
 0.70585269917E+01 0.86213790821E+01 0.10201603085E+02 0.11196733297E+02 0.10841472960E+02
 0.87973828525E+01 0.54733555462E+01 0.19855036019E+01 -.29209127381E+00 -.38488586937E+00
 -.22390268550E+01 0.65724810827E+00 0.48310113414E+01 0.87498208626E+01 0.11198555217E+02
 0.11747720779E+02 0.10776970811E+02 0.91217370201E+01 0.74612813925E+01 0.60215547689E+01
 0.48861303781E+01 0.40672719588E+01 0.35454157698E+01 0.32971235222E+01 0.33091730066E+01
 0.35831802350E+01 0.41349033395E+01 0.49876092965E+01 0.61546671373E+01 0.76080374533E+01
 0.92386876885E+01 0.10731220571E+02 0.11297172232E+02 0.10195218723E+02 0.72700368458E+01
 0.32106512993E+01 -.61223218489E+00 -.27204148584E+01 -.67123420734E-01 0.65739336507E+00
 0.33498357729E+01 0.69217381534E+01 0.10025615836E+02 0.11685039671E+02 0.11663018253E+02
 0.10419321358E+02 0.87404386215E+01 0.71357695406E+01 0.57709218889E+01 0.47084240495E+01
 0.39510090464E+01 0.34771907313E+01 0.32650901577E+01 0.33035973162E+01 0.35955737359E+01
 0.41568393491E+01 0.50095927279E+01 0.61652647017E+01 0.75943220298E+01 0.91900486216E+01
 0.10661866361E+02 0.11292323512E+02 0.10424632363E+02 0.79578043144E+01 0.45548153062E+01
 0.14559539698E+01 0.54411887986E+00 -.62676629523E+00 0.54411627117E+00 0.35634058394E+01
 0.72071447536E+01 0.10132469238E+02 0.11486515094E+02 0.11193950406E+02 0.98280611073E+01
 0.81770956621E+01 0.66503738331E+01 0.53830136731E+01 0.44210586734E+01 0.37594110190E+01
 0.33754385100E+01 0.32498125733E+01 0.33754230558E+01 0.37594095270E+01 0.44210647239E+01
 0.53829905964E+01 0.66503289580E+01 0.81770789917E+01 0.98280825128E+01 0.11193965091E+02
 0.11486501204E+02 0.10132456325E+02 0.72071535907E+01 0.35634187565E+01 0.33498392620E+01
 0.65740098578E+00 -.67108515600E-01 0.14559542652E+01 0.45547941953E+01 0.79577967940E+01