unknown system                          
   1.00000000000000     
     0.000000    2.715000    2.715000
     2.715000    0.000000    2.715000
     2.715000    2.715000    0.000000
   Si
     2
Direct
  0.500000  0.500000  0.500000
  0.750000  0.750000  0.750000
 
   28   28   28
 0.88911     0.91613     0.99946      1.1462      1.3682      1.6814      2.1015      2.6382      3.2870      4.0232    
  4.7977      5.5383      6.1587      6.5736      6.7197      6.5736      6.1587      5.5384      4.7977      4.0232    
  3.2870      2.6381      2.1015      1.6814      1.3682      1.1462     0.99946     0.91613     0.91613     0.96171    
  1.0563      1.2071      1.4245      1.7207      2.1059      2.5822      3.1380      3.7437      4.3504      4.8946    
  5.3079      5.5316      5.5316      5.3079      4.8946      4.3504      3.7437      3.1380      2.5821      2.1059    
  1.7207      1.4245      1.2071      1.0563     0.96171     0.91613     0.99946      1.0563      1.1556      1.3042    
  1.5106      1.7834      2.1272      2.5385      3.0008      3.4831      3.9405      4.3206      4.5733      4.6620    
  4.5733      4.3206      3.9405      3.4831      3.0008      2.5385      2.1272      1.7834      1.5106      1.3042    
  1.1556      1.0563     0.99947     0.98097      1.1462      1.2071      1.3042      1.4437      1.6322      1.8747    
  2.1714      2.5147      2.8860      3.2556      3.5851      3.8342      3.9686      3.9686      3.8342      3.5851    
  3.2556      2.8860      2.5147      2.1714      1.8747      1.6322      1.4437      1.3042      1.2071      1.1462    
  1.1169      1.1169      1.3682      1.4245      1.5106      1.6322      1.7940      1.9980      2.2415      2.5147    
  2.7990      3.0683      3.2918      3.4403      3.4923      3.4403      3.2918      3.0683      2.7991      2.5147    
  2.2415      1.9980      1.7939      1.6322      1.5106      1.4245      1.3682      1.3368      1.3268      1.3368    
  1.6814      1.7207      1.7834      1.8747      1.9980      2.1536      2.3372      2.5385      2.7408      2.9227    
  3.0609      3.1358      3.1358      3.0609      2.9227      2.7408      2.5385      2.3372      2.1536      1.9980    
  1.8747      1.7834      1.7207      1.6814      1.6596      1.6501      1.6501      1.6596      2.1015      2.1059    
  2.1272      2.1714      2.2415      2.3372      2.4539      2.5822      2.7084      2.8160      2.8888      2.9145    
  2.8888      2.8160      2.7084      2.5821      2.4538      2.3372      2.2416      2.1714      2.1272      2.1059    
  2.1015      2.1066      2.1136      2.1166      2.1136      2.1066      2.6382      2.5822      2.5385      2.5147    
  2.5147      2.5385      2.5822      2.6382      2.6959      2.7436      2.7706      2.7706      2.7436      2.6959    
  2.6381      2.5821      2.5385      2.5147      2.5147      2.5385      2.5821      2.6381      2.6959      2.7436    
  2.7706      2.7706      2.7436      2.6959      3.2870      3.1380      3.0008      2.8860      2.7990      2.7408    
  2.7084      2.6959      2.6957      2.6996      2.7017      2.6997      2.6957      2.6959      2.7084      2.7408    
  2.7991      2.8861      3.0008      3.1380      3.2870      3.4326      3.5562      3.6396      3.6691      3.6396    
  3.5562      3.4326      4.0232      3.7437      3.4831      3.2556      3.0683      2.9227      2.8160      2.7436    
  2.6996      2.6792      2.6792      2.6996      2.7436      2.8160      2.9227      3.0684      3.2556      3.4831    
  3.7436      4.0232      4.3000      4.5465      4.7328      4.8335      4.8335      4.7328      4.5465      4.3000    
  4.7977      4.3504      3.9405      3.5851      3.2918      3.0609      2.8888      2.7706      2.7017      2.6792    
  2.7017      2.7705      2.8888      3.0609      3.2919      3.5852      3.9405      4.3504      4.7976      5.2535    
  5.6789      6.0286      6.2596      6.3405      6.2596      6.0286      5.6789      5.2535      5.5383      4.8946    
  4.3206      3.8342      3.4403      3.1358      2.9145      2.7706      2.6997      2.6996      2.7705      2.9145    
  3.1358      3.4403      3.8343      4.3206      4.8945      5.5383      6.2175      6.8809      7.4648      7.9025    
  8.1376      8.1376      7.9025      7.4648      6.8809      6.2175      6.1587      5.3079      4.5733      3.9686    
  3.4923      3.1358      2.8888      2.7436      2.6957      2.7436      2.8888      3.1358      3.4924      3.9687    
  4.5733      5.3078      6.1586      7.0903      8.0424      8.9322      9.6645      10.148      10.318      10.148    
  9.6644      8.9321      8.0424      7.0903      6.5736      5.5316      4.6620      3.9686      3.4403      3.0609    
  2.8160      2.6959      2.6959      2.8160      3.0609      3.4403      3.9687      4.6620      5.5316      6.5735    
  7.7588      9.0253      10.276      11.389      12.229      12.683      12.683      12.229      11.389      10.276    
  9.0253      7.7589      6.7197      5.5316      4.5733      3.8342      3.2918      2.9227      2.7084      2.6381    
  2.7084      2.9227      3.2919      3.8343      4.5733      5.5316      6.7196      8.1228      9.6883      11.317    
  12.866      14.161      15.027      15.331      15.027      14.161      12.866      11.317      9.6882      8.1229    
  6.5736      5.3079      4.3206      3.5851      3.0683      2.7408      2.5821      2.5821      2.7408      3.0684    
  3.5852      4.3206      5.3078      6.5735      8.1228      9.9229      11.888      13.873      15.674      17.044    
  17.780      17.780      17.044      15.674      13.873      11.888      9.9228      8.1229      6.1587      4.8946    
  3.9405      3.2556      2.7991      2.5385      2.4538      2.5385      2.7991      3.2556      3.9405      4.8945    
  6.1586      7.7588      9.6883      11.888      14.231      16.507      18.406      19.657      20.092      19.657    
  18.406      16.507      14.231      11.888      9.6882      7.7588      5.5384      4.3504      3.4831      2.8860    
  2.5147      2.3372      2.3372      2.5147      2.8861      3.4831      4.3504      5.5383      7.0903      9.0253    
  11.317      13.873      16.507      18.887      20.673      21.626      21.626      20.673      18.887      16.507    
  13.873      11.317      9.0253      7.0903      4.7977      3.7437      3.0008      2.5147      2.2415      2.1536    
  2.2416      2.5147      3.0008      3.7436      4.7976      6.2175      8.0424      10.276      12.866      15.674    
  18.406      20.673      22.163      22.681      22.163      20.673      18.406      15.674      12.866      10.276    
  8.0424      6.2175      4.0232      3.1380      2.5385      2.1714      1.9980      1.9980      2.1714      2.5385    
  3.1380      4.0232      5.2535      6.8809      8.9322      11.389      14.161      17.044      19.657      21.626    
  22.681      22.681      21.626      19.657      17.044      14.161      11.388      8.9321      6.8809      5.2536    
  3.2870      2.5821      2.1272      1.8747      1.7939      1.8747      2.1272      2.5821      3.2870      4.3000    
  5.6789      7.4648      9.6645      12.229      15.027      17.780      20.092      21.626      22.163      21.626    
  20.092      17.780      15.026      12.229      9.6645      7.4648      5.6789      4.3001      2.6381      2.1059    
  1.7834      1.6322      1.6322      1.7834      2.1059      2.6381      3.4326      4.5465      6.0286      7.9025    
  10.148      12.683      15.331      17.780      19.657      20.673      20.673      19.657      17.780      15.331    
  12.683      10.148      7.9025      6.0287      4.5465      3.4325      2.1015      1.7207      1.5106      1.4437    
  1.5106      1.7207      2.1015      2.6959      3.5562      4.7328      6.2596      8.1376      10.318      12.683    
  15.027      17.044      18.406      18.887      18.406      17.044      15.026      12.683      10.318      8.1376    
  6.2597      4.7328      3.5562      2.6959      1.6814      1.4245      1.3042      1.3042      1.4245      1.6814    
  2.1066      2.7436      3.6396      4.8335      6.3405      8.1376      10.148      12.229      14.161      15.674    
  16.507      16.507      15.674      14.161      12.229      10.148      8.1376      6.3405      4.8335      3.6396    
  2.7436      2.1066      1.3682      1.2071      1.1556      1.2071      1.3682      1.6596      2.1136      2.7706    
  3.6691      4.8335      6.2596      7.9025      9.6644      11.389      12.866      13.873      14.231      13.873    
  12.866      11.388      9.6645      7.9025      6.2597      4.8335      3.6691      2.7706      2.1136      1.6596    
  1.1462      1.0563      1.0563      1.1462      1.3368      1.6501      2.1166      2.7706      3.6396      4.7328    
  6.0286      7.4648      8.9321      10.276      11.317      11.888      11.888      11.317      10.276      8.9321    
  7.4648      6.0287      4.7328      3.6396      2.7706      2.1166      1.6501      1.3368     0.99946     0.96171    
 0.99947      1.1169      1.3268      1.6501      2.1136      2.7436      3.5562      4.5465      5.6789      6.8809    
  8.0424      9.0253      9.6882      9.9228      9.6882      9.0253      8.0424      6.8809      5.6789      4.5465    
  3.5562      2.7436      2.1136      1.6501      1.3268      1.1169     0.91613     0.91613     0.98097      1.1169    
  1.3368      1.6596      2.1066      2.6959      3.4326      4.3000      5.2535      6.2175      7.0903      7.7589    
  8.1229      8.1229      7.7588      7.0903      6.2175      5.2536      4.3001      3.4325      2.6959      2.1066    
  1.6596      1.3368      1.1169     0.98096     0.91613     0.96171      1.0563      1.2071      1.4245      1.7207    
  2.1059      2.5822      3.1380      3.7437      4.3504      4.8946      5.3079      5.5316      5.5316      5.3079    
  4.8946      4.3504      3.7437      3.1380      2.5821      2.1059      1.7207      1.4245      1.2071      1.0563    
 0.96171     0.91613     0.96171      1.0171      1.1136      1.2577      1.4577      1.7219      2.0552      2.4539    
  2.9022      3.3696      3.8126      4.1805      4.4250      4.5108      4.4250      4.1806      3.8126      3.3695    
  2.9021      2.4538      2.0552      1.7220      1.4577      1.2577      1.1136      1.0171     0.96172     0.94367    
  1.0563      1.1136      1.2045      1.3348      1.5108      1.7374      2.0153      2.3372      2.6855      3.0318    
  3.3401      3.5726      3.6979      3.6979      3.5726      3.3401      3.0318      2.6855      2.3372      2.0153    
  1.7374      1.5108      1.3348      1.2045      1.1136      1.0563      1.0287      1.0287      1.2071      1.2577    
  1.3348      1.4436      1.5888      1.7729      1.9935      2.2415      2.4997      2.7436      2.9455      3.0792    
  3.1260      3.0792      2.9455      2.7436      2.4997      2.2416      1.9935      1.7729      1.5888      1.4436    
  1.3348      1.2577      1.2071      1.1786      1.1694      1.1786      1.4245      1.4577      1.5108      1.5888    
  1.6956      1.8317      1.9935      2.1714      2.3501      2.5101      2.6312      2.6965      2.6965      2.6312    
  2.5101      2.3501      2.1714      1.9935      1.8317      1.6956      1.5888      1.5108      1.4577      1.4245    
  1.4059      1.3978      1.3978      1.4059      1.7207      1.7219      1.7374      1.7729      1.8317      1.9139    
  2.0153      2.1272      2.2371      2.3304      2.3931      2.4152      2.3931      2.3304      2.2371      2.1272    
  2.0153      1.9139      1.8317      1.7729      1.7374      1.7220      1.7207      1.7269      1.7337      1.7366    
  1.7337      1.7269      2.1059      2.0552      2.0153      1.9935      1.9935      2.0153      2.0552      2.1059    
  2.1577      2.2002      2.2241      2.2241      2.2002      2.1577      2.1059      2.0552      2.0153      1.9935    
  1.9935      2.0153      2.0552      2.1059      2.1577      2.2002      2.2241      2.2241      2.2002      2.1577    
  2.5822      2.4539      2.3372      2.2415      2.1714      2.1272      2.1059      2.1015      2.1066      2.1136    
  2.1166      2.1136      2.1066      2.1015      2.1059      2.1272      2.1714      2.2416      2.3372      2.4538    
  2.5821      2.7084      2.8160      2.8888      2.9145      2.8888      2.8160      2.7084      3.1380      2.9022    
  2.6855      2.4997      2.3501      2.2371      2.1577      2.1066      2.0775      2.0647      2.0647      2.0775    
  2.1066      2.1577      2.2371      2.3501      2.4997      2.6855      2.9021      3.1380      3.3745      3.5872    
  3.7491      3.8369      3.8369      3.7491      3.5871      3.3745      3.7437      3.3696      3.0318      2.7436    
  2.5101      2.3304      2.2002      2.1136      2.0647      2.0489      2.0647      2.1136      2.2002      2.3304    
  2.5101      2.7436      3.0317      3.3695      3.7437      4.1307      4.4967      4.8012      5.0039      5.0752    
  5.0039      4.8011      4.4967      4.1307      4.3504      3.8126      3.3401      2.9455      2.6312      2.3931    
  2.2241      2.1166      2.0647      2.0647      2.1166      2.2241      2.3931      2.6312      2.9455      3.3400    
  3.8125      4.3504      4.9266      5.4982      6.0085      6.3955      6.6050      6.6050      6.3955      6.0085    
  5.4981      4.9266      4.8946      4.1805      3.5726      3.0792      2.6965      2.4152      2.2241      2.1136    
  2.0775      2.1136      2.2241      2.4152      2.6966      3.0792      3.5726      4.1805      4.8945      5.6883    
  6.5123      7.2945      7.9471      8.3827      8.5360      8.3827      7.9471      7.2945      6.5123      5.6882    
  5.3079      4.4250      3.6979      3.1260      2.6965      2.3931      2.2002      2.1066      2.1066      2.2002    
  2.3931      2.6966      3.1260      3.6979      4.4249      5.3078      6.3266      7.4320      8.5409      9.5407    
  10.305      10.720      10.720      10.305      9.5407      8.5409      7.4319      6.3266      5.5316      4.5108    
  3.6979      3.0792      2.6312      2.3304      2.1577      2.1015      2.1577      2.3304      2.6312      3.0792    
  3.6979      4.5107      5.5315      6.7538      8.1373      9.5983      11.007      12.198      13.000      13.285    
  13.001      12.198      11.007      9.5982      8.1372      6.7538      5.5316      4.4250      3.5726      2.9455    
  2.5101      2.2371      2.1059      2.1059      2.2371      2.5101      2.9455      3.5726      4.4249      5.5315    
  6.9043      8.5216      10.313      12.145      13.827      15.132      15.848      15.848      15.132      13.828    
  12.145      10.312      8.5215      6.9043      5.3079      4.1806      3.3401      2.7436      2.3501      2.1272    
  2.0552      2.1272      2.3501      2.7436      3.3400      4.1805      5.3078      6.7538      8.5216      10.566    
  12.771      14.941      16.809      18.086      18.540      18.086      16.809      14.941      12.771      10.565    
  8.5215      6.7538      4.8946      3.8126      3.0318      2.4997      2.1714      2.0153      2.0153      2.1714    
  2.4997      3.0317      3.8125      4.8945      6.3266      8.1373      10.313      12.771      15.338      17.739    
  19.628      20.672      20.672      19.629      17.739      15.338      12.771      10.312      8.1372      6.3266    
  4.3504      3.3695      2.6855      2.2416      1.9935      1.9139      1.9935      2.2416      2.6855      3.3695    
  4.3504      5.6883      7.4320      9.5983      12.145      14.941      17.739      20.180      21.853      22.448    
  21.853      20.180      17.739      14.941      12.145      9.5982      7.4319      5.6883      3.7437      2.9021    
  2.3372      1.9935      1.8317      1.8317      1.9935      2.3372      2.9021      3.7437      4.9266      6.5123    
  8.5409      11.007      13.827      16.809      19.628      21.853      23.081      23.081      21.853      19.628    
  16.809      13.827      11.007      8.5409      6.5123      4.9266      3.1380      2.4538      2.0153      1.7729    
  1.6956      1.7729      2.0153      2.4538      3.1380      4.1307      5.4982      7.2945      9.5407      12.198    
  15.132      18.086      20.672      22.448      23.081      22.448      20.672      18.086      15.132      12.198    
  9.5407      7.2945      5.4981      4.1307      2.5821      2.0552      1.7374      1.5888      1.5888      1.7374    
  2.0552      2.5821      3.3745      4.4967      6.0085      7.9471      10.305      13.000      15.848      18.540    
  20.672      21.853      21.853      20.672      18.540      15.848      13.001      10.305      7.9471      6.0085    
  4.4967      3.3745      2.1059      1.7220      1.5108      1.4436      1.5108      1.7220      2.1059      2.7084    
  3.5872      4.8012      6.3955      8.3827      10.720      13.285      15.848      18.086      19.629      20.180    
  19.628      18.086      15.848      13.285      10.720      8.3828      6.3955      4.8011      3.5871      2.7084    
  1.7207      1.4577      1.3348      1.3348      1.4577      1.7207      2.1577      2.8160      3.7491      5.0039    
  6.6050      8.5360      10.720      13.001      15.132      16.809      17.739      17.739      16.809      15.132    
  13.001      10.720      8.5362      6.6050      5.0039      3.7490      2.8160      2.1577      1.4245      1.2577    
  1.2045      1.2577      1.4245      1.7269      2.2002      2.8888      3.8369      5.0752      6.6050      8.3827    
  10.305      12.198      13.828      14.941      15.338      14.941      13.827      12.198      10.305      8.3828    
  6.6050      5.0751      3.8369      2.8888      2.2002      1.7269      1.2071      1.1136      1.1136      1.2071    
  1.4059      1.7337      2.2241      2.9145      3.8369      5.0039      6.3955      7.9471      9.5407      11.007    
  12.145      12.771      12.771      12.145      11.007      9.5407      7.9471      6.3955      5.0039      3.8369    
  2.9145      2.2241      1.7338      1.4059      1.0563      1.0171      1.0563      1.1786      1.3978      1.7366    
  2.2241      2.8888      3.7491      4.8011      6.0085      7.2945      8.5409      9.5982      10.312      10.565    
  10.312      9.5982      8.5409      7.2945      6.0085      4.8011      3.7490      2.8888      2.2241      1.7366    
  1.3978      1.1786     0.96171     0.96172      1.0287      1.1694      1.3978      1.7337      2.2002      2.8160    
  3.5871      4.4967      5.4981      6.5123      7.4319      8.1372      8.5215      8.5215      8.1372      7.4319    
  6.5123      5.4981      4.4967      3.5871      2.8160      2.2002      1.7338      1.3978      1.1695      1.0287    
 0.91613     0.94367      1.0287      1.1786      1.4059      1.7269      2.1577      2.7084      3.3745      4.1307    
  4.9266      5.6882      6.3266      6.7538      6.9043      6.7538      6.3266      5.6883      4.9266      4.1307    
  3.3745      2.7084      2.1577      1.7269      1.4059      1.1786      1.0287     0.94367     0.99947      1.0563    
  1.1556      1.3042      1.5106      1.7834      2.1272      2.5385      3.0008      3.4831      3.9405      4.3206    
  4.5733      4.6620      4.5733      4.3206      3.9405      3.4831      3.0008      2.5385      2.1272      1.7834    
  1.5106      1.3042      1.1556      1.0563     0.99947     0.98097      1.0563      1.1136      1.2045      1.3348    
  1.5108      1.7374      2.0153      2.3372      2.6855      3.0318      3.3401      3.5726      3.6979      3.6979    
  3.5726      3.3401      3.0318      2.6855      2.3372      2.0153      1.7374      1.5108      1.3348      1.2045    
  1.1136      1.0563      1.0287      1.0287      1.1556      1.2045      1.2788      1.3835      1.5234      1.7009    
  1.9139      2.1536      2.4031      2.6386      2.8333      2.9620      3.0070      2.9620      2.8332      2.6386    
  2.4031      2.1537      1.9140      1.7009      1.5234      1.3835      1.2788      1.2045      1.1556      1.1280    
  1.1191      1.1280      1.3042      1.3348      1.3835      1.4554      1.5541      1.6807      1.8317      1.9980    
  2.1648      2.3137      2.4261      2.4866      2.4866      2.4261      2.3137      2.1648      1.9980      1.8318    
  1.6807      1.5541      1.4553      1.3835      1.3348      1.3042      1.2869      1.2792      1.2792      1.2869    
  1.5106      1.5108      1.5234      1.5541      1.6064      1.6807      1.7729      1.8746      1.9742      2.0581    
  2.1143      2.1340      2.1143      2.0581      1.9742      1.8747      1.7729      1.6807      1.6064      1.5541    
  1.5234      1.5108      1.5106      1.5165      1.5226      1.5252      1.5226      1.5165      1.7834      1.7374    
  1.7009      1.6807      1.6807      1.7009      1.7374      1.7834      1.8297      1.8672      1.8881      1.8881    
  1.8672      1.8297      1.7834      1.7374      1.7009      1.6807      1.6807      1.7009      1.7374      1.7834    
  1.8297      1.8672      1.8881      1.8881      1.8672      1.8297      2.1272      2.0153      1.9139      1.8317    
  1.7729      1.7374      1.7219      1.7207      1.7269      1.7337      1.7366      1.7337      1.7269      1.7207    
  1.7220      1.7374      1.7729      1.8317      1.9139      2.0153      2.1272      2.2371      2.3304      2.3931    
  2.4152      2.3931      2.3304      2.2371      2.5385      2.3372      2.1536      1.9980      1.8746      1.7834    
  1.7207      1.6814      1.6596      1.6501      1.6501      1.6596      1.6814      1.7207      1.7834      1.8747    
  1.9980      2.1536      2.3372      2.5385      2.7408      2.9227      3.0609      3.1358      3.1358      3.0609    
  2.9227      2.7408      3.0008      2.6855      2.4031      2.1648      1.9742      1.8297      1.7269      1.6596    
  1.6220      1.6100      1.6220      1.6596      1.7269      1.8298      1.9742      2.1648      2.4031      2.6855    
  3.0008      3.3288      3.6397      3.8986      4.0711      4.1317      4.0711      3.8986      3.6397      3.3287    
  3.4831      3.0318      2.6386      2.3137      2.0581      1.8672      1.7337      1.6501      1.6100      1.6100    
  1.6501      1.7338      1.8672      2.0581      2.3137      2.6386      3.0317      3.4831      3.9698      4.4547    
  4.8890      5.2190      5.3977      5.3977      5.2190      4.8890      4.4547      3.9697      3.9405      3.3401    
  2.8333      2.4261      2.1143      1.8881      1.7366      1.6501      1.6220      1.6501      1.7366      1.8881    
  2.1143      2.4261      2.8332      3.3400      3.9405      4.6125      5.3140      5.9824      6.5417      6.9157    
  7.0475      6.9158      6.5417      5.9824      5.3139      4.6124      4.3206      3.5726      2.9620      2.4866    
  2.1340      1.8881      1.7337      1.6596      1.6596      1.7338      1.8881      2.1340      2.4865      2.9619    
  3.5726      4.3206      5.1897      6.1378      7.0929      7.9567      8.6181      8.9783      8.9783      8.6182    
  7.9567      7.0929      6.1377      5.1896      4.5733      3.6979      3.0070      2.4866      2.1143      1.8672    
  1.7269      1.6814      1.7269      1.8672      2.1143      2.4865      3.0070      3.6979      4.5733      5.6286    
  6.8295      8.1027      9.3336      10.376      11.080      11.329      11.080      10.376      9.3336      8.1027    
  6.8294      5.6285      4.6620      3.6979      2.9620      2.4261      2.0581      1.8297      1.7207      1.7207    
  1.8298      2.0581      2.4261      2.9619      3.6979      4.6620      5.8664      7.2930      8.8788      10.505    
  12.001      13.161      13.798      13.798      13.161      12.001      10.506      8.8787      7.2929      5.8663    
  4.5733      3.5726      2.8332      2.3137      1.9742      1.7834      1.7220      1.7834      1.9742      2.3137    
  2.8332      3.5726      4.5733      5.8664      7.4564      9.3023      11.299      13.266      14.959      16.116    
  16.528      16.116      14.959      13.266      11.299      9.3023      7.4563      5.8663      4.3206      3.3401    
  2.6386      2.1648      1.8747      1.7374      1.7374      1.8747      2.1648      2.6386      3.3400      4.3206    
  5.6286      7.2930      9.3023      11.580      13.963      16.192      17.945      18.917      18.917      17.945    
  16.192      13.963      11.580      9.3023      7.2929      5.6286      3.9405      3.0318      2.4031      1.9980    
  1.7729      1.7009      1.7729      1.9980      2.4031      3.0317      3.9405      5.1897      6.8295      8.8788    
  11.299      13.963      16.631      18.961      20.568      21.143      20.568      18.961      16.631      13.963    
  11.299      8.8788      6.8294      5.1897      3.4831      2.6855      2.1537      1.8318      1.6807      1.6807    
  1.8317      2.1536      2.6855      3.4831      4.6125      6.1378      8.1027      10.505      13.266      16.192    
  18.961      21.160      22.385      22.385      21.159      18.961      16.192      13.266      10.506      8.1027    
  6.1377      4.6124      3.0008      2.3372      1.9140      1.6807      1.6064      1.6807      1.9139      2.3372    
  3.0008      3.9698      5.3140      7.0929      9.3336      12.001      14.959      17.945      20.568      22.385    
  23.038      22.385      20.568      17.945      14.959      12.001      9.3337      7.0929      5.3139      3.9697    
  2.5385      2.0153      1.7009      1.5541      1.5541      1.7009      2.0153      2.5385      3.3288      4.4547    
  5.9824      7.9567      10.376      13.161      16.116      18.917      21.143      22.385      22.385      21.143    
  18.917      16.116      13.161      10.376      7.9567      5.9824      4.4547      3.3287      2.1272      1.7374    
  1.5234      1.4553      1.5234      1.7374      2.1272      2.7408      3.6397      4.8890      6.5417      8.6181    
  11.080      13.798      16.528      18.917      20.568      21.159      20.568      18.917      16.528      13.798    
  11.080      8.6182      6.5417      4.8890      3.6397      2.7408      1.7834      1.5108      1.3835      1.3835    
  1.5108      1.7834      2.2371      2.9227      3.8986      5.2190      6.9157      8.9783      11.329      13.798    
  16.116      17.945      18.961      18.961      17.945      16.116      13.798      11.329      8.9783      6.9157    
  5.2189      3.8986      2.9227      2.2371      1.5106      1.3348      1.2788      1.3348      1.5106      1.8297    
  2.3304      3.0609      4.0711      5.3977      7.0475      8.9783      11.080      13.161      14.959      16.192    
  16.631      16.192      14.959      13.161      11.080      8.9783      7.0475      5.3976      4.0710      3.0609    
  2.3304      1.8298      1.3042      1.2045      1.2045      1.3042      1.5165      1.8672      2.3931      3.1358    
  4.1317      5.3977      6.9158      8.6182      10.376      12.001      13.266      13.963      13.963      13.266    
  12.001      10.376      8.6182      6.9157      5.3976      4.1316      3.1358      2.3931      1.8672      1.5165    
  1.1556      1.1136      1.1556      1.2869      1.5226      1.8881      2.4152      3.1358      4.0711      5.2190    
  6.5417      7.9567      9.3336      10.506      11.299      11.580      11.299      10.506      9.3337      7.9567    
  6.5417      5.2189      4.0710      3.1358      2.4152      1.8881      1.5227      1.2868      1.0563      1.0563    
  1.1280      1.2792      1.5252      1.8881      2.3931      3.0609      3.8986      4.8890      5.9824      7.0929    
  8.1027      8.8787      9.3023      9.3023      8.8788      8.1027      7.0929      5.9824      4.8890      3.8986    
  3.0609      2.3931      1.8881      1.5252      1.2792      1.1280     0.99947      1.0287      1.1191      1.2792    
  1.5226      1.8672      2.3304      2.9227      3.6397      4.4547      5.3139      6.1377      6.8294      7.2929    
  7.4563      7.2929      6.8294      6.1377      5.3139      4.4547      3.6397      2.9227      2.3304      1.8672    
  1.5227      1.2792      1.1191      1.0287     0.98097      1.0287      1.1280      1.2869      1.5165      1.8297    
  2.2371      2.7408      3.3287      3.9697      4.6124      5.1896      5.6285      5.8663      5.8663      5.6286    
  5.1897      4.6124      3.9697      3.3287      2.7408      2.2371      1.8298      1.5165      1.2868      1.1280    
  1.0287     0.98097      1.1462      1.2071      1.3042      1.4437      1.6322      1.8747      2.1714      2.5147    
  2.8860      3.2556      3.5851      3.8342      3.9686      3.9686      3.8342      3.5851      3.2556      2.8860    
  2.5147      2.1714      1.8747      1.6322      1.4437      1.3042      1.2071      1.1462      1.1169      1.1169    
  1.2071      1.2577      1.3348      1.4436      1.5888      1.7729      1.9935      2.2415      2.4997      2.7436    
  2.9455      3.0792      3.1260      3.0792      2.9455      2.7436      2.4997      2.2415      1.9935      1.7729    
  1.5888      1.4436      1.3348      1.2577      1.2071      1.1786      1.1695      1.1786      1.3042      1.3348    
  1.3835      1.4554      1.5541      1.6807      1.8317      1.9980      2.1648      2.3137      2.4261      2.4866    
  2.4866      2.4261      2.3137      2.1648      1.9980      1.8318      1.6807      1.5541      1.4553      1.3835    
  1.3348      1.3042      1.2869      1.2792      1.2792      1.2869      1.4437      1.4436      1.4554      1.4845    
  1.5348      1.6064      1.6956      1.7940      1.8900      1.9708      2.0247      2.0436      2.0247      1.9708    