unknown system                          
   1.00000000000000     
    -2.378961    2.378961    1.344638
     2.378961   -2.378961    1.344638
     2.378961    2.378961   -1.344638
   Si
     2
Direct
  0.250000  0.750000  0.500000
 -0.000000  0.000000  0.000000
 
   36   36   36
 -.52942690511E+01 -.43958663996E+01 -.19200577123E+01 0.15492418040E+01 0.52517256046E+01
 0.84710502712E+01 0.10707000784E+02 0.11757401976E+02 0.11710199445E+02 0.10869136425E+02
 0.96408495299E+01 0.83568257891E+01 0.71500733341E+01 0.60978623517E+01 0.52421450023E+01
 0.45948000742E+01 0.41487120719E+01 0.38894877480E+01 0.38046769739E+01 0.38894876136E+01
 0.41487173358E+01 0.45948089889E+01 0.52421492352E+01 0.60978611486E+01 0.71500740199E+01
 0.83568294719E+01 0.96408492361E+01 0.10869130549E+02 0.11710194583E+02 0.11757401120E+02
 0.10707000393E+02 0.84710497276E+01 0.52517278837E+01 0.15492444356E+01 -.19200604482E+01
 -.43958719491E+01 -.43958719491E+01 -.48074198772E+01 -.34747949929E+01 -.72708616274E+00
 0.27922619479E+01 0.63285191530E+01 0.92256651046E+01 0.11072476907E+02 0.11756286434E+02
 0.11433742408E+02 0.10444313470E+02 0.91900638881E+01 0.79326024398E+01 0.67771974224E+01
 0.57902298328E+01 0.50038896002E+01 0.44234858518E+01 0.40389971937E+01 0.38361231502E+01
 0.38044482802E+01 0.39420575112E+01 0.42563958243E+01 0.47613210946E+01 0.54704714740E+01
 0.63872583794E+01 0.74929063476E+01 0.87363910798E+01 0.10031561400E+02 0.11208582444E+02
 0.11893956844E+02 0.11698031366E+02 0.10366300599E+02 0.78839911313E+01 0.45339928731E+01
 0.88099775069E+00 -.23365062692E+01 -.19200604482E+01 -.34747987418E+01 -.34111633232E+01
 -.17543797062E+01 0.10830320607E+01 0.44393890551E+01 0.76075862534E+01 0.10023011694E+02
 0.11378466856E+02 0.11650765548E+02 0.11054204524E+02 0.99465414425E+01 0.86943313520E+01
 0.74789844775E+01 0.63879915363E+01 0.54755296126E+01 0.47640477342E+01 0.42531019443E+01
 0.39307751750E+01 0.37836794161E+01 0.38038676075E+01 0.39922733311E+01 0.43585456760E+01
 0.49172503863E+01 0.56805148368E+01 0.66475263806E+01 0.77927953642E+01 0.90575560543E+01
 0.10348405900E+02 0.11458880873E+02 0.12003583347E+02 0.11625125478E+02 0.10126474411E+02
 0.75632480754E+01 0.42821299777E+01 0.88099775069E+00 0.15492444356E+01 -.72708769131E+00
 -.17543804841E+01 -.12873660299E+01 0.54279043304E+00 0.32753328114E+01 0.62723789427E+01
 0.89098368443E+01 0.10735029096E+02 0.11549231181E+02 0.11410506432E+02 0.10574627474E+02
 0.93977315569E+01 0.81703175077E+01 0.70119348809E+01 0.59961587328E+01 0.51645395275E+01
 0.45305164449E+01 0.40890791013E+01 0.38274922939E+01 0.37339638305E+01 0.38032077340E+01
 0.40387398252E+01 0.44518293187E+01 0.50570448194E+01 0.58644041560E+01 0.68687016642E+01
 0.80384083675E+01 0.93087981624E+01 0.10580470013E+02 0.11622000297E+02 0.12059147566E+02
 0.11577666263E+02 0.10040255347E+02 0.75632480754E+01 0.45339928731E+01 0.52517278837E+01
 0.27922618723E+01 0.10830321024E+01 0.54279279690E+00 0.12956228308E+01 0.31312534406E+01
 0.55793000220E+01 0.80625961572E+01 0.10064644320E+02 0.11253126466E+02 0.11532250046E+02
 0.11026558700E+02 0.10013989233E+02 0.88204475567E+01 0.76355124501E+01 0.65472448658E+01
 0.56146238256E+01 0.48670868163E+01 0.43103811568E+01 0.39363154116E+01 0.37323391141E+01
 0.36887204744E+01 0.38027787935E+01 0.40801676045E+01 0.45331387636E+01 0.51756345582E+01
 0.60151701725E+01 0.70423123312E+01 0.82205544556E+01 0.94812583199E+01 0.10721563298E+02
 0.11702055276E+02 0.12075799550E+02 0.11577666263E+02 0.10126474411E+02 0.78839911313E+01
 0.84710497276E+01 0.63285173141E+01 0.44393863078E+01 0.32753343052E+01 0.31312581445E+01
 0.40283848432E+01 0.57104470145E+01 0.77334918285E+01 0.96081912723E+01 0.10937442851E+02
 0.11506180086E+02 0.11307961672E+02 0.10514756340E+02 0.94061664234E+01 0.82334126154E+01
 0.71074299641E+01 0.60997451532E+01 0.52549330814E+01 0.45916595438E+01 0.41096734673E+01
 0.37989970255E+01 0.36480761811E+01 0.36494512260E+01 0.38027830152E+01 0.41153205273E+01
 0.45996796700E+01 0.52686629511E+01 0.61270988949E+01 0.71617766211E+01 0.83325375294E+01
 0.95689790499E+01 0.10768853358E+02 0.11702055276E+02 0.12059147566E+02 0.11625125478E+02
 0.10366300599E+02 0.10707000393E+02 0.92256638602E+01 0.76075812782E+01 0.62723745030E+01
 0.55793024537E+01 0.57104526582E+01 0.66110587940E+01 0.80124314738E+01 0.95255219036E+01
 0.10763726821E+02 0.11448804347E+02 0.11470533307E+02 0.10892844715E+02 0.99141207232E+01
 0.87856530058E+01 0.76558514625E+01 0.66028112005E+01 0.56826881320E+01 0.49268835083E+01
 0.43452186665E+01 0.39332628170E+01 0.36804904600E+01 0.35768980382E+01 0.36172743276E+01
 0.38032199591E+01 0.41430128666E+01 0.46490755141E+01 0.53326812272E+01 0.61959741401E+01
 0.72226315484E+01 0.83703147290E+01 0.95689790499E+01 0.10721563298E+02 0.11622000297E+02
 0.12003583347E+02 0.11698031366E+02 0.11757401120E+02 0.11072478249E+02 0.10023010713E+02
 0.89098307680E+01 0.80625914666E+01 0.77334944954E+01 0.80124365862E+01 0.87986239490E+01
 0.98397468373E+01 0.10819575772E+02 0.11456987287E+02 0.11582070749E+02 0.11170773805E+02
 0.10335676623E+02 0.92795053083E+01 0.81752519943E+01 0.71067984121E+01 0.61369017392E+01
 0.53073482888E+01 0.46383871271E+01 0.41331940030E+01 0.37848717329E+01 0.35833213433E+01
 0.35203776816E+01 0.35928748488E+01 0.38038865750E+01 0.41621772107E+01 0.46794922716E+01
 0.53653011451E+01 0.62192208529E+01 0.72226315484E+01 0.83325375294E+01 0.94812583199E+01
 0.10580470013E+02 0.11458880873E+02 0.11893956844E+02 0.11710194583E+02 0.11756285286E+02
 0.11378469799E+02 0.10735029274E+02 0.10064639261E+02 0.96081876357E+01 0.95255241485E+01
 0.98397503292E+01 0.10431914102E+02 0.11086648599E+02 0.11567425551E+02 0.11691340652E+02
 0.11379511560E+02 0.10672087080E+02 0.97081220076E+01 0.86532386847E+01 0.75970620599E+01
 0.66040634817E+01 0.57228732726E+01 0.49828471434E+01 0.43955303172E+01 0.39596166433E+01
 0.36671869185E+01 0.35092396109E+01 0.34795095172E+01 0.35765635465E+01 0.38044720667E+01
 0.41719869592E+01 0.46897646740E+01 0.53653011451E+01 0.61959741401E+01 0.71617766211E+01
 0.82205544556E+01 0.93087981624E+01 0.10348405900E+02 0.11208582444E+02 0.10869130549E+02
 0.11433735531E+02 0.11650764436E+02 0.11549235104E+02 0.11253128104E+02 0.10937440161E+02
 0.10763724974E+02 0.10819577156E+02 0.11086649990E+02 0.11449849923E+02 0.11741913032E+02
 0.11803410124E+02 0.11535455496E+02 0.10929263035E+02 0.10066412886E+02 0.90809126521E+01
 0.80620294903E+01 0.70721793773E+01 0.61632653539E+01 0.53714578707E+01 0.47161785923E+01
 0.42027649568E+01 0.38273281169E+01 0.35820275204E+01 0.34593503425E+01 0.34548327207E+01
 0.35684139308E+01 0.38047031973E+01 0.41719869592E+01 0.46794922716E+01 0.53326812272E+01
 0.61270988949E+01 0.70423123312E+01 0.80384083675E+01 0.90575560543E+01 0.10031561400E+02
 0.96408492361E+01 0.10444307650E+02 0.11054197797E+02 0.11410505561E+02 0.11532253956E+02
 0.11506182717E+02 0.11448804262E+02 0.11456987282E+02 0.11567425921E+02 0.11741912427E+02
 0.11883640527E+02 0.11876007336E+02 0.11627194203E+02 0.11104244154E+02 0.10346485175E+02
 0.94496272296E+01 0.84918063148E+01 0.75309005819E+01 0.66191606664E+01 0.57971338816E+01
 0.50908395939E+01 0.45123908862E+01 0.40631652062E+01 0.37382099151E+01 0.35305281566E+01
 0.34342713021E+01 0.34465859304E+01 0.35684139308E+01 0.38044720667E+01 0.41621772107E+01
 0.46490755141E+01 0.52686629511E+01 0.60151701725E+01 0.68687016642E+01 0.77927953642E+01
 0.87363910798E+01 0.83568294719E+01 0.91900655543E+01 0.99465377203E+01 0.10574622591E+02
 0.11026558082E+02 0.11307964503E+02 0.11470535962E+02 0.11582072604E+02 0.11691342041E+02
 0.11803409586E+02 0.11876005247E+02 0.11837545139E+02 0.11617981103E+02 0.11179450574E+02
 0.10535467872E+02 0.97477947020E+01 0.88755367210E+01 0.79700196548E+01 0.70815699771E+01
 0.62529422902E+01 0.55152266310E+01 0.48867986412E+01 0.43748673664E+01 0.39786923576E+01
 0.36933889722E+01 0.35132981469E+01 0.34342713021E+01 0.34548327207E+01 0.35765635465E+01
 0.38038865750E+01 0.41430128666E+01 0.45996796700E+01 0.51756345582E+01 0.58644041560E+01
 0.66475263806E+01 0.74929063476E+01 0.71500740199E+01 0.79326068039E+01 0.86943346631E+01
 0.93977307180E+01 0.10013986962E+02 0.10514755850E+02 0.10892845714E+02 0.11170775530E+02
 0.11379514322E+02 0.11535457638E+02 0.11627193040E+02 0.11617978220E+02 0.11462168103E+02
 0.11127757995E+02 0.10615365003E+02 0.99596814565E+01 0.91991884600E+01 0.83772261132E+01
 0.75402037145E+01 0.67310765693E+01 0.59844353185E+01 0.53240702930E+01 0.47630387054E+01
 0.43056365373E+01 0.39504212637E+01 0.36933889722E+01 0.35305281566E+01 0.34593503425E+01
 0.34795095172E+01 0.35928748488E+01 0.38032199591E+01 0.41153205273E+01 0.45331387636E+01
 0.50570448194E+01 0.56805148368E+01 0.63872583794E+01 0.60978611486E+01 0.67771977748E+01
 0.74789881250E+01 0.81703212270E+01 0.88204490977E+01 0.94061666064E+01 0.99141202303E+01
 0.10335675626E+02 0.10672087387E+02 0.10929265807E+02 0.11104246469E+02 0.11179449147E+02
 0.11127755006E+02 0.10925726196E+02 0.10568124684E+02 0.10067081356E+02 0.94452355935E+01
 0.87365679598E+01 0.79814957544E+01 0.72210043756E+01 0.64913970113E+01 0.58207519695E+01
 0.52275890398E+01 0.47215744622E+01 0.43056365373E+01 0.39786923576E+01 0.37382099151E+01
 0.35820275204E+01 0.35092396109E+01 0.35203776816E+01 0.36172743276E+01 0.38027830152E+01
 0.40801676045E+01 0.44518293187E+01 0.49172503863E+01 0.54704714740E+01 0.52421492352E+01
 0.57902295190E+01 0.63879912269E+01 0.70119365343E+01 0.76355150583E+01 0.82334152959E+01
 0.87856549010E+01 0.92795047915E+01 0.97081194807E+01 0.10066411902E+02 0.10346487431E+02
 0.10535469954E+02 0.10615363668E+02 0.10568122160E+02 0.10381432000E+02 0.10053327740E+02
 0.95947150722E+01 0.90287370172E+01 0.83875727101E+01 0.77077082199E+01 0.70248852091E+01
 0.63698569120E+01 0.57657832727E+01 0.52275890398E+01 0.47630387054E+01 0.43748673664E+01
 0.40631652062E+01 0.38273281169E+01 0.36671869185E+01 0.35833213433E+01 0.35768980382E+01
 0.36494512260E+01 0.38027787935E+01 0.40387398252E+01 0.43585456760E+01 0.47613210946E+01
 0.45948089889E+01 0.50038941655E+01 0.54755300878E+01 0.59961575997E+01 0.65472438892E+01
 0.71074304266E+01 0.76558540332E+01 0.81752547013E+01 0.86532382621E+01 0.90809094784E+01
 0.94496255113E+01 0.97477962366E+01 0.99596830687E+01 0.10067080400E+02 0.10053326062E+02
 0.99080653251E+01 0.96309960383E+01 0.92333796030E+01 0.87370048935E+01 0.81710801243E+01
 0.75679649732E+01 0.69587797076E+01 0.63698569120E+01 0.58207519695E+01 0.53240702930E+01
 0.48867986412E+01 0.45123908862E+01 0.42027649568E+01 0.39596166433E+01 0.37848717329E+01
 0.36804904600E+01 0.36480761811E+01 0.36887204744E+01 0.38032077340E+01 0.39922733311E+01
 0.42563958243E+01 0.41487173358E+01 0.44234912057E+01 0.47640511719E+01 0.51645403166E+01
 0.56146219623E+01 0.60997418303E+01 0.66028094293E+01 0.71068001141E+01 0.75970648241E+01
 0.80620293555E+01 0.84918034416E+01 0.88755348992E+01 0.91991892232E+01 0.94452366172E+01
 0.95947146605E+01 0.96309953446E+01 0.95438947776E+01 0.93327216526E+01 0.90073454734E+01
 0.85870771012E+01 0.80977757378E+01 0.75679649732E+01 0.70248852091E+01 0.64913970113E+01
 0.59844353185E+01 0.55152266310E+01 0.50908395939E+01 0.47161785923E+01 0.43955303172E+01
 0.41331940030E+01 0.39332628170E+01 0.37989970255E+01 0.37323391141E+01 0.37339638305E+01
 0.38038676075E+01 0.39420575112E+01 0.38894876136E+01 0.40389967217E+01 0.42531021749E+01
 0.45305175316E+01 0.48670873270E+01 0.52549308454E+01 0.56826835572E+01 0.61368985353E+01
 0.66040641397E+01 0.70721817019E+01 0.75309009006E+01 0.79700177753E+01 0.83772246040E+01
 0.87365679442E+01 0.90287374330E+01 0.92333797477E+01 0.93327218185E+01 0.93153128493E+01
 0.91787311142E+01 0.89305076107E+01 0.85870771012E+01 0.81710801243E+01 0.77077082199E+01
 0.72210043756E+01 0.67310765693E+01 0.62529422902E+01 0.57971338816E+01 0.53714578707E+01
 0.49828471434E+01 0.46383871271E+01 0.43452186665E+01 0.41096734673E+01 0.39363154116E+01
 0.38274922939E+01 0.37836794161E+01 0.38044482802E+01 0.38046769739E+01 0.38361192947E+01
 0.39307691750E+01 0.40890741746E+01 0.43103794313E+01 0.45916593660E+01 0.49268814402E+01
 0.53073439353E+01 0.57228698561E+01 0.61632651614E+01 0.66191622882E+01 0.70815708103E+01
 0.75402031073E+01 0.79814946712E+01 0.83875719667E+01 0.87370047955E+01 0.90073460308E+01
 0.91787317802E+01 0.92374852198E+01 0.91787311142E+01 0.90073454734E+01 0.87370048935E+01
 0.83875727101E+01 0.79814957544E+01 0.75402037145E+01 0.70815699771E+01 0.66191606664E+01
 0.61632653539E+01 0.57228732726E+01 0.53073482888E+01 0.49268835083E+01 0.45916595438E+01
 0.43103811568E+01 0.40890791013E+01 0.39307751750E+01 0.38361231502E+01 0.38894877480E+01
 0.38044460565E+01 0.37836728792E+01 0.38274825320E+01 0.39363068766E+01 0.41096694538E+01
 0.43452177728E+01 0.46383858054E+01 0.49828443281E+01 0.53714553125E+01 0.57971331158E+01
 0.62529431229E+01 0.67310778593E+01 0.72210049249E+01 0.77077074649E+01 0.81710788374E+01
 0.85870767049E+01 0.89305083203E+01 0.91787317802E+01 0.93153128493E+01 0.93327216526E+01
 0.92333796030E+01 0.90287370172E+01 0.87365679598E+01 0.83772261132E+01 0.79700196548E+01
 0.75309005819E+01 0.70721793773E+01 0.66040634817E+01 0.61369017392E+01 0.56826881320E+01
 0.52549330814E+01 0.48670868163E+01 0.45305164449E+01 0.42531019443E+01 0.40389971937E+01
 0.41487120719E+01 0.39420537716E+01 0.38038635402E+01 0.37339562203E+01 0.37323283677E+01
 0.37989875242E+01 0.39332578465E+01 0.41331927552E+01 0.43955301985E+01 0.47161780776E+01
 0.50908384454E+01 0.55152254901E+01 0.59844354247E+01 0.64913986222E+01 0.70248865345E+01
 0.75679643793E+01 0.80977742467E+01 0.85870767049E+01 0.90073460308E+01 0.93327218185E+01
 0.95438947776E+01 0.96309960383E+01 0.95947150722E+01 0.94452355935E+01 0.91991884600E+01
 0.88755367210E+01 0.84918063148E+01 0.80620294903E+01 0.75970620599E+01 0.71067984121E+01
 0.66028112005E+01 0.60997451532E+01 0.56146238256E+01 0.51645395275E+01 0.47640477342E+01
 0.44234858518E+01 0.45948000742E+01 0.42563862706E+01 0.39922666094E+01 0.38032026105E+01
 0.36887135896E+01 0.36480674339E+01 0.36804828801E+01 0.37848674398E+01 0.39596156025E+01
 0.42027662480E+01 0.45123927486E+01 0.48867988799E+01 0.53240688966E+01 0.58207515574E+01
 0.63698586825E+01 0.69587813027E+01 0.75679643793E+01 0.81710788374E+01 0.87370047955E+01
 0.92333797477E+01 0.96309953446E+01 0.99080653251E+01 0.10053327740E+02 0.10067081356E+02
 0.99596814565E+01 0.97477947020E+01 0.94496272296E+01 0.90809126521E+01 0.86532386847E+01
 0.81752519943E+01 0.76558514625E+01 0.71074299641E+01 0.65472448658E+01 0.59961587328E+01
 0.54755296126E+01 0.50038896002E+01 0.52421450023E+01 0.47613111401E+01 0.43585345323E+01
 0.40387319446E+01 0.38027737663E+01 0.36494466806E+01 0.35768936723E+01 0.35833179225E+01
 0.36671846199E+01 0.38273277527E+01 0.40631678051E+01 0.43748711044E+01 0.47630399025E+01
 0.52275875014E+01 0.57657826716E+01 0.63698586825E+01 0.70248865345E+01 0.77077074649E+01
 0.83875719667E+01 0.90287374330E+01 0.95947146605E+01 0.10053326062E+02 0.10381432000E+02
 0.10568124684E+02 0.10615365003E+02 0.10535467872E+02 0.10346485175E+02 0.10066412886E+02
 0.97081220076E+01 0.92795053083E+01 0.87856530058E+01 0.82334126154E+01 0.76355124501E+01
 0.70119348809E+01 0.63879915363E+01 0.57902298328E+01 0.60978623517E+01 0.54704686810E+01
 0.49172420348E+01 0.44518197677E+01 0.40801608789E+01 0.38027793811E+01 0.36172732108E+01
 0.35203788905E+01 0.35092412886E+01 0.35820277254E+01 0.37382103624E+01 0.39786958743E+01
 0.43056412904E+01 0.47215759953E+01 0.52275875014E+01 0.58207515574E+01 0.64913986222E+01
 0.72210049249E+01 0.79814946712E+01 0.87365679442E+01 0.94452366172E+01 0.10067080400E+02
 0.10568122160E+02 0.10925726196E+02 0.11127757995E+02 0.11179450574E+02 0.11104244154E+02
 0.10929263035E+02 0.10672087080E+02 0.10335676623E+02 0.99141207232E+01 0.94061664234E+01
 0.88204475567E+01 0.81703175077E+01 0.74789844775E+01 0.67771974224E+01 0.71500733341E+01
 0.63872601088E+01 0.56805138586E+01 0.50570400674E+01 0.45331335680E+01 0.41153170663E+01
 0.38032187574E+01 0.35928774683E+01 0.34795160673E+01 0.34593565342E+01 0.35305303927E+01
 0.36933899602E+01 0.39504251098E+01 0.43056412904E+01 0.47630399025E+01 0.53240688966E+01
 0.59844354247E+01 0.67310778593E+01 0.75402031073E+01 0.83772246040E+01 0.91991892232E+01
 0.99596830687E+01 0.10615363668E+02 0.11127755006E+02 0.11462168103E+02 0.11617981103E+02
 0.11627194203E+02 0.11535455496E+02 0.11379511560E+02 0.11170773805E+02 0.10892844715E+02
 0.10514756340E+02 0.10013989233E+02 0.93977315569E+01 0.86943313520E+01 0.79326024398E+01
 0.83568257891E+01 0.74929056970E+01 0.66475279359E+01 0.58644046253E+01 0.51756343204E+01
 0.45996804070E+01 0.41430138404E+01 0.38038881542E+01 0.35765693244E+01 0.34548430751E+01
 0.34342801209E+01 0.35133011589E+01 0.36933899602E+01 0.39786958743E+01 0.43748711044E+01
 0.48867988799E+01 0.55152254901E+01 0.62529431229E+01 0.70815708103E+01 0.79700177753E+01
 0.88755348992E+01 0.97477962366E+01 0.10535469954E+02 0.11179449147E+02 0.11617978220E+02
 0.11837545139E+02 0.11876007336E+02 0.11803410124E+02 0.11691340652E+02 0.11582070749E+02
 0.11470533307E+02 0.11307961672E+02 0.11026558700E+02 0.10574627474E+02 0.99465414425E+01
 0.91900638881E+01 0.96408495299E+01 0.87363890936E+01 0.77927950429E+01 0.68687022950E+01
 0.60151713116E+01 0.52686670303E+01 0.46490821580E+01 0.41621823715E+01 0.38044758508E+01
 0.35684215145E+01 0.34465976581E+01 0.34342801209E+01 0.35305303927E+01 0.37382103624E+01
 0.40631678051E+01 0.45123927486E+01 0.50908384454E+01 0.57971331158E+01 0.66191622882E+01
 0.75309009006E+01 0.84918034416E+01 0.94496255113E+01 0.10346487431E+02 0.11104246469E+02
 0.11627193040E+02 0.11876005247E+02 0.11883640527E+02 0.11741913032E+02 0.11567425551E+02
 0.11456987287E+02 0.11448804347E+02 0.11506180086E+02 0.11532250046E+02 0.11410506432E+02
 0.11054204524E+02 0.10444313470E+02 0.10869136425E+02 0.10031562923E+02 0.90575561392E+01
 0.80384085256E+01 0.70423115597E+01 0.61270999895E+01 0.53326885790E+01 0.46795032217E+01
 0.41719946502E+01 0.38047078200E+01 0.35684215145E+01 0.34548430751E+01 0.34593565342E+01
 0.35820277254E+01 0.38273277527E+01 0.42027662480E+01 0.47161780776E+01 0.53714553125E+01
 0.61632651614E+01 0.70721817019E+01 0.80620293555E+01 0.90809094784E+01 0.10066411902E+02
 0.10929265807E+02 0.11535457638E+02 0.11803409586E+02 0.11741912427E+02 0.11449849923E+02
 0.11086648599E+02 0.10819575772E+02 0.10763726821E+02 0.10937442851E+02 0.11253126466E+02
 0.11549231181E+02 0.11650765548E+02 0.11433742408E+02 0.11710199445E+02 0.11208585813E+02
 0.10348407360E+02 0.93088001020E+01 0.82205550844E+01 0.71617744621E+01 0.61959748913E+01
 0.53653102335E+01 0.46897771962E+01 0.41719946502E+01 0.38044758508E+01 0.35765693244E+01
 0.34795160673E+01 0.35092412886E+01 0.36671846199E+01 0.39596156025E+01 0.43955301985E+01
 0.49828443281E+01 0.57228698561E+01 0.66040641397E+01 0.75970648241E+01 0.86532382621E+01
 0.97081194807E+01 0.10672087387E+02 0.11379514322E+02 0.11691342041E+02 0.11567425921E+02
 0.11086649990E+02 0.10431914102E+02 0.98397468373E+01 0.95255219036E+01 0.96081912723E+01
 0.10064644320E+02 0.10735029096E+02 0.11378466856E+02 0.11756286434E+02 0.11757401976E+02
 0.11893957860E+02 0.11458879819E+02 0.10580470351E+02 0.94812615534E+01 0.83325384915E+01
 0.72226285325E+01 0.62192214239E+01 0.53653102335E+01 0.46795032217E+01 0.41621823715E+01
 0.38038881542E+01 0.35928774683E+01 0.35203788905E+01 0.35833179225E+01 0.37848674398E+01
 0.41331927552E+01 0.46383858054E+01 0.53073439353E+01 0.61368985353E+01 0.71068001141E+01
 0.81752547013E+01 0.92795047915E+01 0.10335675626E+02 0.11170775530E+02 0.11582072604E+02
 0.11456987282E+02 0.10819577156E+02 0.98397503292E+01 0.87986239490E+01 0.80124314738E+01
 0.77334918285E+01 0.80625961572E+01 0.89098368443E+01 0.10023011694E+02 0.11072476907E+02
 0.10707000784E+02 0.11698031650E+02 0.12003579837E+02 0.11621994564E+02 0.10721562325E+02
 0.95689829216E+01 0.83703158105E+01 0.72226285325E+01 0.61959748913E+01 0.53326885790E+01
 0.46490821580E+01 0.41430138404E+01 0.38032187574E+01 0.36172732108E+01 0.35768936723E+01
 0.36804828801E+01 0.39332578465E+01 0.43452177728E+01 0.49268814402E+01 0.56826835572E+01
 0.66028094293E+01 0.76558540332E+01 0.87856549010E+01 0.99141202303E+01 0.10892845714E+02
 0.11470535962E+02 0.11448804262E+02 0.10763724974E+02 0.95255241485E+01 0.80124365862E+01
 0.66110587940E+01 0.57104470145E+01 0.55793000220E+01 0.62723789427E+01 0.76075862534E+01
 0.92256651046E+01 0.84710502712E+01 0.10366302445E+02 0.11625125125E+02 0.12059140426E+02
 0.11702046555E+02 0.10768851815E+02 0.95689829216E+01 0.83325384915E+01 0.71617744621E+01
 0.61270999895E+01 0.52686670303E+01 0.45996804070E+01 0.41153170663E+01 0.38027793811E+01
 0.36494466806E+01 0.36480674339E+01 0.37989875242E+01 0.41096694538E+01 0.45916593660E+01
 0.52549308454E+01 0.60997418303E+01 0.71074304266E+01 0.82334152959E+01 0.94061666064E+01
 0.10514755850E+02 0.11307964503E+02 0.11506182717E+02 0.10937440161E+02 0.96081876357E+01
 0.77334944954E+01 0.57104526582E+01 0.40283848432E+01 0.31312534406E+01 0.32753328114E+01
 0.44393890551E+01 0.63285191530E+01 0.52517256046E+01 0.78839905110E+01 0.10126477189E+02
 0.11577665493E+02 0.12075791024E+02 0.11702046555E+02 0.10721562325E+02 0.94812615534E+01
 0.82205550844E+01 0.70423115597E+01 0.60151713116E+01 0.51756343204E+01 0.45331335680E+01
 0.40801608789E+01 0.38027737663E+01 0.36887135896E+01 0.37323283677E+01 0.39363068766E+01
 0.43103794313E+01 0.48670873270E+01 0.56146219623E+01 0.65472438892E+01 0.76355150583E+01
 0.88204490977E+01 0.10013986962E+02 0.11026558082E+02 0.11532253956E+02 0.11253128104E+02
 0.10064639261E+02 0.80625914666E+01 0.55793024537E+01 0.31312581445E+01 0.12956228308E+01
 0.54279043304E+00 0.10830320607E+01 0.27922619479E+01 0.15492418040E+01 0.45339871266E+01
 0.75632465947E+01 0.10040258442E+02 0.11577665493E+02 0.12059140426E+02 0.11621994564E+02
 0.10580470351E+02 0.93088001020E+01 0.80384085256E+01 0.68687022950E+01 0.58644046253E+01
 0.50570400674E+01 0.44518197677E+01 0.40387319446E+01 0.38032026105E+01 0.37339562203E+01
 0.38274825320E+01 0.40890741746E+01 0.45305175316E+01 0.51645403166E+01 0.59961575997E+01
 0.70119365343E+01 0.81703212270E+01 0.93977307180E+01 0.10574622591E+02 0.11410505561E+02
 0.11549235104E+02 0.10735029274E+02 0.89098307680E+01 0.62723745030E+01 0.32753343052E+01
 0.54279279690E+00 -.12873660299E+01 -.17543797062E+01 -.72708616274E+00 -.19200577123E+01
 0.88099342404E+00 0.42821228800E+01 0.75632465947E+01 0.10126477189E+02 0.11625125125E+02
 0.12003579837E+02 0.11458879819E+02 0.10348407360E+02 0.90575561392E+01 0.77927950429E+01
 0.66475279359E+01 0.56805138586E+01 0.49172420348E+01 0.43585345323E+01 0.39922666094E+01
 0.38038635402E+01 0.37836728792E+01 0.39307691750E+01 0.42531021749E+01 0.47640511719E+01
 0.54755300878E+01 0.63879912269E+01 0.74789881250E+01 0.86943346631E+01 0.99465377203E+01
 0.11054197797E+02 0.11650764436E+02 0.11378469799E+02 0.10023010713E+02 0.76075812782E+01
 0.44393863078E+01 0.10830321024E+01 -.17543804841E+01 -.34111633232E+01 -.34747949929E+01
 -.43958663996E+01 -.23365030806E+01 0.88099342404E+00 0.45339871266E+01 0.78839905110E+01
 0.10366302445E+02 0.11698031650E+02 0.11893957860E+02 0.11208585813E+02 0.10031562923E+02
 0.87363890936E+01 0.74929056970E+01 0.63872601088E+01 0.54704686810E+01 0.47613111401E+01
 0.42563862706E+01 0.39420537716E+01 0.38044460565E+01 0.38361192947E+01 0.40389967217E+01
 0.44234912057E+01 0.50038941655E+01 0.57902295190E+01 0.67771977748E+01 0.79326068039E+01
 0.91900655543E+01 0.10444307650E+02 0.11433735531E+02 0.11756285286E+02 0.11072478249E+02
 0.92256638602E+01 0.63285173141E+01 0.27922618723E+01 -.72708769131E+00 -.34747987418E+01
 -.48074198772E+01 -.43958500460E+01 -.37545804845E+01 -.15833322772E+01 0.16057834706E+01
 0.51057238153E+01 0.82208921081E+01 0.10439834393E+02 0.11528612071E+02 0.11537944733E+02
 0.10741414312E+02 0.95298352469E+01 0.82451816998E+01 0.70300056538E+01 0.59640418851E+01
 0.50915788603E+01 0.44258163492E+01 0.39598325726E+01 0.36785819863E+01 0.35683933412E+01
 0.36229296093E+01 0.38455149163E+01 0.42478096827E+01 0.48448691170E+01 0.56466432360E+01
 0.66465253806E+01 0.78096446939E+01 0.90661306756E+01 0.10302958493E+02 0.11235526249E+02
 0.11466678489E+02 0.10681670551E+02 0.87623982072E+01 0.58638010560E+01 0.24279179807E+01
 -.88557005246E+00 -.33539347021E+01 -.37545857460E+01 -.43958540716E+01 -.33539357825E+01
 -.88556976350E+00 0.24279173473E+01 0.58637998431E+01 0.87623997768E+01 0.10681677559E+02
 0.11466689204E+02 0.11235535894E+02 0.10302964026E+02 0.90661327585E+01 0.78096452612E+01
 0.66465254401E+01 0.56466433222E+01 0.48448696710E+01 0.42478101266E+01 0.38455141024E+01
 0.36229279140E+01 0.35683926321E+01 0.36785828600E+01 0.39598333779E+01 0.44258156623E+01
 0.50915771638E+01 0.59640400109E+01 0.70300032836E+01 0.82451781650E+01 0.95298300429E+01
 0.10741406215E+02 0.11537932753E+02 0.11528598612E+02 0.10439825192E+02 0.82208907737E+01
 0.51057275002E+01 0.16057857701E+01 -.15833347602E+01 -.14900136908E+01 -.32544528449E+01
 -.34747866576E+01 -.21069094093E+01 0.50630360457E+00 0.37484695632E+01 0.69205423048E+01
 0.94319681561E+01 0.10930321744E+02 0.11345422675E+02 0.10856358230E+02 0.98043900858E+01
 0.85666984048E+01 0.73520810408E+01 0.62533147005E+01 0.53286318665E+01 0.46031776842E+01
 0.40776221895E+01 0.37399577545E+01 0.35759745666E+01 0.35765471201E+01 0.37414523751E+01
 0.40796931777E+01 0.46062729199E+01 0.53353802878E+01 0.62701637706E+01 0.73906739376E+01
 0.86442079839E+01 0.99434187720E+01 0.11110651444E+02 0.11776170119E+02 0.11573247893E+02
 0.10279351506E+02 0.79108001050E+01 0.47670293338E+01 0.14018242127E+01 0.18487382867E+01
 -.61639546424E+00 -.19194926593E+01 -.17543749208E+01 -.17920979207E+00 0.24039403168E+01
 0.53814138265E+01 0.81143082646E+01 0.10106893027E+02 0.11107446171E+02 0.11128102647E+02
 0.10396536178E+02 0.92625597514E+01 0.80465924685E+01 0.68872800143E+01 0.58632337455E+01
 0.50201345425E+01 0.43738450912E+01 0.39201817628E+01 0.36461589687E+01 0.35391548825E+01
 0.35928671515E+01 0.38100046779E+01 0.42017012317E+01 0.47835463749E+01 0.55681146177E+01
 0.65543354790E+01 0.77158579027E+01 0.89931063898E+01 0.10292704177E+02 0.11407011608E+02
 0.11965230222E+02 0.11637024827E+02 0.10255230607E+02 0.78963424358E+01 0.49057144600E+01
 0.55069939933E+01 0.28870154233E+01 0.92136934493E+00 0.75592515197E-01 0.54279169658E+00
 0.21804795051E+01 0.45601129864E+01 0.71071057800E+01 0.92717167803E+01 0.10668446152E+02
 0.11147491054E+02 0.10793360400E+02 0.98654378977E+01 0.86989505570E+01 0.75213464309E+01
 0.64297370209E+01 0.54883118185E+01 0.47302809828E+01 0.41633472062E+01 0.37798240654E+01
 0.35667925616E+01 0.35137602767E+01 0.36172762894E+01 0.38825902364E+01 0.43223179372E+01
 0.49519066437E+01 0.57817201827E+01 0.68063451059E+01 0.79938021867E+01 0.92795163225E+01
 0.10565840102E+02 0.11628889191E+02 0.12116083551E+02 0.11741208585E+02 0.10391217022E+02
 0.81904769312E+01 0.87526763695E+01 0.64864097273E+01 0.43758513913E+01 0.29221517781E+01
 0.24773932702E+01 0.31312507422E+01 0.46829260097E+01 0.67110265766E+01 0.87101380014E+01
 0.10238043823E+02 0.11023625220E+02 0.11011144308E+02 0.10341744631E+02 0.92871576509E+01
 0.81302305580E+01 0.70064988873E+01 0.59930318080E+01 0.51392273640E+01 0.44668638269E+01
 0.39770966271E+01 0.36601619339E+01 0.35040860269E+01 0.35007896276E+01 0.36494611203E+01
 0.39573530071E+01 0.44378840471E+01 0.51057057209E+01 0.59685609697E+01 0.70168671322E+01
 0.82141031852E+01 0.94927057492E+01 0.10753756720E+02 0.11773679220E+02 0.12230890031E+02
 0.11886287348E+02 0.10674805242E+02 0.11059618632E+02 0.94966516092E+01 0.77051600204E+01
 0.61177926315E+01 0.51342652449E+01 0.49965937026E+01 0.57104401183E+01 0.70462960944E+01
 0.86195498493E+01 0.10014262235E+02 0.10902296731E+02 0.11120739814E+02 0.10692980489E+02
 0.97974549947E+01 0.86950011867E+01 0.75727251127E+01 0.65170257484E+01 0.55892967363E+01
 0.48249667304E+01 0.42361705887E+01 0.38193588454E+01 0.35640015049E+01 0.34596932905E+01
 0.35007922112E+01 0.36887352834E+01 0.40321745261E+01 0.45446811634E+01 0.52395602933E+01
 0.61217100929E+01 0.71778016340E+01 0.83680558656E+01 0.96239304692E+01 0.10849155568E+02
 0.11835927310E+02 0.12301069730E+02 0.12051256924E+02 0.12197897468E+02 0.11474482497E+02
 0.10306237666E+02 0.89944816159E+01 0.78923150570E+01 0.72972788679E+01 0.73550420765E+01
 0.80124211457E+01 0.90394974880E+01 0.10110230769E+02 0.10907228351E+02 0.11212142082E+02
 0.10956060284E+02 0.10221995379E+02 0.92049689535E+01 0.81116894203E+01 0.70430953173E+01
 0.60667408755E+01 0.52288507613E+01 0.45526997351E+01 0.40429914915E+01 0.36932769686E+01
 0.34933167537E+01 0.34346116997E+01 0.35137679416E+01 0.37339807482E+01 0.41046968269E+01
 0.46390477420E+01 0.53485518897E+01 0.62352132897E+01 0.72825772163E+01 0.84489966741E+01
 0.96668769916E+01 0.10846247382E+02 0.11807353711E+02 0.12308684743E+02 0.12230743568E+02
 0.12278978324E+02 0.11837202514E+02 0.11056242692E+02 0.10184355349E+02 0.94918134455E+01
 0.91829001744E+01 0.93274802269E+01 0.98397350742E+01 0.10512240492E+02 0.11089602348E+02
 0.11351545061E+02 0.11176806448E+02 0.10571083888E+02 0.96554362559E+01 0.86118686561E+01
 0.75564472056E+01 0.65574746823E+01 0.56677676309E+01 0.49200414332E+01 0.43278570572E+01
 0.38907678464E+01 0.36009831818E+01 0.34492899073E+01 0.34291758600E+01 0.35391669509E+01
 0.37836966212E+01 0.41724355149E+01 0.47175510093E+01 0.54284480325E+01 0.63043527466E+01
 0.73264618959E+01 0.84526938686E+01 0.96181960625E+01 0.10741489836E+02 0.11678775440E+02
 0.11443390663E+02 0.12045355955E+02 0.12248579528E+02 0.12070256437E+02 0.11634211968E+02
 0.11130999143E+02 0.10752979824E+02 0.10626898578E+02 0.10769907106E+02 0.11086638020E+02