unknown system                          
           1
    -2.450000    2.450000    1.274000
     2.450000   -2.450000    1.274000
     2.450000    2.450000   -1.274000
   Si
   2
Direct configuration=     1
   0.25000000  0.75000000  0.50000000
   0.00000000  0.00000000  0.00000000
unknown system                          
           1
    -2.318384    2.318384    1.389265
     2.318384   -2.318384    1.389265
     2.318384    2.318384   -1.389265
   Si
   2
Direct configuration=     2
   0.25000000  0.75000000  0.50000000
   0.00000000  0.00000000  0.00000000
unknown system                          
           1
    -2.374041    2.374041    1.340523
     2.374041   -2.374041    1.340523
     2.374041    2.374041   -1.340523
   Si
   2
Direct configuration=     3
   0.25000000  0.75000000  0.50000000
   0.00000000  0.00000000  0.00000000
unknown system                          
           1
    -2.373280    2.373280    1.341189
     2.373280   -2.373280    1.341189
     2.373280    2.373280   -1.341189
   Si
   2
Direct configuration=     4
   0.25000000  0.75000000  0.50000000
   0.00000000  0.00000000  0.00000000
unknown system                          
           1
    -2.373517    2.373517    1.340982
     2.373517   -2.373517    1.340982
     2.373517    2.373517   -1.340982
   Si
   2
Direct configuration=     5
   0.25000000  0.75000000  0.50000000
   0.00000000  0.00000000  0.00000000
unknown system                          
           1
    -2.373779    2.373779    1.340752
     2.373779   -2.373779    1.340752
     2.373779    2.373779   -1.340752
   Si
   2
Direct configuration=     6
   0.25000000  0.75000000  0.50000000
   0.00000000  0.00000000  0.00000000
unknown system                          
           1
    -2.381120    2.381120    1.346257
     2.381120   -2.381120    1.346257
     2.381120    2.381120   -1.346257
   Si
   2
Direct configuration=     7
   0.25000000  0.75000000  0.50000000
  -0.00000000  0.00000000  0.00000000
unknown system                          
           1
    -2.381011    2.381011    1.346175
     2.381011   -2.381011    1.346175
     2.381011    2.381011   -1.346175
   Si
   2
Direct configuration=     8
   0.25000000  0.75000000  0.50000000
  -0.00000000  0.00000000  0.00000000
unknown system                          
           1
    -2.378986    2.378986    1.344657
     2.378986   -2.378986    1.344657
     2.378986    2.378986   -1.344657
   Si
   2
Direct configuration=     9
   0.25000000  0.75000000  0.50000000
  -0.00000000  0.00000000  0.00000000
unknown system                          
           1
    -2.378234    2.378234    1.344092
     2.378234   -2.378234    1.344092
     2.378234    2.378234   -1.344092
   Si
   2
Direct configuration=    10
   0.25000000  0.75000000  0.50000000
  -0.00000000  0.00000000  0.00000000
unknown system                          
           1
    -2.378591    2.378591    1.344360
     2.378591   -2.378591    1.344360
     2.378591    2.378591   -1.344360
   Si
   2
Direct configuration=    11
   0.25000000  0.75000000  0.50000000
  -0.00000000  0.00000000  0.00000000
unknown system                          
           1
    -2.378788    2.378788    1.344508
     2.378788   -2.378788    1.344508
     2.378788    2.378788   -1.344508
   Si
   2
Direct configuration=    12
   0.25000000  0.75000000  0.50000000
  -0.00000000  0.00000000  0.00000000
unknown system                          
           1
    -2.378887    2.378887    1.344583
     2.378887   -2.378887    1.344583
     2.378887    2.378887   -1.344583
   Si
   2
Direct configuration=    13
   0.25000000  0.75000000  0.50000000
  -0.00000000  0.00000000  0.00000000
unknown system                          
           1
    -2.378937    2.378937    1.344620
     2.378937   -2.378937    1.344620
     2.378937    2.378937   -1.344620
   Si
   2
Direct configuration=    14
   0.25000000  0.75000000  0.50000000
  -0.00000000  0.00000000  0.00000000
unknown system                          
           1
    -2.378961    2.378961    1.344638
     2.378961   -2.378961    1.344638
     2.378961    2.378961   -1.344638
   Si
   2
Direct configuration=    15
   0.25000000  0.75000000  0.50000000
  -0.00000000  0.00000000  0.00000000
