unknown system                          
   1.00000000000000     
    -2.318384    2.318384    1.389265
     2.318384   -2.318384    1.389265
     2.318384    2.318384   -1.389265
   Si
     2
Direct
  0.250000  0.750000  0.500000
  0.000000  0.000000  0.000000
 
   36   36   36
 -5.2731     -4.3420     -1.7868      1.7619      5.4927      8.6587      10.763      11.639      11.422      10.461    
  9.1828      7.8898      6.6977      5.6758      4.8567      4.2443      3.8260      3.5844      3.5056      3.5844    
  3.8260      4.2443      4.8567      5.6758      6.6977      7.8898      9.1828      10.461      11.422      11.639    
  10.763      8.6587      5.4927      1.7619     -1.7868     -4.3420     -4.3420     -4.8367     -3.5158     -.71892    
  2.8694      6.4453      9.3198      11.079      11.635      11.184      10.104      8.8096      7.5394      6.3913    
  5.4245      4.6632      4.1059      3.7377      3.5416      3.5054      3.6265      3.9126      4.3787      5.0418    
  5.9118      6.9791      8.2031      9.5066      10.751      11.589      11.602      10.483      8.1590      4.8700    
  1.1744     -2.1564     -1.7868     -3.5158     -3.5748     -1.9534     0.92924      4.3707      7.6120      10.050    
  11.367      11.557      10.869      9.6904      8.3988      7.1642      6.0708      5.1668      4.4680      3.9680    
  3.6505      3.4994      3.5049      3.6667      3.9946      4.5043      5.2119      6.1239      7.2252      8.4684    
  9.7703      10.969      11.696      11.556      10.292      7.8905      4.6536      1.1744      1.7619     -.71893    
 -1.9534     -1.6237     0.17672      2.9782      6.0976      8.8533      10.748      11.568      11.382      10.476    
  9.2365      7.9637      6.7767      5.7471      4.9114      4.2775      3.8350      3.5672      3.4594      3.5043    
  3.7039      4.0694      4.6168      5.3607      6.3041      7.4267      8.6761      9.9651      11.114      11.754    
  11.526      10.224      7.8905      4.8700      5.4927      2.8694     0.92923     0.17672     0.80942      2.6498    
  5.2110      7.8631      10.026      11.321      11.632      11.095      10.018      8.7576      7.5178      6.3896    
  5.4306      4.6662      4.0973      3.7108      3.4903      3.4230      3.5039      3.7370      4.1345      4.7122    
  5.4827      6.4455      7.5763      8.8188      10.084      11.186      11.772      11.526      10.292      8.1590    
  8.6587      6.4453      4.3707      2.9782      2.6498      3.4738      5.2156      7.4035      9.4880      11.006    
  11.694      11.531      10.703      9.5187      8.2679      7.0751      6.0148      5.1307      4.4383      3.9325    
  3.5990      3.4222      3.3915      3.5039      3.7652      4.1879      4.7870      5.5732      6.5429      7.6683    
  8.8915      10.124      11.186      11.754      11.556      10.483      10.763      9.3198      7.6120      6.0976    
  5.2110      5.2156      6.1104      7.6331      9.3555      10.826      11.701      11.830      11.266      10.227    
  9.0040      7.7825      6.6491      5.6632      4.8557      4.2334      3.7873      3.5024      3.3647      3.3657    
  3.5043      3.7874      4.2274      4.8385      5.6289      6.5925      7.6994      8.8915      10.084      11.114    
  11.696      11.602      11.639      11.079      10.050      8.8533      7.8631      7.4035      7.6331      8.4869    
  9.7029      10.917      11.782      12.070      11.726      10.863      9.7095      8.4925      7.3169      6.2527    
  5.3446      4.6124      4.0563      3.6647      3.4231      3.3191      3.3462      3.5049      3.8027      4.2518    
  4.8647      5.6477      6.5925      7.6683      8.8188      9.9651      10.969      11.589      11.422      11.635    
  11.367      10.748      10.026      9.4880      9.3556      9.7029      10.428      11.291      12.003      12.321    
  12.119      11.420      10.372      9.1892      8.0024      6.8866      5.8974      5.0671      4.4065      3.9107    
  3.5672      3.3625      3.2861      3.3331      3.5054      3.8106      4.2600      4.8647      5.6289      6.5429    
  7.5763      8.6761      9.7703      10.751      10.461      11.184      11.557      11.568      11.321      11.006    
  10.826      10.917      11.291      11.832      12.339      12.602      12.470      11.902      10.977      9.8586    
  8.6907      7.5522      6.5055      5.5934      4.8376      4.2421      3.7993      3.4966      3.3217      3.2662    
  3.3267      3.5056      3.8106      4.2518      4.8385      5.5732      6.4455      7.4267      8.4684      9.5066    
  9.1828      10.104      10.869      11.382      11.632      11.694      11.701      11.782      12.003      12.339    
  12.679      12.867      12.766      12.305      11.507      10.483      9.3663      8.2362      7.1592      6.1860    
  5.3487      4.6611      4.1225      3.7241      3.4538      3.3012      3.2595      3.3267      3.5054      3.8027    
  4.2274      4.7870      5.4827      6.3041      7.2252      8.2031      7.8898      8.8096      9.6903      10.476    
  11.095      11.531      11.830      12.070      12.321      12.602      12.867      13.021      12.957      12.599    
  11.938      11.039      10.009      8.9225      7.8467      6.8382      5.9380      5.1697      4.5414      4.0499    
  3.6861      3.4395      3.3012      3.2662      3.3331      3.5049      3.7874      4.1879      4.7122      5.3607    
  6.1239      6.9791      6.6977      7.5394      8.3988      9.2365      10.018      10.703      11.266      11.726    
  12.119      12.470      12.766      12.957      12.968      12.735      12.232      11.494      10.591      9.5885    
  8.5514      7.5394      6.6008      5.7687      5.0606      4.4810      4.0256      3.6861      3.4538      3.3217    
  3.2861      3.3462      3.5043      3.7652      4.1345      4.6168      5.2119      5.9118      5.6758      6.3913    
  7.1642      7.9637      8.7576      9.5187      10.227      10.863      11.420      11.902      12.305      12.599    
  12.735      12.662      12.349      11.807      11.075      10.203      9.2489      8.2725      7.3274      6.4552    
  5.6830      5.0240      4.4810      4.0499      3.7241      3.4966      3.3625      3.3191      3.3657      3.5039    
  3.7370      4.0694      4.5043      5.0418      4.8567      5.4245      6.0708      6.7767      7.5178      8.2679    
  9.0040      9.7095      10.372      10.977      11.507      11.938      12.232      12.349      12.256      11.943    
  11.423      10.728      9.9057      9.0110      8.0996      7.2193      6.4062      5.6830      5.0606      4.5414    
  4.1225      3.7993      3.5672      3.4231      3.3647      3.3915      3.5039      3.7039      3.9946      4.3787    
  4.2443      4.6632      5.1668      5.7471      6.3896      7.0751      7.7825      8.4925      9.1892      9.8586    
  10.483      11.039      11.494      11.807      11.943      11.876      11.599      11.123      10.481      9.7189    
  8.8887      8.0411      7.2193      6.4552      5.7687      5.1697      4.6611      4.2421      3.9107      3.6647    
  3.5024      3.4222      3.4230      3.5043      3.6667      3.9126      3.8260      4.1059      4.4680      4.9114    
  5.4306      6.0148      6.6491      7.3169      8.0024      8.6907      9.3663      10.009      10.591      11.075    
  11.423      11.599      11.577      11.350      10.932      10.353      9.6553      8.8887      8.0996      7.3274    
  6.6008      5.9380      5.3487      4.8376      4.4065      4.0563      3.7873      3.5990      3.4903      3.4594    
  3.5049      3.6265      3.5844      3.7377      3.9680      4.2775      4.6663      5.1307      5.6632      6.2527    
  6.8866      7.5522      8.2362      8.9225      9.5885      10.203      10.728      11.123      11.350      11.385    
  11.220      10.867      10.353      9.7189      9.0110      8.2725      7.5394      6.8382      6.1860      5.5934    
  5.0671      4.6124      4.2334      3.9325      3.7108      3.5672      3.4994      3.5054      3.5056      3.5416    
  3.6505      3.8350      4.0973      4.4383      4.8557      5.3446      5.8974      6.5055      7.1592      7.8467    
  8.5514      9.2489      9.9057      10.481      10.932      11.220      11.319      11.220      10.932      10.481    
  9.9057      9.2489      8.5514      7.8467      7.1592      6.5055      5.8974      5.3446      4.8557      4.4383    
  4.0973      3.8350      3.6505      3.5416      3.5844      3.5054      3.4994      3.5672      3.7108      3.9325    
  4.2334      4.6125      5.0671      5.5934      6.1860      6.8382      7.5394      8.2724      9.0110      9.7189    
  10.353      10.867      11.220      11.385      11.350      11.123      10.728      10.203      9.5885      8.9225    
  8.2362      7.5522      6.8866      6.2527      5.6632      5.1307      4.6662      4.2775      3.9680      3.7377    
  3.8260      3.6265      3.5049      3.4594      3.4903      3.5990      3.7873      4.0563      4.4065      4.8376    
  5.3487      5.9380      6.6008      7.3274      8.0996      8.8887      9.6553      10.353      10.932      11.350    
  11.577      11.599      11.423      11.075      10.591      10.009      9.3663      8.6907      8.0024      7.3169    
  6.6491      6.0148      5.4306      4.9114      4.4680      4.1059      4.2443      3.9126      3.6667      3.5043    
  3.4230      3.4222      3.5024      3.6647      3.9107      4.2421      4.6611      5.1697      5.7687      6.4552    
  7.2193      8.0411      8.8887      9.7189      10.481      11.123      11.599      11.876      11.943      11.807    
  11.494      11.039      10.483      9.8586      9.1892      8.4925      7.7825      7.0751      6.3896      5.7471    
  5.1668      4.6632      4.8567      4.3786      3.9945      3.7039      3.5039      3.3915      3.3647      3.4231    
  3.5673      3.7993      4.1225      4.5414      5.0606      5.6830      6.4062      7.2193      8.0996      9.0110    
  9.9057      10.728      11.423      11.943      12.256      12.349      12.232      11.938      11.507      10.977    
  10.372      9.7095      9.0040      8.2679      7.5178      6.7767      6.0708      5.4245      5.6758      5.0418    
  4.5043      4.0694      3.7370      3.5039      3.3657      3.3191      3.3625      3.4966      3.7241      4.0500    
  4.4810      5.0240      5.6830      6.4552      7.3274      8.2724      9.2489      10.203      11.075      11.807    
  12.349      12.662      12.735      12.599      12.305      11.902      11.420      10.863      10.227      9.5187    
  8.7576      7.9637      7.1642      6.3913      6.6977      5.9118      5.2119      4.6168      4.1345      3.7652    
  3.5043      3.3462      3.2861      3.3217      3.4538      3.6862      4.0256      4.4810      5.0606      5.7687    
  6.6008      7.5394      8.5514      9.5885      10.591      11.494      12.232      12.735      12.968      12.957    
  12.766      12.470      12.119      11.726      11.266      10.703      10.018      9.2365      8.3988      7.5394    
  7.8898      6.9791      6.1239      5.3607      4.7122      4.1879      3.7874      3.5049      3.3331      3.2662    
  3.3012      3.4395      3.6862      4.0500      4.5414      5.1697      5.9380      6.8382      7.8467      8.9225    
  10.009      11.039      11.938      12.599      12.957      13.021      12.867      12.602      12.321      12.070    
  11.830      11.531      11.095      10.476      9.6904      8.8096      9.1828      8.2031      7.2252      6.3041    
  5.4827      4.7870      4.2275      3.8027      3.5054      3.3267      3.2595      3.3012      3.4538      3.7241    
  4.1225      4.6611      5.3487      6.1860      7.1592      8.2362      9.3663      10.483      11.507      12.305    
  12.766      12.867      12.679      12.339      12.003      11.782      11.701      11.694      11.632      11.382    
  10.869      10.104      10.461      9.5066      8.4684      7.4268      6.4455      5.5732      4.8385      4.2518    
  3.8106      3.5056      3.3267      3.2662      3.3217      3.4966      3.7993      4.2421      4.8376      5.5934    
  6.5055      7.5522      8.6907      9.8586      10.977      11.902      12.470      12.602      12.339      11.832    
  11.291      10.917      10.826      11.006      11.321      11.568      11.557      11.184      11.422      10.751    
  9.7703      8.6761      7.5763      6.5429      5.6290      4.8648      4.2601      3.8106      3.5054      3.3331    
  3.2861      3.3625      3.5673      3.9107      4.4065      5.0671      5.8974      6.8866      8.0024      9.1892    
  10.372      11.420      12.119      12.321      12.003      11.291      10.428      9.7029      9.3555      9.4880    
  10.026      10.748      11.367      11.635      11.639      11.589      10.969      9.9651      8.8188      7.6684    
  6.5925      5.6478      4.8648      4.2518      3.8027      3.5049      3.3462      3.3191      3.4231      3.6647    
  4.0563      4.6125      5.3446      6.2527      7.3169      8.4925      9.7095      10.863      11.726      12.070    
  11.782      10.917      9.7029      8.4869      7.6331      7.4035      7.8631      8.8533      10.050      11.079    
  10.763      11.602      11.696      11.114      10.084      8.8915      7.6994      6.5925      5.6290      4.8385    
  4.2275      3.7874      3.5043      3.3657      3.3647      3.5024      3.7873      4.2334      4.8557      5.6632    
  6.6491      7.7825      9.0040      10.227      11.266      11.830      11.701      10.826      9.3556      7.6331    
  6.1104      5.2156      5.2110      6.0976      7.6120      9.3198      8.6587      10.483      11.556      11.754    
  11.186      10.124      8.8915      7.6684      6.5429      5.5732      4.7870      4.1879      3.7652      3.5039    
  3.3915      3.4222      3.5990      3.9325      4.4383      5.1307      6.0148      7.0751      8.2679      9.5187    
  10.703      11.531      11.694      11.006      9.4880      7.4035      5.2156      3.4738      2.6498      2.9782    
  4.3707      6.4453      5.4927      8.1590      10.292      11.526      11.772      11.186      10.084      8.8188    
  7.5763      6.4455      5.4827      4.7122      4.1345      3.7370      3.5039      3.4230      3.4903      3.7108    
  4.0973      4.6663      5.4306      6.3896      7.5178      8.7576      10.018      11.095      11.632      11.321    
  10.026      7.8631      5.2110      2.6498     0.80942     0.17672     0.92924      2.8694      1.7619      4.8700    
  7.8905      10.224      11.526      11.754      11.114      9.9651      8.6761      7.4268      6.3041      5.3607    
  4.6168      4.0694      3.7039      3.5043      3.4594      3.5672      3.8350      4.2775      4.9114      5.7471    
  6.7767      7.9637      9.2365      10.476      11.382      11.568      10.748      8.8533      6.0976      2.9782    
 0.17672     -1.6237     -1.9534     -.71892     -1.7868      1.1744      4.6536      7.8905      10.292      11.556    
  11.696      10.969      9.7703      8.4684      7.2252      6.1239      5.2119      4.5043      3.9945      3.6667    
  3.5049      3.4994      3.6505      3.9680      4.4680      5.1668      6.0708      7.1642      8.3988      9.6903    
  10.869      11.557      11.367      10.050      7.6120      4.3707     0.92923     -1.9534     -3.5748     -3.5158    
 -4.3420     -2.1564      1.1744      4.8700      8.1590      10.483      11.602      11.589      10.751      9.5066    
  8.2031      6.9791      5.9118      5.0418      4.3786      3.9126      3.6265      3.5054      3.5416      3.7377    
  4.1059      4.6632      5.4245      6.3913      7.5394      8.8096      10.104      11.184      11.635      11.079    
  9.3198      6.4453      2.8694     -.71893     -3.5158     -4.8367     -4.3420     -3.6468     -1.3786      1.9006    
  5.4310      8.4866      10.562      11.460      11.286      10.360      9.0965      7.8058      6.6091      5.5776    
  4.7460      4.1193      3.6852      3.4259      3.3266      3.3809      3.5925      3.9745      4.5446      5.3171    
  6.2927      7.4446      8.7107      9.9883      11.021      11.397      10.761      8.9518      6.0938      2.6277    
 -.75678     -3.2881     -3.6468     -4.3420     -3.2881     -.75676      2.6277      6.0939      8.9519      10.761    
  11.397      11.021      9.9883      8.7107      7.4447      6.2927      5.3172      4.5446      3.9746      3.5925    
  3.3809      3.3266      3.4259      3.6852      4.1193      4.7460      5.5776      6.6091      7.8058      9.0965    
  10.360      11.286      11.460      10.562      8.4866      5.4310      1.9006     -1.3787     -1.2984     -3.2021    
 -3.5158     -2.1653     0.49720      3.8151      7.0404      9.5488      10.983      11.294      10.698      9.5694    
  8.2944      7.0642      5.9673      5.0554      4.3466      3.8357      3.5067      3.3427      3.3331      3.4766    
  3.7821      4.2656      4.9444      5.8280      6.9058      8.1358      9.4400      10.676      11.500      11.513    
  10.437      8.2267      5.1384      1.7200      2.1082     -.52459     -2.0025     -1.9534     -.40138      2.2429    
  5.3236      8.1493      10.185      11.168      11.124      10.314      9.1171      7.8599      6.6766      5.6433    
  4.8005      4.1581      3.7070      3.4303      3.3128      3.3461      3.5318      3.8805      4.4089      5.1332    
  6.0597      7.1725      8.4236      9.7301      10.931      11.670      11.578      10.423      8.2154      5.2555    
  5.7711      3.0216     0.85723     -.17845     0.17673      1.8128      4.2880      6.9803      9.2819      10.764    
  11.260      10.868      9.8754      8.6465      7.4196      6.2935      5.3306      4.5601      3.9846      3.5919    
  3.3655      3.2920      3.3657      3.5901      3.9775      4.5445      5.3060      6.2645      7.3996      8.6587    
  9.9567      11.121      11.802      11.668      10.536      8.4605      8.9331      6.6244      4.3571      2.6961    
  2.0751      2.6498      4.2444      6.4156      8.6033      10.303      11.200      11.220      10.519      9.3974    
  8.1698      6.9861      5.9261      5.0382      4.3407      3.8306      3.4937      3.3144      3.2814      3.3915    
  3.6501      4.0701      4.6680      5.4565      6.4349      7.5787      8.8326      10.111      11.241      11.895    
  11.781      10.764      11.077      9.5723      7.7143      5.9657      4.7955      4.5247      5.2156      6.6512    
  8.4144      10.029      11.104      11.434      11.031      10.090      8.9049      7.6999      6.5717      5.5846    
  4.7735      4.1478      3.6998      3.4147      3.2782      3.2814      3.4230      3.7100      4.1556      4.7752    
  5.5794      6.5644      7.7028      8.9382      10.187      11.286      11.942      11.904      12.012      11.425    
  10.294      8.9129      7.6728      6.9401      6.9307      7.6331      8.8152      10.109      11.134      11.614    
  11.444      10.704      9.6103      8.4160      7.2505      6.1879      5.2778      4.5431      3.9857      3.5951    
  3.3567      3.2580      3.2920      3.4594      3.7680      4.2308      4.8620      5.6699      6.6478      7.7667    
  8.9707      10.180      11.253      11.932      11.853      12.072      11.750      11.003      10.083      9.3016    
  8.9253      9.0796      9.7028      10.571      11.381      11.852      11.812      11.244      10.274      9.1198    
  7.9464      6.8350      5.8454      5.0133      4.3518      3.8575      3.5184      3.3207      3.2538      3.3128    
  3.4994      3.8221      4.2932      4.9253      5.7243      6.6816      7.7674      8.9277      10.089      11.135    
  10.931      11.689      12.052      11.991      11.606      11.098      10.698      10.584      10.811      11.291    
  11.825      12.182      12.177      11.728      10.884      9.7988      8.6451      7.5126      6.4666      5.5534    
  4.7971      4.2035      3.7656      3.4709      3.3072      3.2656      3.3428      3.5416      3.8703      4.3404    
  4.9626      5.7404      6.6640      7.7040      8.8101      9.9156      9.6655      10.642      11.432      11.925    
  12.098      12.026      11.857      11.750      11.808      12.036      12.339      12.559      12.532      12.158    
  11.429      10.438      9.3317      8.2069      7.1309      6.1570      5.3197      4.6342      4.1010      3.7114    
  3.4533      3.3160      3.2925      3.3809      3.5844      3.9110      4.3706      4.9721      5.7171      6.5951    
  7.5784      8.6215      8.3687      9.3471      10.276      11.081      11.676      12.038      12.215      12.304    
  12.401      12.554      12.739      12.867      12.823      12.509      11.890      11.013      9.9863      8.9016    
  7.8256      6.8162      5.9161      5.1505      4.5282      4.0463      3.6957      3.4655      3.3466      3.3338    
  3.4259      3.6266      3.9426      4.3827      4.9533      5.6550      6.4773      7.3952      7.1613      8.0611    
  8.9715      9.8474      10.645      11.306      11.802      12.158      12.427      12.653      12.848      12.974    
  12.957      12.723      12.229      11.491      10.581      9.5740      8.5334      7.5192      6.5806      5.7516    
  5.0502      4.4813      4.0404      3.7188      3.5071      3.3983      3.3882      3.4767      3.6667      3.9643    
  4.3761      4.9069      5.5565      6.3152      6.1151      6.8861      7.7103      8.5521      9.3742      10.144    
  10.832      11.410      11.881      12.262      12.563      12.772      12.847      12.735      12.397      11.831    
  11.078      10.193      9.2297      8.2485      7.3025      6.4335      5.6689      5.0219      4.4950      4.0836    
  3.7803      3.5775      3.4698      3.4546      3.5318      3.7039      3.9753      4.3510      4.8346      5.4253    
  5.2667      5.8851      6.5802      7.3293      8.1034      8.8719      9.6074      10.290      10.905      11.438    
  11.883      12.227      12.444      12.496      12.349      11.991      11.437      10.719      9.8806      8.9773    
  8.0631      7.1858      6.3809      5.6712      5.0668      4.5695      4.1755      3.8792      3.6752      3.5600    
  3.5316      3.5901      3.7370      3.9753      4.3084      4.7391      4.6241      5.0870      5.6343      6.2551    
  6.9317      7.6407      8.3572      9.0584      9.7265      10.348      10.908      11.389      11.764      12.001    
  12.068      11.943      11.620      11.110      10.445      9.6694      8.8338      7.9884      7.1754      6.4260    
  5.7596      5.1849      4.7040      4.3147      4.0139      3.7986      3.6668      3.6174      3.6501      3.7652    
  3.9643      4.2499      4.1775      4.4941      4.8931      5.3719      5.9225      6.5312      7.1796      7.8476    
  8.5167      9.1709      9.7956      10.374      10.882      11.291      11.566      11.676      11.599      11.329    
  10.880      10.281      9.5756      8.8098      8.0297      7.2734      6.5688      5.9329      5.3743      4.8961    
  4.4988      4.1820      3.9453      3.7883      3.7101      3.7100      3.7873      3.9426      3.9110      4.0940    
  4.3539      4.6921      5.1072      5.5936      6.1408      6.7349      7.3604      8.0025      8.6472      9.2797    
  9.8805      10.423      10.875      11.200      11.366      11.350      11.147      10.768      10.242      9.6078    
  8.9089      8.1874      7.4781      6.8062      6.1875      5.6310      5.1421      4.7242      4.3803      4.1123    
  3.9214      3.8071      3.7680      3.8027      3.8106      3.8703      4.0023      4.2085      4.4909      4.8488    
  5.2785      5.7725      6.3207      6.9120      7.5351      8.1781      8.8260      9.4574      10.043      10.548    
  10.934      11.165      11.220      11.091      10.786      10.333      9.7663      9.1280      8.4564      7.7833    
  7.1317      6.5169      5.9492      5.4366      4.9862      4.6043      4.2958      4.0628      3.9055      3.8221    
  3.8703      3.8106      3.8221      3.9055      4.0628      4.2958      4.6043      4.9862      5.4366      5.9492    
  6.5169      7.1317      7.7833      8.4564      9.1280      9.7663      10.333      10.786      11.091      11.220    
  11.165      10.933      10.548      10.043      9.4574      8.8260      8.1781      7.5351      6.9120      6.3207    
  5.7725      5.2785      4.8488      4.4909      4.2085      4.0023      4.0940      3.9110      3.8027      3.7680    
  3.8071      3.9214      4.1123      4.3803      4.7242      5.1421      5.6310      6.1875      6.8062      7.4781    
  8.1874      8.9089      9.6078      10.242      10.768      11.147      11.350      11.366      11.200      10.875    
  10.423      9.8805      9.2797      8.6472      8.0025      7.3604      6.7349      6.1408      5.5936      5.1072    
  4.6921      4.3539      4.4941      4.1775      3.9427      3.7873      3.7100      3.7101      3.7883      3.9453    
  4.1820      4.4988      4.8961      5.3743      5.9329      6.5688      7.2734      8.0297      8.8098      9.5756    
  10.281      10.880      11.329      11.599      11.676      11.566      11.291      10.882      10.374      9.7956    
  9.1709      8.5167      7.8477      7.1796      6.5312      5.9225      5.3719      4.8931      5.0870      4.6241    
  4.2499      3.9643      3.7652      3.6501      3.6174      3.6668      3.7986      4.0139      4.3147      4.7040    
  5.1849      5.7596      6.4260      7.1754      7.9884      8.8338      9.6694      10.445      11.110      11.620    
  11.943      12.068      12.001      11.764      11.389      10.908      10.348      9.7265      9.0584      8.3572    
  7.6408      6.9317      6.2551      5.6343      5.8851      5.2667      4.7390      4.3084      3.9753      3.7370    
  3.5901      3.5316      3.5600      3.6752      3.8792      4.1755      4.5696      5.0668      5.6712      6.3809    
  7.1858      8.0631      8.9773      9.8806      10.719      11.437      11.991      12.349      12.496      12.444    
  12.227      11.883      11.438      10.905      10.290      9.6074      8.8719      8.1034      7.3292      6.5802    
  6.8861      6.1151      5.4253      4.8346      4.3510      3.9753      3.7039      3.5318      3.4546      3.4699    
  3.5775      3.7803      4.0836      4.4950      5.0219      5.6689      6.4335      7.3025      8.2485      9.2297    
  10.193      11.078      11.831      12.397      12.735      12.847      12.772      12.563      12.262      11.881    
  11.410      10.832      10.144      9.3742      8.5521      7.7103      8.0611      7.1613      6.3151      5.5565    
  4.9069      4.3760      3.9643      3.6667      3.4767      3.3882      3.3983      3.5071      3.7188      4.0404    
  4.4813      5.0502      5.7516      6.5806      7.5192      8.5334      9.5740      10.581      11.491      12.229    
  12.723      12.957      12.974      12.848      12.653      12.427      12.158      11.802      11.306      10.645    
  9.8474      8.9715      9.3470      8.3687      7.3951      6.4773      5.6550      4.9533      4.3827      3.9426    
  3.6266      3.4259      3.3338      3.3466      3.4655      3.6957      4.0463      4.5282      5.1505      5.9161    
  6.8162      7.8256      8.9016      9.9863      11.013      11.890      12.509      12.823      12.867      12.739    
  12.554      12.401      12.304      12.215      12.037      11.676      11.081      10.276      10.642      9.6654    
  8.6215      7.5784      6.5951      5.7171      4.9721      4.3707      3.9110      3.5844      3.3809      3.2925    
  3.3160      3.4533      3.7114      4.1011      4.6343      5.3197      6.1571      7.1309      8.2069      9.3317    
  10.438      11.429      12.158      12.532      12.559      12.339      12.036      11.808      11.750      11.857    
  12.026      12.098      11.925      11.432      11.689      10.931      9.9156      8.8101      7.7039      6.6640    
  5.7404      4.9626      4.3404      3.8703      3.5416      3.3428      3.2656      3.3072      3.4709      3.7656    
  4.2035      4.7972      5.5534      6.4666      7.5126      8.6451      9.7988      10.884      11.728      12.177    
  12.182      11.825      11.291      10.811      10.584      10.698      11.098      11.606      11.991      12.052    
  12.072      11.853      11.135      10.089      8.9277      7.7674      6.6816      5.7243      4.9254      4.2932    
  3.8221      3.4994      3.3128      3.2538      3.3207      3.5184      3.8576      4.3518      5.0133      5.8454    
  6.8350      7.9464      9.1198      10.274      11.244      11.812      11.852      11.381      10.571      9.7029    
  9.0796      8.9253      9.3016      10.083      11.003      11.750      11.425      12.012      11.932      11.253    
  10.180      8.9707      7.7668      6.6478      5.6699      4.8620      4.2308      3.7680      3.4594      3.2920    
  3.2580      3.3567      3.5951      3.9857      4.5431      5.2778      6.1879      7.2505      8.4160      9.6103    
  10.704      11.444      11.614      11.134      10.109      8.8152      7.6331      6.9307      6.9401      7.6728    
  8.9129      10.294      9.5723      11.077      11.904      11.942      11.286      10.187      8.9382      7.7028    
  6.5644      5.5794      4.7752      4.1556      3.7100      3.4230      3.2814      3.2782      3.4147      3.6998    
  4.1479      4.7736      5.5846      6.5717      7.7000      8.9049      10.090      11.031      11.434      11.104    
  10.029      8.4144      6.6512      5.2156      4.5247      4.7955      5.9657      7.7143      6.6243      8.9331    