unknown system                          
   1.00000000000000     
    -2.450000    2.450000    1.274000
     2.450000   -2.450000    1.274000
     2.450000    2.450000   -1.274000
   Si
     2
Direct
  0.250000  0.750000  0.500000
  0.000000  0.000000  0.000000
 
   36   36   36
 -.52731343292E+01 -.43419851368E+01 -.17867599340E+01 0.17618978333E+01 0.54926815420E+01
 0.86587322185E+01 0.10763308659E+02 0.11638658588E+02 0.11421993584E+02 0.10460811201E+02
 0.91828370359E+01 0.78897597694E+01 0.66976781724E+01 0.56757872603E+01 0.48567139426E+01
 0.42443256272E+01 0.38260378561E+01 0.35844092373E+01 0.35055914011E+01 0.35844068007E+01
 0.38260421799E+01 0.42443360134E+01 0.48567194995E+01 0.56757859171E+01 0.66976781457E+01
 0.78897614589E+01 0.91828318428E+01 0.10460799618E+02 0.11421986178E+02 0.11638658055E+02
 0.10763307014E+02 0.86587260694E+01 0.54926739444E+01 0.17618862557E+01 -.17867796968E+01
 -.43420033688E+01 -.43420033688E+01 -.48367190892E+01 -.35158072625E+01 -.71891816079E+00
 0.28693977673E+01 0.64453066692E+01 0.93197997720E+01 0.11078623169E+02 0.11634532532E+02
 0.11184245313E+02 0.10103858749E+02 0.88095660555E+01 0.75393955058E+01 0.63912655983E+01
 0.54244953892E+01 0.46632335517E+01 0.41059157270E+01 0.37377469911E+01 0.35415675583E+01
 0.35053821047E+01 0.36265413758E+01 0.39125697331E+01 0.43786502483E+01 0.50418203746E+01
 0.59118155394E+01 0.69790807422E+01 0.82031061150E+01 0.95066003525E+01 0.10750804642E+02
 0.11588679680E+02 0.11601954908E+02 0.10483326769E+02 0.81590387265E+01 0.48700105286E+01
 0.11744190777E+01 -.21564030336E+01 -.17867796968E+01 -.35158211122E+01 -.35748438228E+01
 -.19534082139E+01 0.92923765142E+00 0.43707006994E+01 0.76120033039E+01 0.10050028211E+02
 0.11367095502E+02 0.11557438555E+02 0.10868516139E+02 0.96903542504E+01 0.83988226950E+01
 0.71641680062E+01 0.60707601386E+01 0.51668365291E+01 0.44680347988E+01 0.39679988955E+01
 0.36505293082E+01 0.34994093530E+01 0.35048581674E+01 0.36667392748E+01 0.39945586967E+01
 0.45042722121E+01 0.52119059238E+01 0.61239055345E+01 0.72251538243E+01 0.84683625125E+01
 0.97703060398E+01 0.10968893462E+02 0.11695508681E+02 0.11556183764E+02 0.10291654553E+02
 0.78904875259E+01 0.46535996644E+01 0.11744190777E+01 0.17618862557E+01 -.71893124597E+00
 -.19534149044E+01 -.16236757519E+01 0.17672396723E+00 0.29781774937E+01 0.60975645830E+01
 0.88533382044E+01 0.10748405128E+02 0.11567776269E+02 0.11381851755E+02 0.10475915445E+02
 0.92364755569E+01 0.79636747679E+01 0.67767170207E+01 0.57470757393E+01 0.49114367263E+01
 0.42774692954E+01 0.38349656171E+01 0.35671856369E+01 0.34594170937E+01 0.35042672299E+01
 0.37039100108E+01 0.40693673568E+01 0.46167970722E+01 0.53607107747E+01 0.63040839221E+01
 0.74267396326E+01 0.86760677150E+01 0.99650672250E+01 0.11113759380E+02 0.11753959819E+02
 0.11526421637E+02 0.10223635081E+02 0.78904875259E+01 0.48700105286E+01 0.54926739444E+01
 0.28693901901E+01 0.92923285718E+00 0.17672479087E+00 0.80942406332E+00 0.26498109440E+01
 0.52109857609E+01 0.78630570990E+01 0.10026424764E+02 0.11320729627E+02 0.11631773343E+02
 0.11095250516E+02 0.10018247050E+02 0.87575858246E+01 0.75178085334E+01 0.63895984943E+01
 0.54305923226E+01 0.46662486326E+01 0.40973052450E+01 0.37108205331E+01 0.34903315551E+01
 0.34230289528E+01 0.35038860762E+01 0.37370465908E+01 0.41345382961E+01 0.47122015911E+01
 0.54826735539E+01 0.64455235036E+01 0.75763153948E+01 0.88187955946E+01 0.10084331083E+02
 0.11185860515E+02 0.11772424683E+02 0.11526421637E+02 0.10291654553E+02 0.81590387265E+01
 0.86587260694E+01 0.64453015762E+01 0.43706970290E+01 0.29781799821E+01 0.26498175280E+01
 0.34738363756E+01 0.52155998827E+01 0.74035374608E+01 0.94880114074E+01 0.11005817582E+02
 0.11694445003E+02 0.11531430085E+02 0.10702522404E+02 0.95187461256E+01 0.82678771283E+01
 0.70750895153E+01 0.60147754245E+01 0.51307387868E+01 0.44382614280E+01 0.39325305382E+01
 0.35990240027E+01 0.34222404605E+01 0.33914791079E+01 0.35038934747E+01 0.37651758751E+01
 0.41878582790E+01 0.47870217078E+01 0.55732130942E+01 0.65428739963E+01 0.76683249459E+01
 0.88914525056E+01 0.10124466411E+02 0.11185860515E+02 0.11753959819E+02 0.11556183764E+02
 0.10483326769E+02 0.10763307014E+02 0.93197987386E+01 0.76120004393E+01 0.60975638384E+01
 0.52109929397E+01 0.52156094300E+01 0.61103858972E+01 0.76331011045E+01 0.93555471647E+01
 0.10825918339E+02 0.11701409993E+02 0.11829924579E+02 0.11266000734E+02 0.10227289913E+02
 0.90040380218E+01 0.77824738506E+01 0.66491006939E+01 0.56632121586E+01 0.48557282874E+01
 0.42333506864E+01 0.37872527840E+01 0.35023903616E+01 0.33647219648E+01 0.33656759017E+01
 0.35042887600E+01 0.37873526254E+01 0.42274385677E+01 0.48385054491E+01 0.56289301449E+01
 0.65924761160E+01 0.76993746735E+01 0.88914525056E+01 0.10084331083E+02 0.11113759380E+02
 0.11695508681E+02 0.11601954908E+02 0.11638658055E+02 0.11078627105E+02 0.10050031524E+02
 0.88533373272E+01 0.78630583330E+01 0.74035465115E+01 0.76331108538E+01 0.84868655262E+01
 0.97028665027E+01 0.10916662382E+02 0.11781647381E+02 0.12070080875E+02 0.11726105041E+02
 0.10862597904E+02 0.97095209392E+01 0.84924761716E+01 0.73169420734E+01 0.62526686660E+01
 0.53445896434E+01 0.46124455229E+01 0.40562580666E+01 0.36646921915E+01 0.34230566599E+01
 0.33190675893E+01 0.33461581072E+01 0.35048913611E+01 0.38027141366E+01 0.42518135722E+01
 0.48647385068E+01 0.56477370058E+01 0.65924761160E+01 0.76683249459E+01 0.88187955946E+01
 0.99650672250E+01 0.10968893462E+02 0.11588679680E+02 0.11421986178E+02 0.11634533078E+02
 0.11367103341E+02 0.10748411615E+02 0.10026425995E+02 0.94880141416E+01 0.93555559148E+01
 0.97028744531E+01 0.10427609665E+02 0.11290743232E+02 0.12002981698E+02 0.12320942003E+02
 0.12119275601E+02 0.11419519935E+02 0.10372090617E+02 0.91892437396E+01 0.80023530427E+01
 0.68865586412E+01 0.58974130786E+01 0.50671372439E+01 0.44064544686E+01 0.39106618087E+01
 0.35672449716E+01 0.33625208949E+01 0.32860805759E+01 0.33331449165E+01 0.35054216482E+01
 0.38105833780E+01 0.42600464736E+01 0.48647385068E+01 0.56289301449E+01 0.65428739963E+01
 0.75763153948E+01 0.86760677150E+01 0.97703060398E+01 0.10750804642E+02 0.10460799618E+02
 0.11184236602E+02 0.11557439783E+02 0.11567785935E+02 0.11320738028E+02 0.11005821035E+02
 0.10825922326E+02 0.10916669521E+02 0.11290748401E+02 0.11831889436E+02 0.12339430393E+02
 0.12601949046E+02 0.12469837782E+02 0.11902385048E+02 0.10977035152E+02 0.98585772778E+01
 0.86906535158E+01 0.75521558347E+01 0.65054804263E+01 0.55933673625E+01 0.48375624217E+01
 0.42420790869E+01 0.37992914372E+01 0.34965884802E+01 0.33217344045E+01 0.32661781713E+01
 0.33266568391E+01 0.35056311217E+01 0.38105833780E+01 0.42518135722E+01 0.48385054491E+01
 0.55732130942E+01 0.64455235036E+01 0.74267396326E+01 0.84683625125E+01 0.95066003525E+01
 0.91828318428E+01 0.10103849619E+02 0.10868508250E+02 0.11381853261E+02 0.11631782739E+02
 0.11694453860E+02 0.11701415303E+02 0.11781652310E+02 0.12002986730E+02 0.12339432719E+02
 0.12679051706E+02 0.12867346340E+02 0.12766207628E+02 0.12305073102E+02 0.11507174944E+02
 0.10483450305E+02 0.93662976810E+01 0.82362111395E+01 0.71591515526E+01 0.61859914285E+01
 0.53487175772E+01 0.46610610582E+01 0.41225133517E+01 0.37240535151E+01 0.34538017595E+01
 0.33012268858E+01 0.32595305401E+01 0.33266568391E+01 0.35054216482E+01 0.38027141366E+01
 0.42274385677E+01 0.47870217078E+01 0.54826735539E+01 0.63040839221E+01 0.72251538243E+01
 0.82031061150E+01 0.78897614589E+01 0.88095667025E+01 0.96903492077E+01 0.10475909808E+02
 0.11095251697E+02 0.11531437294E+02 0.11829932322E+02 0.12070087218E+02 0.12320947476E+02
 0.12601952121E+02 0.12867346372E+02 0.13021417994E+02 0.12956801729E+02 0.12598743051E+02
 0.11937798730E+02 0.11039487710E+02 0.10009016352E+02 0.89225053979E+01 0.78466602713E+01
 0.68381652274E+01 0.59379837712E+01 0.51696940030E+01 0.45413890437E+01 0.40499343429E+01
 0.36861467042E+01 0.34394768560E+01 0.33012268858E+01 0.32661781713E+01 0.33331449165E+01
 0.35048913611E+01 0.37873526254E+01 0.41878582790E+01 0.47122015911E+01 0.53607107747E+01
 0.61239055345E+01 0.69790807422E+01 0.66976781457E+01 0.75394011225E+01 0.83988272463E+01
 0.92364744228E+01 0.10018243901E+02 0.10702522606E+02 0.11266004581E+02 0.11726110600E+02
 0.12119282121E+02 0.12469843352E+02 0.12766209181E+02 0.12956800241E+02 0.12967855378E+02
 0.12734682789E+02 0.12232409637E+02 0.11493519453E+02 0.10590684555E+02 0.95884900472E+01
 0.85513867910E+01 0.75393679505E+01 0.66008147178E+01 0.57687387320E+01 0.50606095579E+01
 0.44809634840E+01 0.40256039191E+01 0.36861467042E+01 0.34538017595E+01 0.33217344045E+01
 0.32860805759E+01 0.33461581072E+01 0.35042887600E+01 0.37651758751E+01 0.41345382961E+01
 0.46167970722E+01 0.52119059238E+01 0.59118155394E+01 0.56757859171E+01 0.63912669961E+01
 0.71641740032E+01 0.79636801926E+01 0.87575870424E+01 0.95187448929E+01 0.10227288992E+02
 0.10862598443E+02 0.11419523131E+02 0.11902391020E+02 0.12305078181E+02 0.12598743449E+02
 0.12734680547E+02 0.12661575378E+02 0.12349140726E+02 0.11806928659E+02 0.11075341252E+02
 0.10203204093E+02 0.92489020724E+01 0.82724509728E+01 0.73274110948E+01 0.64552414791E+01
 0.56829685203E+01 0.50239741353E+01 0.44809634840E+01 0.40499343429E+01 0.37240535151E+01
 0.34965884802E+01 0.33625208949E+01 0.33190675893E+01 0.33656759017E+01 0.35038934747E+01
 0.37370465908E+01 0.40693673568E+01 0.45042722121E+01 0.50418203746E+01 0.48567194995E+01
 0.54244960428E+01 0.60707613005E+01 0.67767205742E+01 0.75178121098E+01 0.82678790732E+01
 0.90040382921E+01 0.97095195559E+01 0.10372088905E+02 0.10977036333E+02 0.11507179624E+02
 0.11937802598E+02 0.12232409181E+02 0.12349138478E+02 0.12255701719E+02 0.11943104299E+02
 0.11423333490E+02 0.10728328109E+02 0.99057019333E+01 0.90110404888E+01 0.80996232989E+01
 0.72193415179E+01 0.64061988937E+01 0.56829685203E+01 0.50606095579E+01 0.45413890437E+01
 0.41225133517E+01 0.37992914372E+01 0.35672449716E+01 0.34230566599E+01 0.33647219648E+01
 0.33914791079E+01 0.35038860762E+01 0.37039100108E+01 0.39945586967E+01 0.43786502483E+01
 0.42443360134E+01 0.46632408005E+01 0.51668392037E+01 0.57470761340E+01 0.63895983696E+01
 0.70750901550E+01 0.77824758582E+01 0.84924780246E+01 0.91892428461E+01 0.98585745551E+01
 0.10483449779E+02 0.11039490409E+02 0.11493521649E+02 0.11806927913E+02 0.11943102814E+02
 0.11876289623E+02 0.11598578596E+02 0.11122833306E+02 0.10481034913E+02 0.97189473690E+01
 0.88887056765E+01 0.80411149525E+01 0.72193415179E+01 0.64552414791E+01 0.57687387320E+01
 0.51696940030E+01 0.46610610582E+01 0.42420790869E+01 0.39106618087E+01 0.36646921915E+01
 0.35023903616E+01 0.34222404605E+01 0.34230289528E+01 0.35042672299E+01 0.36667392748E+01
 0.39125697331E+01 0.38260421799E+01 0.41059246117E+01 0.44680432136E+01 0.49114413672E+01
 0.54305921800E+01 0.60147725347E+01 0.66490993972E+01 0.73169446170E+01 0.80023565682E+01
 0.86906536357E+01 0.93662947425E+01 0.10009014388E+02 0.10590685069E+02 0.11075342044E+02
 0.11423333340E+02 0.11598578532E+02 0.11576512664E+02 0.11350068153E+02 0.10931924490E+02
 0.10352623691E+02 0.96553306631E+01 0.88887056765E+01 0.80996232989E+01 0.73274110948E+01
 0.66008147178E+01 0.59379837712E+01 0.53487175772E+01 0.48375624217E+01 0.44064544686E+01
 0.40562580666E+01 0.37872527840E+01 0.35990240027E+01 0.34903315551E+01 0.34594170937E+01
 0.35048581674E+01 0.36265413758E+01 0.35844068007E+01 0.37377492852E+01 0.39680055349E+01
 0.42774774957E+01 0.46662542493E+01 0.51307389494E+01 0.56632090261E+01 0.62526678907E+01
 0.68865626140E+01 0.75521607403E+01 0.82362121786E+01 0.89225027108E+01 0.95884871851E+01
 0.10203202994E+02 0.10728328377E+02 0.11122834523E+02 0.11350069684E+02 0.11385112942E+02
 0.11220171620E+02 0.10866526379E+02 0.10352623691E+02 0.97189473690E+01 0.90110404888E+01
 0.82724509728E+01 0.75393679505E+01 0.68381652274E+01 0.61859914285E+01 0.55933673625E+01
 0.50671372439E+01 0.46124455229E+01 0.42333506864E+01 0.39325305382E+01 0.37108205331E+01
 0.35671856369E+01 0.34994093530E+01 0.35053821047E+01 0.35055914011E+01 0.35415673552E+01
 0.36505298746E+01 0.38349688386E+01 0.40973113372E+01 0.44382671657E+01 0.48557303519E+01
 0.53445895395E+01 0.58974154694E+01 0.65054863845E+01 0.71591571838E+01 0.78466618855E+01
 0.85513847656E+01 0.92488991076E+01 0.99057002041E+01 0.10481035481E+02 0.10931927139E+02
 0.11220174208E+02 0.11319395102E+02 0.11220171620E+02 0.10931924490E+02 0.10481034913E+02
 0.99057019333E+01 0.92489020724E+01 0.85513867910E+01 0.78466602713E+01 0.71591515526E+01
 0.65054804263E+01 0.58974130786E+01 0.53445896434E+01 0.48557282874E+01 0.44382614280E+01
 0.40973052450E+01 0.38349656171E+01 0.36505293082E+01 0.35415675583E+01 0.35844092373E+01
 0.35053859559E+01 0.34994102311E+01 0.35671831462E+01 0.37108190329E+01 0.39325335849E+01
 0.42333568727E+01 0.46124516592E+01 0.50671431101E+01 0.55933745937E+01 0.61859991987E+01
 0.68381707829E+01 0.75393698437E+01 0.82724498843E+01 0.90110380140E+01 0.97189456889E+01
 0.10352624722E+02 0.10866529638E+02 0.11220174208E+02 0.11385112942E+02 0.11350068153E+02
 0.11122833306E+02 0.10728328109E+02 0.10203204093E+02 0.95884900472E+01 0.89225053979E+01
 0.82362111395E+01 0.75521558347E+01 0.68865586412E+01 0.62526686660E+01 0.56632121586E+01
 0.51307387868E+01 0.46662486326E+01 0.42774692954E+01 0.39679988955E+01 0.37377469911E+01
 0.38260378561E+01 0.36265433626E+01 0.35048617632E+01 0.34594157578E+01 0.34903249590E+01
 0.35990186654E+01 0.37872541850E+01 0.40562663014E+01 0.44064664904E+01 0.48375755862E+01
 0.53487296579E+01 0.59379924729E+01 0.66008195233E+01 0.73274130566E+01 0.80996230527E+01
 0.88887036955E+01 0.96553290964E+01 0.10352624722E+02 0.10931927139E+02 0.11350069684E+02
 0.11576512664E+02 0.11598578596E+02 0.11423333490E+02 0.11075341252E+02 0.10590684555E+02
 0.10009016352E+02 0.93662976810E+01 0.86906535158E+01 0.80023530427E+01 0.73169420734E+01
 0.66491006939E+01 0.60147754245E+01 0.54305923226E+01 0.49114367263E+01 0.44680347988E+01
 0.41059157270E+01 0.42443256272E+01 0.39125617526E+01 0.36667367372E+01 0.35042661717E+01
 0.34230237433E+01 0.34222319883E+01 0.35023851207E+01 0.36646953524E+01 0.39106738489E+01
 0.42420972549E+01 0.46610805793E+01 0.51697094574E+01 0.57687473562E+01 0.64552453531E+01
 0.72193434440E+01 0.80411150459E+01 0.88887036955E+01 0.97189456889E+01 0.10481035481E+02
 0.11122834523E+02 0.11598578532E+02 0.11876289623E+02 0.11943104299E+02 0.11806928659E+02
 0.11493519453E+02 0.11039487710E+02 0.10483450305E+02 0.98585772778E+01 0.91892437396E+01
 0.84924761716E+01 0.77824738506E+01 0.70750895153E+01 0.63895984943E+01 0.57470757393E+01
 0.51668365291E+01 0.46632335517E+01 0.48567139426E+01 0.43786387174E+01 0.39945464683E+01
 0.37039016561E+01 0.35038799370E+01 0.33914722176E+01 0.33647160986E+01 0.34230563409E+01
 0.35672527226E+01 0.37993076733E+01 0.41225360788E+01 0.45414124993E+01 0.50606265318E+01
 0.56829767210E+01 0.64062023413E+01 0.72193434440E+01 0.80996230527E+01 0.90110380140E+01
 0.99057002041E+01 0.10728328377E+02 0.11423333340E+02 0.11943102814E+02 0.12255701719E+02
 0.12349140726E+02 0.12232409637E+02 0.11937798730E+02 0.11507174944E+02 0.10977035152E+02
 0.10372090617E+02 0.97095209392E+01 0.90040380218E+01 0.82678771283E+01 0.75178085334E+01
 0.67767170207E+01 0.60707601386E+01 0.54244953892E+01 0.56757872603E+01 0.50418170915E+01
 0.45042616140E+01 0.40693543645E+01 0.37370359792E+01 0.35038856660E+01 0.33656712338E+01
 0.33190682034E+01 0.33625277890E+01 0.34966011331E+01 0.37240726592E+01 0.40499593584E+01
 0.44809885204E+01 0.50239914530E+01 0.56829767210E+01 0.64552453531E+01 0.73274130566E+01
 0.82724498843E+01 0.92488991076E+01 0.10203202994E+02 0.11075342044E+02 0.11806927913E+02
 0.12349138478E+02 0.12661575378E+02 0.12734682789E+02 0.12598743051E+02 0.12305073102E+02
 0.11902385048E+02 0.11419519935E+02 0.10862597904E+02 0.10227289913E+02 0.95187461256E+01
 0.87575858246E+01 0.79636747679E+01 0.71641680062E+01 0.63912655983E+01 0.66976781724E+01
 0.59118196849E+01 0.52119067018E+01 0.46167919374E+01 0.41345306574E+01 0.37651686510E+01
 0.35042836155E+01 0.33461583044E+01 0.32860883355E+01 0.33217474285E+01 0.34538175530E+01
 0.36861670539E+01 0.40256295326E+01 0.44809885204E+01 0.50606265318E+01 0.57687473562E+01
 0.66008195233E+01 0.75393698437E+01 0.85513847656E+01 0.95884871851E+01 0.10590685069E+02
 0.11493521649E+02 0.12232409181E+02 0.12734680547E+02 0.12967855378E+02 0.12956801729E+02
 0.12766207628E+02 0.12469837782E+02 0.12119275601E+02 0.11726105041E+02 0.11266000734E+02
 0.10702522404E+02 0.10018247050E+02 0.92364755569E+01 0.83988226950E+01 0.75393955058E+01
 0.78897597694E+01 0.69790848642E+01 0.61239141916E+01 0.53607184161E+01 0.47122066956E+01
 0.41878611772E+01 0.37873527319E+01 0.35048908098E+01 0.33331497481E+01 0.32661908705E+01
 0.33012431093E+01 0.34394936327E+01 0.36861670539E+01 0.40499593584E+01 0.45414124993E+01
 0.51697094574E+01 0.59379924729E+01 0.68381707829E+01 0.78466618855E+01 0.89225027108E+01
 0.10009014388E+02 0.11039490409E+02 0.11937802598E+02 0.12598743449E+02 0.12956800241E+02
 0.13021417994E+02 0.12867346340E+02 0.12601949046E+02 0.12320942003E+02 0.12070080875E+02
 0.11829924579E+02 0.11531430085E+02 0.11095250516E+02 0.10475915445E+02 0.96903542504E+01
 0.88095660555E+01 0.91828370359E+01 0.82031115520E+01 0.72251646381E+01 0.63040986499E+01
 0.54826896873E+01 0.47870386695E+01 0.42274529800E+01 0.38027215808E+01 0.35054247696E+01
 0.33266641934E+01 0.32595449069E+01 0.33012431093E+01 0.34538175530E+01 0.37240726592E+01
 0.41225360788E+01 0.46610805793E+01 0.53487296579E+01 0.61859991987E+01 0.71591571838E+01
 0.82362121786E+01 0.93662947425E+01 0.10483449779E+02 0.11507179624E+02 0.12305078181E+02
 0.12766209181E+02 0.12867346372E+02 0.12679051706E+02 0.12339430393E+02 0.12002981698E+02
 0.11781647381E+02 0.11701409993E+02 0.11694445003E+02 0.11631773343E+02 0.11381851755E+02
 0.10868516139E+02 0.10103858749E+02 0.10460811201E+02 0.95066115182E+01 0.84683766052E+01
 0.74267581238E+01 0.64455442808E+01 0.55732366833E+01 0.48385319746E+01 0.42518362913E+01
 0.38105950865E+01 0.35056355585E+01 0.33266641934E+01 0.32661908705E+01 0.33217474285E+01
 0.34966011331E+01 0.37993076733E+01 0.42420972549E+01 0.48375755862E+01 0.55933745937E+01
 0.65054863845E+01 0.75521607403E+01 0.86906536357E+01 0.98585745551E+01 0.10977036333E+02
 0.11902391020E+02 0.12469843352E+02 0.12601952121E+02 0.12339432719E+02 0.11831889436E+02
 0.11290743232E+02 0.10916662382E+02 0.10825918339E+02 0.11005817582E+02 0.11320729627E+02
 0.11567776269E+02 0.11557438555E+02 0.11184245313E+02 0.11421993584E+02 0.10750815873E+02
 0.97703215768E+01 0.86760895713E+01 0.75763402777E+01 0.65428989883E+01 0.56289582429E+01
 0.48647700550E+01 0.42600721250E+01 0.38105950865E+01 0.35054247696E+01 0.33331497481E+01
 0.32860883355E+01 0.33625277890E+01 0.35672527226E+01 0.39106738489E+01 0.44064664904E+01
 0.50671431101E+01 0.58974154694E+01 0.68865626140E+01 0.80023565682E+01 0.91892428461E+01
 0.10372088905E+02 0.11419523131E+02 0.12119282121E+02 0.12320947476E+02 0.12002986730E+02
 0.11290748401E+02 0.10427609665E+02 0.97028665027E+01 0.93555471647E+01 0.94880114074E+01
 0.10026424764E+02 0.10748405128E+02 0.11367095502E+02 0.11634532532E+02 0.11638658588E+02
 0.11588683842E+02 0.10968901618E+02 0.99650846891E+01 0.88188225866E+01 0.76683536075E+01
 0.65925029874E+01 0.56477665069E+01 0.48647700550E+01 0.42518362913E+01 0.38027215808E+01
 0.35048908098E+01 0.33461583044E+01 0.33190682034E+01 0.34230563409E+01 0.36646953524E+01
 0.40562663014E+01 0.46124516592E+01 0.53445895395E+01 0.62526678907E+01 0.73169446170E+01
 0.84924780246E+01 0.97095195559E+01 0.10862598443E+02 0.11726110600E+02 0.12070087218E+02
 0.11781652310E+02 0.10916669521E+02 0.97028744531E+01 0.84868655262E+01 0.76331011045E+01
 0.74035374608E+01 0.78630570990E+01 0.88533382044E+01 0.10050028211E+02 0.11078623169E+02
 0.10763308659E+02 0.11601956863E+02 0.11695508671E+02 0.11113763252E+02 0.10084348629E+02
 0.88914817772E+01 0.76994045055E+01 0.65925029874E+01 0.56289582429E+01 0.48385319746E+01
 0.42274529800E+01 0.37873527319E+01 0.35042836155E+01 0.33656712338E+01 0.33647160986E+01
 0.35023851207E+01 0.37872541850E+01 0.42333568727E+01 0.48557303519E+01 0.56632090261E+01
 0.66490993972E+01 0.77824758582E+01 0.90040382921E+01 0.10227288992E+02 0.11266004581E+02
 0.11829932322E+02 0.11701415303E+02 0.10825922326E+02 0.93555559148E+01 0.76331108538E+01
 0.61103858972E+01 0.52155998827E+01 0.52109857609E+01 0.60975645830E+01 0.76120033039E+01
 0.93197997720E+01 0.86587322185E+01 0.10483334501E+02 0.11556187109E+02 0.11753956264E+02
 0.11185861307E+02 0.10124483712E+02 0.88914817772E+01 0.76683536075E+01 0.65428989883E+01
 0.55732366833E+01 0.47870386695E+01 0.41878611772E+01 0.37651686510E+01 0.35038856660E+01
 0.33914722176E+01 0.34222319883E+01 0.35990186654E+01 0.39325335849E+01 0.44382671657E+01
 0.51307389494E+01 0.60147725347E+01 0.70750901550E+01 0.82678790732E+01 0.95187448929E+01
 0.10702522606E+02 0.11531437294E+02 0.11694453860E+02 0.11005821035E+02 0.94880141416E+01
 0.74035465115E+01 0.52156094300E+01 0.34738363756E+01 0.26498109440E+01 0.29781774937E+01
 0.43707006994E+01 0.64453066692E+01 0.54926815420E+01 0.81590496529E+01 0.10291667067E+02
 0.11526425824E+02 0.11772419727E+02 0.11185861307E+02 0.10084348629E+02 0.88188225866E+01
 0.75763402777E+01 0.64455442808E+01 0.54826896873E+01 0.47122066956E+01 0.41345306574E+01
 0.37370359792E+01 0.35038799370E+01 0.34230237433E+01 0.34903249590E+01 0.37108190329E+01
 0.40973113372E+01 0.46662542493E+01 0.54305921800E+01 0.63895983696E+01 0.75178121098E+01
 0.87575870424E+01 0.10018243901E+02 0.11095251697E+02 0.11631782739E+02 0.11320738028E+02
 0.10026425995E+02 0.78630583330E+01 0.52109929397E+01 0.26498175280E+01 0.80942406332E+00
 0.17672396723E+00 0.92923765142E+00 0.28693977673E+01 0.17618978333E+01 0.48700202465E+01
 0.78905013818E+01 0.10223649413E+02 0.11526425824E+02 0.11753956264E+02 0.11113763252E+02
 0.99650846891E+01 0.86760895713E+01 0.74267581238E+01 0.63040986499E+01 0.53607184161E+01
 0.46167919374E+01 0.40693543645E+01 0.37039016561E+01 0.35042661717E+01 0.34594157578E+01
 0.35671831462E+01 0.38349688386E+01 0.42774774957E+01 0.49114413672E+01 0.57470761340E+01
 0.67767205742E+01 0.79636801926E+01 0.92364744228E+01 0.10475909808E+02 0.11381853261E+02
 0.11567785935E+02 0.10748411615E+02 0.88533373272E+01 0.60975638384E+01 0.29781799821E+01
 0.17672479087E+00 -.16236757519E+01 -.19534082139E+01 -.71891816079E+00 -.17867599340E+01
 0.11744332381E+01 0.46536102219E+01 0.78905013818E+01 0.10291667067E+02 0.11556187109E+02
 0.11695508671E+02 0.10968901618E+02 0.97703215768E+01 0.84683766052E+01 0.72251646381E+01
 0.61239141916E+01 0.52119067018E+01 0.45042616140E+01 0.39945464683E+01 0.36667367372E+01
 0.35048617632E+01 0.34994102311E+01 0.36505298746E+01 0.39680055349E+01 0.44680432136E+01
 0.51668392037E+01 0.60707613005E+01 0.71641740032E+01 0.83988272463E+01 0.96903492077E+01
 0.10868508250E+02 0.11557439783E+02 0.11367103341E+02 0.10050031524E+02 0.76120004393E+01
 0.43706970290E+01 0.92923285718E+00 -.19534149044E+01 -.35748438228E+01 -.35158072625E+01
 -.43419851368E+01 -.21563807021E+01 0.11744332381E+01 0.48700202465E+01 0.81590496529E+01
 0.10483334501E+02 0.11601956863E+02 0.11588683842E+02 0.10750815873E+02 0.95066115182E+01
 0.82031115520E+01 0.69790848642E+01 0.59118196849E+01 0.50418170915E+01 0.43786387174E+01
 0.39125617526E+01 0.36265433626E+01 0.35053859559E+01 0.35415673552E+01 0.37377492852E+01
 0.41059246117E+01 0.46632408005E+01 0.54244960428E+01 0.63912669961E+01 0.75394011225E+01
 0.88095667025E+01 0.10103849619E+02 0.11184236602E+02 0.11634533078E+02 0.11078627105E+02
 0.93197987386E+01 0.64453015762E+01 0.28693901901E+01 -.71893124597E+00 -.35158211122E+01
 -.48367190892E+01 -.43419678562E+01 -.36468357795E+01 -.13786426152E+01 0.19006046377E+01
 0.54310360428E+01 0.84866326920E+01 0.10561579649E+02 0.11460044753E+02 0.11286074076E+02
 0.10360199197E+02 0.90965031800E+01 0.78058152761E+01 0.66090860247E+01 0.55776003473E+01
 0.47459911176E+01 0.41193057462E+01 0.36852348146E+01 0.34259287388E+01 0.33266265292E+01
 0.33808783891E+01 0.35925356874E+01 0.39745469966E+01 0.45445540937E+01 0.53171460485E+01
 0.62926767894E+01 0.74446382036E+01 0.87106821147E+01 0.99882629899E+01 0.11021187631E+02
 0.11396683366E+02 0.10760993047E+02 0.89518343637E+01 0.60938371398E+01 0.26276690873E+01
 -.75677526952E+00 -.32881277248E+01 -.36468498822E+01 -.43419685141E+01 -.32881155926E+01
 -.75676049239E+00 0.26276812545E+01 0.60938502111E+01 0.89518513765E+01 0.10761013282E+02
 0.11396707911E+02 0.11021216937E+02 0.99882922019E+01 0.87107044927E+01 0.74446536794E+01
 0.62926902153E+01 0.53171591325E+01 0.45445648540E+01 0.39745549711E+01 0.35925413288E+01
 0.33808792308E+01 0.33266203039E+01 0.34259181162E+01 0.36852234109E+01 0.41192923184E+01
 0.47459732914E+01 0.55775801277E+01 0.66090656377E+01 0.78057917481E+01 0.90964735350E+01
 0.10360167317E+02 0.11286045925E+02 0.11460020861E+02 0.10561558162E+02 0.84866156251E+01
 0.54310248240E+01 0.19005929820E+01 -.13786591589E+01 -.12983934926E+01 -.32020605046E+01
 -.35157926321E+01 -.21653038520E+01 0.49719851517E+00 0.38150641828E+01 0.70403910354E+01
 0.95488333272E+01 0.10982768141E+02 0.11294093638E+02 0.10698126230E+02 0.95694076831E+01
 0.82944084663E+01 0.70642283458E+01 0.59672630578E+01 0.50553546986E+01 0.43465944150E+01
 0.38357492332E+01 0.35067222651E+01 0.33427483101E+01 0.33331127102E+01 0.34766479990E+01
 0.37821317772E+01 0.42655876078E+01 0.49443952837E+01 0.58279876439E+01 0.69057796911E+01
 0.81358370145E+01 0.94399811016E+01 0.10676289289E+02 0.11499803567E+02 0.11512816457E+02
 0.10436903075E+02 0.82266689437E+01 0.51383511580E+01 0.17199944493E+01 0.21081908896E+01
 -.52459421892E+00 -.20024758270E+01 -.19533977646E+01 -.40138338112E+00 0.22428641150E+01
 0.53235868230E+01 0.81492629794E+01 0.10185017641E+02 0.11167503790E+02 0.11124405998E+02
 0.10314281931E+02 0.91171462572E+01 0.78598727862E+01 0.66765765487E+01 0.56432856103E+01
 0.48004735983E+01 0.41581297785E+01 0.37069883620E+01 0.34302944911E+01 0.33127570311E+01
 0.33461384988E+01 0.35318253824E+01 0.38805009858E+01 0.44088645442E+01 0.51332162523E+01
 0.60597172820E+01 0.71724869564E+01 0.84235527815E+01 0.97301146414E+01 0.10931101224E+02
 0.11670158926E+02 0.11578041991E+02 0.10423429854E+02 0.82154468668E+01 0.52555489341E+01
 0.57710688339E+01 0.30216174512E+01 0.85723100399E+00 -.17844907992E+00 0.17672732200E+00
 0.18128132892E+01 0.42880498754E+01 0.69802530943E+01 0.92818557975E+01 0.10763610320E+02
 0.11260058795E+02 0.10867943381E+02 0.98753709736E+01 0.86464921455E+01 0.74196085978E+01
 0.62934913703E+01 0.53306248623E+01 0.45600731695E+01 0.39845870503E+01 0.35919363617E+01
 0.33655389709E+01 0.32920232947E+01 0.33656718161E+01 0.35901304376E+01 0.39774813450E+01
 0.45445178599E+01 0.53059541115E+01 0.62645209619E+01 0.73996107567E+01 0.86587445759E+01
 0.99566657695E+01 0.11120539411E+02 0.11801872311E+02 0.11667933786E+02 0.10535622305E+02
 0.84605126774E+01 0.89330643149E+01 0.66243529872E+01 0.43571182476E+01 0.26960788846E+01
 0.20750673723E+01 0.26498045619E+01 0.42444242388E+01 0.64155895743E+01 0.86033186030E+01
 0.10303496771E+02 0.11199664292E+02 0.11220276155E+02 0.10519142770E+02 0.93974473431E+01
 0.81697924628E+01 0.69861404472E+01 0.59261117714E+01 0.50381613966E+01 0.43407181421E+01
 0.38305774541E+01 0.34936938498E+01 0.33143735263E+01 0.32814186726E+01 0.33914888532E+01
 0.36500834189E+01 0.40701498746E+01 0.46680406429E+01 0.54565025168E+01 0.64348977289E+01
 0.75787116477E+01 0.88326258565E+01 0.10111090282E+02 0.11240544724E+02 0.11894510828E+02
 0.11781460269E+02 0.10764027540E+02 0.11076922040E+02 0.95723392209E+01 0.77142842637E+01
 0.59657404344E+01 0.47954830837E+01 0.45247024126E+01 0.52155832356E+01 0.66511808179E+01
 0.84143937846E+01 0.10028925053E+02 0.11104034447E+02 0.11434265075E+02 0.11031318662E+02
 0.10090050754E+02 0.89049135038E+01 0.76999445293E+01 0.65717074416E+01 0.55845766016E+01
 0.47735420259E+01 0.41478366259E+01 0.36998144711E+01 0.34147011999E+01 0.32782264190E+01
 0.32814236391E+01 0.34230493352E+01 0.37099952643E+01 0.41555550440E+01 0.47751682602E+01
 0.55793627714E+01 0.65643882065E+01 0.77028191446E+01 0.89381991815E+01 0.10186972462E+02
 0.11286358989E+02 0.11941784698E+02 0.11904372668E+02 0.12011595684E+02 0.11425178304E+02
 0.10294214283E+02 0.89129162177E+01 0.76727591561E+01 0.69401376233E+01 0.69307189824E+01
 0.76330776064E+01 0.88151806275E+01 0.10108894501E+02 0.11134112584E+02 0.11613826341E+02
 0.11443991552E+02 0.10703681461E+02 0.96102694158E+01 0.84160454309E+01 0.72504732822E+01
 0.61879137060E+01 0.52777818905E+01 0.45430805221E+01 0.39857042825E+01 0.35951050311E+01
 0.33566939143E+01 0.32579526565E+01 0.32920382264E+01 0.34594446418E+01 0.37679831319E+01
 0.42308057688E+01 0.48620342347E+01 0.56698573642E+01 0.66478342220E+01 0.77667402914E+01
 0.89706515877E+01 0.10180111838E+02 0.11252739640E+02 0.11932468385E+02 0.11852663274E+02
 0.12071533220E+02 0.11749719706E+02 0.11003124867E+02 0.10083094139E+02 0.93015821839E+01
 0.89253401188E+01 0.90796301358E+01 0.97028433053E+01 0.10571305646E+02 0.11381215785E+02
 0.11851936770E+02 0.11812249929E+02 0.11243900610E+02 0.10274011204E+02 0.91198019014E+01
 0.79463961458E+01 0.68350167279E+01 0.58453688366E+01 0.50132566620E+01 0.43517914500E+01
 0.38575293891E+01 0.35184087061E+01 0.33207154511E+01 0.32538181805E+01 0.33127803190E+01
 0.34994394969E+01 0.38220638031E+01 0.42932076773E+01 0.49253457528E+01 0.57243411505E+01
 0.66816300217E+01 0.77673650138E+01 0.89277437676E+01 0.10089005040E+02 0.11135025109E+02
 0.10930807282E+02 0.11689016164E+02 0.12051738131E+02 0.11990748854E+02 0.11605966942E+02
 0.11097685552E+02 0.10697898388E+02 0.10584175935E+02 0.10811332141E+02 0.11290727552E+02