   2   2   0   0
  0.1529437E+02  0.3691622E-09  0.3691622E-09  0.3691622E-09  0.5000000E-15
  1.000000000000000E-004
  CAR 
 unknown system                          
     20.93378902     -6.61591935  301      8.70301274      1.00000000
     -6.616  0.0000E+00  0.0000E+00
     -6.524  0.0000E+00  0.0000E+00
     -6.432  0.0000E+00  0.0000E+00
     -6.340  0.0000E+00  0.0000E+00
     -6.249  0.0000E+00  0.0000E+00
     -6.157  0.0000E+00  0.0000E+00
     -6.065  0.0000E+00  0.0000E+00
     -5.973  0.0000E+00  0.0000E+00
     -5.881  0.0000E+00  0.0000E+00
     -5.789  0.2985E-17  0.2741E-18
     -5.698  0.5433E-15  0.5017E-16
     -5.606  0.6864E-13  0.6354E-14
     -5.514  0.5724E-11  0.5320E-12
     -5.422  0.3153E-09  0.2949E-10
     -5.330  0.1148E-07  0.1084E-08
     -5.238  0.2768E-06  0.2650E-07
     -5.147  0.4419E-05  0.4323E-06
     -5.055  0.4678E-04  0.4728E-05
     -4.963  0.3286E-03  0.3490E-04
     -4.871  0.1533E-02  0.1757E-03
     -4.779  0.4756E-02  0.6125E-03
     -4.687  0.9814E-02  0.1514E-02
     -4.596  0.1347E-01  0.2751E-02
     -4.504  0.1231E-01  0.3882E-02
     -4.412  0.7490E-02  0.4570E-02
     -4.320  0.3031E-02  0.4848E-02
     -4.228  0.8158E-03  0.4923E-02
     -4.136  0.1459E-03  0.4937E-02
     -4.045  0.1734E-04  0.4938E-02
     -3.953  0.1742E-05  0.4938E-02
     -3.861  0.7036E-05  0.4939E-02
     -3.769  0.8523E-04  0.4947E-02
     -3.677  0.6919E-03  0.5010E-02
     -3.585  0.3730E-02  0.5353E-02
     -3.494  0.1336E-01  0.6580E-02
     -3.402  0.3184E-01  0.9504E-02
     -3.310  0.5048E-01  0.1414E-01
     -3.218  0.5327E-01  0.1903E-01
     -3.126  0.3741E-01  0.2247E-01
     -3.034  0.1748E-01  0.2407E-01
     -2.943  0.5435E-02  0.2457E-01
     -2.851  0.1123E-02  0.2468E-01
     -2.759  0.1541E-03  0.2469E-01
     -2.667  0.1442E-04  0.2469E-01
     -2.575  0.7832E-05  0.2469E-01
     -2.483  0.8547E-04  0.2470E-01
     -2.392  0.6933E-03  0.2476E-01
     -2.300  0.3736E-02  0.2511E-01
     -2.208  0.1338E-01  0.2634E-01
     -2.116  0.3187E-01  0.2926E-01
     -2.024  0.5055E-01  0.3390E-01
     -1.932  0.5376E-01  0.3884E-01
     -1.841  0.4068E-01  0.4258E-01
     -1.749  0.3203E-01  0.4552E-01
     -1.657  0.4824E-01  0.4995E-01
     -1.565  0.8487E-01  0.5774E-01
     -1.473  0.1092E+00  0.6777E-01
     -1.381  0.9449E-01  0.7644E-01
     -1.290  0.5448E-01  0.8145E-01
     -1.198  0.2090E-01  0.8337E-01
     -1.106  0.5333E-02  0.8386E-01
     -1.014  0.9041E-03  0.8394E-01
     -0.922  0.1018E-03  0.8395E-01
     -0.830  0.7596E-05  0.8395E-01
     -0.739  0.3758E-06  0.8395E-01
     -0.647  0.1231E-07  0.8395E-01
     -0.555  0.2666E-09  0.8395E-01
     -0.463  0.3850E-11  0.8395E-01
     -0.371  0.3451E-11  0.8395E-01
     -0.279  0.2259E-09  0.8395E-01
     -0.188  0.9877E-08  0.8395E-01
     -0.096  0.2857E-06  0.8395E-01
     -0.004  0.5470E-05  0.8395E-01
      0.088  0.6942E-04  0.8396E-01
      0.180  0.5844E-03  0.8401E-01
      0.272  0.3267E-02  0.8431E-01
      0.363  0.1213E-01  0.8543E-01
      0.455  0.2999E-01  0.8818E-01
      0.547  0.4942E-01  0.9272E-01
      0.639  0.5534E-01  0.9780E-01
      0.731  0.4843E-01  0.1022E+00
      0.823  0.5798E-01  0.1076E+00
      0.914  0.1168E+00  0.1183E+00
      1.006  0.2121E+00  0.1378E+00
      1.098  0.2697E+00  0.1625E+00
      1.190  0.2318E+00  0.1838E+00
      1.282  0.1342E+00  0.1961E+00
      1.373  0.5233E-01  0.2010E+00
      1.465  0.1375E-01  0.2022E+00
      1.557  0.2435E-02  0.2024E+00
      1.649  0.2904E-03  0.2025E+00
      1.741  0.2331E-04  0.2025E+00
      1.833  0.1257E-05  0.2025E+00
      1.924  0.4562E-07  0.2025E+00
      2.016  0.5619E-08  0.2025E+00
      2.108  0.1351E-06  0.2025E+00
      2.200  0.2704E-05  0.2025E+00
      2.292  0.3650E-04  0.2025E+00
      2.384  0.3350E-03  0.2025E+00
      2.475  0.2113E-02  0.2027E+00
      2.567  0.9272E-02  0.2035E+00
      2.659  0.2856E-01  0.2062E+00
      2.751  0.6208E-01  0.2119E+00
      2.843  0.9507E-01  0.2206E+00
      2.935  0.1018E+00  0.2300E+00
      3.026  0.7556E-01  0.2369E+00
      3.118  0.3842E-01  0.2404E+00
      3.210  0.1327E-01  0.2416E+00
      3.302  0.3091E-02  0.2419E+00
      3.394  0.4831E-03  0.2420E+00
      3.486  0.5047E-04  0.2420E+00
      3.577  0.3514E-05  0.2420E+00
      3.669  0.1626E-06  0.2420E+00
      3.761  0.5352E-08  0.2420E+00
      3.853  0.1491E-07  0.2420E+00
      3.945  0.4086E-06  0.2420E+00
      4.037  0.7464E-05  0.2420E+00
      4.128  0.9039E-04  0.2420E+00
      4.220  0.7261E-03  0.2421E+00
      4.312  0.3874E-02  0.2424E+00
      4.404  0.1373E-01  0.2437E+00
      4.496  0.3239E-01  0.2466E+00
      4.588  0.5081E-01  0.2513E+00
      4.679  0.5309E-01  0.2562E+00
      4.771  0.3713E-01  0.2596E+00
      4.863  0.1856E-01  0.2613E+00
      4.955  0.1160E-01  0.2624E+00
      5.047  0.2047E-01  0.2642E+00
      5.139  0.4528E-01  0.2684E+00
      5.230  0.8230E-01  0.2760E+00
      5.322  0.1156E+00  0.2866E+00
      5.414  0.1194E+00  0.2975E+00
      5.506  0.8688E-01  0.3055E+00
      5.598  0.4447E-01  0.3096E+00
      5.690  0.2093E-01  0.3115E+00
      5.781  0.2330E-01  0.3137E+00
      5.873  0.4250E-01  0.3176E+00
      5.965  0.6359E-01  0.3234E+00
      6.057  0.8141E-01  0.3309E+00
      6.149  0.1081E+00  0.3408E+00
      6.241  0.1418E+00  0.3538E+00
      6.332  0.1493E+00  0.3675E+00
      6.424  0.1131E+00  0.3779E+00
      6.516  0.6590E-01  0.3840E+00
      6.608  0.5071E-01  0.3886E+00
      6.700  0.7461E-01  0.3955E+00
      6.792  0.1052E+00  0.4051E+00
      6.883  0.1037E+00  0.4147E+00
      6.975  0.6852E-01  0.4210E+00
      7.067  0.3121E-01  0.4238E+00
      7.159  0.1576E-01  0.4253E+00
      7.251  0.2940E-01  0.4280E+00
      7.343  0.7402E-01  0.4348E+00
      7.434  0.1326E+00  0.4470E+00
      7.526  0.1609E+00  0.4617E+00
      7.618  0.1322E+00  0.4739E+00
      7.710  0.7363E-01  0.4806E+00
      7.802  0.2824E-01  0.4832E+00
      7.894  0.1025E-01  0.4842E+00
      7.985  0.1529E-01  0.4856E+00
      8.077  0.4195E-01  0.4894E+00
      8.169  0.8270E-01  0.4970E+00
      8.261  0.1089E+00  0.5070E+00
      8.353  0.9567E-01  0.5158E+00
      8.445  0.5791E-01  0.5211E+00
      8.536  0.3270E-01  0.5241E+00
      8.628  0.4112E-01  0.5279E+00
      8.720  0.7650E-01  0.5349E+00
      8.812  0.1069E+00  0.5447E+00
      8.904  0.1007E+00  0.5540E+00
      8.996  0.6408E-01  0.5599E+00
      9.087  0.3166E-01  0.5628E+00
      9.179  0.2473E-01  0.5650E+00
      9.271  0.3872E-01  0.5686E+00
      9.363  0.5342E-01  0.5735E+00
      9.455  0.5051E-01  0.5781E+00
      9.547  0.3187E-01  0.5811E+00
      9.638  0.1339E-01  0.5823E+00
      9.730  0.3777E-02  0.5826E+00
      9.822  0.1103E-02  0.5827E+00
      9.914  0.2914E-02  0.5830E+00
     10.006  0.1298E-01  0.5842E+00
     10.098  0.3961E-01  0.5878E+00
     10.189  0.8063E-01  0.5953E+00
     10.281  0.1101E+00  0.6054E+00
     10.373  0.1027E+00  0.6148E+00
     10.465  0.6883E-01  0.6211E+00
     10.557  0.3819E-01  0.6246E+00
     10.649  0.2553E-01  0.6270E+00
     10.740  0.3517E-01  0.6302E+00
     10.832  0.6853E-01  0.6365E+00
     10.924  0.1092E+00  0.6465E+00
     11.016  0.1278E+00  0.6582E+00
     11.108  0.1162E+00  0.6689E+00
     11.200  0.8909E-01  0.6771E+00
     11.291  0.5800E-01  0.6824E+00
     11.383  0.2952E-01  0.6851E+00
     11.475  0.1080E-01  0.6861E+00
     11.567  0.2710E-02  0.6864E+00
     11.659  0.4573E-03  0.6864E+00
     11.751  0.5143E-04  0.6864E+00
     11.842  0.3845E-05  0.6864E+00
     11.934  0.2838E-06  0.6864E+00
     12.026  0.2254E-05  0.6864E+00
     12.118  0.3581E-04  0.6864E+00
     12.210  0.3783E-03  0.6865E+00
     12.302  0.2652E-02  0.6867E+00
     12.393  0.1235E-01  0.6878E+00
     12.485  0.3826E-01  0.6913E+00
     12.577  0.7909E-01  0.6986E+00
     12.669  0.1107E+00  0.7088E+00
     12.761  0.1124E+00  0.7191E+00
     12.853  0.1064E+00  0.7289E+00
     12.944  0.1280E+00  0.7406E+00
     13.036  0.1614E+00  0.7554E+00
     13.128  0.1560E+00  0.7698E+00
     13.220  0.1039E+00  0.7793E+00
     13.312  0.4664E-01  0.7836E+00
     13.404  0.1405E-01  0.7849E+00
     13.495  0.2898E-02  0.7852E+00
     13.587  0.9842E-03  0.7852E+00
     13.679  0.3885E-02  0.7856E+00
     13.771  0.1639E-01  0.7871E+00
     13.863  0.4639E-01  0.7914E+00
     13.955  0.8735E-01  0.7994E+00
     14.046  0.1095E+00  0.8094E+00
     14.138  0.9129E-01  0.8178E+00
     14.230  0.5067E-01  0.8225E+00
     14.322  0.1871E-01  0.8242E+00
     14.414  0.4595E-02  0.8246E+00
     14.506  0.7506E-03  0.8247E+00
     14.597  0.9782E-04  0.8247E+00
     14.689  0.1953E-03  0.8247E+00
     14.781  0.1432E-02  0.8248E+00
     14.873  0.7194E-02  0.8255E+00
     14.965  0.2408E-01  0.8277E+00
     15.057  0.5406E-01  0.8327E+00
     15.148  0.8357E-01  0.8404E+00
     15.240  0.9700E-01  0.8493E+00
     15.332  0.1029E+00  0.8587E+00
     15.424  0.1148E+00  0.8693E+00
     15.516  0.1161E+00  0.8799E+00
     15.608  0.8944E-01  0.8881E+00
     15.699  0.5457E-01  0.8931E+00
     15.791  0.4128E-01  0.8969E+00
     15.883  0.4956E-01  0.9015E+00
     15.975  0.5546E-01  0.9066E+00
     16.067  0.4499E-01  0.9107E+00
     16.159  0.3130E-01  0.9136E+00
     16.250  0.3890E-01  0.9172E+00
     16.342  0.7992E-01  0.9245E+00
     16.434  0.1379E+00  0.9372E+00
     16.526  0.1735E+00  0.9531E+00
     16.618  0.1658E+00  0.9683E+00
     16.710  0.1325E+00  0.9805E+00
     16.801  0.9409E-01  0.9891E+00
     16.893  0.5623E-01  0.9943E+00
     16.985  0.2569E-01  0.9966E+00
     17.077  0.9870E-02  0.9975E+00
     17.169  0.8319E-02  0.9983E+00
     17.260  0.1603E-01  0.9998E+00
     17.352  0.2518E-01  0.1002E+01
     17.444  0.2669E-01  0.1005E+01
     17.536  0.1887E-01  0.1006E+01
     17.628  0.9035E-02  0.1007E+01
     17.720  0.4014E-02  0.1007E+01
     17.811  0.6457E-02  0.1008E+01
     17.903  0.1856E-01  0.1010E+01
     17.995  0.3862E-01  0.1013E+01
     18.087  0.5370E-01  0.1018E+01
     18.179  0.4970E-01  0.1023E+01
     18.271  0.3062E-01  0.1026E+01
     18.362  0.1256E-01  0.1027E+01
     18.454  0.3595E-02  0.1027E+01
     18.546  0.2025E-02  0.1027E+01
     18.638  0.7604E-02  0.1028E+01
     18.730  0.2685E-01  0.1030E+01
     18.822  0.6375E-01  0.1036E+01
     18.913  0.1009E+00  0.1046E+01
     19.005  0.1064E+00  0.1055E+01
     19.097  0.7474E-01  0.1062E+01
     19.189  0.3500E-01  0.1065E+01
     19.281  0.1092E-01  0.1066E+01
     19.373  0.2266E-02  0.1067E+01
     19.464  0.3129E-03  0.1067E+01
     19.556  0.2871E-04  0.1067E+01
     19.648  0.1749E-05  0.1067E+01
     19.740  0.7064E-07  0.1067E+01
     19.832  0.1891E-08  0.1067E+01
     19.924  0.3349E-10  0.1067E+01
     20.015  0.3925E-12  0.1067E+01
     20.107  0.3057E-14  0.1067E+01
     20.199  0.0000E+00  0.1067E+01
     20.291  0.0000E+00  0.1067E+01
     20.383  0.0000E+00  0.1067E+01
     20.475  0.0000E+00  0.1067E+01
     20.566  0.0000E+00  0.1067E+01
     20.658  0.0000E+00  0.1067E+01
     20.750  0.0000E+00  0.1067E+01
     20.842  0.0000E+00  0.1067E+01
     20.934  0.0000E+00  0.1067E+01
