   2   2   0   0
  0.1529437E+02  0.3691622E-09  0.3691622E-09  0.3691622E-09  0.5000000E-15
  1.000000000000000E-004
  CAR 
 unknown system                          
     20.92729983     -6.61562101  301      8.70329789      1.00000000
     -6.616  0.0000E+00  0.0000E+00
     -6.524  0.0000E+00  0.0000E+00
     -6.432  0.0000E+00  0.0000E+00
     -6.340  0.0000E+00  0.0000E+00
     -6.248  0.0000E+00  0.0000E+00
     -6.157  0.0000E+00  0.0000E+00
     -6.065  0.0000E+00  0.0000E+00
     -5.973  0.0000E+00  0.0000E+00
     -5.881  0.0000E+00  0.0000E+00
     -5.789  0.2986E-17  0.2741E-18
     -5.698  0.5375E-15  0.4962E-16
     -5.606  0.6780E-13  0.6275E-14
     -5.514  0.5654E-11  0.5254E-12
     -5.422  0.3116E-09  0.2913E-10
     -5.330  0.1135E-07  0.1071E-08
     -5.238  0.2738E-06  0.2621E-07
     -5.147  0.4375E-05  0.4279E-06
     -5.055  0.4636E-04  0.4685E-05
     -4.963  0.3261E-03  0.3463E-04
     -4.871  0.1524E-02  0.1745E-03
     -4.779  0.4735E-02  0.6093E-03
     -4.688  0.9788E-02  0.1508E-02
     -4.596  0.1347E-01  0.2744E-02
     -4.504  0.1233E-01  0.3877E-02
     -4.412  0.7521E-02  0.4567E-02
     -4.320  0.3052E-02  0.4847E-02
     -4.229  0.8236E-03  0.4923E-02
     -4.137  0.1477E-03  0.4937E-02
     -4.045  0.1761E-04  0.4938E-02
     -3.953  0.1760E-05  0.4938E-02
     -3.861  0.6903E-05  0.4939E-02
     -3.770  0.8378E-04  0.4947E-02
     -3.678  0.6819E-03  0.5009E-02
     -3.586  0.3687E-02  0.5348E-02
     -3.494  0.1325E-01  0.6564E-02
     -3.402  0.3167E-01  0.9471E-02
     -3.310  0.5037E-01  0.1410E-01
     -3.219  0.5334E-01  0.1899E-01
     -3.127  0.3760E-01  0.2245E-01
     -3.035  0.1764E-01  0.2406E-01
     -2.943  0.5507E-02  0.2457E-01
     -2.851  0.1143E-02  0.2468E-01
     -2.760  0.1576E-03  0.2469E-01
     -2.668  0.1479E-04  0.2469E-01
     -2.576  0.7663E-05  0.2469E-01
     -2.484  0.8338E-04  0.2470E-01
     -2.392  0.6791E-03  0.2476E-01
     -2.301  0.3674E-02  0.2510E-01
     -2.209  0.1322E-01  0.2631E-01
     -2.117  0.3162E-01  0.2922E-01
     -2.025  0.5039E-01  0.3384E-01
     -1.933  0.5384E-01  0.3879E-01
     -1.842  0.4087E-01  0.4254E-01
     -1.750  0.3200E-01  0.4548E-01
     -1.658  0.4785E-01  0.4987E-01
     -1.566  0.8437E-01  0.5761E-01
     -1.474  0.1091E+00  0.6763E-01
     -1.382  0.9494E-01  0.7635E-01
     -1.291  0.5506E-01  0.8140E-01
     -1.199  0.2125E-01  0.8335E-01
     -1.107  0.5457E-02  0.8385E-01
     -1.015  0.9310E-03  0.8394E-01
     -0.923  0.1055E-03  0.8395E-01
     -0.832  0.7929E-05  0.8395E-01
     -0.740  0.3950E-06  0.8395E-01
     -0.648  0.1303E-07  0.8395E-01
     -0.556  0.2844E-09  0.8395E-01
     -0.464  0.4135E-11  0.8395E-01
     -0.373  0.3219E-11  0.8395E-01
     -0.281  0.2116E-09  0.8395E-01
     -0.189  0.9305E-08  0.8395E-01
     -0.097  0.2708E-06  0.8395E-01
     -0.005  0.5218E-05  0.8395E-01
      0.086  0.6665E-04  0.8396E-01
      0.178  0.5648E-03  0.8401E-01
      0.270  0.3179E-02  0.8430E-01
      0.362  0.1189E-01  0.8539E-01
      0.454  0.2960E-01  0.8811E-01
      0.546  0.4914E-01  0.9262E-01
      0.637  0.5540E-01  0.9771E-01
      0.729  0.4853E-01  0.1022E+00
      0.821  0.5739E-01  0.1074E+00
      0.913  0.1151E+00  0.1180E+00
      1.005  0.2102E+00  0.1373E+00
      1.096  0.2695E+00  0.1620E+00
      1.188  0.2335E+00  0.1835E+00
      1.280  0.1362E+00  0.1960E+00
      1.372  0.5357E-01  0.2009E+00
      1.464  0.1419E-01  0.2022E+00
      1.555  0.2535E-02  0.2024E+00
      1.647  0.3050E-03  0.2025E+00
      1.739  0.2469E-04  0.2025E+00
      1.831  0.1344E-05  0.2025E+00
      1.923  0.4920E-07  0.2025E+00
      2.014  0.5373E-08  0.2025E+00
      2.106  0.1258E-06  0.2025E+00
      2.198  0.2539E-05  0.2025E+00
      2.290  0.3454E-04  0.2025E+00
      2.382  0.3196E-03  0.2025E+00
      2.474  0.2032E-02  0.2027E+00
      2.565  0.8986E-02  0.2035E+00
      2.657  0.2790E-01  0.2061E+00
      2.749  0.6114E-01  0.2117E+00
      2.841  0.9445E-01  0.2204E+00
      2.933  0.1021E+00  0.2297E+00
      3.024  0.7650E-01  0.2368E+00
      3.116  0.3930E-01  0.2404E+00
      3.208  0.1372E-01  0.2416E+00
      3.300  0.3232E-02  0.2419E+00
      3.392  0.5111E-03  0.2420E+00
      3.483  0.5403E-04  0.2420E+00
      3.575  0.3807E-05  0.2420E+00
      3.667  0.1784E-06  0.2420E+00
      3.759  0.5869E-08  0.2420E+00
      3.851  0.1345E-07  0.2420E+00
      3.942  0.3723E-06  0.2420E+00
      4.034  0.6881E-05  0.2420E+00
      4.126  0.8431E-04  0.2420E+00
      4.218  0.6855E-03  0.2420E+00
      4.310  0.3702E-02  0.2424E+00
      4.402  0.1329E-01  0.2436E+00
      4.493  0.3172E-01  0.2465E+00
      4.585  0.5041E-01  0.2511E+00
      4.677  0.5334E-01  0.2560E+00
      4.769  0.3778E-01  0.2595E+00
      4.861  0.1903E-01  0.2613E+00
      4.952  0.1160E-01  0.2623E+00
      5.044  0.1997E-01  0.2642E+00
      5.136  0.4431E-01  0.2682E+00
      5.228  0.8112E-01  0.2757E+00
      5.320  0.1149E+00  0.2862E+00
      5.411  0.1199E+00  0.2972E+00
      5.503  0.8822E-01  0.3053E+00
      5.595  0.4560E-01  0.3095E+00
      5.687  0.2124E-01  0.3115E+00
      5.779  0.2286E-01  0.3136E+00
      5.871  0.4175E-01  0.3174E+00
      5.962  0.6298E-01  0.3232E+00
      6.054  0.8078E-01  0.3306E+00
      6.146  0.1069E+00  0.3404E+00
      6.238  0.1409E+00  0.3533E+00
      6.330  0.1499E+00  0.3671E+00
      6.421  0.1148E+00  0.3776E+00
      6.513  0.6715E-01  0.3838E+00
      6.605  0.5045E-01  0.3884E+00
      6.697  0.7333E-01  0.3952E+00
      6.789  0.1045E+00  0.4048E+00
      6.880  0.1045E+00  0.4144E+00
      6.972  0.7009E-01  0.4208E+00
      7.064  0.3230E-01  0.4238E+00
      7.156  0.1585E-01  0.4252E+00
      7.248  0.2835E-01  0.4278E+00
      7.339  0.7194E-01  0.4344E+00
      7.431  0.1307E+00  0.4464E+00
      7.523  0.1609E+00  0.4612E+00
      7.615  0.1341E+00  0.4735E+00
      7.707  0.7580E-01  0.4805E+00
      7.799  0.2946E-01  0.4832E+00
      7.890  0.1048E-01  0.4841E+00
      7.982  0.1470E-01  0.4855E+00
      8.074  0.4053E-01  0.4892E+00
      8.166  0.8114E-01  0.4966E+00
      8.258  0.1085E+00  0.5066E+00
      8.349  0.9689E-01  0.5155E+00
      8.441  0.5941E-01  0.5210E+00
      8.533  0.3311E-01  0.5240E+00
      8.625  0.4011E-01  0.5277E+00
      8.717  0.7487E-01  0.5346E+00
      8.808  0.1063E+00  0.5443E+00
      8.900  0.1017E+00  0.5537E+00
      8.992  0.6576E-01  0.5597E+00
      9.084  0.3256E-01  0.5627E+00
      9.176  0.2449E-01  0.5649E+00
      9.267  0.3794E-01  0.5684E+00
      9.359  0.5308E-01  0.5733E+00
      9.451  0.5106E-01  0.5780E+00
      9.543  0.3279E-01  0.5810E+00
      9.635  0.1402E-01  0.5823E+00
      9.727  0.4022E-02  0.5826E+00
      9.818  0.1127E-02  0.5827E+00
      9.910  0.2721E-02  0.5830E+00
     10.002  0.1227E-01  0.5841E+00
     10.094  0.3807E-01  0.5876E+00
     10.186  0.7884E-01  0.5949E+00
     10.277  0.1095E+00  0.6049E+00
     10.369  0.1037E+00  0.6144E+00
     10.461  0.7041E-01  0.6209E+00
     10.553  0.3919E-01  0.6245E+00
     10.645  0.2566E-01  0.6268E+00
     10.736  0.3419E-01  0.6300E+00
     10.828  0.6661E-01  0.6361E+00
     10.920  0.1076E+00  0.6460E+00
     11.012  0.1277E+00  0.6577E+00
     11.104  0.1172E+00  0.6685E+00
     11.195  0.9052E-01  0.6768E+00
     11.287  0.5949E-01  0.6822E+00
     11.379  0.3071E-01  0.6850E+00
     11.471  0.1143E-01  0.6861E+00
     11.563  0.2924E-02  0.6864E+00
     11.655  0.5033E-03  0.6864E+00
     11.746  0.5777E-04  0.6864E+00
     11.838  0.4409E-05  0.6864E+00
     11.930  0.3014E-06  0.6864E+00
     12.022  0.1935E-05  0.6864E+00
     12.114  0.3134E-04  0.6864E+00
     12.205  0.3380E-03  0.6865E+00
     12.297  0.2420E-02  0.6867E+00
     12.389  0.1151E-01  0.6877E+00
     12.481  0.3641E-01  0.6911E+00
     12.573  0.7688E-01  0.6981E+00
     12.664  0.1097E+00  0.7082E+00
     12.756  0.1129E+00  0.7186E+00
     12.848  0.1063E+00  0.7283E+00
     12.940  0.1262E+00  0.7399E+00
     13.032  0.1603E+00  0.7546E+00
     13.123  0.1577E+00  0.7691E+00
     13.215  0.1072E+00  0.7790E+00
     13.307  0.4915E-01  0.7835E+00
     13.399  0.1513E-01  0.7849E+00
     13.491  0.3175E-02  0.7851E+00
     13.583  0.9689E-03  0.7852E+00
     13.674  0.3560E-02  0.7856E+00
     13.766  0.1532E-01  0.7870E+00
     13.858  0.4430E-01  0.7910E+00
     13.950  0.8528E-01  0.7989E+00
     14.042  0.1093E+00  0.8089E+00
     14.133  0.9318E-01  0.8175E+00
     14.225  0.5291E-01  0.8223E+00
     14.317  0.1999E-01  0.8241E+00
     14.409  0.5022E-02  0.8246E+00
     14.501  0.8394E-03  0.8247E+00
     14.592  0.1074E-03  0.8247E+00
     14.684  0.1742E-03  0.8247E+00
     14.776  0.1294E-02  0.8248E+00
     14.868  0.6646E-02  0.8254E+00
     14.960  0.2274E-01  0.8275E+00
     15.051  0.5219E-01  0.8323E+00
     15.143  0.8226E-01  0.8399E+00
     15.235  0.9660E-01  0.8487E+00
     15.327  0.1024E+00  0.8581E+00
     15.419  0.1141E+00  0.8686E+00
     15.511  0.1168E+00  0.8793E+00
     15.602  0.9159E-01  0.8877E+00
     15.694  0.5622E-01  0.8929E+00
     15.786  0.4130E-01  0.8967E+00
     15.878  0.4887E-01  0.9012E+00
     15.970  0.5556E-01  0.9063E+00
     16.061  0.4595E-01  0.9105E+00
     16.153  0.3174E-01  0.9134E+00
     16.245  0.3746E-01  0.9169E+00
     16.337  0.7656E-01  0.9239E+00
     16.429  0.1345E+00  0.9362E+00
     16.520  0.1726E+00  0.9521E+00
     16.612  0.1674E+00  0.9674E+00
     16.704  0.1348E+00  0.9798E+00
     16.796  0.9650E-01  0.9887E+00
     16.888  0.5848E-01  0.9941E+00
     16.979  0.2722E-01  0.9966E+00
     17.071  0.1041E-01  0.9975E+00
     17.163  0.8084E-02  0.9982E+00
     17.255  0.1540E-01  0.9997E+00
     17.347  0.2475E-01  0.1002E+01
     17.439  0.2691E-01  0.1004E+01
     17.530  0.1952E-01  0.1006E+01
     17.622  0.9563E-02  0.1007E+01
     17.714  0.4131E-02  0.1007E+01
     17.806  0.6029E-02  0.1008E+01
     17.898  0.1746E-01  0.1010E+01
     17.989  0.3727E-01  0.1013E+01
     18.081  0.5321E-01  0.1018E+01
     18.173  0.5059E-01  0.1023E+01
     18.265  0.3201E-01  0.1026E+01
     18.357  0.1350E-01  0.1027E+01
     18.448  0.3938E-02  0.1027E+01
     18.540  0.2016E-02  0.1027E+01
     18.632  0.7233E-02  0.1028E+01
     18.724  0.2589E-01  0.1030E+01
     18.816  0.6238E-01  0.1036E+01
     18.907  0.1001E+00  0.1045E+01
     18.999  0.1070E+00  0.1055E+01
     19.091  0.7614E-01  0.1062E+01
     19.183  0.3608E-01  0.1065E+01
     19.275  0.1138E-01  0.1066E+01
     19.367  0.2389E-02  0.1067E+01
     19.458  0.3331E-03  0.1067E+01
     19.550  0.3085E-04  0.1067E+01
     19.642  0.1895E-05  0.1067E+01
     19.734  0.7718E-07  0.1067E+01
     19.826  0.2081E-08  0.1067E+01
     19.917  0.3713E-10  0.1067E+01
     20.009  0.4378E-12  0.1067E+01
     20.101  0.3416E-14  0.1067E+01
     20.193  0.0000E+00  0.1067E+01
     20.285  0.0000E+00  0.1067E+01
     20.376  0.0000E+00  0.1067E+01
     20.468  0.0000E+00  0.1067E+01
     20.560  0.0000E+00  0.1067E+01
     20.652  0.0000E+00  0.1067E+01
     20.744  0.0000E+00  0.1067E+01
     20.835  0.0000E+00  0.1067E+01
     20.927  0.0000E+00  0.1067E+01
