    2    2   15    1
  0.1529437E+02  0.3691622E-09  0.3691622E-09  0.3691622E-09  0.5000000E-15
  1.000000000000000E-004
  CAR 
 unknown system                          
      8      6      8
 
  0.0000000E+00  0.0000000E+00  0.0000000E+00  0.3703704E-01
    1       -4.615919   1.000000
    2        6.172567   1.000000
    3        6.298445   1.000000
    4        6.298445   1.000000
    5       10.524033   0.000000
    6       16.754881   0.000000
    7       17.365720   0.000000
    8       17.365724   0.000000
 
  0.3333333E+00 -0.7127914E-16  0.7127914E-16  0.2962963E+00
    1       -1.505635   1.000000
    2        5.353267   1.000000
    3        6.789674   1.000000
    4        7.459553   1.000000
    5       10.257066   0.000000
    6       12.648104   0.000000
    7       13.022705   0.000000
    8       14.005423   0.000000
 
  0.3333333E+00  0.3333333E+00  0.1273482E-15  0.2962963E+00
    1        1.043344   1.000000
    2        1.061698   1.000000
    3        6.269632   1.000000
    4        8.231082   0.999577
    5        8.798212   0.250422
    6       10.935137   0.000000
    7       15.461148   0.000000
    8       16.501984   0.000000
 
 -0.3333333E+00  0.3333333E+00  0.6449678E-17  0.1481481E+00
    1       -3.297837   1.000000
    2        0.567255   1.000000
    3        7.522022   1.000000
    4        9.350917   0.000002
    5       11.167597   0.000000
    6       13.063212   0.000000
    7       16.419747   0.000000
    8       18.933789   0.000000
 
 -0.3333333E+00  0.3333333E+00  0.3333333E+00  0.1481481E+00
    1       -2.012279   1.000000
    2        1.106820   1.000000
    3        2.892448   1.000000
    4        5.940741   1.000000
    5       15.146417   0.000000
    6       16.725236   0.000000
    7       18.069541   0.000000
    8       18.917162   0.000000
 
 -0.3333333E+00 -0.3333333E+00  0.3333333E+00  0.7407407E-01
    1        2.774378   1.000000
    2        2.869670   1.000000
    3        4.597394   1.000000
    4        4.597394   1.000000
    5        5.168085   1.000000
    6       15.140936   0.000000
    7       15.922403   0.000000
    8       15.922409   0.000000
