<?xml version="1.0" encoding="ISO-8859-1"?>
<modeling>
 <generator>
  <i name="program" type="string">vasp </i>
  <i name="version" type="string">5.4.4.18Apr17-6-g9f103f2a35  </i>
  <i name="subversion" type="string">(build Dec 09 2018 21:25:21) complex            parallel </i>
  <i name="platform" type="string">IFC18.0.1.163_CrayMPICH7.7.0_MKL18.0.1.163 </i>
  <i name="date" type="string">2019 03 18 </i>
  <i name="time" type="string">04:44:34 </i>
 </generator>
 <incar>
  <i type="string" name="PREC">normal</i>
  <i type="int" name="IBRION">     2</i>
  <i name="EDIFF">      0.00040000</i>
  <i name="EDIFFG">     -0.01000000</i>
  <i type="int" name="NSW">    15</i>
  <i type="int" name="ISIF">     2</i>
  <i name="ENCUT">    350.00000000</i>
  <i type="int" name="NBANDS">     8</i>
  <i type="logical" name="LREAL"> F  </i>
  <i type="int" name="ISMEAR">     0</i>
  <i name="SIGMA">      0.20000000</i>
  <v type="int" name="KPOINT_BSE">    -1     0     0     0</v>
 </incar>
 <structure name="primitive_cell" >
  <crystal>
   <varray name="basis" >
    <v>      -2.45000000       2.45000000       1.27400000 </v>
    <v>       2.45000000      -2.45000000       1.27400000 </v>
    <v>       2.45000000       2.45000000      -1.27400000 </v>
   </varray>
   <i name="volume">     30.58874000 </i>
   <varray name="rec_basis" >
    <v>       0.00000000       0.20408163       0.39246468 </v>
    <v>       0.20408163       0.00000000       0.39246468 </v>
    <v>       0.20408163       0.20408163      -0.00000000 </v>
   </varray>
  </crystal>
  <varray name="positions" >
   <v>       0.25000000      -0.25000000      -0.50000000 </v>
   <v>       0.00000000       0.00000000       0.00000000 </v>
  </varray>
 </structure>
 <varray name="primitive_index" >
  <v type="int" >        1 </v>
  <v type="int" >        2 </v>
 </varray>
 <kpoints>
  <generation param="Monkhorst-Pack">
   <v type="int" name="divisions">       3        3        3 </v>
   <v name="usershift">      0.00000000       0.00000000       0.00000000 </v>
   <v name="genvec1">      0.33333333      -0.00000000       0.00000000 </v>
   <v name="genvec2">     -0.00000000       0.33333333       0.00000000 </v>
   <v name="genvec3">     -0.00000000      -0.00000000       0.33333333 </v>
   <v name="shift">      0.00000000       0.00000000       0.00000000 </v>
  </generation>
  <varray name="kpointlist" >
   <v>       0.00000000       0.00000000       0.00000000 </v>
   <v>       0.33333333      -0.00000000       0.00000000 </v>
   <v>       0.33333333       0.33333333       0.00000000 </v>
   <v>      -0.33333333       0.33333333       0.00000000 </v>
   <v>      -0.33333333       0.33333333       0.33333333 </v>
   <v>      -0.33333333      -0.33333333       0.33333333 </v>
  </varray>
  <varray name="weights" >
   <v>       0.03703704 </v>
   <v>       0.29629630 </v>
   <v>       0.29629630 </v>
   <v>       0.14814815 </v>
   <v>       0.14814815 </v>
   <v>       0.07407407 </v>
  </varray>
 </kpoints>
 <parameters>
  <separator name="general" >
   <i type="string" name="SYSTEM">unknown system</i>
   <i type="logical" name="LCOMPAT"> F  </i>
  </separator>
  <separator name="electronic" >
   <i type="string" name="PREC">normal</i>
   <i name="ENMAX">    350.00000000</i>
   <i name="ENAUG">    322.06900000</i>
   <i name="EDIFF">      0.00040000</i>
   <i type="int" name="IALGO">    38</i>
   <i type="int" name="IWAVPR">    11</i>
   <i type="int" name="NBANDS">     8</i>
   <i name="NELECT">      8.00000000</i>
   <i type="int" name="TURBO">     0</i>
   <i type="int" name="IRESTART">     0</i>
   <i type="int" name="NREBOOT">     0</i>
   <i type="int" name="NMIN">     0</i>
   <i name="EREF">      0.00000000</i>
   <separator name="electronic smearing" >
    <i type="int" name="ISMEAR">     0</i>
    <i name="SIGMA">      0.20000000</i>
    <i name="KSPACING">      0.50000000</i>
    <i type="logical" name="KGAMMA"> T  </i>
   </separator>
   <separator name="electronic projectors" >
    <i type="logical" name="LREAL"> F  </i>
    <v name="ROPT">      0.00000000</v>
    <i type="int" name="LMAXPAW">  -100</i>
    <i type="int" name="LMAXMIX">     2</i>
    <i type="logical" name="NLSPLINE"> F  </i>
   </separator>
   <separator name="electronic startup" >
    <i type="int" name="ISTART">     0</i>
    <i type="int" name="ICHARG">     2</i>
    <i type="int" name="INIWAV">     1</i>
   </separator>
   <separator name="electronic spin" >
    <i type="int" name="ISPIN">     1</i>
    <i type="logical" name="LNONCOLLINEAR"> F  </i>
    <v name="MAGMOM">      1.00000000      1.00000000</v>
    <i name="NUPDOWN">     -1.00000000</i>
    <i type="logical" name="LSORBIT"> F  </i>
    <v name="SAXIS">      0.00000000      0.00000000      1.00000000</v>
    <i type="logical" name="LSPIRAL"> F  </i>
    <v name="QSPIRAL">      0.00000000      0.00000000      0.00000000</v>
    <i type="logical" name="LZEROZ"> F  </i>
   </separator>
   <separator name="electronic exchange-correlation" >
    <i type="logical" name="LASPH"> F  </i>
    <i type="logical" name="LMETAGGA"> F  </i>
   </separator>
   <separator name="electronic convergence" >
    <i type="int" name="NELM">    60</i>
    <i type="int" name="NELMDL">    -5</i>
    <i type="int" name="NELMIN">     2</i>
    <i name="ENINI">    350.00000000</i>
    <separator name="electronic convergence detail" >
     <i type="logical" name="LDIAG"> T  </i>
     <i type="logical" name="LSUBROT"> F  </i>
     <i name="WEIMIN">      0.00100000</i>
     <i name="EBREAK">      0.00001250</i>
     <i name="DEPER">      0.30000000</i>
     <i type="int" name="NRMM">     4</i>
     <i name="TIME">      0.40000000</i>
    </separator>
   </separator>
   <separator name="electronic mixer" >
    <i name="AMIX">      0.40000000</i>
    <i name="BMIX">      1.00000000</i>
    <i name="AMIN">      0.10000000</i>
    <i name="AMIX_MAG">      1.60000000</i>
    <i name="BMIX_MAG">      1.00000000</i>
    <separator name="electronic mixer details" >
     <i type="int" name="IMIX">     4</i>
     <i type="logical" name="MIXFIRST"> F  </i>
     <i type="int" name="MAXMIX">   -45</i>
     <i name="WC">    100.00000000</i>
     <i type="int" name="INIMIX">     1</i>
     <i type="int" name="MIXPRE">     1</i>
     <i type="int" name="MREMOVE">     5</i>
    </separator>
   </separator>
   <separator name="electronic dipolcorrection" >
    <i type="logical" name="LDIPOL"> F  </i>
    <i type="logical" name="LMONO"> F  </i>
    <i type="int" name="IDIPOL">     0</i>
    <i name="EPSILON">      1.00000000</i>
    <v name="DIPOL">   -100.00000000   -100.00000000   -100.00000000</v>
    <i name="EFIELD">      0.00000000</i>
   </separator>
  </separator>
  <separator name="grids" >
   <i type="int" name="NGX">    18</i>
   <i type="int" name="NGY">    18</i>
   <i type="int" name="NGZ">    18</i>
   <i type="int" name="NGXF">    36</i>
   <i type="int" name="NGYF">    36</i>
   <i type="int" name="NGZF">    36</i>
   <i type="logical" name="ADDGRID"> F  </i>
  </separator>
  <separator name="ionic" >
   <i type="int" name="NSW">    15</i>
   <i type="int" name="IBRION">     2</i>
   <i type="int" name="MDALGO">     0</i>
   <i type="int" name="ISIF">     2</i>
   <i name="PSTRESS">      0.00000000</i>
   <i name="EDIFFG">     -0.01000000</i>
   <i type="int" name="NFREE">     1</i>
   <i name="POTIM">      0.50000000</i>
   <i name="SMASS">     -3.00000000</i>
   <i name="SCALEE">      1.00000000</i>
  </separator>
  <separator name="ionic md" >
   <i name="TEBEG">      0.00010000</i>
   <i name="TEEND">      0.00010000</i>
   <i type="int" name="NBLOCK">     1</i>
   <i type="int" name="KBLOCK">    15</i>
   <i type="int" name="NPACO">   256</i>
   <i name="APACO">     16.00000000</i>
  </separator>
  <separator name="symmetry" >
   <i type="int" name="ISYM">     2</i>
   <i name="SYMPREC">      0.00001000</i>
  </separator>
  <separator name="dos" >
   <i type="int" name="LORBIT">     0</i>
   <v name="RWIGS">     -1.00000000</v>
   <i type="int" name="NEDOS">   301</i>
   <i name="EMIN">     10.00000000</i>
   <i name="EMAX">    -10.00000000</i>
   <i name="EFERMI">      0.00000000</i>
  </separator>
  <separator name="writing" >
   <i type="int" name="NWRITE">     2</i>
   <i type="logical" name="LWAVE"> T  </i>
   <i type="logical" name="LDOWNSAMPLE"> F  </i>
   <i type="logical" name="LCHARG"> T  </i>
   <i type="logical" name="LPARD"> F  </i>
   <i type="logical" name="LVTOT"> F  </i>
   <i type="logical" name="LVHAR"> F  </i>
   <i type="logical" name="LELF"> F  </i>
   <i type="logical" name="LOPTICS"> F  </i>
   <v name="STM">      0.00000000      0.00000000      0.00000000      0.00000000      0.00000000      0.00000000      0.00000000</v>
  </separator>
  <separator name="performance" >
   <i type="int" name="NPAR">     8</i>
   <i type="int" name="NSIM">     4</i>
   <i type="int" name="NBLK">    -1</i>
   <i type="logical" name="LPLANE"> T  </i>
   <i type="logical" name="LSCALAPACK"> T  </i>
   <i type="logical" name="LSCAAWARE"> F  </i>
   <i type="logical" name="LSCALU"> F  </i>
   <i type="logical" name="LASYNC"> F  </i>
   <i type="logical" name="LORBITALREAL"> F  </i>
  </separator>
  <separator name="miscellaneous" >
   <i type="int" name="IDIOT">     3</i>
   <i type="int" name="ISPECIAL">     0</i>
   <i type="logical" name="LMUSIC"> F  </i>
   <v name="POMASS">     28.08500000</v>
   <v name="DARWINR">      0.00000000</v>
   <v name="DARWINV">      1.00000000</v>
   <i type="logical" name="LCORR"> T  </i>
  </separator>
  <i type="logical" name="GGA_COMPAT"> T  </i>
  <i type="logical" name="LBERRY"> F  </i>
  <i type="int" name="ICORELEVEL">     0</i>
  <i type="logical" name="LDAU"> F  </i>
  <i type="int" name="I_CONSTRAINED_M">     0</i>
  <separator name="electronic exchange-correlation" >
   <i type="string" name="GGA">--</i>
   <i type="int" name="VOSKOWN">     0</i>
   <i type="logical" name="LHFCALC"> F  </i>
   <i type="string" name="PRECFOCK"></i>
   <i type="logical" name="LSYMGRAD"> F  </i>
   <i type="logical" name="LHFONE"> F  </i>
   <i type="logical" name="LRHFCALC"> F  </i>
   <i type="logical" name="LTHOMAS"> F  </i>
   <i type="logical" name="LMODELHF"> F  </i>
   <i name="ENCUT4O">     -1.00000000</i>
   <i type="int" name="EXXOEP">     0</i>
   <i type="int" name="FOURORBIT">     0</i>
   <i name="AEXX">      0.00000000</i>
   <i name="HFALPHA">      0.00000000</i>
   <i name="MCALPHA">      0.00000000</i>
   <i name="ALDAX">      1.00000000</i>
   <i name="AGGAX">      1.00000000</i>
   <i name="ALDAC">      1.00000000</i>
   <i name="AGGAC">      1.00000000</i>
   <i type="int" name="NKREDX">     1</i>
   <i type="int" name="NKREDY">     1</i>
   <i type="int" name="NKREDZ">     1</i>
   <i type="logical" name="SHIFTRED"> F  </i>
   <i type="logical" name="ODDONLY"> F  </i>
   <i type="logical" name="EVENONLY"> F  </i>
   <i type="int" name="LMAXFOCK">     0</i>
   <i type="int" name="NMAXFOCKAE">     0</i>
   <i type="logical" name="LFOCKAEDFT"> F  </i>
   <i name="HFSCREEN">      0.00000000</i>
   <i name="HFSCREENC">      0.00000000</i>
   <i type="int" name="NBANDSGWLOW">     0</i>
  </separator>
  <separator name="vdW DFT" >
   <i type="logical" name="LUSE_VDW"> F  </i>
   <i name="Zab_VDW">     -0.84910000</i>
   <i name="PARAM1">      0.12340000</i>
   <i name="PARAM2">      1.00000000</i>
   <i name="PARAM3">      0.00000000</i>
  </separator>
  <separator name="model GW" >
   <i type="int" name="MODEL_GW">     0</i>
   <i name="MODEL_EPS0">      9.17662200</i>
   <i name="MODEL_ALPHA">      1.00000000</i>
  </separator>
  <separator name="linear response parameters" >
   <i type="logical" name="LEPSILON"> F  </i>
   <i type="logical" name="LRPA"> F  </i>
   <i type="logical" name="LNABLA"> F  </i>
   <i type="logical" name="LVEL"> F  </i>
   <i type="int" name="KINTER">     0</i>
   <i name="CSHIFT">      0.10000000</i>
   <i name="OMEGAMAX">     -1.00000000</i>
   <i name="DEG_THRESHOLD">      0.00200000</i>
   <i name="RTIME">     -0.10000000</i>
   <i name="WPLASMAI">      0.00000000</i>
   <v name="DFIELD">      0.00000000      0.00000000      0.00000000</v>
   <v name="WPLASMA">      0.00000000      0.00000000      0.00000000      0.00000000      0.00000000      0.00000000      0.00000000      0.00000000      0.00000000</v>
  </separator>
  <separator name="orbital magnetization" >
   <i type="logical" name="NUCIND"> F  </i>
   <v name="MAGPOS">      0.00000000      0.00000000      0.00000000</v>
   <i type="logical" name="LNICSALL"> T  </i>
   <i type="logical" name="ORBITALMAG"> F  </i>
   <i type="logical" name="LMAGBLOCH"> F  </i>
   <i type="logical" name="LCHIMAG"> F  </i>
   <i type="logical" name="LGAUGE"> T  </i>
   <i type="int" name="MAGATOM">     0</i>
   <v name="MAGDIPOL">      0.00000000      0.00000000      0.00000000</v>
   <v name="AVECCONST">      0.00000000      0.00000000      0.00000000</v>
  </separator>
  <separator name="response functions" >
   <i type="logical" name="LADDER"> F  </i>
   <i type="logical" name="LRPAFORCE"> F  </i>
   <i type="logical" name="LFXC"> F  </i>
   <i type="logical" name="LHARTREE"> T  </i>
   <i type="int" name="IBSE">     0</i>
   <v type="int" name="KPOINT">    -1     0     0     0</v>
   <i type="logical" name="LTCTE"> F  </i>
   <i type="logical" name="LTETE"> F  </i>
   <i type="logical" name="LTRIPLET"> F  </i>
   <i type="logical" name="LFXCEPS"> F  </i>
   <i type="logical" name="LFXHEG"> F  </i>
   <i type="int" name="NATURALO">     2</i>
   <i type="logical" name="L2ORDER"> F  </i>
   <i type="logical" name="LMP2LT"> F  </i>
   <i type="logical" name="LUSEW"> F  </i>
   <i name="ENCUTGW">     -2.00000000</i>
   <i name="ENCUTGWSOFT">     -2.00000000</i>
   <i name="ENCUTLF">     -1.00000000</i>
   <i type="int" name="LMAXMP2">    -1</i>
   <i name="SCISSOR">      0.00000000</i>
   <i type="int" name="NOMEGA">     0</i>
   <i type="int" name="NOMEGAR">     0</i>
   <i type="int" name="NBANDSGW">    -1</i>
   <i type="int" name="NBANDSO">    -1</i>
   <i type="int" name="NBANDSV">    -1</i>
   <i type="int" name="NELM">     1</i>
   <i type="int" name="NELMHF">     1</i>
   <i type="int" name="DIM">     3</i>
   <i type="int" name="ANTIRES">     0</i>
   <i name="OMEGAMAX">    -30.00000000</i>
   <i name="OMEGAMIN">    -30.00000000</i>
   <i name="OMEGATL">   -200.00000000</i>
   <i type="int" name="OMEGAGRID">   140</i>
   <i name="CSHIFT">     -0.10000000</i>
   <i type="logical" name="SELFENERGY"> F  </i>
   <i type="logical" name="LSPECTRAL"> F  </i>
   <i type="logical" name="LSPECTRALGW"> F  </i>
   <i type="logical" name="LSINGLES"> F  </i>
   <i type="logical" name="LFERMIGW"> F  </i>
   <i type="logical" name="ODDONLYGW"> F  </i>
   <i type="logical" name="EVENONLYGW"> F  </i>
   <i type="int" name="NKREDLFX">     1</i>
   <i type="int" name="NKREDLFY">     1</i>
   <i type="int" name="NKREDLFZ">     1</i>
   <i type="int" name="MAXMEM">  2800</i>
   <i type="int" name="TELESCOPE">     0</i>
   <i type="int" name="TAUPAR">     1</i>
   <i type="int" name="OMEGAPAR">    -1</i>
   <i name="LAMBDA">      1.00000000</i>
  </separator>
  <separator name="External order field" >
   <i name="OFIELD_KAPPA">      0.00000000</i>
   <v name="OFIELD_K">      0.00000000      0.00000000      0.00000000</v>
   <i name="OFIELD_Q6_NEAR">      0.00000000</i>
   <i name="OFIELD_Q6_FAR">      0.00000000</i>
   <i name="OFIELD_A">      0.00000000</i>
  </separator>
 </parameters>
 <atominfo>
  <atoms>       2 </atoms>
  <types>       1 </types>
  <array name="atoms" >
   <dimension dim="1">ion</dimension>
   <field type="string">element</field>
   <field type="int">atomtype</field>
   <set>
    <rc><c>Si</c><c>   1</c></rc>
    <rc><c>Si</c><c>   1</c></rc>
   </set>
  </array>
  <array name="atomtypes" >
   <dimension dim="1">type</dimension>
   <field type="int">atomspertype</field>
   <field type="string">element</field>
   <field>mass</field>
   <field>valence</field>
   <field type="string">pseudopotential</field>
   <set>
    <rc><c>   2</c><c>Si</c><c>     28.08500000</c><c>      4.00000000</c><c> PAW_PBE Si 05Jan2001                   </c></rc>
   </set>
  </array>
 </atominfo>
 <structure name="initialpos" >
  <crystal>
   <varray name="basis" >
    <v>      -2.45000000       2.45000000       1.27400000 </v>
    <v>       2.45000000      -2.45000000       1.27400000 </v>
    <v>       2.45000000       2.45000000      -1.27400000 </v>
   </varray>
   <i name="volume">     30.58874000 </i>
   <varray name="rec_basis" >
    <v>       0.00000000       0.20408163       0.39246468 </v>
    <v>       0.20408163       0.00000000       0.39246468 </v>
    <v>       0.20408163       0.20408163      -0.00000000 </v>
   </varray>
  </crystal>
  <varray name="positions" >
   <v>       0.25000000       0.75000000       0.50000000 </v>
   <v>       0.00000000       0.00000000       0.00000000 </v>
  </varray>
 </structure>
 <calculation>
  <scstep>
   <time name="dav">    0.08    0.08</time>
   <time name="total">    0.13    0.15</time>
   <energy>
    <i name="alphaZ">      4.40202223 </i>
    <i name="ewald">   -265.18101312 </i>
    <i name="hartreedc">     -2.30415367 </i>
    <i name="XCdc">    -17.81549222 </i>
    <i name="pawpsdc">     65.95520812 </i>
    <i name="pawaedc">    -30.76852678 </i>
    <i name="eentropy">     -0.02666498 </i>
    <i name="bandstr">     41.23559446 </i>
    <i name="atom">    206.13125414 </i>
    <i name="e_fr_energy">      1.62822818 </i>
    <i name="e_wo_entrp">      1.65489316 </i>
    <i name="e_0_energy">      1.64156067 </i>
   </energy>
  </scstep>
  <scstep>
   <time name="dav">    0.11    0.12</time>
   <time name="total">    0.11    0.12</time>
   <energy>
    <i name="e_fr_energy">     -9.90936426 </i>
    <i name="e_wo_entrp">     -9.88262269 </i>
    <i name="e_0_energy">     -9.89599348 </i>
   </energy>
  </scstep>
  <scstep>
   <time name="dav">    0.12    0.13</time>
   <time name="total">    0.12    0.13</time>
   <energy>
    <i name="e_fr_energy">    -10.02040892 </i>
    <i name="e_wo_entrp">     -9.99360189 </i>
    <i name="e_0_energy">    -10.00700541 </i>
   </energy>
  </scstep>
  <scstep>
   <time name="dav">    0.12    0.13</time>
   <time name="total">    0.12    0.13</time>
   <energy>
    <i name="e_fr_energy">    -10.02075313 </i>
    <i name="e_wo_entrp">     -9.99394586 </i>
    <i name="e_0_energy">    -10.00734949 </i>
   </energy>
  </scstep>
  <scstep>
   <time name="dav">    0.12    0.12</time>
   <time name="total">    0.14    0.15</time>
   <energy>
    <i name="e_fr_energy">    -10.02075314 </i>
    <i name="e_wo_entrp">     -9.99394587 </i>
    <i name="e_0_energy">    -10.00734950 </i>
   </energy>
  </scstep>
  <scstep>
   <time name="dav">    0.09    0.09</time>
   <time name="total">    0.15    0.16</time>
   <energy>
    <i name="e_fr_energy">    -10.01632708 </i>
    <i name="e_wo_entrp">     -9.98953130 </i>
    <i name="e_0_energy">    -10.00292919 </i>
   </energy>
  </scstep>
  <scstep>
   <time name="dav">    0.09    0.09</time>
   <time name="total">    0.14    0.15</time>
   <energy>
    <i name="e_fr_energy">    -10.01243191 </i>
    <i name="e_wo_entrp">     -9.98564994 </i>
    <i name="e_0_energy">     -9.99904093 </i>
   </energy>
  </scstep>
  <scstep>
   <time name="dav">    0.06    0.06</time>
   <time name="total">    0.10    0.10</time>
   <energy>
    <i name="alphaZ">      4.40202223 </i>
    <i name="ewald">   -265.18101312 </i>
    <i name="hartreedc">     -2.50675488 </i>
    <i name="XCdc">    -17.57315955 </i>
    <i name="pawpsdc">     69.89319419 </i>
    <i name="pawaedc">    -34.80030805 </i>
    <i name="eentropy">     -0.02678331 </i>
    <i name="bandstr">     29.64913534 </i>
    <i name="atom">    206.13125414 </i>
    <i name="e_fr_energy">    -10.01241300 </i>
    <i name="e_wo_entrp">     -9.98562969 </i>
    <i name="e_0_energy">     -9.99902135 </i>
   </energy>
  </scstep>
  <structure>
   <crystal>
    <varray name="basis" >
     <v>      -2.45000000       2.45000000       1.27400000 </v>
     <v>       2.45000000      -2.45000000       1.27400000 </v>
     <v>       2.45000000       2.45000000      -1.27400000 </v>
    </varray>
    <i name="volume">     30.58874000 </i>
    <varray name="rec_basis" >
     <v>       0.00000000       0.20408163       0.39246468 </v>
     <v>       0.20408163       0.00000000       0.39246468 </v>
     <v>       0.20408163       0.20408163      -0.00000000 </v>
    </varray>
   </crystal>
   <varray name="positions" >
    <v>       0.25000000       0.75000000       0.50000000 </v>
    <v>       0.00000000       0.00000000       0.00000000 </v>
   </varray>
  </structure>
  <varray name="forces" >
   <v>       0.00000000       0.00000000       0.00000000 </v>
   <v>      -0.00000000      -0.00000000      -0.00000000 </v>
  </varray>
  <varray name="stress" >
   <v>    -116.65169420      -0.00000000       0.00000000 </v>
   <v>      -0.00000000    -116.65169420       0.00000000 </v>
   <v>       0.00000000      -0.00000000     196.46125931 </v>
  </varray>
  <energy>
   <i name="e_fr_energy">    -10.01241300 </i>
   <i name="e_wo_entrp">     -9.99902135 </i>
   <i name="e_0_energy">     -0.02678331 </i>
  </energy>
  <time name="totalsc">    1.97    2.67</time>
  <eigenvalues>
   <array>
    <dimension dim="1">band</dimension>
    <dimension dim="2">kpoint</dimension>
    <dimension dim="3">spin</dimension>
    <field>eigene</field>
    <field>occ</field>
    <set>
     <set comment="spin 1">
      <set comment="kpoint 1">
       <r>   -4.6159    1.0000 </r>
       <r>    6.1726    1.0000 </r>
       <r>    6.2984    1.0000 </r>
       <r>    6.2984    1.0000 </r>
       <r>   10.5240    0.0000 </r>
       <r>   16.7549    0.0000 </r>
       <r>   17.3657    0.0000 </r>
       <r>   17.3657    0.0000 </r>
      </set>
      <set comment="kpoint 2">
       <r>   -1.5056    1.0000 </r>
       <r>    5.3533    1.0000 </r>
       <r>    6.7897    1.0000 </r>
       <r>    7.4596    1.0000 </r>
       <r>   10.2571    0.0000 </r>
       <r>   12.6481    0.0000 </r>
       <r>   13.0227    0.0000 </r>
       <r>   14.0054    0.0000 </r>
      </set>
      <set comment="kpoint 3">
       <r>    1.0433    1.0000 </r>
       <r>    1.0617    1.0000 </r>
       <r>    6.2696    1.0000 </r>
       <r>    8.2311    0.9996 </r>
       <r>    8.7982    0.2504 </r>
       <r>   10.9351    0.0000 </r>
       <r>   15.4611    0.0000 </r>
       <r>   16.5020    0.0000 </r>
      </set>
      <set comment="kpoint 4">
       <r>   -3.2978    1.0000 </r>
       <r>    0.5673    1.0000 </r>
       <r>    7.5220    1.0000 </r>
       <r>    9.3509    0.0000 </r>
       <r>   11.1676    0.0000 </r>
       <r>   13.0632    0.0000 </r>
       <r>   16.4197    0.0000 </r>
       <r>   18.9338    0.0000 </r>
      </set>
      <set comment="kpoint 5">
       <r>   -2.0123    1.0000 </r>
       <r>    1.1068    1.0000 </r>
       <r>    2.8924    1.0000 </r>
       <r>    5.9407    1.0000 </r>
       <r>   15.1464    0.0000 </r>
       <r>   16.7252    0.0000 </r>
       <r>   18.0695    0.0000 </r>
       <r>   18.9172    0.0000 </r>
      </set>
      <set comment="kpoint 6">
       <r>    2.7744    1.0000 </r>
       <r>    2.8697    1.0000 </r>
       <r>    4.5974    1.0000 </r>
       <r>    4.5974    1.0000 </r>
       <r>    5.1681    1.0000 </r>
       <r>   15.1409    0.0000 </r>
       <r>   15.9224    0.0000 </r>
       <r>   15.9224    0.0000 </r>
      </set>
     </set>
    </set>
   </array>
  </eigenvalues>
  <separator name="orbital magnetization" >
   <v name="MAGDIPOLOUT">      0.00000000      0.00000000      0.00000000</v>
  </separator>
  <dos>
   <i name="efermi">      8.70301274 </i>
   <total>
    <array>
     <dimension dim="1">gridpoints</dimension>
     <dimension dim="2">spin</dimension>
     <field>energy</field>
     <field>total</field>
     <field>integrated</field>
     <set>
      <set comment="spin 1">
       <r>    -6.6159     0.0000     0.0000 </r>
       <r>    -6.5241     0.0000     0.0000 </r>
       <r>    -6.4323     0.0000     0.0000 </r>
       <r>    -6.3404     0.0000     0.0000 </r>
       <r>    -6.2486     0.0000     0.0000 </r>
       <r>    -6.1568     0.0000     0.0000 </r>
       <r>    -6.0649     0.0000     0.0000 </r>
       <r>    -5.9731     0.0000     0.0000 </r>
       <r>    -5.8813     0.0000     0.0000 </r>
       <r>    -5.7894     0.0000     0.0000 </r>
       <r>    -5.6976     0.0000     0.0000 </r>
       <r>    -5.6058     0.0000     0.0000 </r>
       <r>    -5.5139     0.0000     0.0000 </r>
       <r>    -5.4221     0.0000     0.0000 </r>
       <r>    -5.3303     0.0000     0.0000 </r>
       <r>    -5.2384     0.0000     0.0000 </r>
       <r>    -5.1466     0.0001     0.0000 </r>
       <r>    -5.0548     0.0007     0.0001 </r>
       <r>    -4.9629     0.0049     0.0005 </r>
       <r>    -4.8711     0.0230     0.0026 </r>
       <r>    -4.7793     0.0713     0.0092 </r>
       <r>    -4.6874     0.1472     0.0227 </r>
       <r>    -4.5956     0.2021     0.0413 </r>
       <r>    -4.5038     0.1847     0.0582 </r>
       <r>    -4.4119     0.1124     0.0685 </r>
       <r>    -4.3201     0.0455     0.0727 </r>
       <r>    -4.2283     0.0122     0.0738 </r>
       <r>    -4.1364     0.0022     0.0740 </r>
       <r>    -4.0446     0.0003     0.0741 </r>
       <r>    -3.9528     0.0000     0.0741 </r>
       <r>    -3.8609     0.0001     0.0741 </r>
       <r>    -3.7691     0.0013     0.0742 </r>
       <r>    -3.6773     0.0104     0.0752 </r>
       <r>    -3.5855     0.0560     0.0803 </r>
       <r>    -3.4936     0.2005     0.0987 </r>
       <r>    -3.4018     0.4776     0.1426 </r>
       <r>    -3.3100     0.7573     0.2121 </r>
       <r>    -3.2181     0.7990     0.2855 </r>
       <r>    -3.1263     0.5612     0.3370 </r>
       <r>    -3.0345     0.2623     0.3611 </r>
       <r>    -2.9426     0.0815     0.3686 </r>
       <r>    -2.8508     0.0168     0.3701 </r>
       <r>    -2.7590     0.0023     0.3703 </r>
       <r>    -2.6671     0.0002     0.3704 </r>
       <r>    -2.5753     0.0001     0.3704 </r>
       <r>    -2.4835     0.0013     0.3705 </r>
       <r>    -2.3916     0.0104     0.3715 </r>
       <r>    -2.2998     0.0560     0.3766 </r>
       <r>    -2.2080     0.2007     0.3950 </r>
       <r>    -2.1161     0.4780     0.4389 </r>
       <r>    -2.0243     0.7582     0.5086 </r>
       <r>    -1.9325     0.8063     0.5826 </r>
       <r>    -1.8406     0.6102     0.6386 </r>
       <r>    -1.7488     0.4804     0.6828 </r>
       <r>    -1.6570     0.7236     0.7492 </r>
       <r>    -1.5651     1.2731     0.8661 </r>
       <r>    -1.4733     1.6378     1.0165 </r>
       <r>    -1.3815     1.4173     1.1467 </r>
       <r>    -1.2896     0.8172     1.2217 </r>
       <r>    -1.1978     0.3136     1.2505 </r>
       <r>    -1.1060     0.0800     1.2579 </r>
       <r>    -1.0141     0.0136     1.2591 </r>
       <r>    -0.9223     0.0015     1.2592 </r>
       <r>    -0.8305     0.0001     1.2593 </r>
       <r>    -0.7386     0.0000     1.2593 </r>
       <r>    -0.6468     0.0000     1.2593 </r>
       <r>    -0.5550     0.0000     1.2593 </r>
       <r>    -0.4632     0.0000     1.2593 </r>
       <r>    -0.3713     0.0000     1.2593 </r>
       <r>    -0.2795     0.0000     1.2593 </r>
       <r>    -0.1877     0.0000     1.2593 </r>
       <r>    -0.0958     0.0000     1.2593 </r>
       <r>    -0.0040     0.0001     1.2593 </r>
       <r>     0.0878     0.0010     1.2594 </r>
       <r>     0.1797     0.0088     1.2602 </r>
       <r>     0.2715     0.0490     1.2647 </r>
       <r>     0.3633     0.1820     1.2814 </r>
       <r>     0.4552     0.4498     1.3227 </r>
       <r>     0.5470     0.7413     1.3908 </r>
       <r>     0.6388     0.8301     1.4670 </r>
       <r>     0.7307     0.7264     1.5337 </r>
       <r>     0.8225     0.8697     1.6136 </r>
       <r>     0.9143     1.7518     1.7744 </r>
       <r>     1.0062     3.1808     2.0665 </r>
       <r>     1.0980     4.0457     2.4381 </r>
       <r>     1.1898     3.4772     2.7574 </r>
       <r>     1.2817     2.0128     2.9422 </r>
       <r>     1.3735     0.7849     3.0143 </r>
       <r>     1.4653     0.2063     3.0332 </r>
       <r>     1.5572     0.0365     3.0366 </r>
       <r>     1.6490     0.0044     3.0370 </r>
       <r>     1.7408     0.0003     3.0370 </r>
       <r>     1.8327     0.0000     3.0370 </r>
       <r>     1.9245     0.0000     3.0370 </r>
       <r>     2.0163     0.0000     3.0370 </r>
       <r>     2.1082     0.0000     3.0370 </r>
       <r>     2.2000     0.0000     3.0370 </r>
       <r>     2.2918     0.0005     3.0371 </r>
       <r>     2.3837     0.0050     3.0376 </r>
       <r>     2.4755     0.0317     3.0405 </r>
       <r>     2.5673     0.1391     3.0532 </r>
       <r>     2.6591     0.4284     3.0926 </r>
       <r>     2.7510     0.9312     3.1781 </r>
       <r>     2.8428     1.4261     3.3090 </r>
       <r>     2.9346     1.5277     3.4493 </r>
       <r>     3.0265     1.1334     3.5534 </r>
       <r>     3.1183     0.5763     3.6064 </r>
       <r>     3.2101     0.1990     3.6246 </r>
       <r>     3.3020     0.0464     3.6289 </r>
       <r>     3.3938     0.0072     3.6296 </r>
       <r>     3.4856     0.0008     3.6296 </r>
       <r>     3.5775     0.0001     3.6296 </r>
       <r>     3.6693     0.0000     3.6296 </r>
       <r>     3.7611     0.0000     3.6296 </r>
       <r>     3.8530     0.0000     3.6296 </r>
       <r>     3.9448     0.0000     3.6296 </r>
       <r>     4.0366     0.0001     3.6296 </r>
       <r>     4.1285     0.0014     3.6298 </r>
       <r>     4.2203     0.0109     3.6308 </r>
       <r>     4.3121     0.0581     3.6361 </r>
       <r>     4.4040     0.2060     3.6550 </r>
       <r>     4.4958     0.4858     3.6996 </r>
       <r>     4.5876     0.7622     3.7696 </r>
       <r>     4.6795     0.7963     3.8428 </r>
       <r>     4.7713     0.5569     3.8939 </r>
       <r>     4.8631     0.2784     3.9195 </r>
       <r>     4.9550     0.1739     3.9354 </r>
       <r>     5.0468     0.3071     3.9636 </r>
       <r>     5.1386     0.6792     4.0260 </r>
       <r>     5.2305     1.2345     4.1394 </r>
       <r>     5.3223     1.7338     4.2986 </r>
       <r>     5.4141     1.7904     4.4630 </r>
       <r>     5.5060     1.3032     4.5827 </r>
       <r>     5.5978     0.6670     4.6439 </r>
       <r>     5.6896     0.3140     4.6728 </r>
       <r>     5.7814     0.3494     4.7049 </r>
       <r>     5.8733     0.6375     4.7634 </r>
       <r>     5.9651     0.9539     4.8510 </r>
       <r>     6.0569     1.2212     4.9631 </r>
       <r>     6.1488     1.6208     5.1120 </r>
       <r>     6.2406     2.1276     5.3074 </r>
       <r>     6.3324     2.2402     5.5131 </r>
       <r>     6.4243     1.6965     5.6689 </r>
       <r>     6.5161     0.9884     5.7597 </r>
       <r>     6.6079     0.7607     5.8295 </r>
       <r>     6.6998     1.1191     5.9323 </r>
       <r>     6.7916     1.5780     6.0772 </r>
       <r>     6.8834     1.5557     6.2201 </r>
       <r>     6.9753     1.0279     6.3145 </r>
       <r>     7.0671     0.4682     6.3574 </r>
       <r>     7.1589     0.2364     6.3791 </r>
       <r>     7.2508     0.4410     6.4196 </r>
       <r>     7.3426     1.1103     6.5216 </r>
       <r>     7.4344     1.9889     6.7043 </r>
       <r>     7.5263     2.4134     6.9259 </r>
       <r>     7.6181     1.9825     7.1079 </r>
       <r>     7.7099     1.1044     7.2094 </r>
       <r>     7.8018     0.4237     7.2483 </r>
       <r>     7.8936     0.1538     7.2624 </r>
       <r>     7.9854     0.2294     7.2835 </r>
       <r>     8.0773     0.6292     7.3412 </r>
       <r>     8.1691     1.2405     7.4552 </r>
       <r>     8.2609     1.6330     7.6051 </r>
       <r>     8.3528     1.4351     7.7369 </r>
       <r>     8.4446     0.8687     7.8167 </r>
       <r>     8.5364     0.4905     7.8617 </r>
       <r>     8.6283     0.6168     7.9184 </r>
       <r>     8.7201     1.1475     8.0237 </r>
       <r>     8.8119     1.6040     8.1710 </r>
       <r>     8.9037     1.5101     8.3097 </r>
       <r>     8.9956     0.9611     8.3980 </r>
       <r>     9.0874     0.4749     8.4416 </r>
       <r>     9.1792     0.3710     8.4757 </r>
       <r>     9.2711     0.5809     8.5290 </r>
       <r>     9.3629     0.8013     8.6026 </r>
       <r>     9.4547     0.7577     8.6722 </r>
       <r>     9.5466     0.4781     8.7161 </r>
       <r>     9.6384     0.2008     8.7345 </r>
       <r>     9.7302     0.0567     8.7397 </r>
       <r>     9.8221     0.0165     8.7412 </r>
       <r>     9.9139     0.0437     8.7452 </r>
       <r>    10.0057     0.1947     8.7631 </r>
       <r>    10.0976     0.5942     8.8177 </r>
       <r>    10.1894     1.2095     8.9288 </r>
       <r>    10.2812     1.6516     9.0804 </r>
       <r>    10.3731     1.5399     9.2218 </r>
       <r>    10.4649     1.0324     9.3167 </r>
       <r>    10.5567     0.5728     9.3693 </r>
       <r>    10.6486     0.3829     9.4044 </r>
       <r>    10.7404     0.5275     9.4529 </r>
       <r>    10.8322     1.0279     9.5472 </r>
       <r>    10.9241     1.6376     9.6976 </r>
       <r>    11.0159     1.9170     9.8737 </r>
       <r>    11.1077     1.7424    10.0337 </r>
       <r>    11.1996     1.3364    10.1564 </r>
       <r>    11.2914     0.8701    10.2363 </r>
       <r>    11.3832     0.4429    10.2770 </r>
       <r>    11.4751     0.1620    10.2919 </r>
       <r>    11.5669     0.0407    10.2956 </r>
       <r>    11.6587     0.0069    10.2962 </r>
       <r>    11.7506     0.0008    10.2963 </r>
       <r>    11.8424     0.0001    10.2963 </r>
       <r>    11.9342     0.0000    10.2963 </r>
       <r>    12.0260     0.0000    10.2963 </r>
       <r>    12.1179     0.0005    10.2963 </r>
       <r>    12.2097     0.0057    10.2969 </r>
       <r>    12.3015     0.0398    10.3005 </r>
       <r>    12.3934     0.1853    10.3175 </r>
       <r>    12.4852     0.5739    10.3702 </r>
       <r>    12.5770     1.1864    10.4792 </r>
       <r>    12.6689     1.6601    10.6316 </r>
       <r>    12.7607     1.6858    10.7864 </r>
       <r>    12.8525     1.5955    10.9330 </r>
       <r>    12.9444     1.9201    11.1093 </r>
       <r>    13.0362     2.4212    11.3316 </r>
       <r>    13.1280     2.3403    11.5465 </r>
       <r>    13.2199     1.5587    11.6897 </r>
       <r>    13.3117     0.6997    11.7539 </r>
       <r>    13.4035     0.2108    11.7733 </r>
       <r>    13.4954     0.0435    11.7773 </r>
       <r>    13.5872     0.0148    11.7786 </r>
       <r>    13.6790     0.0583    11.7840 </r>
       <r>    13.7709     0.2459    11.8066 </r>
       <r>    13.8627     0.6958    11.8705 </r>
       <r>    13.9545     1.3102    11.9908 </r>
       <r>    14.0464     1.6418    12.1416 </r>
       <r>    14.1382     1.3693    12.2673 </r>
       <r>    14.2300     0.7601    12.3371 </r>
       <r>    14.3219     0.2807    12.3629 </r>
       <r>    14.4137     0.0689    12.3692 </r>
       <r>    14.5055     0.0113    12.3703 </r>
       <r>    14.5974     0.0015    12.3704 </r>
       <r>    14.6892     0.0029    12.3707 </r>
       <r>    14.7810     0.0215    12.3726 </r>
       <r>    14.8729     0.1079    12.3825 </r>
       <r>    14.9647     0.3612    12.4157 </r>
       <r>    15.0565     0.8110    12.4902 </r>
       <r>    15.1484     1.2536    12.6053 </r>
       <r>    15.2402     1.4549    12.7389 </r>
       <r>    15.3320     1.5440    12.8807 </r>
       <r>    15.4238     1.7216    13.0388 </r>
       <r>    15.5157     1.7416    13.1987 </r>
       <r>    15.6075     1.3416    13.3219 </r>
       <r>    15.6993     0.8185    13.3971 </r>
       <r>    15.7912     0.6193    13.4540 </r>
       <r>    15.8830     0.7434    13.5222 </r>
       <r>    15.9748     0.8319    13.5986 </r>
       <r>    16.0667     0.6749    13.6606 </r>
       <r>    16.1585     0.4695    13.7037 </r>
       <r>    16.2503     0.5835    13.7573 </r>
       <r>    16.3422     1.1988    13.8674 </r>
       <r>    16.4340     2.0680    14.0573 </r>
       <r>    16.5258     2.6019    14.2962 </r>
       <r>    16.6177     2.4875    14.5247 </r>
       <r>    16.7095     1.9874    14.7072 </r>
       <r>    16.8013     1.4114    14.8368 </r>
       <r>    16.8932     0.8434    14.9142 </r>
       <r>    16.9850     0.3854    14.9496 </r>
       <r>    17.0768     0.1481    14.9632 </r>
       <r>    17.1687     0.1248    14.9747 </r>
       <r>    17.2605     0.2404    14.9968 </r>
       <r>    17.3523     0.3776    15.0314 </r>
       <r>    17.4442     0.4004    15.0682 </r>
       <r>    17.5360     0.2830    15.0942 </r>
       <r>    17.6278     0.1355    15.1066 </r>
       <r>    17.7197     0.0602    15.1122 </r>
       <r>    17.8115     0.0969    15.1211 </r>
       <r>    17.9033     0.2784    15.1466 </r>
       <r>    17.9952     0.5793    15.1998 </r>
       <r>    18.0870     0.8055    15.2738 </r>
       <r>    18.1788     0.7455    15.3423 </r>
       <r>    18.2707     0.4593    15.3844 </r>
       <r>    18.3625     0.1885    15.4018 </r>
       <r>    18.4543     0.0539    15.4067 </r>
       <r>    18.5461     0.0304    15.4095 </r>
       <r>    18.6380     0.1141    15.4200 </r>
       <r>    18.7298     0.4028    15.4570 </r>
       <r>    18.8216     0.9562    15.5448 </r>
       <r>    18.9135     1.5129    15.6837 </r>
       <r>    19.0053     1.5953    15.8302 </r>
       <r>    19.0971     1.1211    15.9332 </r>
       <r>    19.1890     0.5250    15.9814 </r>
       <r>    19.2808     0.1637    15.9964 </r>
       <r>    19.3726     0.0340    15.9995 </r>
       <r>    19.4645     0.0047    16.0000 </r>
       <r>    19.5563     0.0004    16.0000 </r>
       <r>    19.6481     0.0000    16.0000 </r>
       <r>    19.7400     0.0000    16.0000 </r>
       <r>    19.8318     0.0000    16.0000 </r>
       <r>    19.9236     0.0000    16.0000 </r>
       <r>    20.0155     0.0000    16.0000 </r>
       <r>    20.1073     0.0000    16.0000 </r>
       <r>    20.1991     0.0000    16.0000 </r>
       <r>    20.2910     0.0000    16.0000 </r>
       <r>    20.3828     0.0000    16.0000 </r>
       <r>    20.4746     0.0000    16.0000 </r>
       <r>    20.5665     0.0000    16.0000 </r>
       <r>    20.6583     0.0000    16.0000 </r>
       <r>    20.7501     0.0000    16.0000 </r>
       <r>    20.8420     0.0000    16.0000 </r>
       <r>    20.9338     0.0000    16.0000 </r>
      </set>
     </set>
    </array>
   </total>
  </dos>
 </calculation>
 <structure name="finalpos" >
  <crystal>
   <varray name="basis" >
    <v>      -2.45000000       2.45000000       1.27400000 </v>
    <v>       2.45000000      -2.45000000       1.27400000 </v>
    <v>       2.45000000       2.45000000      -1.27400000 </v>
   </varray>
   <i name="volume">     30.58874000 </i>
   <varray name="rec_basis" >
    <v>       0.00000000       0.20408163       0.39246468 </v>
    <v>       0.20408163       0.00000000       0.39246468 </v>
    <v>       0.20408163       0.20408163      -0.00000000 </v>
   </varray>
  </crystal>
  <varray name="positions" >
   <v>       0.25000000       0.75000000       0.50000000 </v>
   <v>       0.00000000       0.00000000       0.00000000 </v>
  </varray>
 </structure>
</modeling>
