   2   2   0   0
  0.2001288E+02  0.3839590E-09  0.3839590E-09  0.3839590E-09  0.5000000E-15
  1.000000000000000E-004
  CAR 
 unknown system                          
     14.79418662     -7.30166578  301      6.02957043      1.00000000
     -7.302  0.0000E+00  0.0000E+00
     -7.228  0.0000E+00  0.0000E+00
     -7.154  0.0000E+00  0.0000E+00
     -7.081  0.0000E+00  0.0000E+00
     -7.007  0.0000E+00  0.0000E+00
     -6.933  0.0000E+00  0.0000E+00
     -6.860  0.0000E+00  0.0000E+00
     -6.786  0.0000E+00  0.0000E+00
     -6.712  0.0000E+00  0.0000E+00
     -6.639  0.0000E+00  0.0000E+00
     -6.565  0.0000E+00  0.0000E+00
     -6.491  0.0000E+00  0.0000E+00
     -6.418  0.6783E-15  0.4996E-16
     -6.344  0.3746E-13  0.2809E-14
     -6.271  0.1623E-11  0.1223E-12
     -6.197  0.5379E-10  0.4084E-11
     -6.123  0.1364E-08  0.1046E-09
     -6.050  0.2649E-07  0.2056E-08
     -5.976  0.3938E-06  0.3106E-07
     -5.902  0.4484E-05  0.3613E-06
     -5.829  0.3911E-04  0.3242E-05
     -5.755  0.2614E-03  0.2249E-04
     -5.681  0.1339E-02  0.1211E-03
     -5.608  0.5256E-02  0.5082E-03
     -5.534  0.1582E-01  0.1674E-02
     -5.460  0.3653E-01  0.4364E-02
     -5.387  0.6468E-01  0.9128E-02
     -5.313  0.8785E-01  0.1560E-01
     -5.239  0.9152E-01  0.2234E-01
     -5.166  0.7314E-01  0.2773E-01
     -5.092  0.4483E-01  0.3103E-01
     -5.018  0.2108E-01  0.3258E-01
     -4.945  0.7599E-02  0.3314E-01
     -4.871  0.2101E-02  0.3329E-01
     -4.797  0.4453E-03  0.3333E-01
     -4.724  0.7234E-04  0.3333E-01
     -4.650  0.9005E-05  0.3333E-01
     -4.577  0.8588E-06  0.3333E-01
     -4.503  0.6273E-07  0.3333E-01
     -4.429  0.3509E-08  0.3333E-01
     -4.356  0.1539E-09  0.3333E-01
     -4.282  0.1282E-09  0.3333E-01
     -4.208  0.3194E-08  0.3333E-01
     -4.135  0.6335E-07  0.3333E-01
     -4.061  0.9621E-06  0.3333E-01
     -3.987  0.1119E-04  0.3333E-01
     -3.914  0.9968E-04  0.3334E-01
     -3.840  0.6805E-03  0.3339E-01
     -3.766  0.3560E-02  0.3365E-01
     -3.693  0.1428E-01  0.3471E-01
     -3.619  0.4390E-01  0.3794E-01
     -3.545  0.1035E+00  0.4556E-01
     -3.472  0.1872E+00  0.5935E-01
     -3.398  0.2597E+00  0.7848E-01
     -3.324  0.2763E+00  0.9883E-01
     -3.251  0.2256E+00  0.1154E+00
     -3.177  0.1412E+00  0.1258E+00
     -3.103  0.6781E-01  0.1308E+00
     -3.030  0.2497E-01  0.1327E+00
     -2.956  0.7052E-02  0.1332E+00
     -2.882  0.1527E-02  0.1333E+00
     -2.809  0.2533E-03  0.1333E+00
     -2.735  0.3221E-04  0.1333E+00
     -2.662  0.3138E-05  0.1333E+00
     -2.588  0.2342E-06  0.1333E+00
     -2.514  0.1338E-07  0.1333E+00
     -2.441  0.5852E-09  0.1333E+00
     -2.367  0.1959E-10  0.1333E+00
     -2.293  0.5017E-12  0.1333E+00
     -2.220  0.9798E-14  0.1333E+00
     -2.146  0.1507E-15  0.1333E+00
     -2.072  0.0000E+00  0.1333E+00
     -1.999  0.0000E+00  0.1333E+00
     -1.925  0.0000E+00  0.1333E+00
     -1.851  0.0000E+00  0.1333E+00
     -1.778  0.0000E+00  0.1333E+00
     -1.704  0.0000E+00  0.1333E+00
     -1.630  0.2713E-14  0.1333E+00
     -1.557  0.1483E-12  0.1333E+00
     -1.483  0.6302E-11  0.1333E+00
     -1.409  0.2050E-09  0.1333E+00
     -1.336  0.5101E-08  0.1333E+00
     -1.262  0.9717E-07  0.1333E+00
     -1.188  0.1417E-05  0.1333E+00
     -1.115  0.1583E-04  0.1333E+00
     -1.041  0.1355E-03  0.1333E+00
     -0.968  0.8886E-03  0.1334E+00
     -0.894  0.4466E-02  0.1337E+00
     -0.820  0.1721E-01  0.1350E+00
     -0.747  0.5083E-01  0.1387E+00
     -0.673  0.1151E+00  0.1472E+00
     -0.599  0.2001E+00  0.1620E+00
     -0.526  0.2666E+00  0.1816E+00
     -0.452  0.2726E+00  0.2017E+00
     -0.378  0.2138E+00  0.2174E+00
     -0.305  0.1286E+00  0.2269E+00
     -0.231  0.5932E-01  0.2313E+00
     -0.157  0.2099E-01  0.2328E+00
     -0.084  0.5693E-02  0.2332E+00
     -0.010  0.1184E-02  0.2333E+00
      0.064  0.1887E-03  0.2333E+00
      0.137  0.2306E-04  0.2333E+00
      0.211  0.2157E-05  0.2333E+00
      0.285  0.1546E-06  0.2333E+00
      0.358  0.8485E-08  0.2333E+00
      0.432  0.3565E-09  0.2333E+00
      0.506  0.1146E-10  0.2333E+00
      0.579  0.2819E-12  0.2333E+00
      0.653  0.5427E-14  0.2333E+00
      0.726  0.0000E+00  0.2333E+00
      0.800  0.2261E-15  0.2333E+00
      0.874  0.1337E-13  0.2333E+00
      0.947  0.6209E-12  0.2333E+00
      1.021  0.2208E-10  0.2333E+00
      1.095  0.6006E-09  0.2333E+00
      1.168  0.1251E-07  0.2333E+00
      1.242  0.1994E-06  0.2333E+00
      1.316  0.2434E-05  0.2333E+00
      1.389  0.2276E-04  0.2333E+00
      1.463  0.1631E-03  0.2333E+00
      1.537  0.8956E-03  0.2334E+00
      1.610  0.3770E-02  0.2337E+00
      1.684  0.1217E-01  0.2346E+00
      1.758  0.3014E-01  0.2368E+00
      1.831  0.5743E-01  0.2410E+00
      1.905  0.8490E-01  0.2473E+00
      1.979  0.1007E+00  0.2547E+00
      2.052  0.1066E+00  0.2626E+00
      2.126  0.1243E+00  0.2717E+00
      2.200  0.1736E+00  0.2845E+00
      2.273  0.2410E+00  0.3022E+00
      2.347  0.2806E+00  0.3229E+00
      2.421  0.2567E+00  0.3418E+00
      2.494  0.1812E+00  0.3552E+00
      2.568  0.9831E-01  0.3624E+00
      2.641  0.4091E-01  0.3654E+00
      2.715  0.1306E-01  0.3664E+00
      2.789  0.3195E-02  0.3666E+00
      2.862  0.5994E-03  0.3667E+00
      2.936  0.8640E-04  0.3667E+00
      3.010  0.1255E-04  0.3667E+00
      3.083  0.3230E-04  0.3667E+00
      3.157  0.2484E-03  0.3667E+00
      3.231  0.1501E-02  0.3668E+00
      3.304  0.6952E-02  0.3673E+00
      3.378  0.2469E-01  0.3691E+00
      3.452  0.6721E-01  0.3741E+00
      3.525  0.1404E+00  0.3844E+00
      3.599  0.2248E+00  0.4010E+00
      3.673  0.2761E+00  0.4213E+00
      3.746  0.2602E+00  0.4405E+00
      3.820  0.1881E+00  0.4543E+00
      3.894  0.1043E+00  0.4620E+00
      3.967  0.4435E-01  0.4653E+00
      4.041  0.1446E-01  0.4663E+00
      4.115  0.3615E-02  0.4666E+00
      4.188  0.6929E-03  0.4667E+00
      4.262  0.1018E-03  0.4667E+00
      4.335  0.1148E-04  0.4667E+00
      4.409  0.1356E-05  0.4667E+00
      4.483  0.4593E-05  0.4667E+00
      4.556  0.4269E-04  0.4667E+00
      4.630  0.3084E-03  0.4667E+00
      4.704  0.1707E-02  0.4668E+00
      4.777  0.7244E-02  0.4674E+00
      4.851  0.2357E-01  0.4691E+00
      4.925  0.5880E-01  0.4734E+00
      4.998  0.1125E+00  0.4817E+00
      5.072  0.1651E+00  0.4939E+00
      5.146  0.1859E+00  0.5076E+00
      5.219  0.1605E+00  0.5194E+00
      5.293  0.1063E+00  0.5272E+00
      5.367  0.5402E-01  0.5312E+00
      5.440  0.2105E-01  0.5327E+00
      5.514  0.6289E-02  0.5332E+00
      5.588  0.1441E-02  0.5333E+00
      5.661  0.2530E-03  0.5333E+00
      5.735  0.3404E-04  0.5333E+00
      5.809  0.3509E-05  0.5333E+00
      5.882  0.2771E-06  0.5333E+00
      5.956  0.1676E-07  0.5333E+00
      6.029  0.7758E-09  0.5333E+00
      6.103  0.2749E-10  0.5333E+00
      6.177  0.7454E-12  0.5333E+00
      6.250  0.1661E-13  0.5333E+00
      6.324  0.6592E-13  0.5333E+00
      6.398  0.2952E-11  0.5333E+00
      6.471  0.1015E-09  0.5333E+00
      6.545  0.2671E-08  0.5333E+00
      6.619  0.5379E-07  0.5333E+00
      6.692  0.8295E-06  0.5333E+00
      6.766  0.9795E-05  0.5333E+00
      6.840  0.8860E-04  0.5333E+00
      6.913  0.6141E-03  0.5334E+00
      6.987  0.3262E-02  0.5336E+00
      7.061  0.1328E-01  0.5346E+00
      7.134  0.4147E-01  0.5377E+00
      7.208  0.9927E-01  0.5450E+00
      7.282  0.1823E+00  0.5584E+00
      7.355  0.2567E+00  0.5773E+00
      7.429  0.2775E+00  0.5977E+00
      7.503  0.2308E+00  0.6147E+00
      7.576  0.1503E+00  0.6258E+00
      7.650  0.8452E-01  0.6320E+00
      7.724  0.5879E-01  0.6364E+00
      7.797  0.6728E-01  0.6413E+00
      7.871  0.8655E-01  0.6477E+00
      7.944  0.9291E-01  0.6545E+00
      8.018  0.7758E-01  0.6603E+00
      8.092  0.4980E-01  0.6639E+00
      8.165  0.2453E-01  0.6657E+00
      8.239  0.9264E-02  0.6664E+00
      8.313  0.2683E-02  0.6666E+00
      8.386  0.5958E-03  0.6667E+00
      8.460  0.1014E-03  0.6667E+00
      8.534  0.1323E-04  0.6667E+00
      8.607  0.1358E-05  0.6667E+00
      8.681  0.6542E-06  0.6667E+00
      8.755  0.6537E-05  0.6667E+00
      8.828  0.5907E-04  0.6667E+00
      8.902  0.4094E-03  0.6667E+00
      8.976  0.2175E-02  0.6669E+00
      9.049  0.8855E-02  0.6675E+00
      9.123  0.2765E-01  0.6696E+00
      9.197  0.6618E-01  0.6744E+00
      9.270  0.1215E+00  0.6834E+00
      9.344  0.1711E+00  0.6960E+00
      9.418  0.1849E+00  0.7096E+00
      9.491  0.1532E+00  0.7209E+00
      9.565  0.9739E-01  0.7281E+00
      9.638  0.4748E-01  0.7316E+00
      9.712  0.1777E-01  0.7329E+00
      9.786  0.5215E-02  0.7332E+00
      9.859  0.1949E-02  0.7334E+00
      9.933  0.4404E-02  0.7337E+00
     10.007  0.1644E-01  0.7349E+00
     10.080  0.4898E-01  0.7385E+00
     10.154  0.1121E+00  0.7468E+00
     10.228  0.1968E+00  0.7613E+00
     10.301  0.2650E+00  0.7808E+00
     10.375  0.2737E+00  0.8010E+00
     10.449  0.2168E+00  0.8169E+00
     10.522  0.1318E+00  0.8266E+00
     10.596  0.6143E-01  0.8312E+00
     10.670  0.2196E-01  0.8328E+00
     10.743  0.6018E-02  0.8332E+00
     10.817  0.1265E-02  0.8333E+00
     10.891  0.2039E-03  0.8333E+00
     10.964  0.2772E-04  0.8333E+00
     11.038  0.2947E-04  0.8333E+00
     11.112  0.2184E-03  0.8334E+00
     11.185  0.1350E-02  0.8335E+00
     11.259  0.6423E-02  0.8339E+00
     11.333  0.2360E-01  0.8357E+00
     11.406  0.6732E-01  0.8406E+00
     11.480  0.1505E+00  0.8517E+00
     11.553  0.2674E+00  0.8714E+00
     11.627  0.3851E+00  0.8998E+00
     11.701  0.4586E+00  0.9335E+00
     11.774  0.4581E+00  0.9673E+00
     11.848  0.3838E+00  0.9956E+00
     11.922  0.2659E+00  0.1015E+01
     11.995  0.1493E+00  0.1026E+01
     12.069  0.6658E-01  0.1031E+01
     12.143  0.2327E-01  0.1033E+01
     12.216  0.6323E-02  0.1033E+01
     12.290  0.1395E-02  0.1033E+01
     12.364  0.6585E-03  0.1033E+01
     12.437  0.2127E-02  0.1034E+01
     12.511  0.7602E-02  0.1034E+01
     12.585  0.2108E-01  0.1036E+01
     12.658  0.4483E-01  0.1039E+01
     12.732  0.7314E-01  0.1044E+01
     12.806  0.9152E-01  0.1051E+01
     12.879  0.8785E-01  0.1058E+01
     12.953  0.6468E-01  0.1062E+01
     13.027  0.3653E-01  0.1065E+01
     13.100  0.1582E-01  0.1066E+01
     13.174  0.5256E-02  0.1067E+01
     13.247  0.1339E-02  0.1067E+01
     13.321  0.2614E-03  0.1067E+01
     13.395  0.3911E-04  0.1067E+01
     13.468  0.4484E-05  0.1067E+01
     13.542  0.3938E-06  0.1067E+01
     13.616  0.2649E-07  0.1067E+01
     13.689  0.1364E-08  0.1067E+01
     13.763  0.5379E-10  0.1067E+01
     13.837  0.1623E-11  0.1067E+01
     13.910  0.3743E-13  0.1067E+01
     13.984  0.7034E-15  0.1067E+01
     14.058  0.0000E+00  0.1067E+01
     14.131  0.0000E+00  0.1067E+01
     14.205  0.0000E+00  0.1067E+01
     14.279  0.0000E+00  0.1067E+01
     14.352  0.0000E+00  0.1067E+01
     14.426  0.0000E+00  0.1067E+01
     14.500  0.0000E+00  0.1067E+01
     14.573  0.0000E+00  0.1067E+01
     14.647  0.0000E+00  0.1067E+01
     14.721  0.0000E+00  0.1067E+01
     14.794  0.0000E+00  0.1067E+01
