    2    2   15    1
  0.1529437E+02  0.3691622E-09  0.3691622E-09  0.3691622E-09  0.5000000E-15
  1.000000000000000E-004
  CAR 
 unknown system                          
      8      3      8
 
  0.2500000E+00  0.2500000E+00  0.2500000E+00  0.2500000E+00
    1        3.380280   1.000000
    2        3.380282   1.000000
    3        4.030154   1.000000
    4        4.030157   1.000000
    5       13.223497   0.000000
    6       13.223497   0.000000
    7       15.020335   0.000000
    8       15.020336   0.000000
 
 -0.2500000E+00  0.2500000E+00  0.2500000E+00  0.5000000E+00
    1       -3.163754   1.000000
    2        1.892728   1.000000
    3        3.619664   1.000000
    4        8.539055   0.500000
    5       12.892587   0.000000
    6       16.116516   0.000000
    7       17.324860   0.000000
    8       18.263011   0.000000
 
 -0.2500000E+00 -0.2500000E+00  0.2500000E+00  0.2500000E+00
    1        0.831570   1.000000
    2        5.740468   1.000000
    3        5.829249   1.000000
    4        7.264379   1.000000
    5        7.264384   1.000000
    6       11.527426   0.000000
    7       12.284330   0.000000
    8       12.284351   0.000000
