       N       E                     dE             d eps       ncg     rms          rms(c)
DAV:   1    -0.143610906025E+01   -0.14361E+01   -0.22691E+03  1616   0.442E+02
DAV:   2    -0.101470326509E+02   -0.87109E+01   -0.84454E+01  2360   0.548E+01
DAV:   3    -0.102358435810E+02   -0.88811E-01   -0.88565E-01  1944   0.666E+00
DAV:   4    -0.102360891256E+02   -0.24554E-03   -0.24553E-03  2560   0.319E-01
DAV:   5    -0.102360891935E+02   -0.67876E-07   -0.67668E-07  1936   0.419E-03    0.150E+00
DAV:   6    -0.102311066091E+02    0.49826E-02   -0.17514E-03  2088   0.320E-01    0.939E-01
DAV:   7    -0.102270132129E+02    0.40934E-02   -0.52002E-03  1808   0.561E-01    0.333E-02
DAV:   8    -0.102269986869E+02    0.14526E-04   -0.72718E-05  1136   0.688E-02
   1 F= -.10226999E+02 E0= -.10218659E+02  d E =-.102270E+02
       N       E                     dE             d eps       ncg     rms          rms(c)
DAV:   1    -0.102382524071E+02   -0.11239E-01   -0.26134E-01  2424   0.293E+00    0.315E-01
DAV:   2    -0.102354756216E+02    0.27768E-02   -0.54445E-03  1968   0.571E-01    0.175E-01
DAV:   3    -0.102341614924E+02    0.13141E-02   -0.35971E-03  2160   0.332E-01    0.159E-02
DAV:   4    -0.102341727447E+02   -0.11252E-04   -0.13558E-04   928   0.961E-02
   2 F= -.10234173E+02 E0= -.10225781E+02  d E =-.717406E-02
       N       E                     dE             d eps       ncg     rms          rms(c)
DAV:   1    -0.102431898293E+02   -0.90283E-02   -0.28712E-01  2376   0.304E+00    0.318E-01
DAV:   2    -0.102403562010E+02    0.28336E-02   -0.57781E-03  1984   0.591E-01    0.178E-01
DAV:   3    -0.102389959018E+02    0.13603E-02   -0.36951E-03  2136   0.335E-01    0.164E-02
DAV:   4    -0.102390072027E+02   -0.11301E-04   -0.13874E-04   904   0.968E-02
   3 F= -.10239007E+02 E0= -.10230321E+02  d E =-.120085E-01
       N       E                     dE             d eps       ncg     rms          rms(c)
DAV:   1    -0.102601284855E+02   -0.21133E-01   -0.11272E+00  2280   0.593E+00    0.619E-01
DAV:   2    -0.102493266387E+02    0.10802E-01   -0.22488E-02  1928   0.116E+00    0.347E-01
DAV:   3    -0.102440881977E+02    0.52384E-02   -0.14021E-02  2232   0.652E-01    0.324E-02
DAV:   4    -0.102441271948E+02   -0.38997E-04   -0.49572E-04  1096   0.183E-01
   4 F= -.10244127E+02 E0= -.10235830E+02  d E =-.171285E-01
       N       E                     dE             d eps       ncg     rms          rms(c)
DAV:   1    -0.102442827609E+02   -0.19456E-03   -0.71759E-03  2224   0.473E-01    0.433E-02
DAV:   2    -0.102442347978E+02    0.47963E-04   -0.12511E-04   952   0.899E-02
   5 F= -.10244235E+02 E0= -.10236044E+02  d E =-.172361E-01
       N       E                     dE             d eps       ncg     rms          rms(c)
DAV:   1    -0.102444645941E+02   -0.18183E-03   -0.24845E-02  2296   0.872E-01    0.947E-02
DAV:   2    -0.102442150376E+02    0.24956E-03   -0.48202E-04  1528   0.171E-01
   6 F= -.10244215E+02 E0= -.10236183E+02  d E =-.172164E-01
       N       E                     dE             d eps       ncg     rms          rms(c)
DAV:   1    -0.102443121224E+02    0.15247E-03   -0.97464E-02  2224   0.172E+00    0.190E-01
DAV:   2    -0.102432927640E+02    0.10194E-02   -0.19414E-03  1976   0.337E-01    0.107E-01
DAV:   3    -0.102428056092E+02    0.48715E-03   -0.12858E-03  1592   0.199E-01    0.978E-03
DAV:   4    -0.102428110947E+02   -0.54854E-05   -0.62240E-05   808   0.645E-02
   7 F= -.10242811E+02 E0= -.10235261E+02  d E =-.158124E-01
       N       E                     dE             d eps       ncg     rms          rms(c)
DAV:   1    -0.102452718873E+02   -0.24663E-02   -0.82178E-02  2216   0.158E+00    0.173E-01
DAV:   2    -0.102444287945E+02    0.84309E-03   -0.16605E-03  1992   0.314E-01    0.972E-02
DAV:   3    -0.102440097344E+02    0.41906E-03   -0.10647E-03  1272   0.182E-01    0.737E-03
DAV:   4    -0.102440151591E+02   -0.54247E-05   -0.63282E-05   800   0.660E-02
   8 F= -.10244015E+02 E0= -.10236014E+02  d E =-.170165E-01
       N       E                     dE             d eps       ncg     rms          rms(c)
DAV:   1    -0.102440832183E+02   -0.73484E-04   -0.79903E-04  1520   0.159E-01    0.161E-02
DAV:   2    -0.102440794787E+02    0.37396E-05   -0.17324E-05   808   0.340E-02
   9 F= -.10244079E+02 E0= -.10236050E+02  d E =-.170808E-01
       N       E                     dE             d eps       ncg     rms          rms(c)
DAV:   1    -0.102440930404E+02   -0.98221E-05   -0.39199E-05   792   0.367E-02    0.448E-03
DAV:   2    -0.102440926604E+02    0.37997E-06   -0.17542E-06   792   0.102E-02
  10 F= -.10244093E+02 E0= -.10236056E+02  d E =-.170940E-01
       N       E                     dE             d eps       ncg     rms          rms(c)
DAV:   1    -0.102440961681E+02   -0.31277E-05   -0.26978E-06   792   0.100E-02    0.128E-03
DAV:   2    -0.102440961427E+02    0.25440E-07   -0.17561E-07   792   0.311E-03
  11 F= -.10244096E+02 E0= -.10236058E+02  d E =-.170975E-01
       N       E                     dE             d eps       ncg     rms          rms(c)
DAV:   1    -0.102440971860E+02   -0.10179E-05   -0.25266E-07   792   0.307E-03    0.410E-04
DAV:   2    -0.102440971840E+02    0.19593E-08   -0.17483E-08   792   0.946E-04
  12 F= -.10244097E+02 E0= -.10236058E+02  d E =-.170985E-01
       N       E                     dE             d eps       ncg     rms          rms(c)
DAV:   1    -0.102440975024E+02   -0.31638E-06   -0.23911E-08   792   0.933E-04    0.161E-04
DAV:   2    -0.102440975012E+02    0.12199E-08   -0.17911E-09   792   0.285E-04
  13 F= -.10244098E+02 E0= -.10236059E+02  d E =-.170988E-01
       N       E                     dE             d eps       ncg     rms          rms(c)
DAV:   1    -0.102440975993E+02   -0.96910E-07   -0.23381E-09   792   0.287E-04    0.112E-04
DAV:   2    -0.102440975992E+02    0.60282E-10   -0.19224E-10   792   0.865E-05
  14 F= -.10244098E+02 E0= -.10236059E+02  d E =-.170989E-01
       N       E                     dE             d eps       ncg     rms          rms(c)
DAV:   1    -0.102440976297E+02   -0.30433E-07   -0.23145E-10   792   0.883E-05    0.106E-04
DAV:   2    -0.102440976295E+02    0.22885E-09   -0.21785E-11   792   0.265E-05
  15 F= -.10244098E+02 E0= -.10236059E+02  d E =-.170989E-01
