unknown system                          
           1
    -2.450000    2.450000    1.274000
     2.450000   -2.450000    1.274000
     2.450000    2.450000   -1.274000
   Si
   2
Direct configuration=     1
   0.25000000  0.75000000  0.50000000
   0.00000000  0.00000000  0.00000000
unknown system                          
           1
    -2.436422    2.436422    1.291243
     2.436422   -2.436422    1.291243
     2.436422    2.436422   -1.291243
   Si
   2
Direct configuration=     2
   0.25000000  0.75000000  0.50000000
   0.00000000  0.00000000 -0.00000000
unknown system                          
           1
    -2.422136    2.422136    1.309387
     2.422136   -2.422136    1.309387
     2.422136    2.422136   -1.309387
   Si
   2
Direct configuration=     3
   0.25000000  0.75000000  0.50000000
   0.00000000  0.00000000 -0.00000000
unknown system                          
           1
    -2.393562    2.393562    1.345675
     2.393562   -2.393562    1.345675
     2.393562    2.393562   -1.345675
   Si
   2
Direct configuration=     4
   0.25000000  0.75000000  0.50000000
   0.00000000  0.00000000 -0.00000000
unknown system                          
           1
    -2.391327    2.391327    1.348514
     2.391327   -2.391327    1.348514
     2.391327    2.391327   -1.348514
   Si
   2
Direct configuration=     5
   0.25000000  0.75000000  0.50000000
   0.00000000  0.00000000 -0.00000000
unknown system                          
           1
    -2.386855    2.386855    1.354193
     2.386855   -2.386855    1.354193
     2.386855    2.386855   -1.354193
   Si
   2
Direct configuration=     6
   0.25000000  0.75000000  0.50000000
   0.00000000  0.00000000 -0.00000000
unknown system                          
           1
    -2.377913    2.377913    1.365550
     2.377913   -2.377913    1.365550
     2.377913    2.377913   -1.365550
   Si
   2
Direct configuration=     7
   0.25000000  0.75000000  0.50000000
   0.00000000  0.00000000 -0.00000000
unknown system                          
           1
    -2.385781    2.385781    1.355558
     2.385781   -2.385781    1.355558
     2.385781    2.385781   -1.355558
   Si
   2
Direct configuration=     8
   0.25000000  0.75000000  0.50000000
   0.00000000  0.00000000 -0.00000000
unknown system                          
           1
    -2.386562    2.386562    1.354565
     2.386562   -2.386562    1.354565
     2.386562    2.386562   -1.354565
   Si
   2
Direct configuration=     9
   0.25000000  0.75000000  0.50000000
   0.00000000  0.00000000 -0.00000000
unknown system                          
           1
    -2.386778    2.386778    1.354291
     2.386778   -2.386778    1.354291
     2.386778    2.386778   -1.354291
   Si
   2
Direct configuration=    10
   0.25000000  0.75000000  0.50000000
   0.00000000  0.00000000 -0.00000000
unknown system                          
           1
    -2.386833    2.386833    1.354222
     2.386833   -2.386833    1.354222
     2.386833    2.386833   -1.354222
   Si
   2
Direct configuration=    11
   0.25000000  0.75000000  0.50000000
   0.00000000  0.00000000 -0.00000000
unknown system                          
           1
    -2.386848    2.386848    1.354202
     2.386848   -2.386848    1.354202
     2.386848    2.386848   -1.354202
   Si
   2
Direct configuration=    12
   0.25000000  0.75000000  0.50000000
   0.00000000  0.00000000 -0.00000000
unknown system                          
           1
    -2.386853    2.386853    1.354195
     2.386853   -2.386853    1.354195
     2.386853    2.386853   -1.354195
   Si
   2
Direct configuration=    13
   0.25000000  0.75000000  0.50000000
   0.00000000  0.00000000 -0.00000000
unknown system                          
           1
    -2.386855    2.386855    1.354194
     2.386855   -2.386855    1.354194
     2.386855    2.386855   -1.354194
   Si
   2
Direct configuration=    14
   0.25000000  0.75000000  0.50000000
   0.00000000  0.00000000 -0.00000000
unknown system                          
           1
    -2.386855    2.386855    1.354193
     2.386855   -2.386855    1.354193
     2.386855    2.386855   -1.354193
   Si
   2
Direct configuration=    15
   0.25000000  0.75000000  0.50000000
   0.00000000  0.00000000 -0.00000000
