unknown system                          
   1.00000000000000     
     0.000000    2.715000    2.715000
     2.715000    0.000000    2.715000
     2.715000    2.715000    0.000000
   Si
     2
Direct
  0.500000  0.500000  0.500000
  0.750000  0.750000  0.750000
 
   28   28   28
 0.88822365657E+00 0.91519699254E+00 0.99839963012E+00 0.11449862787E+01 0.13670195440E+01
 0.16802225552E+01 0.21003180326E+01 0.26368239030E+01 0.32855199460E+01 0.40216790871E+01
 0.47962825797E+01 0.55373237236E+01 0.61581414907E+01 0.65733854764E+01 0.67196222531E+01
 0.65733287475E+01 0.61580743759E+01 0.55372832300E+01 0.47962628189E+01 0.40216603971E+01
 0.32855092849E+01 0.26368480273E+01 0.21003834254E+01 0.16802991808E+01 0.13670660697E+01
 0.11449849678E+01 0.99836706448E+00 0.91516760504E+00 0.91519699254E+00 0.96070426714E+00
 0.10552189075E+01 0.12059210716E+01 0.14233382288E+01 0.17195959404E+01 0.21046464447E+01
 0.25807418537E+01 0.31364452940E+01 0.37421465620E+01 0.43491172389E+01 0.48937231743E+01
 0.53074489515E+01 0.55314271625E+01 0.55314124001E+01 0.53074223646E+01 0.48937125232E+01
 0.43491252075E+01 0.37421596212E+01 0.31364660034E+01 0.25807882190E+01 0.21047192058E+01
 0.17196666670E+01 0.14233763023E+01 0.12059218536E+01 0.10552007179E+01 0.96068706250E+00
 0.91519057138E+00 0.99839963012E+00 0.10552189075E+01 0.11545292389E+01 0.13031080560E+01
 0.15095542937E+01 0.17822632013E+01 0.21259280157E+01 0.25369849843E+01 0.29992633109E+01
 0.34816417803E+01 0.39393787653E+01 0.43199709149E+01 0.45730264220E+01 0.46618601193E+01
 0.45730166934E+01 0.43199651515E+01 0.39393878541E+01 0.34816684384E+01 0.29993103355E+01
 0.25370520423E+01 0.21259970364E+01 0.17823037638E+01 0.15095525330E+01 0.13030817460E+01
 0.11545075932E+01 0.10552142746E+01 0.99840342734E+00 0.97992176945E+00 0.11449862787E+01
 0.12059210716E+01 0.13031080560E+01 0.14426789575E+01 0.16311607988E+01 0.18734788435E+01
 0.21700140530E+01 0.25131541036E+01 0.28845085051E+01 0.32543248457E+01 0.35842728202E+01
 0.38337308088E+01 0.39683391410E+01 0.39683339263E+01 0.38337227593E+01 0.35842777504E+01
 0.32543544549E+01 0.28845628552E+01 0.25132169428E+01 0.21700539382E+01 0.18734684683E+01
 0.16311046929E+01 0.14426154588E+01 0.13030755750E+01 0.12059259704E+01 0.11450062584E+01
 0.11157407606E+01 0.11157308408E+01 0.13670195440E+01 0.14233382288E+01 0.15095542937E+01
 0.16311607988E+01 0.17928286523E+01 0.19966792659E+01 0.22400495934E+01 0.25131525898E+01
 0.27976325958E+01 0.30672036500E+01 0.32910661231E+01 0.34397569808E+01 0.34919199961E+01
 0.34397487548E+01 0.32910659367E+01 0.30672251274E+01 0.27976705672E+01 0.25131837513E+01
 0.22400463159E+01 0.19966288961E+01 0.17927480636E+01 0.16310905491E+01 0.15095287207E+01
 0.14233584689E+01 0.13670579426E+01 0.13356122141E+01 0.13255364312E+01 0.13355855006E+01
 0.16802225552E+01 0.17195959404E+01 0.17822632013E+01 0.18734788435E+01 0.19966792659E+01
 0.21521764816E+01 0.23356842145E+01 0.25369840492E+01 0.27394950555E+01 0.29215959124E+01
 0.30600613400E+01 0.31350371808E+01 0.31350331603E+01 0.30600561370E+01 0.29215987503E+01
 0.27395007499E+01 0.25369757222E+01 0.23356516056E+01 0.21521267166E+01 0.19966313266E+01
 0.18734522155E+01 0.17822688030E+01 0.17196307084E+01 0.16802701245E+01 0.16583593073E+01
 0.16488636780E+01 0.16488487730E+01 0.16583201536E+01 0.21003180326E+01 0.21046464447E+01
 0.21259280157E+01 0.21700140530E+01 0.22400495934E+01 0.23356842145E+01 0.24523459872E+01
 0.25807450893E+01 0.27071346525E+01 0.28149152768E+01 0.28877483853E+01 0.29135215966E+01
 0.28877479389E+01 0.28149106936E+01 0.27071194453E+01 0.25807176275E+01 0.24523184213E+01
 0.23356771596E+01 0.22400729086E+01 0.21700563347E+01 0.21259693999E+01 0.21046793268E+01
 0.21003490181E+01 0.21054665927E+01 0.21124110905E+01 0.21154321510E+01 0.21123876508E+01
 0.21054339793E+01 0.26368239030E+01 0.25807418537E+01 0.25369849843E+01 0.25131541036E+01
 0.25131525898E+01 0.25369840492E+01 0.25807450893E+01 0.26368275999E+01 0.26946533645E+01
 0.27423367547E+01 0.27693231698E+01 0.27693308783E+01 0.27423487486E+01 0.26946521357E+01
 0.26368167321E+01 0.25807527262E+01 0.25370355843E+01 0.25132418026E+01 0.25132440889E+01
 0.25370388015E+01 0.25807530945E+01 0.26368174590E+01 0.26946562576E+01 0.27423520974E+01
 0.27693294770E+01 0.27693205722E+01 0.27423368691E+01 0.26946531188E+01 0.32855199460E+01
 0.31364452940E+01 0.29992633109E+01 0.28845085051E+01 0.27976325958E+01 0.27394950555E+01
 0.27071346525E+01 0.26946533645E+01 0.26943367920E+01 0.26982580104E+01 0.27003431958E+01
 0.26982867367E+01 0.26943698283E+01 0.26946826658E+01 0.27071856649E+01 0.27395906049E+01
 0.27977531013E+01 0.28846026808E+01 0.29992946306E+01 0.31364202662E+01 0.32854736728E+01
 0.34311024956E+01 0.35547814265E+01 0.36381931922E+01 0.36676874210E+01 0.36381957823E+01
 0.35547967684E+01 0.34311383530E+01 0.40216790871E+01 0.37421465620E+01 0.34816417803E+01
 0.32543248457E+01 0.30672036500E+01 0.29215959124E+01 0.28149152768E+01 0.27423367547E+01
 0.26982580104E+01 0.26777108434E+01 0.26777324805E+01 0.26983090437E+01 0.27424000932E+01
 0.28149996099E+01 0.29217131632E+01 0.30673268909E+01 0.32543970456E+01 0.34816310531E+01
 0.37420745970E+01 0.40215917668E+01 0.42984506124E+01 0.45448853239E+01 0.47311660304E+01
 0.48317525894E+01 0.48317668351E+01 0.47312044354E+01 0.45449417338E+01 0.42985247645E+01
 0.47962825797E+01 0.43491172389E+01 0.39393787653E+01 0.35842728202E+01 0.32910661231E+01
 0.30600613400E+01 0.28877483853E+01 0.27693231698E+01 0.27003431958E+01 0.26777324805E+01
 0.27003851944E+01 0.27693967424E+01 0.28878514630E+01 0.30601920860E+01 0.32911909351E+01
 0.35843302053E+01 0.39393329247E+01 0.43489944434E+01 0.47961427947E+01 0.52520140684E+01
 0.56773283141E+01 0.60269173281E+01 0.62577393103E+01 0.63385155755E+01 0.62577684634E+01
 0.60269722626E+01 0.56774100036E+01 0.52521286915E+01 0.55373237236E+01 0.48937231743E+01
 0.43199709149E+01 0.38337308088E+01 0.34397569808E+01 0.31350371808E+01 0.29135215966E+01
 0.27693308783E+01 0.26982867367E+01 0.26983090437E+01 0.27693967424E+01 0.29136305460E+01
 0.31351813980E+01 0.34398968367E+01 0.38337957568E+01 0.43199100201E+01 0.48935544047E+01
 0.55371222727E+01 0.62163035627E+01 0.68797339392E+01 0.74635167363E+01 0.79009251354E+01
 0.81357729135E+01 0.81357572738E+01 0.79008981707E+01 0.74635228877E+01 0.68798117670E+01
 0.62164614069E+01 0.61581414907E+01 0.53074489515E+01 0.45730264220E+01 0.39683391410E+01
 0.34919199961E+01 0.31350331603E+01 0.28877479389E+01 0.27423487486E+01 0.26943698283E+01
 0.27424000932E+01 0.28878514630E+01 0.31351813980E+01 0.34920741277E+01 0.39684217525E+01
 0.45729664434E+01 0.53072475265E+01 0.61578860200E+01 0.70895987676E+01 0.80418748359E+01
 0.89317393729E+01 0.96638717924E+01 0.10147526648E+02 0.10316765386E+02 0.10147415211E+02
 0.96637253931E+01 0.89316599577E+01 0.80419314956E+01 0.70897919045E+01 0.65733854764E+01
 0.55314271625E+01 0.46618601193E+01 0.39683339263E+01 0.34397487548E+01 0.30600561370E+01
 0.28149106936E+01 0.26946521357E+01 0.26946826658E+01 0.28149996099E+01 0.30601920860E+01
 0.34398968367E+01 0.39684217525E+01 0.46618071530E+01 0.55312164183E+01 0.65731053107E+01
 0.77585596124E+01 0.90254535548E+01 0.10276979331E+02 0.11389232616E+02 0.12229371181E+02
 0.12682878445E+02 0.12682806291E+02 0.12229186106E+02 0.11389019079E+02 0.10276846962E+02
 0.90254882073E+01 0.77587657127E+01 0.67196222531E+01 0.55314124001E+01 0.45730166934E+01
 0.38337227593E+01 0.32910659367E+01 0.29215987503E+01 0.27071194453E+01 0.26368167321E+01
 0.27071856649E+01 0.29217131632E+01 0.32911909351E+01 0.38337957568E+01 0.45729664434E+01
 0.55312164183E+01 0.67193582447E+01 0.81228315564E+01 0.96888305737E+01 0.11318479275E+02
 0.12867973222E+02 0.14162893592E+02 0.15028377709E+02 0.15332529173E+02 0.15028332215E+02
 0.14162778885E+02 0.12867803765E+02 0.11318345723E+02 0.96888443630E+01 0.81230192596E+01
 0.65733287475E+01 0.53074223646E+01 0.43199651515E+01 0.35842777504E+01 0.30672251274E+01
 0.27395007499E+01 0.25807176275E+01 0.25807527262E+01 0.27395906049E+01 0.30673268909E+01
 0.35843302053E+01 0.43199100201E+01 0.53072475265E+01 0.65731053107E+01 0.81228315564E+01
 0.99235814290E+01 0.11889856645E+02 0.13875512000E+02 0.15676869625E+02 0.17047018140E+02
 0.17783202362E+02 0.17783265726E+02 0.17047137576E+02 0.15676910947E+02 0.13875425432E+02
 0.11889735715E+02 0.99235679288E+01 0.81229763467E+01 0.61580743759E+01 0.48937125232E+01
 0.39393878541E+01 0.32543544549E+01 0.27976705672E+01 0.25369757222E+01 0.24523184213E+01
 0.25370355843E+01 0.27977531013E+01 0.32543970456E+01 0.39393329247E+01 0.48935544047E+01
 0.61578860200E+01 0.77585596124E+01 0.96888305737E+01 0.11889856645E+02 0.14234081207E+02
 0.16510248553E+02 0.18410505434E+02 0.19661341561E+02 0.20096660175E+02 0.19661565204E+02
 0.18410780225E+02 0.16510382774E+02 0.14234023955E+02 0.11889723838E+02 0.96887826550E+01
 0.77586616466E+01 0.55372832300E+01 0.43491252075E+01 0.34816684384E+01 0.28845628552E+01
 0.25131837513E+01 0.23356516056E+01 0.23356771596E+01 0.25132418026E+01 0.28846026808E+01
 0.34816310531E+01 0.43489944434E+01 0.55371222727E+01 0.70895987676E+01 0.90254535548E+01
 0.11318479275E+02 0.13875512000E+02 0.16510248553E+02 0.18891849641E+02 0.20678392056E+02
 0.21631562649E+02 0.21631710280E+02 0.20678732205E+02 0.18892156304E+02 0.16510347605E+02
 0.13875400126E+02 0.11318303771E+02 0.90253771326E+01 0.70896759751E+01 0.47962628189E+01
 0.37421596212E+01 0.29993103355E+01 0.25132169428E+01 0.22400463159E+01 0.21521267166E+01
 0.22400729086E+01 0.25132440889E+01 0.29992946306E+01 0.37420745970E+01 0.47961427947E+01
 0.62163035627E+01 0.80418748359E+01 0.10276979331E+02 0.12867973222E+02 0.15676869625E+02
 0.18410505434E+02 0.20678392056E+02 0.22168613556E+02 0.22687302615E+02 0.22168882169E+02
 0.20678740836E+02 0.18410707172E+02 0.15676824782E+02 0.12867757909E+02 0.10276765437E+02
 0.80417925603E+01 0.62163646158E+01 0.40216603971E+01 0.31364660034E+01 0.25370520423E+01
 0.21700539382E+01 0.19966288961E+01 0.19966313266E+01 0.21700563347E+01 0.25370388015E+01
 0.31364202662E+01 0.40215917668E+01 0.52520140684E+01 0.68797339392E+01 0.89317393729E+01
 0.11389232616E+02 0.14162893592E+02 0.17047018140E+02 0.19661341561E+02 0.21631562649E+02
 0.22687302615E+02 0.22687432790E+02 0.21631847278E+02 0.19661556774E+02 0.17047012233E+02
 0.14162683915E+02 0.11388957747E+02 0.89315406392E+01 0.68796690247E+01 0.52520521293E+01
 0.32855092849E+01 0.25807882190E+01 0.21259970364E+01 0.18734684683E+01 0.17927480636E+01
 0.18734522155E+01 0.21259693999E+01 0.25807530945E+01 0.32854736728E+01 0.42984506124E+01
 0.56773283141E+01 0.74635167363E+01 0.96638717924E+01 0.12229371181E+02 0.15028377709E+02
 0.17783202362E+02 0.20096660175E+02 0.21631710280E+02 0.22168882169E+02 0.21631847278E+02
 0.20096790396E+02 0.17783183835E+02 0.15028192261E+02 0.12229110879E+02 0.96636469148E+01
 0.74633831758E+01 0.56772851791E+01 0.42984651285E+01 0.26368480273E+01 0.21047192058E+01
 0.17823037638E+01 0.16311046929E+01 0.16310905491E+01 0.17822688030E+01 0.21046793268E+01
 0.26368174590E+01 0.34311024956E+01 0.45448853239E+01 0.60269173281E+01 0.79009251354E+01
 0.10147526648E+02 0.12682878445E+02 0.15332529173E+02 0.17783265726E+02 0.19661565204E+02
 0.20678732205E+02 0.20678740836E+02 0.19661556774E+02 0.17783183835E+02 0.15332367107E+02
 0.12682683671E+02 0.10147353865E+02 0.79007989727E+01 0.60268409474E+01 0.45448556967E+01
 0.34311098361E+01 0.21003834254E+01 0.17196666670E+01 0.15095525330E+01 0.14426154588E+01
 0.15095287207E+01 0.17196307084E+01 0.21003490181E+01 0.26946562576E+01 0.35547814265E+01
 0.47311660304E+01 0.62577393103E+01 0.81357729135E+01 0.10316765386E+02 0.12682806291E+02
 0.15028332215E+02 0.17047137576E+02 0.18410780225E+02 0.18892156304E+02 0.18410707172E+02
 0.17047012233E+02 0.15028192261E+02 0.12682683671E+02 0.10316666857E+02 0.81356859187E+01
 0.62576619068E+01 0.47311154943E+01 0.35547693132E+01 0.26946753705E+01 0.16802991808E+01
 0.14233763023E+01 0.13030817460E+01 0.13030755750E+01 0.14233584689E+01 0.16802701245E+01
 0.21054665927E+01 0.27423520974E+01 0.36381931922E+01 0.48317525894E+01 0.63385155755E+01
 0.81357572738E+01 0.10147415211E+02 0.12229186106E+02 0.14162778885E+02 0.15676910947E+02
 0.16510382774E+02 0.16510347605E+02 0.15676824782E+02 0.14162683915E+02 0.12229110879E+02
 0.10147353865E+02 0.81356859187E+01 0.63384327024E+01 0.48316891355E+01 0.36381759886E+01
 0.27423749910E+01 0.21055022410E+01 0.13670660697E+01 0.12059218536E+01 0.11545075932E+01
 0.12059259704E+01 0.13670579426E+01 0.16583593073E+01 0.21124110905E+01 0.27693294770E+01
 0.36676874210E+01 0.48317668351E+01 0.62577684634E+01 0.79008981707E+01 0.96637253931E+01
 0.11389019079E+02 0.12867803765E+02 0.13875425432E+02 0.14234023955E+02 0.13875400126E+02
 0.12867757909E+02 0.11388957747E+02 0.96636469148E+01 0.79007989727E+01 0.62576619068E+01
 0.48316891355E+01 0.36676706492E+01 0.27693692553E+01 0.21124681316E+01 0.16583958421E+01
 0.11449849678E+01 0.10552007179E+01 0.10552142746E+01 0.11450062584E+01 0.13356122141E+01
 0.16488636780E+01 0.21154321510E+01 0.27693205722E+01 0.36381957823E+01 0.47312044354E+01
 0.60269722626E+01 0.74635228877E+01 0.89316599577E+01 0.10276846962E+02 0.11318345723E+02
 0.11889735715E+02 0.11889723838E+02 0.11318303771E+02 0.10276765437E+02 0.89315406392E+01
 0.74633831758E+01 0.60268409474E+01 0.47311154943E+01 0.36381759886E+01 0.27693692553E+01
 0.21155115963E+01 0.16489215466E+01 0.13356219116E+01 0.99836706448E+00 0.96068706250E+00
 0.99840342734E+00 0.11157407606E+01 0.13255364312E+01 0.16488487730E+01 0.21123876508E+01
 0.27423368691E+01 0.35547967684E+01 0.45449417338E+01 0.56774100036E+01 0.68798117670E+01
 0.80419314956E+01 0.90254882073E+01 0.96888443630E+01 0.99235679288E+01 0.96887826550E+01
 0.90253771326E+01 0.80417925603E+01 0.68796690247E+01 0.56772851791E+01 0.45448556967E+01
 0.35547693132E+01 0.27423749910E+01 0.21124681316E+01 0.16489215466E+01 0.13255582187E+01
 0.11157117686E+01 0.91516760504E+00 0.91519057138E+00 0.97992176945E+00 0.11157308408E+01
 0.13355855006E+01 0.16583201536E+01 0.21054339793E+01 0.26946531188E+01 0.34311383530E+01
 0.42985247645E+01 0.52521286915E+01 0.62164614069E+01 0.70897919045E+01 0.77587657127E+01
 0.81230192596E+01 0.81229763467E+01 0.77586616466E+01 0.70896759751E+01 0.62163646158E+01
 0.52520521293E+01 0.42984651285E+01 0.34311098361E+01 0.26946753705E+01 0.21055022410E+01
 0.16583958421E+01 0.13356219116E+01 0.11157117686E+01 0.97987642678E+00 0.91519714727E+00
 0.96070567011E+00 0.10552202743E+01 0.12059219801E+01 0.14233395678E+01 0.17195978062E+01
 0.21046476100E+01 0.25807417921E+01 0.31364447407E+01 0.37421456573E+01 0.43491151969E+01
 0.48937202858E+01 0.53074468624E+01 0.55314266118E+01 0.55314125953E+01 0.53074229854E+01
 0.48937142842E+01 0.43491279717E+01 0.37421620165E+01 0.31364674382E+01 0.25807893270E+01
 0.21047198943E+01 0.17196658055E+01 0.14233738617E+01 0.12059193428E+01 0.10551989920E+01
 0.96068563365E+00 0.91518945778E+00 0.96070567011E+00 0.10160230874E+01 0.11125070820E+01
 0.12565961268E+01 0.14566117247E+01 0.17207974685E+01 0.20538414504E+01 0.24523444073E+01
 0.29005426477E+01 0.33680910481E+01 0.38114954900E+01 0.41799153227E+01 0.44247307458E+01
 0.45106419601E+01 0.44247213672E+01 0.41799108727E+01 0.38115032046E+01 0.33681070767E+01
 0.29005700460E+01 0.24523944684E+01 0.20539097968E+01 0.17208558445E+01 0.14566352009E+01
 0.12565893423E+01 0.11124943719E+01 0.10160200902E+01 0.96070890879E+00 0.94269059111E+00
 0.10552202743E+01 0.11125070820E+01 0.12034837584E+01 0.13337962122E+01 0.15097251455E+01
 0.17362220958E+01 0.20139202658E+01 0.23356866141E+01 0.26839826511E+01 0.30305296611E+01
 0.33392325656E+01 0.35722373575E+01 0.36978111027E+01 0.36978062545E+01 0.35722264084E+01
 0.33392238029E+01 0.30305335400E+01 0.26840103551E+01 0.23357404474E+01 0.20139808537E+01
 0.17362563210E+01 0.15097170200E+01 0.13337647900E+01 0.12034627335E+01 0.11125112144E+01
 0.10552371932E+01 0.10276124354E+01 0.10276036845E+01 0.12059219801E+01 0.12565961268E+01
 0.13337962122E+01 0.14426211486E+01 0.15877466979E+01 0.17716169112E+01 0.19920778884E+01
 0.22400520172E+01 0.24983418768E+01 0.27426074420E+01 0.29448607541E+01 0.30788317410E+01
 0.31257552476E+01 0.30788213348E+01 0.29448467014E+01 0.27426038874E+01 0.24983634256E+01
 0.22400973004E+01 0.19921202234E+01 0.17716215831E+01 0.15877050717E+01 0.14425631862E+01
 0.13337625639E+01 0.12566010433E+01 0.12059477257E+01 0.11774565855E+01 0.11682801698E+01
 0.11774362310E+01 0.14233395678E+01 0.14566117247E+01 0.15097251455E+01 0.15877466979E+01
 0.16943624580E+01 0.18303741196E+01 0.19920768257E+01 0.21700139016E+01 0.23488820153E+01
 0.25091800498E+01 0.26305562300E+01 0.26960614626E+01 0.26960571471E+01 0.26305465875E+01
 0.25091745200E+01 0.23488907274E+01 0.21700356611E+01 0.19920927262E+01 0.18303606651E+01
 0.16943161648E+01 0.15876926673E+01 0.15096962522E+01 0.14566198680E+01 0.14233695487E+01
 0.14047633177E+01 0.13966204190E+01 0.13966097546E+01 0.14047354612E+01 0.17195978062E+01
 0.17207974685E+01 0.17362220958E+01 0.17716169112E+01 0.18303741196E+01 0.19125215470E+01
 0.20139197134E+01 0.21259289117E+01 0.22359908425E+01 0.23294239539E+01 0.23922627225E+01
 0.24144335856E+01 0.23922608633E+01 0.23294206275E+01 0.22359881162E+01 0.21259279117E+01
 0.20139166399E+01 0.19125105088E+01 0.18303555767E+01 0.17716001404E+01 0.17362176840E+01
 0.17208090621E+01 0.17196207474E+01 0.17257605087E+01 0.17326437252E+01 0.17355114920E+01
 0.17326277393E+01 0.17257357629E+01 0.21046476100E+01 0.20538414504E+01 0.20139202658E+01
 0.19920778884E+01 0.19920768257E+01 0.20139197134E+01 0.20538440420E+01 0.21046506417E+01
 0.21566041588E+01 0.21991095639E+01 0.22230289741E+01 0.22230338901E+01 0.21991182056E+01
 0.21566071763E+01 0.21046485904E+01 0.20538457535E+01 0.20139309386E+01 0.19920954140E+01
 0.19920971876E+01 0.20139336004E+01 0.20538465162E+01 0.21046497056E+01 0.21566107273E+01
 0.21991210243E+01 0.22230329926E+01 0.22230269419E+01 0.21991093210E+01 0.21566035918E+01
 0.25807417921E+01 0.24523444073E+01 0.23356866141E+01 0.22400520172E+01 0.21700139016E+01
 0.21259289117E+01 0.21046506417E+01 0.21003214083E+01 0.21054335202E+01 0.21123865365E+01
 0.21154325616E+01 0.21124095037E+01 0.21054612280E+01 0.21003444925E+01 0.21046788622E+01
 0.21259696962E+01 0.21700550031E+01 0.22400734889E+01 0.23356817827E+01 0.24523229407E+01
 0.25807190418E+01 0.27071208082E+01 0.28149138090E+01 0.28877487202E+01 0.29135177258E+01
 0.28877441966E+01 0.28149140563E+01 0.27071334123E+01 0.31364447407E+01 0.29005426477E+01
 0.26839826511E+01 0.24983418768E+01 0.23488820153E+01 0.22359908425E+01 0.21566041588E+01
 0.21054335202E+01 0.20762338385E+01 0.20633489113E+01 0.20633696341E+01 0.20762826110E+01
 0.21054899781E+01 0.21566644275E+01 0.22360530669E+01 0.23489223725E+01 0.24983305528E+01
 0.26839221470E+01 0.29004706559E+01 0.31363958312E+01 0.33730542681E+01 0.35858548762E+01
 0.37479005465E+01 0.38357868557E+01 0.38357903220E+01 0.37479080778E+01 0.35858646525E+01
 0.33730760839E+01 0.37421456573E+01 0.33680910481E+01 0.30305296611E+01 0.27426074420E+01
 0.25091800498E+01 0.23294239539E+01 0.21991095639E+01 0.21123865365E+01 0.20633489113E+01
 0.20475712993E+01 0.20633952556E+01 0.21124612683E+01 0.21991945659E+01 0.23294993316E+01
 0.25092088358E+01 0.27425530825E+01 0.30304020989E+01 0.33679536078E+01 0.37420594884E+01
 0.41291576674E+01 0.44953186310E+01 0.47998185900E+01 0.50025816508E+01 0.50738560659E+01
 0.50026006708E+01 0.47998367022E+01 0.44953284360E+01 0.41291868814E+01 0.43491151969E+01
 0.38114954900E+01 0.33392325656E+01 0.29448607541E+01 0.26305562300E+01 0.23922627225E+01
 0.22230289741E+01 0.21154325616E+01 0.20633696341E+01 0.20633952556E+01 0.21155026217E+01
 0.22231246431E+01 0.23923502415E+01 0.26305830768E+01 0.29447804373E+01 0.33390540090E+01
 0.38112952895E+01 0.43489788923E+01 0.49252060261E+01 0.54968844559E+01 0.60072503222E+01
 0.63941888945E+01 0.66035624968E+01 0.66035716109E+01 0.63942040673E+01 0.60072532223E+01
 0.54968858086E+01 0.49252543231E+01 0.48937202858E+01 0.41799153227E+01 0.35722373575E+01
 0.30788317410E+01 0.26960614626E+01 0.24144335856E+01 0.22230338901E+01 0.21124095037E+01
 0.20762826110E+01 0.21124612683E+01 0.22231246431E+01 0.24145278007E+01 0.26960973156E+01
 0.30787495684E+01 0.35720342608E+01 0.41796678967E+01 0.48935337794E+01 0.56872394571E+01
 0.65114128254E+01 0.72936748183E+01 0.79461689247E+01 0.83816476443E+01 0.85348941055E+01
 0.83816327243E+01 0.79461354614E+01 0.72936310539E+01 0.65113977916E+01 0.56873123295E+01
 0.53074468624E+01 0.44247307458E+01 0.36978111027E+01 0.31257552476E+01 0.26960571471E+01
 0.23922608633E+01 0.21991182056E+01 0.21054612280E+01 0.21054899781E+01 0.21991945659E+01
 0.23923502415E+01 0.26960973156E+01 0.31256801571E+01 0.36976036140E+01 0.44244575697E+01
 0.53072256252E+01 0.63260305848E+01 0.74315864415E+01 0.85407772372E+01 0.95406493333E+01
 0.10304545835E+02 0.10719942386E+02 0.10719926245E+02 0.10304493329E+02 0.95405595558E+01
 0.85406778183E+01 0.74315448150E+01 0.63261170236E+01 0.55314266118E+01 0.45106419601E+01
 0.36978062545E+01 0.30788213348E+01 0.26305465875E+01 0.23294206275E+01 0.21566071763E+01
 0.21003444925E+01 0.21566644275E+01 0.23294993316E+01 0.26305830768E+01 0.30787495684E+01
 0.36976036140E+01 0.45103656393E+01 0.55311967812E+01 0.67535124249E+01 0.81372904563E+01
 0.95987790147E+01 0.11007704474E+02 0.12198677109E+02 0.13001453167E+02 0.13285472434E+02
 0.13001465777E+02 0.12198650497E+02 0.11007599849E+02 0.95986347690E+01 0.81372131730E+01
 0.67535922237E+01 0.55314125953E+01 0.44247213672E+01 0.35722264084E+01 0.29448467014E+01
 0.25091745200E+01 0.22359881162E+01 0.21046485904E+01 0.21046788622E+01 0.22360530669E+01
 0.25092088358E+01 0.29447804373E+01 0.35720342608E+01 0.44244575697E+01 0.55311967812E+01
 0.69041241324E+01 0.85218593066E+01 0.10313506202E+02 0.12146867939E+02 0.13829640649E+02
 0.15134367251E+02 0.15850820828E+02 0.15850889454E+02 0.15134502159E+02 0.13829699011E+02
 0.12146774336E+02 0.10313326693E+02 0.85217440763E+01 0.69041809917E+01 0.53074229854E+01
 0.41799108727E+01 0.33392238029E+01 0.27426038874E+01 0.23488907274E+01 0.21259279117E+01
 0.20538457535E+01 0.21259696962E+01 0.23489223725E+01 0.27425530825E+01 0.33390540090E+01
 0.41796678967E+01 0.53072256252E+01 0.67535124249E+01 0.85218593066E+01 0.10566633830E+02
 0.12772895110E+02 0.14944098655E+02 0.16812879688E+02 0.18089632225E+02 0.18544618703E+02
 0.18089839630E+02 0.16813130449E+02 0.14944204242E+02 0.12772793388E+02 0.10566425646E+02
 0.85217173127E+01 0.67535488794E+01 0.48937142842E+01 0.38115032046E+01 0.30305335400E+01
 0.24983634256E+01 0.21700356611E+01 0.20139166399E+01 0.20139309386E+01 0.21700550031E+01
 0.24983305528E+01 0.30304020989E+01 0.38112952895E+01 0.48935337794E+01 0.63260305848E+01
 0.81372904563E+01 0.10313506202E+02 0.12772895110E+02 0.15341250932E+02 0.17743517843E+02
 0.19633560757E+02 0.20677630078E+02 0.20677748767E+02 0.19633835941E+02 0.17743766284E+02
 0.15341318423E+02 0.12772760111E+02 0.10313284602E+02 0.81371480969E+01 0.63260653972E+01
 0.43491279717E+01 0.33681070767E+01 0.26840103551E+01 0.22400973004E+01 0.19920927262E+01
 0.19125105088E+01 0.19920954140E+01 0.22400734889E+01 0.26839221470E+01 0.33679536078E+01
 0.43489788923E+01 0.56872394571E+01 0.74315864415E+01 0.95987790147E+01 0.12146867939E+02
 0.14944098655E+02 0.17743517843E+02 0.20185341552E+02 0.21859083325E+02 0.22454852082E+02
 0.21859239129E+02 0.20185558149E+02 0.17743662241E+02 0.14944081178E+02 0.12146700198E+02
 0.95985691825E+01 0.74314698668E+01 0.56872799616E+01 0.37421620165E+01 0.29005700460E+01
 0.23357404474E+01 0.19921202234E+01 0.18303606651E+01 0.18303555767E+01 0.19920971876E+01
 0.23356817827E+01 0.29004706559E+01 0.37420594884E+01 0.49252060261E+01 0.65114128254E+01
 0.85407772372E+01 0.11007704474E+02 0.13829640649E+02 0.16812879688E+02 0.19633560757E+02
 0.21859083325E+02 0.23088085723E+02 0.23088125677E+02 0.21859176874E+02 0.19633645424E+02
 0.16812890102E+02 0.13829545547E+02 0.11007530374E+02 0.85406043858E+01 0.65113292075E+01
 0.49252394584E+01 0.31364674382E+01 0.24523944684E+01 0.20139808537E+01 0.17716215831E+01
 0.16943161648E+01 0.17716001404E+01 0.20139336004E+01 0.24523229407E+01 0.31363958312E+01
 0.41291576674E+01 0.54968844559E+01 0.72936748183E+01 0.95406493333E+01 0.12198677109E+02
 0.15134367251E+02 0.18089632225E+02 0.20677630078E+02 0.22454852082E+02 0.23088125677E+02
 0.22454834188E+02 0.20677589052E+02 0.18089566145E+02 0.15134275130E+02 0.12198557129E+02
 0.95405101916E+01 0.72935543641E+01 0.54968304939E+01 0.41291831149E+01 0.25807893270E+01
 0.20539097968E+01 0.17362563210E+01 0.15877050717E+01 0.15876926673E+01 0.17362176840E+01
 0.20538465162E+01 0.25807190418E+01 0.33730542681E+01 0.44953186310E+01 0.60072503222E+01
 0.79461689247E+01 0.10304545835E+02 0.13001453167E+02 0.15850820828E+02 0.18544618703E+02
 0.20677748767E+02 0.21859239129E+02 0.21859176874E+02 0.20677589052E+02 0.18544428930E+02
 0.15850665575E+02 0.13001351579E+02 0.10304469160E+02 0.79460897062E+01 0.60071843919E+01
 0.44953019627E+01 0.33730955759E+01 0.21047198943E+01 0.17208558445E+01 0.15097170200E+01
 0.14425631862E+01 0.15096962522E+01 0.17208090621E+01 0.21046497056E+01 0.27071208082E+01
 0.35858548762E+01 0.47998185900E+01 0.63941888945E+01 0.83816476443E+01 0.10719942386E+02
 0.13285472434E+02 0.15850889454E+02 0.18089839630E+02 0.19633835941E+02 0.20185558149E+02
 0.19633645424E+02 0.18089566145E+02 0.15850665575E+02 0.13285361179E+02 0.10719910498E+02
 0.83816266873E+01 0.63941563836E+01 0.47998049482E+01 0.35858886298E+01 0.27071905156E+01
 0.17196658055E+01 0.14566352009E+01 0.13337647900E+01 0.13337625639E+01 0.14566198680E+01
 0.17196207474E+01 0.21566107273E+01 0.28149138090E+01 0.37479005465E+01 0.50025816508E+01
 0.66035624968E+01 0.85348941055E+01 0.10719926245E+02 0.13001465777E+02 0.15134502159E+02
 0.16813130449E+02 0.17743766284E+02 0.17743662241E+02 0.16812890102E+02 0.15134275130E+02
 0.13001351579E+02 0.10719910498E+02 0.85349013560E+01 0.66035536202E+01 0.50025810134E+01
 0.37479427675E+01 0.28149926524E+01 0.21566870662E+01 0.14233738617E+01 0.12565893423E+01
 0.12034627335E+01 0.12566010433E+01 0.14233695487E+01 0.17257605087E+01 0.21991210243E+01
 0.28877487202E+01 0.38357868557E+01 0.50738560659E+01 0.66035716109E+01 0.83816327243E+01
 0.10304493329E+02 0.12198650497E+02 0.13829699011E+02 0.14944204242E+02 0.15341318423E+02
 0.14944081178E+02 0.13829545547E+02 0.12198557129E+02 0.10304469160E+02 0.83816266873E+01
 0.66035536202E+01 0.50738521375E+01 0.38358351938E+01 0.28878442707E+01 0.21992154583E+01
 0.17258108303E+01 0.12059193428E+01 0.11124943719E+01 0.11125112144E+01 0.12059477257E+01
 0.14047633177E+01 0.17326437252E+01 0.22230329926E+01 0.29135177258E+01 0.38357903220E+01
 0.50026006708E+01 0.63942040673E+01 0.79461354614E+01 0.95405595558E+01 0.11007599849E+02
 0.12146774336E+02 0.12772793388E+02 0.12772760111E+02 0.12146700198E+02 0.11007530374E+02
 0.95405101916E+01 0.79460897062E+01 0.63941563836E+01 0.50025810134E+01 0.38358351938E+01
 0.29136244074E+01 0.22231513857E+01 0.17327161587E+01 0.14047706482E+01 0.10551989920E+01
 0.10160200902E+01 0.10552371932E+01 0.11774565855E+01 0.13966204190E+01 0.17355114920E+01
 0.22230269419E+01 0.28877441966E+01 0.37479080778E+01 0.47998367022E+01 0.60072532223E+01
 0.72936310539E+01 0.85406778183E+01 0.95986347690E+01 0.10313326693E+02 0.10566425646E+02
 0.10313284602E+02 0.95985691825E+01 0.85406043858E+01 0.72935543641E+01 0.60071843919E+01
 0.47998049482E+01 0.37479427675E+01 0.28878442707E+01 0.22231513857E+01 0.17356030893E+01
 0.13966441858E+01 0.11774246864E+01 0.96068563365E+00 0.96070890879E+00 0.10276124354E+01
 0.11682801698E+01 0.13966097546E+01 0.17326277393E+01 0.21991093210E+01 0.28149140563E+01
 0.35858646525E+01 0.44953284360E+01 0.54968858086E+01 0.65113977916E+01 0.74315448150E+01
 0.81372131730E+01 0.85217440763E+01 0.85217173127E+01 0.81371480969E+01 0.74314698668E+01
 0.65113292075E+01 0.54968304939E+01 0.44953019627E+01 0.35858886298E+01 0.28149926524E+01
 0.21992154583E+01 0.17327161587E+01 0.13966441858E+01 0.11682568836E+01 0.10275652368E+01
 0.91518945778E+00 0.94269059111E+00 0.10276036845E+01 0.11774362310E+01 0.14047354612E+01
 0.17257357629E+01 0.21566035918E+01 0.27071334123E+01 0.33730760839E+01 0.41291868814E+01
 0.49252543231E+01 0.56873123295E+01 0.63261170236E+01 0.67535922237E+01 0.69041809917E+01
 0.67535488794E+01 0.63260653972E+01 0.56872799616E+01 0.49252394584E+01 0.41291831149E+01
 0.33730955759E+01 0.27071905156E+01 0.21566870662E+01 0.17258108303E+01 0.14047706482E+01
 0.11774246864E+01 0.10275652368E+01 0.94265858000E+00 0.99840170119E+00 0.10552221438E+01
 0.11545313939E+01 0.13031088786E+01 0.15095555307E+01 0.17822647466E+01 0.21259277702E+01
 0.25369826925E+01 0.29992608664E+01 0.34816396442E+01 0.39393758192E+01 0.43199679456E+01
 0.45730259031E+01 0.46618622483E+01 0.45730192645E+01 0.43199674729E+01 0.39393911146E+01
 0.34816721409E+01 0.29993121989E+01 0.25370516851E+01 0.21259961185E+01 0.17823023903E+01
 0.15095492651E+01 0.13030772969E+01 0.11545047104E+01 0.10552136873E+01 0.99840349309E+00
 0.97992217660E+00 0.10552221438E+01 0.11125088659E+01 0.12034845127E+01 0.13337961116E+01
 0.15097250408E+01 0.17362217874E+01 0.20139188891E+01 0.23356844309E+01 0.26839808022E+01
 0.30305284624E+01 0.33392316891E+01 0.35722372936E+01 0.36978126681E+01 0.36978089133E+01
 0.35722287626E+01 0.33392254843E+01 0.30305350184E+01 0.26840112776E+01 0.23357399181E+01
 0.20139790802E+01 0.17362543160E+01 0.15097149795E+01 0.13337624099E+01 0.12034607473E+01
 0.11125108452E+01 0.10552383150E+01 0.10276139042E+01 0.10276051711E+01 0.11545313939E+01
 0.12034845127E+01 0.12778480880E+01 0.13825647787E+01 0.15223031653E+01 0.16996164047E+01