unknown system                          
   1.00000000000000     
     0.000000    2.715000    2.715000
     2.715000    0.000000    2.715000
     2.715000    2.715000    0.000000
   Si
     2
Direct
  0.500000  0.500000  0.500000
  0.750000  0.750000  0.750000
 
   28   28   28
 0.88986234924E+00 0.91683380597E+00 0.99999996090E+00 0.11464560432E+01 0.13682520900E+01
 0.16811861341E+01 0.21011001795E+01 0.26375758805E+01 0.32863344341E+01 0.40225054596E+01
 0.47969579904E+01 0.55376924985E+01 0.61581595298E+01 0.65731388196E+01 0.67192794340E+01
 0.65730835538E+01 0.61580956091E+01 0.55376563430E+01 0.47969419497E+01 0.40224882107E+01
 0.32863226916E+01 0.26375973988E+01 0.21011625875E+01 0.16812601372E+01 0.13682968758E+01
 0.11464542118E+01 0.99996787719E+00 0.91680506213E+00 0.91683380597E+00 0.96230615069E+00
 0.10567169758E+01 0.12072251435E+01 0.14243991455E+01 0.17204619609E+01 0.21054501129E+01
 0.25816084894E+01 0.31373890968E+01 0.37430424792E+01 0.43497768765E+01 0.48940159539E+01
 0.53073811448E+01 0.55311406503E+01 0.55311267309E+01 0.53073570854E+01 0.48940087854E+01
 0.43497872621E+01 0.37430550365E+01 0.31374066307E+01 0.25816510193E+01 0.21055200230E+01
 0.17205310193E+01 0.14244363867E+01 0.12072259999E+01 0.10566998743E+01 0.96229040719E+00
 0.91682806662E+00 0.99999996090E+00 0.10567169758E+01 0.11558457967E+01 0.13041937783E+01
 0.15104384565E+01 0.17830606354E+01 0.21267769606E+01 0.25379479241E+01 0.30002651706E+01
 0.34825001336E+01 0.39399101080E+01 0.43200997366E+01 0.45728308733E+01 0.46615416676E+01
 0.45728224560E+01 0.43200960395E+01 0.39399206318E+01 0.34825260959E+01 0.30003092320E+01
 0.25380112734E+01 0.21268432511E+01 0.17831000159E+01 0.15104366994E+01 0.13041682974E+01
 0.11558256420E+01 0.10567140756E+01 0.10000049491E+01 0.98155353889E+00 0.11464560432E+01
 0.12072251435E+01 0.13041937783E+01 0.14435602091E+01 0.16319325937E+01 0.18742775467E+01
 0.21709334518E+01 0.25141712331E+01 0.28854780033E+01 0.32550545837E+01 0.35846327504E+01
 0.38337259498E+01 0.39681115430E+01 0.39681068099E+01 0.38337189482E+01 0.35846384111E+01
 0.32550838867E+01 0.28855309105E+01 0.25142319849E+01 0.21709713511E+01 0.18742659546E+01
 0.16318764073E+01 0.14434976874E+01 0.13041628194E+01 0.12072314543E+01 0.11464769097E+01
 0.11172954643E+01 0.11172852589E+01 0.13682520900E+01 0.14243991455E+01 0.15104384565E+01
 0.16319325937E+01 0.17936020415E+01 0.19975549615E+01 0.22410439073E+01 0.25141697565E+01
 0.27985077479E+01 0.30677922368E+01 0.32913216073E+01 0.34397532962E+01 0.34918198080E+01
 0.34397456522E+01 0.32913218357E+01 0.30678133942E+01 0.27985447478E+01 0.25141995918E+01
 0.22410391532E+01 0.19975033785E+01 0.17935211651E+01 0.16318632158E+01 0.15104142684E+01
 0.14244203242E+01 0.13682906340E+01 0.13369607646E+01 0.13269251078E+01 0.13369342592E+01
 0.16811861341E+01 0.17204619609E+01 0.17830606354E+01 0.18742775467E+01 0.19975549615E+01
 0.21531573190E+01 0.23367162732E+01 0.25379470340E+01 0.27402635476E+01 0.29221053904E+01
 0.30603369451E+01 0.31351776696E+01 0.31351739026E+01 0.30603321317E+01 0.29221080741E+01
 0.27402682351E+01 0.25379370411E+01 0.23366818259E+01 0.21531062334E+01 0.19975068696E+01
 0.18742519399E+01 0.17830675470E+01 0.17204972636E+01 0.16812331903E+01 0.16594056962E+01
 0.16499559192E+01 0.16499414433E+01 0.16593674516E+01 0.21011001795E+01 0.21054501129E+01
 0.21267769606E+01 0.21709334518E+01 0.22410439073E+01 0.23367162732E+01 0.24533384303E+01
 0.25816117092E+01 0.27078229455E+01 0.28154297772E+01 0.28881424706E+01 0.29138735426E+01
 0.28881421611E+01 0.28154251838E+01 0.27078071387E+01 0.25815828529E+01 0.24533091151E+01
 0.23367080442E+01 0.22410672599E+01 0.21709766881E+01 0.21268192292E+01 0.21054829978E+01
 0.21011302552E+01 0.21062390010E+01 0.21131801679E+01 0.21162005244E+01 0.21131575395E+01
 0.21062076012E+01 0.26375758805E+01 0.25816084894E+01 0.25379479241E+01 0.25141712331E+01
 0.25141697565E+01 0.25379470340E+01 0.25816117092E+01 0.26375795644E+01 0.26953010352E+01
 0.27429112248E+01 0.27698618441E+01 0.27698693830E+01 0.27429227429E+01 0.26952990267E+01
 0.26375676292E+01 0.25816183403E+01 0.25379982054E+01 0.25142593399E+01 0.25142616429E+01
 0.25380015280E+01 0.25816189402E+01 0.26375686063E+01 0.26953033032E+01 0.27429261777E+01
 0.27698680566E+01 0.27698592698E+01 0.27429112800E+01 0.26953007326E+01 0.32863344341E+01
 0.31373890968E+01 0.30002651706E+01 0.28854780033E+01 0.27985077479E+01 0.27402635476E+01
 0.27078229455E+01 0.26953010352E+01 0.26949750384E+01 0.26989006204E+01 0.27009889326E+01
 0.26989285673E+01 0.26950065108E+01 0.26953284176E+01 0.27078726595E+01 0.27403591275E+01
 0.27986290543E+01 0.28855722845E+01 0.30002952482E+01 0.31373625427E+01 0.32862878399E+01
 0.34317758347E+01 0.35553547316E+01 0.36387210902E+01 0.36682046979E+01 0.36387229347E+01
 0.35553687448E+01 0.34318106536E+01 0.40225054596E+01 0.37430424792E+01 0.34825001336E+01
 0.32550545837E+01 0.30677922368E+01 0.29221053904E+01 0.28154297772E+01 0.27429112248E+01
 0.26989006204E+01 0.26783949908E+01 0.26784162071E+01 0.26989501135E+01 0.27429719364E+01
 0.28155117139E+01 0.29222220036E+01 0.30679163336E+01 0.32551271680E+01 0.34824881270E+01
 0.37429687716E+01 0.40224180863E+01 0.42991689553E+01 0.45455444860E+01 0.47318439791E+01
 0.48324737639E+01 0.48324873021E+01 0.47318802492E+01 0.45455979072E+01 0.42992409157E+01
 0.47969579904E+01 0.43497768765E+01 0.39399101080E+01 0.35846327504E+01 0.32913216073E+01
 0.30603369451E+01 0.28881424706E+01 0.27698618441E+01 0.27009889326E+01 0.26784162071E+01
 0.27010299369E+01 0.27699331787E+01 0.28882429839E+01 0.30604666069E+01 0.32914472243E+01
 0.35846910768E+01 0.39398636903E+01 0.43496525554E+01 0.47968176673E+01 0.52526379484E+01
 0.56779537685E+01 0.60276686507E+01 0.62586726104E+01 0.63395352698E+01 0.62587003362E+01
 0.60277210708E+01 0.56780327947E+01 0.52527511407E+01 0.55376924985E+01 0.48940159539E+01
 0.43200997366E+01 0.38337259498E+01 0.34397532962E+01 0.31351776696E+01 0.29138735426E+01
 0.27698693830E+01 0.26989285673E+01 0.26989501135E+01 0.27699331787E+01 0.29139801765E+01
 0.31353210313E+01 0.34398942759E+01 0.38337923711E+01 0.43200387603E+01 0.48938455799E+01
 0.55374893996E+01 0.62166483818E+01 0.68800832949E+01 0.74640363722E+01 0.79017608989E+01
 0.81368680340E+01 0.81368517932E+01 0.79017326418E+01 0.74640414451E+01 0.68801607886E+01
 0.62168069063E+01 0.61581595298E+01 0.53073811448E+01 0.45728308733E+01 0.39681115430E+01
 0.34918198080E+01 0.31351739026E+01 0.28881421611E+01 0.27429227429E+01 0.26950065108E+01
 0.27429719364E+01 0.28882429839E+01 0.31353210313E+01 0.34919750977E+01 0.39681958167E+01
 0.45727706978E+01 0.53071772892E+01 0.61579009159E+01 0.70895764460E+01 0.80417735898E+01
 0.89317064076E+01 0.96641442274E+01 0.10148186216E+02 0.10317602587E+02 0.10148074127E+02
 0.96639976106E+01 0.89316278731E+01 0.80418320539E+01 0.70897721713E+01 0.65731388196E+01
 0.55311406503E+01 0.46615416676E+01 0.39681068099E+01 0.34397456522E+01 0.30603321317E+01
 0.28154251838E+01 0.26952990267E+01 0.26953284176E+01 0.28155117139E+01 0.30604666069E+01
 0.34398942759E+01 0.39681958167E+01 0.46614879548E+01 0.55309263458E+01 0.65728539386E+01
 0.77582250473E+01 0.90249113646E+01 0.10276280080E+02 0.11388623972E+02 0.12229087770E+02
 0.12682892463E+02 0.12682820294E+02 0.12228902954E+02 0.11388411338E+02 0.10276149258E+02
 0.90249484263E+01 0.77584349537E+01 0.67192794340E+01 0.55311267309E+01 0.45728224560E+01
 0.38337189482E+01 0.32913218357E+01 0.29221080741E+01 0.27078071387E+01 0.26375676292E+01
 0.27078726595E+01 0.29222220036E+01 0.32914472243E+01 0.38337923711E+01 0.45727706978E+01
 0.55309263458E+01 0.67190096484E+01 0.81223286946E+01 0.96880005247E+01 0.11317247737E+02
 0.12866496497E+02 0.14161469899E+02 0.15027184969E+02 0.15331462941E+02 0.15027140449E+02
 0.14161356463E+02 0.12866327877E+02 0.11317114880E+02 0.96880163679E+01 0.81225208837E+01
 0.65730835538E+01 0.53073570854E+01 0.43200960395E+01 0.35846384111E+01 0.30678133942E+01
 0.27402682351E+01 0.25815828529E+01 0.25816183403E+01 0.27403591275E+01 0.30679163336E+01
 0.35846910768E+01 0.43200387603E+01 0.53071772892E+01 0.65728539386E+01 0.81223286946E+01
 0.99226565095E+01 0.11888351871E+02 0.13873450696E+02 0.15674497568E+02 0.17044626362E+02
 0.17780903393E+02 0.17780967365E+02 0.17044747034E+02 0.15674539491E+02 0.13873363480E+02
 0.11888230202E+02 0.99226444272E+01 0.81224780723E+01 0.61580956091E+01 0.48940087854E+01
 0.39399206318E+01 0.32550838867E+01 0.27985447478E+01 0.25379370411E+01 0.24533091151E+01
 0.25379982054E+01 0.27986290543E+01 0.32551271680E+01 0.39398636903E+01 0.48938455799E+01
 0.61579009159E+01 0.77582250473E+01 0.96880005247E+01 0.11888351871E+02 0.14231821320E+02
 0.16507363346E+02 0.18407275638E+02 0.19658017354E+02 0.20093334412E+02 0.19658240998E+02
 0.18407550106E+02 0.16507496264E+02 0.14231761680E+02 0.11888217087E+02 0.96879534194E+01
 0.77583315799E+01 0.55376563430E+01 0.43497872621E+01 0.34825260959E+01 0.28855309105E+01
 0.25141995918E+01 0.23366818259E+01 0.23367080442E+01 0.25142593399E+01 0.28855722845E+01
 0.34824881270E+01 0.43496525554E+01 0.55374893996E+01 0.70895764460E+01 0.90249113646E+01
 0.11317247737E+02 0.13873450696E+02 0.16507363346E+02 0.18888325793E+02 0.20674505656E+02
 0.21627541714E+02 0.21627689122E+02 0.20674845247E+02 0.18888631420E+02 0.16507460244E+02
 0.13873335578E+02 0.11317069754E+02 0.90248357805E+01 0.70896583233E+01 0.47969419497E+01
 0.37430550365E+01 0.30003092320E+01 0.25142319849E+01 0.22410391532E+01 0.21531062334E+01
 0.22410672599E+01 0.25142616429E+01 0.30002952482E+01 0.37429687716E+01 0.47968176673E+01
 0.62166483818E+01 0.80417735898E+01 0.10276280080E+02 0.12866496497E+02 0.15674497568E+02
 0.18407275638E+02 0.20674505656E+02 0.22164352362E+02 0.22682926763E+02 0.22164622645E+02
 0.20674856423E+02 0.18407477881E+02 0.15674450838E+02 0.12866277911E+02 0.10276064175E+02
 0.80416927972E+01 0.62167138876E+01 0.40224882107E+01 0.31374066307E+01 0.25380112734E+01
 0.21709713511E+01 0.19975033785E+01 0.19975068696E+01 0.21709766881E+01 0.25380015280E+01
 0.31373625427E+01 0.40224180863E+01 0.52526379484E+01 0.68800832949E+01 0.89317064076E+01
 0.11388623972E+02 0.14161469899E+02 0.17044626362E+02 0.19658017354E+02 0.21627541714E+02
 0.22682926763E+02 0.22683059769E+02 0.21627832491E+02 0.19658237441E+02 0.17044621407E+02
 0.14161257940E+02 0.11388346125E+02 0.89315065307E+01 0.68800200879E+01 0.52526790896E+01
 0.32863226916E+01 0.25816510193E+01 0.21268432511E+01 0.18742659546E+01 0.17935211651E+01
 0.18742519399E+01 0.21268192292E+01 0.25816189402E+01 0.32862878399E+01 0.42991689553E+01
 0.56779537685E+01 0.74640363722E+01 0.96641442274E+01 0.12229087770E+02 0.15027184969E+02
 0.17780903393E+02 0.20093334412E+02 0.21627689122E+02 0.22164622645E+02 0.21627832491E+02
 0.20093471812E+02 0.17780887891E+02 0.15026998163E+02 0.12228824436E+02 0.96639169786E+01
 0.74639021843E+01 0.56779116668E+01 0.42991846249E+01 0.26375973988E+01 0.21055200230E+01
 0.17831000159E+01 0.16318764073E+01 0.16318632158E+01 0.17830675470E+01 0.21054829978E+01
 0.26375686063E+01 0.34317758347E+01 0.45455444860E+01 0.60276686507E+01 0.79017608989E+01
 0.10148186216E+02 0.12682892463E+02 0.15331462941E+02 0.17780967365E+02 0.19658240998E+02
 0.20674845247E+02 0.20674856423E+02 0.19658237441E+02 0.17780887891E+02 0.15331299459E+02
 0.12682694668E+02 0.10148010985E+02 0.79016333411E+01 0.60275917867E+01 0.45455149543E+01
 0.34317828314E+01 0.21011625875E+01 0.17205310193E+01 0.15104366994E+01 0.14434976874E+01
 0.15104142684E+01 0.17204972636E+01 0.21011302552E+01 0.26953033032E+01 0.35553547316E+01
 0.47318439791E+01 0.62586726104E+01 0.81368680340E+01 0.10317602587E+02 0.12682820294E+02
 0.15027140449E+02 0.17044747034E+02 0.18407550106E+02 0.18888631420E+02 0.18407477881E+02
 0.17044621407E+02 0.15026998163E+02 0.12682694668E+02 0.10317502068E+02 0.81367802133E+01
 0.62585948005E+01 0.47317930396E+01 0.35553419921E+01 0.26953211284E+01 0.16812601372E+01
 0.14244363867E+01 0.13041682974E+01 0.13041628194E+01 0.14244203242E+01 0.16812331903E+01
 0.21062390010E+01 0.27429261777E+01 0.36387210902E+01 0.48324737639E+01 0.63395352698E+01
 0.81368517932E+01 0.10148074127E+02 0.12228902954E+02 0.14161356463E+02 0.15674539491E+02
 0.16507496264E+02 0.16507460244E+02 0.15674450838E+02 0.14161257940E+02 0.12228824436E+02
 0.10148010985E+02 0.81367802133E+01 0.63394528223E+01 0.48324104994E+01 0.36387034935E+01
 0.27429480085E+01 0.21062729090E+01 0.13682968758E+01 0.12072259999E+01 0.11558256420E+01
 0.12072314543E+01 0.13682906340E+01 0.16594056962E+01 0.21131801679E+01 0.27698680566E+01
 0.36682046979E+01 0.48324873021E+01 0.62587003362E+01 0.79017326418E+01 0.96639976106E+01
 0.11388411338E+02 0.12866327877E+02 0.13873363480E+02 0.14231761680E+02 0.13873335578E+02
 0.12866277911E+02 0.11388346125E+02 0.96639169786E+01 0.79016333411E+01 0.62585948005E+01
 0.48324104994E+01 0.36681880868E+01 0.27699073164E+01 0.21132361424E+01 0.16594406120E+01
 0.11464542118E+01 0.10566998743E+01 0.10567140756E+01 0.11464769097E+01 0.13369607646E+01
 0.16499559192E+01 0.21162005244E+01 0.27698592698E+01 0.36387229347E+01 0.47318802492E+01
 0.60277210708E+01 0.74640414451E+01 0.89316278731E+01 0.10276149258E+02 0.11317114880E+02
 0.11888230202E+02 0.11888217087E+02 0.11317069754E+02 0.10276064175E+02 0.89315065307E+01
 0.74639021843E+01 0.60275917867E+01 0.47317930396E+01 0.36387034935E+01 0.27699073164E+01
 0.21162791607E+01 0.16500129157E+01 0.13369691992E+01 0.99996787719E+00 0.96229040719E+00
 0.10000049491E+01 0.11172954643E+01 0.13269251078E+01 0.16499414433E+01 0.21131575395E+01
 0.27429112800E+01 0.35553687448E+01 0.45455979072E+01 0.56780327947E+01 0.68801607886E+01
 0.80418320539E+01 0.90249484263E+01 0.96880163679E+01 0.99226444272E+01 0.96879534194E+01
 0.90248357805E+01 0.80416927972E+01 0.68800200879E+01 0.56779116668E+01 0.45455149543E+01
 0.35553419921E+01 0.27429480085E+01 0.21132361424E+01 0.16500129157E+01 0.13269460111E+01
 0.11172655730E+01 0.91680506213E+00 0.91682806662E+00 0.98155353889E+00 0.11172852589E+01
 0.13369342592E+01 0.16593674516E+01 0.21062076012E+01 0.26953007326E+01 0.34318106536E+01
 0.42992409157E+01 0.52527511407E+01 0.62168069063E+01 0.70897721713E+01 0.77584349537E+01
 0.81225208837E+01 0.81224780723E+01 0.77583315799E+01 0.70896583233E+01 0.62167138876E+01
 0.52526790896E+01 0.42991846249E+01 0.34317828314E+01 0.26953211284E+01 0.21062729090E+01
 0.16594406120E+01 0.13369691992E+01 0.11172655730E+01 0.98150800639E+00 0.91683388171E+00
 0.96230743636E+00 0.10567182578E+01 0.12072260042E+01 0.14244004257E+01 0.17204637703E+01
 0.21054512819E+01 0.25816084781E+01 0.31373885688E+01 0.37430415568E+01 0.43497748038E+01
 0.48940130082E+01 0.53073789447E+01 0.55311399915E+01 0.55311269168E+01 0.53073578012E+01
 0.48940106801E+01 0.43497901842E+01 0.37430576389E+01 0.31374082774E+01 0.25816522554E+01
 0.21055207439E+01 0.17205301515E+01 0.14244339161E+01 0.12072234146E+01 0.10566980623E+01
 0.96228893501E+00 0.91682692594E+00 0.96230743636E+00 0.10175382988E+01 0.11138608460E+01
 0.12577358730E+01 0.14575570398E+01 0.17216515379E+01 0.20547343904E+01 0.24533368929E+01
 0.29015618036E+01 0.33689548386E+01 0.38120154411E+01 0.41800094138E+01 0.44244780083E+01
 0.45102568370E+01 0.44244699755E+01 0.41800071300E+01 0.38120245605E+01 0.33689696052E+01
 0.29015849773E+01 0.24533817089E+01 0.20547988955E+01 0.17217084078E+01 0.14575807854E+01
 0.12577303665E+01 0.11138500343E+01 0.10175373636E+01 0.96231207230E+00 0.94431799232E+00
 0.10567182578E+01 0.11138608460E+01 0.12046403787E+01 0.13347592322E+01 0.15105732977E+01
 0.17370779771E+01 0.20148734403E+01 0.23367185989E+01 0.26849518828E+01 0.30312374467E+01
 0.33395335108E+01 0.35721274848E+01 0.36974452686E+01 0.36974407251E+01 0.35721171386E+01
 0.33395247541E+01 0.30312396871E+01 0.26849760382E+01 0.23367680354E+01 0.20149305391E+01
 0.17371108536E+01 0.15105660646E+01 0.13347301850E+01 0.12046221566E+01 0.11138673110E+01
 0.10567365836E+01 0.10291825505E+01 0.10291733508E+01 0.12072260042E+01 0.12577358730E+01
 0.13347592322E+01 0.14434582977E+01 0.15885590161E+01 0.17725015859E+01 0.19930595785E+01
 0.22410462441E+01 0.24991833917E+01 0.27431341113E+01 0.29450046883E+01 0.30786653228E+01
 0.31254701224E+01 0.30786548381E+01 0.29449898022E+01 0.27431285423E+01 0.24992021516E+01
 0.22410888226E+01 0.19931000191E+01 0.17725056882E+01 0.15885184810E+01 0.14434028871E+01
 0.13347285911E+01 0.12577429847E+01 0.12072526086E+01 0.11788694615E+01 0.11697300312E+01
 0.11788490586E+01 0.14244004257E+01 0.14575570398E+01 0.15105732977E+01 0.15885590161E+01
 0.16952151700E+01 0.18313085394E+01 0.19930585542E+01 0.21709332897E+01 0.23496033925E+01
 0.25096132149E+01 0.26307081867E+01 0.26960414131E+01 0.26960369528E+01 0.26306977069E+01
 0.25096056935E+01 0.23496094497E+01 0.21709528458E+01 0.19930733924E+01 0.18312952249E+01
 0.16951701698E+01 0.15885072740E+01 0.15105469418E+01 0.14575668207E+01 0.14244305801E+01
 0.14059168293E+01 0.13978236190E+01 0.13978133757E+01 0.14058896711E+01 0.17204637703E+01
 0.17216515379E+01 0.17370779771E+01 0.17725015859E+01 0.18313085394E+01 0.19134938875E+01
 0.20148728947E+01 0.21267778252E+01 0.22366628548E+01 0.23298978198E+01 0.23925830460E+01
 0.24146963122E+01 0.23925806401E+01 0.23298931479E+01 0.22366581182E+01 0.21267748953E+01
 0.20148687731E+01 0.19134830021E+01 0.18312911995E+01 0.17724866187E+01 0.17370752419E+01
 0.17216638909E+01 0.17204862479E+01 0.17266358447E+01 0.17335231520E+01 0.17363919206E+01
 0.17335081210E+01 0.17266122874E+01 0.21054512819E+01 0.20547343904E+01 0.20148734403E+01
 0.19930595785E+01 0.19930585542E+01 0.20148728947E+01 0.20547368549E+01 0.21054541810E+01
 0.21573055188E+01 0.21997214178E+01 0.22235886384E+01 0.22235931850E+01 0.21997290956E+01
 0.21573073224E+01 0.21054510781E+01 0.20547380895E+01 0.20148844654E+01 0.19930781248E+01
 0.19930798758E+01 0.20148871643E+01 0.20547390410E+01 0.21054523920E+01 0.21573109360E+01
 0.21997319290E+01 0.22235923700E+01 0.22235866752E+01 0.21997211509E+01 0.21573049570E+01
 0.25816084781E+01 0.24533368929E+01 0.23367185989E+01 0.22410462441E+01 0.21709332897E+01
 0.21267778252E+01 0.21054541810E+01 0.21011034450E+01 0.21062071465E+01 0.21131564311E+01
 0.21162008218E+01 0.21131784170E+01 0.21062335085E+01 0.21011255789E+01 0.21054823344E+01
 0.21268194280E+01 0.21709754659E+01 0.22410680473E+01 0.23367128583E+01 0.24533138689E+01
 0.25815845794E+01 0.27078087390E+01 0.28154283423E+01 0.28881428969E+01 0.29138696674E+01
 0.28881382727E+01 0.28154284883E+01 0.27078216734E+01 0.31373885688E+01 0.29015618036E+01
 0.26849518828E+01 0.24991833917E+01 0.23496033925E+01 0.22366628548E+01 0.21573055188E+01
 0.21062071465E+01 0.20770778492E+01 0.20642328561E+01 0.20642529651E+01 0.20771250647E+01
 0.21062619090E+01 0.21573649444E+01 0.22367255038E+01 0.23496446799E+01 0.24991720638E+01
 0.26848898177E+01 0.29014877566E+01 0.31373388572E+01 0.33738258838E+01 0.35864353823E+01
 0.37483397965E+01 0.38361582789E+01 0.38361611978E+01 0.37483457622E+01 0.35864431824E+01
 0.33738466310E+01 0.37430415568E+01 0.33689548386E+01 0.30312374467E+01 0.27431341113E+01
 0.25096132149E+01 0.23298978198E+01 0.21997214178E+01 0.21131564311E+01 0.20642328561E+01
 0.20484951932E+01 0.20642782312E+01 0.21132295388E+01 0.21998050163E+01 0.23299728263E+01
 0.25096422746E+01 0.27430792923E+01 0.30311080772E+01 0.33688154324E+01 0.37429551075E+01
 0.41299578650E+01 0.44959794610E+01 0.48003902174E+01 0.50031340120E+01 0.50744120457E+01
 0.50031513537E+01 0.48004053281E+01 0.44959859707E+01 0.41299850566E+01 0.43497748038E+01
 0.38120154411E+01 0.33395335108E+01 0.29450046883E+01 0.26307081867E+01 0.23925830460E+01
 0.22235886384E+01 0.21162008218E+01 0.20642529651E+01 0.20642782312E+01 0.21162699814E+01
 0.22236834543E+01 0.23926703758E+01 0.26307351234E+01 0.29449234686E+01 0.33393526916E+01
 0.38118131146E+01 0.43496383089E+01 0.49258656731E+01 0.54974725986E+01 0.60078219954E+01
 0.63948432413E+01 0.66043128583E+01 0.66043212105E+01 0.63948563980E+01 0.60078221386E+01
 0.54974710630E+01 0.49259120376E+01 0.48940130082E+01 0.41800094138E+01 0.35721274848E+01
 0.30786653228E+01 0.26960414131E+01 0.24146963122E+01 0.22235931850E+01 0.21131784170E+01
 0.20771250647E+01 0.21132295388E+01 0.22236834543E+01 0.24147908718E+01 0.26960778137E+01
 0.30785822793E+01 0.35719215931E+01 0.41797590715E+01 0.48938256698E+01 0.56876007458E+01
 0.65117304645E+01 0.72939828348E+01 0.79466114051E+01 0.83823017191E+01 0.85356515938E+01
 0.83822862523E+01 0.79465772391E+01 0.72939380315E+01 0.65117137598E+01 0.56876723384E+01
 0.53073789447E+01 0.44244780083E+01 0.36974452686E+01 0.31254701224E+01 0.26960369528E+01
 0.23925806401E+01 0.21997290956E+01 0.21062335085E+01 0.21062619090E+01 0.21998050163E+01
 0.23926703758E+01 0.26960778137E+01 0.31253942687E+01 0.36972346421E+01 0.44242009544E+01
 0.53071557596E+01 0.63260510414E+01 0.74315387044E+01 0.85406239486E+01 0.95405357775E+01
 0.10304647855E+02 0.10720254809E+02 0.10720238957E+02 0.10304596261E+02 0.95404470687E+01
 0.85405245852E+01 0.74314958992E+01 0.63261368909E+01 0.55311399915E+01 0.45102568370E+01
 0.36974407251E+01 0.30786548381E+01 0.26306977069E+01 0.23298931479E+01 0.21573073224E+01
 0.21011255789E+01 0.21573649444E+01 0.23299728263E+01 0.26307351234E+01 0.30785822793E+01
 0.36972346421E+01 0.45099758534E+01 0.55309070882E+01 0.67532778538E+01 0.81369311296E+01
 0.95981578424E+01 0.11006886997E+02 0.12197885321E+02 0.13000838580E+02 0.13284958994E+02
 0.13000852793E+02 0.12197860988E+02 0.11006783745E+02 0.95980130709E+01 0.81368524098E+01
 0.67533577681E+01 0.55311269168E+01 0.44244699755E+01 0.35721171386E+01 0.29449898022E+01
 0.25096056935E+01 0.22366581182E+01 0.21054510781E+01 0.21054823344E+01 0.22367255038E+01
 0.25096422746E+01 0.29449234686E+01 0.35719215931E+01 0.44242009544E+01 0.55309070882E+01
 0.69037972066E+01 0.85213325520E+01 0.10312569330E+02 0.12145458067E+02 0.13827923449E+02
 0.15132595279E+02 0.15849112459E+02 0.15849182115E+02 0.15132732465E+02 0.13827983517E+02
 0.12145364187E+02 0.10312387798E+02 0.85212155456E+01 0.69038548821E+01 0.53073578012E+01
 0.41800071300E+01 0.33395247541E+01 0.27431285423E+01 0.23496094497E+01 0.21267748953E+01
 0.20547380895E+01 0.21268194280E+01 0.23496446799E+01 0.27430792923E+01 0.33393526916E+01
 0.41797590715E+01 0.53071557596E+01 0.67532778538E+01 0.85213325520E+01 0.10565590299E+02
 0.12771165335E+02 0.14941722029E+02 0.16810093307E+02 0.18086693128E+02 0.18541655986E+02
 0.18086901345E+02 0.16810344557E+02 0.14941826536E+02 0.12771060711E+02 0.10565378585E+02
 0.85211886259E+01 0.67533158246E+01 0.48940106801E+01 0.38120245605E+01 0.30312396871E+01
 0.24992021516E+01 0.21709528458E+01 0.20148687731E+01 0.20148844654E+01 0.21709754659E+01
 0.24991720638E+01 0.30311080772E+01 0.38118131146E+01 0.48938256698E+01 0.63260510414E+01
 0.81369311296E+01 0.10312569330E+02 0.12771165335E+02 0.15338640797E+02 0.17740155247E+02
 0.19629720886E+02 0.20673584504E+02 0.20673702815E+02 0.19629994720E+02 0.17740400989E+02
 0.15338704178E+02 0.12771025437E+02 0.10312343545E+02 0.81367872903E+01 0.63260880847E+01
 0.43497901842E+01 0.33689696052E+01 0.26849760382E+01 0.22410888226E+01 0.19930733924E+01
 0.19134830021E+01 0.19930781248E+01 0.22410680473E+01 0.26848898177E+01 0.33688154324E+01
 0.43496383089E+01 0.56876007458E+01 0.74315387044E+01 0.95981578424E+01 0.12145458067E+02
 0.14941722029E+02 0.17740155247E+02 0.20181174665E+02 0.21854418146E+02 0.22450022248E+02
 0.21854572699E+02 0.20181388490E+02 0.17740295431E+02 0.14941699554E+02 0.12145285577E+02
 0.95979448474E+01 0.74314217772E+01 0.56876435571E+01 0.37430576389E+01 0.29015849773E+01
 0.23367680354E+01 0.19931000191E+01 0.18312952249E+01 0.18312911995E+01 0.19930798758E+01
 0.23367128583E+01 0.29014877566E+01 0.37429551075E+01 0.49258656731E+01 0.65117304645E+01
 0.85406239486E+01 0.11006886997E+02 0.13827923449E+02 0.16810093307E+02 0.19629720886E+02
 0.21854418146E+02 0.23082974826E+02 0.23083015013E+02 0.21854511529E+02 0.19629803742E+02
 0.16810100475E+02 0.13827824928E+02 0.11006710251E+02 0.85404497209E+01 0.65116470035E+01
 0.49259000913E+01 0.31374082774E+01 0.24533817089E+01 0.20149305391E+01 0.17725056882E+01
 0.16951701698E+01 0.17724866187E+01 0.20148871643E+01 0.24533138689E+01 0.31373388572E+01
 0.41299578650E+01 0.54974725986E+01 0.72939828348E+01 0.95405357775E+01 0.12197885321E+02
 0.15132595279E+02 0.18086693128E+02 0.20673584504E+02 0.22450022248E+02 0.23083015013E+02
 0.22450006290E+02 0.20673544769E+02 0.18086626228E+02 0.15132501386E+02 0.12197764018E+02
 0.95403956730E+01 0.72938613793E+01 0.54974177821E+01 0.41299823281E+01 0.25816522554E+01
 0.20547988955E+01 0.17371108536E+01 0.15885184810E+01 0.15885072740E+01 0.17370752419E+01
 0.20547390410E+01 0.25815845794E+01 0.33738258838E+01 0.44959794610E+01 0.60078219954E+01
 0.79466114051E+01 0.10304647855E+02 0.13000838580E+02 0.15849112459E+02 0.18541655986E+02
 0.20673702815E+02 0.21854572699E+02 0.21854511529E+02 0.20673544769E+02 0.18541466189E+02
 0.15848955789E+02 0.13000735915E+02 0.10304570587E+02 0.79465308829E+01 0.60077538988E+01
 0.44959606960E+01 0.33738652721E+01 0.21055207439E+01 0.17217084078E+01 0.15105660646E+01
 0.14434028871E+01 0.15105469418E+01 0.17216638909E+01 0.21054523920E+01 0.27078087390E+01
 0.35864353823E+01 0.48003902174E+01 0.63948432413E+01 0.83823017191E+01 0.10720254809E+02
 0.13284958994E+02 0.15849182115E+02 0.18086901345E+02 0.19629994720E+02 0.20181388490E+02
 0.19629803742E+02 0.18086626228E+02 0.15848955789E+02 0.13284845917E+02 0.10720222104E+02
 0.83822796427E+01 0.63948083829E+01 0.48003738197E+01 0.35864671220E+01 0.27078769838E+01
 0.17205301515E+01 0.14575807854E+01 0.13347301850E+01 0.13347285911E+01 0.14575668207E+01
 0.17204862479E+01 0.21573109360E+01 0.28154283423E+01 0.37483397965E+01 0.50031340120E+01
 0.66043128583E+01 0.85356515938E+01 0.10720238957E+02 0.13000852793E+02 0.15132732465E+02
 0.16810344557E+02 0.17740400989E+02 0.17740295431E+02 0.16810100475E+02 0.15132501386E+02
 0.13000735915E+02 0.10720222104E+02 0.85356581036E+01 0.66043024521E+01 0.50031312027E+01
 0.37483802191E+01 0.28155062279E+01 0.21573865676E+01 0.14244339161E+01 0.12577303665E+01
 0.12046221566E+01 0.12577429847E+01 0.14244305801E+01 0.17266358447E+01 0.21997319290E+01
 0.28881428969E+01 0.38361582789E+01 0.50744120457E+01 0.66043212105E+01 0.83822862523E+01
 0.10304596261E+02 0.12197860988E+02 0.13827983517E+02 0.14941826536E+02 0.15338704178E+02
 0.14941699554E+02 0.13827824928E+02 0.12197764018E+02 0.10304570587E+02 0.83822796427E+01
 0.66043024521E+01 0.50744070129E+01 0.38362056922E+01 0.28882380841E+01 0.21998263138E+01
 0.17266857742E+01 0.12072234146E+01 0.11138500343E+01 0.11138673110E+01 0.12072526086E+01
 0.14059168293E+01 0.17335231520E+01 0.22235923700E+01 0.29138696674E+01 0.38361611978E+01
 0.50031513537E+01 0.63948563980E+01 0.79465772391E+01 0.95404470687E+01 0.11006783745E+02
 0.12145364187E+02 0.12771060711E+02 0.12771025437E+02 0.12145285577E+02 0.11006710251E+02
 0.95403956730E+01 0.79465308829E+01 0.63948083829E+01 0.50031312027E+01 0.38362056922E+01
 0.29139764271E+01 0.22237112269E+01 0.17335959000E+01 0.14059238125E+01 0.10566980623E+01
 0.10175373636E+01 0.10567365836E+01 0.11788694615E+01 0.13978236190E+01 0.17363919206E+01
 0.22235866752E+01 0.28881382727E+01 0.37483457622E+01 0.48004053281E+01 0.60078221386E+01
 0.72939380315E+01 0.85405245852E+01 0.95980130709E+01 0.10312387798E+02 0.10565378585E+02
 0.10312343545E+02 0.95979448474E+01 0.85404497209E+01 0.72938613793E+01 0.60077538988E+01
 0.48003738197E+01 0.37483802191E+01 0.28882380841E+01 0.22237112269E+01 0.17364839097E+01
 0.13978476122E+01 0.11788373729E+01 0.96228893501E+00 0.96231207230E+00 0.10291825505E+01
 0.11697300312E+01 0.13978133757E+01 0.17335081210E+01 0.21997211509E+01 0.28154284883E+01
 0.35864431824E+01 0.44959859707E+01 0.54974710630E+01 0.65117137598E+01 0.74314958992E+01
 0.81368524098E+01 0.85212155456E+01 0.85211886259E+01 0.81367872903E+01 0.74314217772E+01
 0.65116470035E+01 0.54974177821E+01 0.44959606960E+01 0.35864671220E+01 0.28155062279E+01
 0.21998263138E+01 0.17335959000E+01 0.13978476122E+01 0.11697069019E+01 0.10291356357E+01
 0.91682692594E+00 0.94431799232E+00 0.10291733508E+01 0.11788490586E+01 0.14058896711E+01
 0.17266122874E+01 0.21573049570E+01 0.27078216734E+01 0.33738466310E+01 0.41299850566E+01
 0.49259120376E+01 0.56876723384E+01 0.63261368909E+01 0.67533577681E+01 0.69038548821E+01
 0.67533158246E+01 0.63260880847E+01 0.56876435571E+01 0.49259000913E+01 0.41299823281E+01
 0.33738652721E+01 0.27078769838E+01 0.21573865676E+01 0.17266857742E+01 0.14059238125E+01
 0.11788373729E+01 0.10291356357E+01 0.94428679492E+00 0.10000019142E+01 0.10567200639E+01
 0.11558478955E+01 0.13041946108E+01 0.15104396666E+01 0.17830621491E+01 0.21267767752E+01
 0.25379457334E+01 0.30002627386E+01 0.34824979294E+01 0.39399071118E+01 0.43200967355E+01
 0.45728302994E+01 0.46615438048E+01 0.45728252126E+01 0.43200986595E+01 0.39399241513E+01
 0.34825300020E+01 0.30003113019E+01 0.25380110576E+01 0.21268422922E+01 0.17830984680E+01
 0.15104332696E+01 0.13041637201E+01 0.11558226029E+01 0.10567133429E+01 0.10000049560E+01
 0.98155391107E+00 0.10567200639E+01 0.11138625715E+01 0.12046411425E+01 0.13347591815E+01
 0.15105732243E+01 0.17370777011E+01 0.20148721398E+01 0.23367164935E+01 0.26849500437E+01
 0.30312362127E+01 0.33395326261E+01 0.35721274502E+01 0.36974468812E+01 0.36974434820E+01
 0.35721196698E+01 0.33395266242E+01 0.30312412759E+01 0.26849769953E+01 0.23367675064E+01
 0.20149287063E+01 0.17371086937E+01 0.15105638327E+01 0.13347276689E+01 0.12046200910E+01
 0.11138668679E+01 0.10567376421E+01 0.10291839938E+01 0.10291748138E+01 0.11558478955E+01
 0.12046411425E+01 0.12788300804E+01 0.13834180748E+01 0.15231237282E+01 0.17004994114E+01