    2    2   15    1
  0.2001288E+02  0.3839590E-09  0.3839590E-09  0.3839590E-09  0.5000000E-15
  1.000000000000000E-004
  CAR 
 unknown system                          
      8     56      8
 
  0.0000000E+00  0.0000000E+00  0.0000000E+00  0.7513148E-03
    1       -6.132061   1.000000
    2        5.853178   0.975690
    3        5.853204   0.975679
    4        5.853204   0.975679
    5        8.425100   0.000000
    6        8.425107   0.000000
    7        8.425107   0.000000
    8        9.204146   0.000000
 
  0.9090909E-01 -0.1591537E-17  0.3465480E-17  0.6010518E-02
    1       -6.023799   1.000000
    2        4.860662   1.000000
    3        5.682845   0.999254
    4        5.682866   0.999254
    5        8.452990   0.000000
    6        8.673791   0.000000
    7        8.673803   0.000000
    8        9.988534   0.000000
 
  0.1818182E+00 -0.3183074E-17  0.6930960E-17  0.6010518E-02
    1       -5.703111   1.000000
    2        3.171825   1.000000
    3        5.337747   1.000000
    4        5.337772   1.000000
    5        8.150602   0.000000
    6        9.152040   0.000000
    7        9.152070   0.000000
    8       11.576809   0.000000
 
  0.2727273E+00  0.1406449E-16  0.1931292E-16  0.6010518E-02
    1       -5.186023   1.000000
    2        1.506693   1.000000
    3        5.011125   1.000000
    4        5.011152   1.000000
    5        7.804461   0.000000
    6        9.408172   0.000000
    7        9.408223   0.000000
    8       13.129708   0.000000
 
  0.3636364E+00 -0.6366148E-17  0.1386192E-16  0.6010518E-02
    1       -4.523922   1.000000
    2        0.045943   1.000000
    3        4.777379   1.000000
    4        4.777411   1.000000
    5        7.546827   0.000000
    6        9.350060   0.000000
    7        9.350117   0.000000
    8       13.745431   0.000000
 
  0.4545455E+00  0.9587941E-18  0.8410920E-17  0.6010518E-02
    1       -3.910587   1.000000
    2       -0.974516   1.000000
    3        4.655807   1.000000
    4        4.655848   1.000000
    5        7.410095   0.000000
    6        9.231936   0.000000
    7        9.232021   0.000000
    8       13.603239   0.000000
 
  0.9090909E-01  0.9090909E-01  0.7557855E-17  0.4507889E-02
    1       -5.987466   1.000000
    2        5.046801   1.000000
    3        5.353570   1.000000
    4        5.353586   1.000000
    5        8.103439   0.000000
    6        9.102013   0.000000
    7        9.102020   0.000000
    8        9.933836   0.000000
 
  0.1818182E+00  0.9090909E-01  0.7213366E-17  0.1803156E-01
    1       -5.736748   1.000000
    2        3.678151   1.000000
    3        4.952747   1.000000
    4        5.140318   1.000000
    5        8.142105   0.000000
    6        9.171268   0.000000
    7        9.700514   0.000000
    8       10.843657   0.000000
 
  0.2727273E+00  0.9090909E-01  0.5717536E-17  0.1803156E-01
    1       -5.282650   1.000000
    2        2.046355   1.000000
    3        4.631402   1.000000
    4        4.764313   1.000000
    5        8.276050   0.000000
    6        9.160624   0.000000
    7       10.059801   0.000000
    8       11.250389   0.000000
 
  0.3636364E+00  0.9090909E-01  0.2306080E-16  0.1803156E-01
    1       -4.659243   1.000000
    2        0.532040   1.000000
    3        4.377952   1.000000
    4        4.440833   1.000000
    5        8.127444   0.000000
    6        9.193000   0.000000
    7        9.987032   0.000000
    8       12.027886   0.000000
 
  0.4545455E+00  0.9090909E-01  0.7687187E-17  0.1803156E-01
    1       -3.986815   1.000000
    2       -0.666331   1.000000
    3        4.077472   1.000000
    4        4.399528   1.000000
    5        7.989662   0.000000
    6        9.150706   0.000000
    7        9.753399   0.000000
    8       13.271701   0.000000
 
 -0.4545455E+00  0.9090909E-01 -0.2682883E-16  0.1803156E-01
    1       -3.715314   1.000000
    2       -1.069979   1.000000
    3        3.898233   1.000000
    4        4.502303   1.000000
    5        7.965644   0.000000
    6        9.204912   0.000000
    7        9.565630   0.000000
    8       13.938725   0.000000
 
 -0.3636364E+00  0.9090909E-01 -0.4663035E-17  0.1803156E-01
    1       -4.201409   1.000000
    2       -0.317258   1.000000
    3        3.861225   1.000000
    4        4.732325   1.000000
    5        8.068888   0.000000
    6        9.400453   0.000000
    7        9.486006   0.000000
    8       13.651847   0.000000
 
 -0.2727273E+00  0.9090909E-01 -0.1011403E-16  0.1803156E-01
    1       -4.883204   1.000000
    2        1.016886   1.000000
    3        3.983034   1.000000
    4        5.060351   1.000000
    5        8.286215   0.000000
    6        9.416983   0.000000
    7        9.617329   0.000000
    8       12.611751   0.000000
 
 -0.1818182E+00  0.9090909E-01 -0.6648554E-17  0.1803156E-01
    1       -5.456393   1.000000
    2        2.574196   1.000000
    3        4.282591   1.000000
    4        5.428639   1.000000
    5        8.583940   0.000000
    6        9.129145   0.000000
    7        9.493829   0.000000
    8       11.725934   0.000000
 
 -0.9090909E-01  0.9090909E-01 -0.3183074E-17  0.9015778E-02
    1       -5.844346   1.000000
    2        4.055323   1.000000
    3        4.850154   1.000000
    4        5.707190   0.998669
    5        8.723707   0.000000
    6        8.815649   0.000000
    7        8.896912   0.000000
    8       10.858083   0.000000
 
  0.1818182E+00  0.1818182E+00  0.1511571E-16  0.4507889E-02
    1       -5.556286   1.000000
    2        3.542257   1.000000
    3        4.514875   1.000000
    4        4.514891   1.000000
    5        7.451909   0.000000
    6       10.008920   0.000000
    7       10.465059   0.000000
    8       10.465067   0.000000
 
  0.2727273E+00  0.1818182E+00  0.6503012E-17  0.1803156E-01
    1       -5.168555   1.000000
    2        2.371527   1.000000
    3        4.095337   1.000000
    4        4.168302   1.000000
    5        7.507967   0.000000
    6        9.579841   0.000000
    7       10.761912   0.000000
    8       11.063055   0.000000
 
  0.3636364E+00  0.1818182E+00  0.1442673E-16  0.1803156E-01
    1       -4.596019   1.000000
    2        0.990685   1.000000
    3        3.561990   1.000000
    4        3.970142   1.000000
    5        7.747849   0.000000
    6        9.946184   0.000000
    7       10.563131   0.000000
    8       11.142294   0.000000
 
  0.4545455E+00  0.1818182E+00  0.2680869E-16  0.1803156E-01
    1       -3.913492   1.000000
    2       -0.254406   1.000000
    3        3.081642   1.000000
    4        3.936956   1.000000
    5        7.785673   0.000000
    6       10.334062   0.000000
    7       10.882796   0.000000
    8       11.168546   0.000000
 
 -0.4545455E+00  0.1818182E+00  0.1012563E-16  0.1803156E-01
    1       -3.428036   1.000000
    2       -0.968547   1.000000
    3        2.743922   1.000000
    4        4.069423   1.000000
    5        7.888591   0.000000
    6       10.202039   0.000000
    7       10.588265   0.000000
    8       12.813012   0.000000
 
 -0.3636364E+00  0.1818182E+00 -0.1329711E-16  0.1803156E-01
    1       -3.715066   1.000000
    2       -0.554465   1.000000
    3        2.588633   1.000000
    4        4.350007   1.000000
    5        8.146648   0.000000
    6       10.190409   0.000000
    7       10.360490   0.000000
    8       13.642524   0.000000
 
 -0.2727273E+00  0.1818182E+00 -0.9151488E-18  0.1803156E-01
    1       -4.389395   1.000000
    2        0.569218   1.000000
    3        2.668419   1.000000
    4        4.740682   1.000000
    5        8.521114   0.000000
    6       10.112101   0.000000
    7       10.240899   0.000000
    8       12.238686   0.000000
 
 -0.1818182E+00  0.1818182E+00 -0.6366148E-17  0.9015778E-02
    1       -5.007820   1.000000
    2        1.766422   1.000000
    3        3.151345   1.000000
    4        5.158045   1.000000
    5        8.856865   0.000000
    6        9.617676   0.000000
    7        9.927182   0.000000
    8       11.551016   0.000000
 
  0.2727273E+00  0.2727273E+00  0.2267357E-16  0.4507889E-02
    1       -4.846771   1.000000
    2        1.913341   1.000000
    3        3.787232   1.000000
    4        3.787249   1.000000
    5        6.858945   0.000000
    6        8.670859   0.000000
    7       12.055228   0.000000
    8       12.055235   0.000000
 
  0.3636364E+00  0.2727273E+00  0.2858693E-16  0.1803156E-01
    1       -4.332197   1.000000
    2        0.952885   1.000000
    3        3.246065   1.000000
    4        3.553994   1.000000
    5        6.992845   0.000000
    6        8.378121   0.000000
    7       12.351339   0.000000
    8       12.524858   0.000000
 
  0.4545455E+00  0.2727273E+00  0.1817462E-16  0.1803156E-01
    1       -3.670423   1.000000
    2       -0.082265   1.000000
    3        2.515369   1.000000
    4        3.492017   1.000000
    5        7.193546   0.000000
    6        9.142294   0.000000
    7       12.188331   0.000000
    8       12.384546   0.000000
 
 -0.4545455E+00  0.2727273E+00  0.1141417E-16  0.1803156E-01
    1       -3.053088   1.000000
    2       -0.889792   1.000000
    3        1.939981   1.000000
    4        3.605758   1.000000
    5        7.329243   0.000000
    6       10.634832   0.000000
    7       12.017890   0.000000
    8       12.051313   0.000000
 
 -0.3636364E+00  0.2727273E+00  0.5824396E-17  0.1803156E-01
    1       -3.109112   1.000000
    2       -0.809915   1.000000
    3        1.652766   1.000000
    4        3.882989   1.000000
    5        7.622818   0.000000
    6       11.693407   0.000000
    7       11.725099   0.000000
    8       12.628198   0.000000
 
 -0.2727273E+00  0.2727273E+00 -0.2738218E-16  0.9015778E-02
    1       -3.746493   1.000000
    2       -0.046195   1.000000
    3        1.813209   1.000000
    4        4.288282   1.000000
    5        8.073938   0.000000
    6       11.086477   0.000000
    7       11.450389   0.000000
    8       12.299858   0.000000
 
  0.3636364E+00  0.3636364E+00  0.3023142E-16  0.4507889E-02
    1       -3.875045   1.000000
    2        0.288937   1.000000
    3        3.275827   1.000000
    4        3.275851   1.000000
    5        6.496323   0.005000
    6        7.521753   0.000000
    7       13.743403   0.000000
    8       13.743405   0.000000
 
  0.4545455E+00  0.3636364E+00  0.3729612E-16  0.1803156E-01
    1       -3.251213   1.000000
    2       -0.528255   1.000000
    3        2.738310   1.000000
    4        3.170222   1.000000
    5        6.707013   0.000024
    6        7.541020   0.000000
    7       14.072353   0.000000
    8       14.073342   0.000000
 
 -0.4545455E+00  0.3636364E+00 -0.2497548E-16  0.1803156E-01
    1       -2.574076   1.000000
    2       -1.248607   1.000000
    3        1.954024   1.000000
    4        3.244001   1.000000
    5        6.876226   0.000000
    6        8.737190   0.000000
    7       13.772299   0.000000
    8       13.933317   0.000000
 
 -0.3636364E+00  0.3636364E+00 -0.1273230E-16  0.9015778E-02
    1       -2.507580   1.000000
    2       -1.281991   1.000000
    3        1.465795   1.000000
    4        3.491495   1.000000
    5        7.161655   0.000000
    6       10.474308   0.000000
    7       13.086588   0.000000
    8       13.645389   0.000000
 
  0.4545455E+00  0.4545455E+00  0.3778928E-16  0.4507889E-02
    1       -2.666073   1.000000
    2       -1.260019   1.000000
    3        3.015614   1.000000
    4        3.015637   1.000000
    5        6.454271   0.011349
    6        6.781864   0.000002
    7       15.449492   0.000000
    8       15.449499   0.000000
 
 -0.4545455E+00  0.4545455E+00 -0.2569921E-16  0.9015778E-02
    1       -2.017577   1.000000
    2       -1.906324   1.000000
    3        2.571614   1.000000
    4        3.040943   1.000000
    5        6.636194   0.000182
    6        7.232786   0.000000
    7       15.363504   0.000000
    8       15.607736   0.000000
 
  0.2727273E+00  0.1818182E+00  0.9090909E-01  0.1803156E-01
    1       -5.418075   1.000000
    2        2.815580   1.000000
    3        4.002642   1.000000
    4        5.023206   1.000000
    5        8.199985   0.000000
    6        9.499378   0.000000
    7       10.259102   0.000000
    8       10.663941   0.000000
 
  0.3636364E+00  0.1818182E+00  0.9090909E-01  0.3606311E-01
    1       -4.903877   1.000000
    2        1.488516   1.000000
    3        3.438857   1.000000
    4        4.700971   1.000000
    5        8.520892   0.000000
    6        9.444760   0.000000
    7       10.584728   0.000000
    8       10.791881   0.000000
 
  0.4545455E+00  0.1818182E+00  0.9090909E-01  0.3606311E-01
    1       -4.243336   1.000000
    2        0.138287   1.000000
    3        3.182653   1.000000
    4        4.352066   1.000000
    5        8.560506   0.000000
    6        9.226761   0.000000
    7       10.689827   0.000000
    8       11.637843   0.000000
 
 -0.4545455E+00  0.1818182E+00  0.9090909E-01  0.3606311E-01
    1       -3.625648   1.000000
    2       -0.848690   1.000000
    3        3.084385   1.000000
    4        4.139892   1.000000
    5        8.544565   0.000000
    6        9.018864   0.000000
    7       10.625267   0.000000
    8       13.119750   0.000000
 
  0.3636364E+00  0.2727273E+00  0.9090909E-01  0.1803156E-01
    1       -4.718450   1.000000
    2        1.524123   1.000000
    3        3.281973   1.000000
    4        4.005433   1.000000
    5        7.634858   0.000000
    6        9.175741   0.000000
    7       10.881769   0.000000
    8       11.937658   0.000000
 
  0.4545455E+00  0.2727273E+00  0.9090909E-01  0.3606311E-01
    1       -4.098843   1.000000
    2        0.438518   1.000000
    3        2.705563   1.000000
    4        3.688906   1.000000
    5        7.998792   0.000000
    6        9.595855   0.000000
    7       10.561314   0.000000
    8       12.332869   0.000000
 
 -0.4545455E+00  0.2727273E+00  0.9090909E-01  0.3606311E-01
    1       -3.422870   1.000000
    2       -0.577533   1.000000
    3        2.320054   1.000000
    4        3.532171   1.000000
    5        8.134966   0.000000
    6       10.152854   0.000000
    7       10.982853   0.000000
    8       12.286535   0.000000
 
 -0.3636364E+00  0.2727273E+00  0.9090909E-01  0.3606311E-01
    1       -3.154349   1.000000
    2       -0.929490   1.000000
    3        2.088806   1.000000
    4        3.622604   1.000000
    5        8.348194   0.000000
    6        9.887525   0.000000
    7       12.169550   0.000000
    8       12.682378   0.000000
 
 -0.2727273E+00  0.2727273E+00  0.9090909E-01  0.3606311E-01
    1       -3.663559   1.000000
    2       -0.235340   1.000000
    3        2.076035   1.000000
    4        3.920761   1.000000
    5        8.714872   0.000000
    6        9.693258   0.000000
    7       11.442575   0.000000
    8       12.097328   0.000000
 
 -0.1818182E+00  0.2727273E+00  0.9090909E-01  0.1803156E-01
    1       -4.341520   1.000000
    2        0.751932   1.000000
    3        2.453534   1.000000
    4        4.340209   1.000000
    5        9.163624   0.000000
    6        9.273416   0.000000
    7       10.543236   0.000000
    8       11.642198   0.000000
 
  0.4545455E+00  0.3636364E+00  0.9090909E-01  0.1803156E-01
    1       -3.765008   1.000000
    2        0.151365   1.000000
    3        2.803686   1.000000
    4        3.197176   1.000000
    5        7.275082   0.000000
    6        8.131649   0.000000
    7       12.273643   0.000000
    8       13.707669   0.000000
 
 -0.4545455E+00  0.3636364E+00  0.9090909E-01  0.3606311E-01
    1       -3.081674   1.000000
    2       -0.674461   1.000000
    3        2.156829   1.000000
    4        3.017732   1.000000
    5        7.623703   0.000000
    6        8.960195   0.000000
    7       11.915432   0.000000
    8       14.072696   0.000000
 
 -0.3636364E+00  0.3636364E+00  0.9090909E-01  0.3606311E-01
    1       -2.609494   1.000000
    2       -1.176991   1.000000
    3        1.631509   1.000000
    4        3.134774   1.000000
    5        7.836967   0.000000
    6       10.541204   0.000000
    7       11.607152   0.000000
    8       13.223093   0.000000
 
 -0.2727273E+00  0.3636364E+00  0.9090909E-01  0.1803156E-01
    1       -2.997507   1.000000
    2       -0.775061   1.000000
    3        1.526374   1.000000
    4        3.461145   1.000000
    5        8.214286   0.000000
    6       10.968130   0.000000
    7       11.712551   0.000000
    8       12.607850   0.000000
 
 -0.4545455E+00  0.4545455E+00  0.9090909E-01  0.1803156E-01
    1       -2.591877   1.000000
    2       -1.256175   1.000000
    3        2.610639   1.000000
    4        2.732544   1.000000
    5        7.205122   0.000000
    6        7.477534   0.000000
    7       13.824646   0.000000
    8       15.249099   0.000000
 
 -0.3636364E+00  0.4545455E+00  0.9090909E-01  0.1803156E-01
    1       -2.083618   1.000000
    2       -1.705664   1.000000
    3        1.944725   1.000000
    4        2.805730   1.000000
    5        7.485732   0.000000
    6        8.748859   0.000000
    7       13.359309   0.000000
    8       13.588308   0.000000
 
 -0.4545455E+00  0.3636364E+00  0.1818182E+00  0.1803156E-01
    1       -3.452664   1.000000
    2       -0.244909   1.000000
    3        2.042404   1.000000
    4        3.220116   1.000000
    5        8.949962   0.000000
    6        9.594731   0.000000
    7       10.190107   0.000000
    8       13.603242   0.000000
 
 -0.3636364E+00  0.3636364E+00  0.1818182E+00  0.3606311E-01
    1       -2.814889   1.000000
    2       -0.949466   1.000000
    3        1.760259   1.000000
    4        2.897559   1.000000
    5        9.321276   0.000000
    6        9.692180   0.000000
    7       10.973326   0.000000
    8       12.859113   0.000000
 
 -0.3636364E+00  0.4545455E+00  0.1818182E+00  0.1803156E-01
    1       -2.403959   1.000000
    2       -1.299198   1.000000
    3        1.991031   1.000000
    4        2.374682   1.000000
    5        8.865151   0.000000
    6        9.074524   0.000000
    7       11.499067   0.000000
    8       13.105989   0.000000
 
 -0.2727273E+00  0.4545455E+00  0.1818182E+00  0.1803156E-01
    1       -2.202496   1.000000
    2       -1.465119   1.000000
    3        1.708509   1.000000
    4        2.411816   1.000000
    5        9.218601   0.000000
    6       10.504397   0.000000
    7       11.267821   0.000000
    8       11.270690   0.000000
