 running on    8 total cores
 distrk:  each k-point on    8 cores,    1 groups
 distr:  one band on    1 cores,    8 groups
 using from now: INCAR     
 vasp.5.4.4.18Apr17-6-g9f103f2a35 (build Dec 09 2018 21:25:21) complex          
  
 POSCAR found type information on POSCAR  Si
 POSCAR found :  1 types and       2 ions
 scaLAPACK will be used

 ----------------------------------------------------------------------------- 
|                                                                             |
|           W    W    AA    RRRRR   N    N  II  N    N   GGGG   !!!           |
|           W    W   A  A   R    R  NN   N  II  NN   N  G    G  !!!           |
|           W    W  A    A  R    R  N N  N  II  N N  N  G       !!!           |
|           W WW W  AAAAAA  RRRRR   N  N N  II  N  N N  G  GGG   !            |
|           WW  WW  A    A  R   R   N   NN  II  N   NN  G    G                |
|           W    W  A    A  R    R  N    N  II  N    N   GGGG   !!!           |
|                                                                             |
|      For optimal performance we recommend to set                            |
|        NCORE= 4 - approx SQRT( number of cores)                             |
|      NCORE specifies how many cores store one orbital (NPAR=cpu/NCORE).     |
|      This setting can  greatly improve the performance of VASP for DFT.     |
|      The default,   NCORE=1            might be grossly inefficient         |
|      on modern multi-core architectures or massively parallel machines.     |
|      Do your own testing !!!!                                               |
|      Unfortunately you need to use the default for GW and RPA calculations. |
|      (for HF NCORE is supported but not extensively tested yet)             |
|                                                                             |
 ----------------------------------------------------------------------------- 

 LDA part: xc-table for Pade appr. of Perdew
 POSCAR, INCAR and KPOINTS ok, starting setup
 FFT: planning ...
 WAVECAR not read
 entering main loop
       N       E                     dE             d eps       ncg     rms          rms(c)
DAV:   1    -0.205016562954E+01   -0.20502E+01   -0.21040E+03   944   0.378E+02
DAV:   2    -0.108934054213E+02   -0.88432E+01   -0.82896E+01  1392   0.539E+01
DAV:   3    -0.109765023058E+02   -0.83097E-01   -0.83097E-01  1128   0.633E+00
DAV:   4    -0.109767357411E+02   -0.23344E-03   -0.23344E-03  1416   0.341E-01
DAV:   5    -0.109767359580E+02   -0.21692E-06   -0.21695E-06  1120   0.608E-03    0.299E+00
DAV:   6    -0.108527118781E+02    0.12402E+00   -0.80482E-02  1040   0.147E+00    0.177E+00
DAV:   7    -0.107961206419E+02    0.56591E-01   -0.14809E-01  1128   0.212E+00    0.151E-01
DAV:   8    -0.107974061328E+02   -0.12855E-02   -0.36832E-03   960   0.439E-01    0.247E-02
DAV:   9    -0.107974987509E+02   -0.92618E-04   -0.89007E-05   712   0.745E-02
   1 F= -.10797499E+02 E0= -.10797441E+02  d E =-.107975E+02
 curvature:   0.00 expect dE= 0.000E+00 dE for cont linesearch  0.000E+00
 trial: gam= 0.00000 g(F)=  0.386E-43 g(S)=  0.000E+00 ort = 0.000E+00 (trialstep = 0.100E+01)
 search vector abs. value=  0.100E-09
 reached required accuracy - stopping structural energy minimisation
 writing wavefunctions
