   2   2   0   0
  0.2001288E+02  0.3839590E-09  0.3839590E-09  0.3839590E-09  0.5000000E-15
  1.000000000000000E-004
  CAR 
 unknown system                          
     17.41499040     -8.13137158  301      6.11477855      1.00000000
     -8.131  0.0000E+00  0.0000E+00
     -8.046  0.0000E+00  0.0000E+00
     -7.961  0.0000E+00  0.0000E+00
     -7.876  0.0000E+00  0.0000E+00
     -7.791  0.0000E+00  0.0000E+00
     -7.706  0.0000E+00  0.0000E+00
     -7.620  0.0000E+00  0.0000E+00
     -7.535  0.0000E+00  0.0000E+00
     -7.450  0.0000E+00  0.0000E+00
     -7.365  0.0000E+00  0.0000E+00
     -7.280  0.4769E-18  0.4061E-19
     -7.195  0.5890E-16  0.5056E-17
     -7.110  0.4918E-14  0.4238E-15
     -7.024  0.2871E-12  0.2487E-13
     -6.939  0.1174E-10  0.1025E-11
     -6.854  0.3374E-09  0.2975E-10
     -6.769  0.6826E-08  0.6111E-09
     -6.684  0.9784E-07  0.8943E-08
     -6.599  0.1004E-05  0.9440E-07
     -6.513  0.7495E-05  0.7326E-06
     -6.428  0.4188E-04  0.4299E-05
     -6.343  0.1812E-03  0.1973E-04
     -6.258  0.6245E-03  0.7291E-04
     -6.173  0.1724E-02  0.2198E-03
     -6.088  0.3759E-02  0.5398E-03
     -6.003  0.6384E-02  0.1083E-02
     -5.917  0.8645E-02  0.1820E-02
     -5.832  0.1025E-01  0.2692E-02
     -5.747  0.1234E-01  0.3743E-02
     -5.662  0.1581E-01  0.5089E-02
     -5.577  0.1933E-01  0.6735E-02
     -5.492  0.2018E-01  0.8454E-02
     -5.406  0.1793E-01  0.9980E-02
     -5.321  0.1611E-01  0.1135E-01
     -5.236  0.1861E-01  0.1294E-01
     -5.151  0.2467E-01  0.1504E-01
     -5.066  0.2960E-01  0.1756E-01
     -4.981  0.3054E-01  0.2016E-01
     -4.895  0.2926E-01  0.2265E-01
     -4.810  0.2820E-01  0.2505E-01
     -4.725  0.2703E-01  0.2735E-01
     -4.640  0.2507E-01  0.2949E-01
     -4.555  0.2485E-01  0.3160E-01
     -4.470  0.3021E-01  0.3418E-01
     -4.385  0.3983E-01  0.3757E-01
     -4.299  0.4653E-01  0.4153E-01
     -4.214  0.4627E-01  0.4547E-01
     -4.129  0.4339E-01  0.4917E-01
     -4.044  0.4249E-01  0.5278E-01
     -3.959  0.4172E-01  0.5634E-01
     -3.874  0.3928E-01  0.5968E-01
     -3.788  0.3959E-01  0.6305E-01
     -3.703  0.4792E-01  0.6713E-01
     -3.618  0.6116E-01  0.7234E-01
     -3.533  0.6883E-01  0.7820E-01
     -3.448  0.6488E-01  0.8373E-01
     -3.363  0.5527E-01  0.8843E-01
     -3.278  0.4856E-01  0.9257E-01
     -3.192  0.4392E-01  0.9631E-01
     -3.107  0.3692E-01  0.9945E-01
     -3.022  0.3135E-01  0.1021E+00
     -2.937  0.3423E-01  0.1050E+00
     -2.852  0.4365E-01  0.1088E+00
     -2.767  0.5006E-01  0.1130E+00
     -2.681  0.4723E-01  0.1170E+00
     -2.596  0.3738E-01  0.1202E+00
     -2.511  0.2716E-01  0.1225E+00
     -2.426  0.2106E-01  0.1243E+00
     -2.341  0.1883E-01  0.1259E+00
     -2.256  0.1869E-01  0.1275E+00
     -2.171  0.1943E-01  0.1292E+00
     -2.085  0.1947E-01  0.1308E+00
     -2.000  0.1767E-01  0.1323E+00
     -1.915  0.1471E-01  0.1336E+00
     -1.830  0.1204E-01  0.1346E+00
     -1.745  0.1086E-01  0.1355E+00
     -1.660  0.1177E-01  0.1365E+00
     -1.574  0.1361E-01  0.1377E+00
     -1.489  0.1456E-01  0.1389E+00
     -1.404  0.1588E-01  0.1403E+00
     -1.319  0.2207E-01  0.1422E+00
     -1.234  0.3618E-01  0.1453E+00
     -1.149  0.5620E-01  0.1500E+00
     -1.064  0.7488E-01  0.1564E+00
     -0.978  0.8325E-01  0.1635E+00
     -0.893  0.7810E-01  0.1702E+00
     -0.808  0.6609E-01  0.1758E+00
     -0.723  0.5678E-01  0.1806E+00
     -0.638  0.5340E-01  0.1852E+00
     -0.553  0.5285E-01  0.1897E+00
     -0.467  0.5135E-01  0.1940E+00
     -0.382  0.4824E-01  0.1982E+00
     -0.297  0.4532E-01  0.2020E+00
     -0.212  0.4345E-01  0.2057E+00
     -0.127  0.4167E-01  0.2093E+00
     -0.042  0.3885E-01  0.2126E+00
      0.043  0.3344E-01  0.2154E+00
      0.129  0.2455E-01  0.2175E+00
      0.214  0.1530E-01  0.2188E+00
      0.299  0.1178E-01  0.2198E+00
      0.384  0.1781E-01  0.2213E+00
      0.469  0.3047E-01  0.2239E+00
      0.554  0.4015E-01  0.2273E+00
      0.640  0.3868E-01  0.2306E+00
      0.725  0.2859E-01  0.2331E+00
      0.810  0.1901E-01  0.2347E+00
      0.895  0.1461E-01  0.2359E+00
      0.980  0.1403E-01  0.2371E+00
      1.065  0.1490E-01  0.2384E+00
      1.150  0.1550E-01  0.2397E+00
      1.236  0.1524E-01  0.2410E+00
      1.321  0.1599E-01  0.2424E+00
      1.406  0.2030E-01  0.2441E+00
      1.491  0.2916E-01  0.2466E+00
      1.576  0.4392E-01  0.2503E+00
      1.661  0.6459E-01  0.2558E+00
      1.747  0.8285E-01  0.2629E+00
      1.832  0.8690E-01  0.2703E+00
      1.917  0.7786E-01  0.2769E+00
      2.002  0.6865E-01  0.2828E+00
      2.087  0.6482E-01  0.2883E+00
      2.172  0.6091E-01  0.2935E+00
      2.257  0.5545E-01  0.2982E+00
      2.343  0.5411E-01  0.3028E+00
      2.428  0.5909E-01  0.3078E+00
      2.513  0.6819E-01  0.3136E+00
      2.598  0.8151E-01  0.3206E+00
      2.683  0.9768E-01  0.3289E+00
      2.768  0.1073E+00  0.3380E+00
      2.854  0.1022E+00  0.3467E+00
      2.939  0.8799E-01  0.3542E+00
      3.024  0.7812E-01  0.3609E+00
      3.109  0.7855E-01  0.3676E+00
      3.194  0.8420E-01  0.3747E+00
      3.279  0.8854E-01  0.3823E+00
      3.364  0.9071E-01  0.3900E+00
      3.450  0.9308E-01  0.3979E+00
      3.535  0.9616E-01  0.4061E+00
      3.620  0.9905E-01  0.4146E+00
      3.705  0.1022E+00  0.4233E+00
      3.790  0.1047E+00  0.4322E+00
      3.875  0.1007E+00  0.4407E+00
      3.961  0.8558E-01  0.4480E+00
      4.046  0.6719E-01  0.4537E+00
      4.131  0.6103E-01  0.4589E+00
      4.216  0.7115E-01  0.4650E+00
      4.301  0.8418E-01  0.4722E+00
      4.386  0.8578E-01  0.4795E+00
      4.472  0.7621E-01  0.4860E+00
      4.557  0.6716E-01  0.4917E+00
      4.642  0.6706E-01  0.4974E+00
      4.727  0.7148E-01  0.5035E+00
      4.812  0.6879E-01  0.5093E+00
      4.897  0.5460E-01  0.5140E+00
      4.982  0.3717E-01  0.5172E+00
      5.068  0.2744E-01  0.5195E+00
      5.153  0.2682E-01  0.5218E+00
      5.238  0.2732E-01  0.5241E+00
      5.323  0.2291E-01  0.5261E+00
      5.408  0.1630E-01  0.5274E+00
      5.493  0.1328E-01  0.5286E+00
      5.579  0.1433E-01  0.5298E+00
      5.664  0.1497E-01  0.5311E+00
      5.749  0.1227E-01  0.5321E+00
      5.834  0.7716E-02  0.5328E+00
      5.919  0.3945E-02  0.5331E+00
      6.004  0.1765E-02  0.5333E+00
      6.089  0.7678E-03  0.5333E+00
      6.175  0.6072E-03  0.5334E+00
      6.260  0.1284E-02  0.5335E+00
      6.345  0.2928E-02  0.5337E+00
      6.430  0.5520E-02  0.5342E+00
      6.515  0.8899E-02  0.5350E+00
      6.600  0.1296E-01  0.5361E+00
      6.686  0.1748E-01  0.5375E+00
      6.771  0.2168E-01  0.5394E+00
      6.856  0.2426E-01  0.5415E+00
      6.941  0.2449E-01  0.5435E+00
      7.026  0.2298E-01  0.5455E+00
      7.111  0.2138E-01  0.5473E+00
      7.196  0.2247E-01  0.5492E+00
      7.282  0.2898E-01  0.5517E+00
      7.367  0.4079E-01  0.5552E+00
      7.452  0.5374E-01  0.5598E+00
      7.537  0.6244E-01  0.5651E+00
      7.622  0.6510E-01  0.5706E+00
      7.707  0.6541E-01  0.5762E+00
      7.793  0.6946E-01  0.5821E+00
      7.878  0.8102E-01  0.5890E+00
      7.963  0.9836E-01  0.5974E+00
      8.048  0.1133E+00  0.6070E+00
      8.133  0.1158E+00  0.6169E+00
      8.218  0.1046E+00  0.6258E+00
      8.303  0.8792E-01  0.6333E+00
      8.389  0.7488E-01  0.6397E+00
      8.474  0.7098E-01  0.6457E+00
      8.559  0.7776E-01  0.6523E+00
      8.644  0.8919E-01  0.6599E+00
      8.729  0.9427E-01  0.6679E+00
      8.814  0.8893E-01  0.6755E+00
      8.900  0.7989E-01  0.6823E+00
      8.985  0.7498E-01  0.6887E+00
      9.070  0.7604E-01  0.6952E+00
      9.155  0.8346E-01  0.7023E+00
      9.240  0.9977E-01  0.7108E+00
      9.325  0.1226E+00  0.7212E+00
      9.410  0.1414E+00  0.7333E+00
      9.496  0.1469E+00  0.7458E+00
      9.581  0.1407E+00  0.7578E+00
      9.666  0.1303E+00  0.7689E+00
      9.751  0.1188E+00  0.7790E+00
      9.836  0.1040E+00  0.7878E+00
      9.921  0.8711E-01  0.7952E+00
     10.007  0.7387E-01  0.8015E+00
     10.092  0.6771E-01  0.8073E+00
     10.177  0.6723E-01  0.8130E+00
     10.262  0.6895E-01  0.8189E+00
     10.347  0.6944E-01  0.8248E+00
     10.432  0.6745E-01  0.8305E+00
     10.517  0.6620E-01  0.8362E+00
     10.603  0.7167E-01  0.8423E+00
     10.688  0.8617E-01  0.8496E+00
     10.773  0.1027E+00  0.8584E+00
     10.858  0.1084E+00  0.8676E+00
     10.943  0.9834E-01  0.8760E+00
     11.028  0.8456E-01  0.8832E+00
     11.114  0.8379E-01  0.8903E+00
     11.199  0.9682E-01  0.8986E+00
     11.284  0.1078E+00  0.9077E+00
     11.369  0.1022E+00  0.9164E+00
     11.454  0.8102E-01  0.9233E+00
     11.539  0.5817E-01  0.9283E+00
     11.624  0.4483E-01  0.9321E+00
     11.710  0.4182E-01  0.9357E+00
     11.795  0.4497E-01  0.9395E+00
     11.880  0.5058E-01  0.9438E+00
     11.965  0.5399E-01  0.9484E+00
     12.050  0.5123E-01  0.9528E+00
     12.135  0.4560E-01  0.9567E+00
     12.221  0.4556E-01  0.9605E+00
     12.306  0.5456E-01  0.9652E+00
     12.391  0.6694E-01  0.9709E+00
     12.476  0.7346E-01  0.9771E+00
     12.561  0.6980E-01  0.9831E+00
     12.646  0.6015E-01  0.9882E+00
     12.731  0.5191E-01  0.9926E+00
     12.817  0.4879E-01  0.9968E+00
     12.902  0.5161E-01  0.1001E+01
     12.987  0.6067E-01  0.1006E+01
     13.072  0.7177E-01  0.1012E+01
     13.157  0.7686E-01  0.1019E+01
     13.242  0.7399E-01  0.1025E+01
     13.328  0.6968E-01  0.1031E+01
     13.413  0.6744E-01  0.1037E+01
     13.498  0.6182E-01  0.1042E+01
     13.583  0.4809E-01  0.1046E+01
     13.668  0.3070E-01  0.1049E+01
     13.753  0.1735E-01  0.1050E+01
     13.838  0.1115E-01  0.1051E+01
     13.924  0.1073E-01  0.1052E+01
     14.009  0.1241E-01  0.1053E+01
     14.094  0.1216E-01  0.1054E+01
     14.179  0.8787E-02  0.1055E+01
     14.264  0.4521E-02  0.1056E+01
     14.349  0.1641E-02  0.1056E+01
     14.435  0.4223E-03  0.1056E+01
     14.520  0.1079E-03  0.1056E+01
     14.605  0.2258E-03  0.1056E+01
     14.690  0.1014E-02  0.1056E+01
     14.775  0.3380E-02  0.1056E+01
     14.860  0.8123E-02  0.1057E+01
     14.946  0.1428E-01  0.1058E+01
     15.031  0.1888E-01  0.1060E+01
     15.116  0.1968E-01  0.1061E+01
     15.201  0.1737E-01  0.1063E+01
     15.286  0.1422E-01  0.1064E+01
     15.371  0.1150E-01  0.1065E+01
     15.456  0.8983E-02  0.1066E+01
     15.542  0.6118E-02  0.1066E+01
     15.627  0.3289E-02  0.1067E+01
     15.712  0.1313E-02  0.1067E+01
     15.797  0.3776E-03  0.1067E+01
     15.882  0.7713E-04  0.1067E+01
     15.967  0.1112E-04  0.1067E+01
     16.053  0.1127E-05  0.1067E+01
     16.138  0.8023E-07  0.1067E+01
     16.223  0.4006E-08  0.1067E+01
     16.308  0.1402E-09  0.1067E+01
     16.393  0.3436E-11  0.1067E+01
     16.478  0.5893E-13  0.1067E+01
     16.563  0.7068E-15  0.1067E+01
     16.649  0.5723E-17  0.1067E+01
     16.734  0.0000E+00  0.1067E+01
     16.819  0.0000E+00  0.1067E+01
     16.904  0.0000E+00  0.1067E+01
     16.989  0.0000E+00  0.1067E+01
     17.074  0.0000E+00  0.1067E+01
     17.160  0.0000E+00  0.1067E+01
     17.245  0.0000E+00  0.1067E+01
     17.330  0.0000E+00  0.1067E+01
     17.415  0.0000E+00  0.1067E+01
