   2   2   0   0
  0.1529437E+02  0.3691622E-09  0.3691622E-09  0.3691622E-09  0.5000000E-15
  1.000000000000000E-004
  CAR 
 unknown system                          
     23.07465209     -6.57455192  301      9.07527466      1.00000000
     -6.575  0.0000E+00  0.0000E+00
     -6.476  0.0000E+00  0.0000E+00
     -6.377  0.0000E+00  0.0000E+00
     -6.278  0.0000E+00  0.0000E+00
     -6.179  0.0000E+00  0.0000E+00
     -6.080  0.0000E+00  0.0000E+00
     -5.982  0.0000E+00  0.0000E+00
     -5.883  0.0000E+00  0.0000E+00
     -5.784  0.0000E+00  0.0000E+00
     -5.685  0.6414E-17  0.6339E-18
     -5.586  0.1314E-14  0.1305E-15
     -5.487  0.1682E-12  0.1675E-13
     -5.389  0.1333E-10  0.1334E-11
     -5.290  0.6562E-09  0.6619E-10
     -5.191  0.2011E-07  0.2054E-08
     -5.092  0.3858E-06  0.4018E-07
     -4.993  0.4676E-05  0.5023E-06
     -4.894  0.3641E-04  0.4101E-05
     -4.796  0.1879E-03  0.2267E-04
     -4.697  0.6743E-03  0.8931E-04
     -4.598  0.1783E-02  0.2656E-03
     -4.499  0.3621E-02  0.6234E-03
     -4.400  0.5728E-02  0.1190E-02
     -4.301  0.7322E-02  0.1913E-02
     -4.203  0.8453E-02  0.2749E-02
     -4.104  0.9833E-02  0.3720E-02
     -4.005  0.1123E-01  0.4830E-02
     -3.906  0.1211E-01  0.6027E-02
     -3.807  0.1303E-01  0.7315E-02
     -3.708  0.1434E-01  0.8733E-02
     -3.610  0.1539E-01  0.1025E-01
     -3.511  0.1574E-01  0.1181E-01
     -3.412  0.1553E-01  0.1334E-01
     -3.313  0.1498E-01  0.1483E-01
     -3.214  0.1515E-01  0.1632E-01
     -3.115  0.1752E-01  0.1805E-01
     -3.017  0.2133E-01  0.2016E-01
     -2.918  0.2388E-01  0.2252E-01
     -2.819  0.2313E-01  0.2481E-01
     -2.720  0.1939E-01  0.2672E-01
     -2.621  0.1632E-01  0.2834E-01
     -2.522  0.1782E-01  0.3010E-01
     -2.424  0.2224E-01  0.3230E-01
     -2.325  0.2460E-01  0.3473E-01
     -2.226  0.2418E-01  0.3712E-01
     -2.127  0.2395E-01  0.3948E-01
     -2.028  0.2489E-01  0.4194E-01
     -1.930  0.2594E-01  0.4451E-01
     -1.831  0.2624E-01  0.4710E-01
     -1.732  0.2569E-01  0.4964E-01
     -1.633  0.2532E-01  0.5214E-01
     -1.534  0.2579E-01  0.5469E-01
     -1.435  0.2655E-01  0.5732E-01
     -1.337  0.2772E-01  0.6006E-01
     -1.238  0.3044E-01  0.6306E-01
     -1.139  0.3310E-01  0.6634E-01
     -1.040  0.3165E-01  0.6946E-01
     -0.941  0.2644E-01  0.7208E-01
     -0.842  0.2244E-01  0.7429E-01
     -0.744  0.2301E-01  0.7657E-01
     -0.645  0.2782E-01  0.7932E-01
     -0.546  0.3430E-01  0.8271E-01
     -0.447  0.3910E-01  0.8657E-01
     -0.348  0.3985E-01  0.9051E-01
     -0.249  0.3722E-01  0.9419E-01
     -0.151  0.3480E-01  0.9763E-01
     -0.052  0.3473E-01  0.1011E+00
      0.047  0.3485E-01  0.1045E+00
      0.146  0.3311E-01  0.1078E+00
      0.245  0.3159E-01  0.1109E+00
      0.344  0.3201E-01  0.1141E+00
      0.442  0.3327E-01  0.1174E+00
      0.541  0.3511E-01  0.1208E+00
      0.640  0.3872E-01  0.1246E+00
      0.739  0.4323E-01  0.1289E+00
      0.838  0.4466E-01  0.1333E+00
      0.937  0.4130E-01  0.1374E+00
      1.035  0.3719E-01  0.1411E+00
      1.134  0.3711E-01  0.1448E+00
      1.233  0.4117E-01  0.1488E+00
      1.332  0.4433E-01  0.1532E+00
      1.431  0.4176E-01  0.1573E+00
      1.530  0.3425E-01  0.1607E+00
      1.628  0.2764E-01  0.1635E+00
      1.727  0.2768E-01  0.1662E+00
      1.826  0.3377E-01  0.1695E+00
      1.925  0.4009E-01  0.1735E+00
      2.024  0.4323E-01  0.1778E+00
      2.123  0.4296E-01  0.1820E+00
      2.221  0.3986E-01  0.1859E+00
      2.320  0.3703E-01  0.1896E+00
      2.419  0.3671E-01  0.1932E+00
      2.518  0.3629E-01  0.1968E+00
      2.617  0.3400E-01  0.2002E+00
      2.716  0.3155E-01  0.2033E+00
      2.814  0.3030E-01  0.2063E+00
      2.913  0.3075E-01  0.2093E+00
      3.012  0.3385E-01  0.2127E+00
      3.111  0.4052E-01  0.2167E+00
      3.210  0.4888E-01  0.2215E+00
      3.309  0.5391E-01  0.2268E+00
      3.407  0.5270E-01  0.2321E+00
      3.506  0.4690E-01  0.2367E+00
      3.605  0.4061E-01  0.2407E+00
      3.704  0.3852E-01  0.2445E+00
      3.803  0.4077E-01  0.2485E+00
      3.902  0.4256E-01  0.2527E+00
      4.000  0.4224E-01  0.2569E+00
      4.099  0.4283E-01  0.2612E+00
      4.198  0.4546E-01  0.2656E+00
      4.297  0.4664E-01  0.2703E+00
      4.396  0.4347E-01  0.2745E+00
      4.494  0.3998E-01  0.2785E+00
      4.593  0.4256E-01  0.2827E+00
      4.692  0.4966E-01  0.2876E+00
      4.791  0.5457E-01  0.2930E+00
      4.890  0.5564E-01  0.2985E+00
      4.989  0.5436E-01  0.3039E+00
      5.087  0.5119E-01  0.3089E+00
      5.186  0.4773E-01  0.3137E+00
      5.285  0.4555E-01  0.3182E+00
      5.384  0.4505E-01  0.3226E+00
      5.483  0.4641E-01  0.3272E+00
      5.582  0.4933E-01  0.3321E+00
      5.680  0.5301E-01  0.3373E+00
      5.779  0.5689E-01  0.3429E+00
      5.878  0.6045E-01  0.3489E+00
      5.977  0.6283E-01  0.3551E+00
      6.076  0.6253E-01  0.3613E+00
      6.175  0.5929E-01  0.3672E+00
      6.273  0.5553E-01  0.3726E+00
      6.372  0.5316E-01  0.3779E+00
      6.471  0.5415E-01  0.3833E+00
      6.570  0.5973E-01  0.3892E+00
      6.669  0.6476E-01  0.3956E+00
      6.768  0.6382E-01  0.4019E+00
      6.866  0.5861E-01  0.4077E+00
      6.965  0.5282E-01  0.4129E+00
      7.064  0.4957E-01  0.4178E+00
      7.163  0.5121E-01  0.4228E+00
      7.262  0.5773E-01  0.4285E+00
      7.361  0.6814E-01  0.4353E+00
      7.459  0.7847E-01  0.4430E+00
      7.558  0.8153E-01  0.4511E+00
      7.657  0.7455E-01  0.4585E+00
      7.756  0.6198E-01  0.4646E+00
      7.855  0.5147E-01  0.4697E+00
      7.954  0.4876E-01  0.4745E+00
      8.052  0.5284E-01  0.4797E+00
      8.151  0.5871E-01  0.4855E+00
      8.250  0.6257E-01  0.4917E+00
      8.349  0.6140E-01  0.4978E+00
      8.448  0.5510E-01  0.5032E+00
      8.547  0.4850E-01  0.5080E+00
      8.645  0.4599E-01  0.5125E+00
      8.744  0.4750E-01  0.5172E+00
      8.843  0.4967E-01  0.5221E+00
      8.942  0.4936E-01  0.5270E+00
      9.041  0.4745E-01  0.5317E+00
      9.140  0.4677E-01  0.5363E+00
      9.238  0.4674E-01  0.5410E+00
      9.337  0.4531E-01  0.5454E+00
      9.436  0.4477E-01  0.5499E+00
      9.535  0.4804E-01  0.5546E+00
      9.634  0.5211E-01  0.5598E+00
      9.733  0.5203E-01  0.5649E+00
      9.831  0.4731E-01  0.5696E+00
      9.930  0.4212E-01  0.5737E+00
     10.029  0.4074E-01  0.5778E+00
     10.128  0.4260E-01  0.5820E+00
     10.227  0.4381E-01  0.5863E+00
     10.325  0.4333E-01  0.5906E+00
     10.424  0.4316E-01  0.5949E+00
     10.523  0.4422E-01  0.5992E+00
     10.622  0.4523E-01  0.6037E+00
     10.721  0.4583E-01  0.6082E+00
     10.820  0.4794E-01  0.6130E+00
     10.918  0.5246E-01  0.6181E+00
     11.017  0.5825E-01  0.6239E+00
     11.116  0.6424E-01  0.6303E+00
     11.215  0.7036E-01  0.6372E+00
     11.314  0.7728E-01  0.6448E+00
     11.413  0.8191E-01  0.6529E+00
     11.511  0.7813E-01  0.6607E+00
     11.610  0.6785E-01  0.6674E+00
     11.709  0.5894E-01  0.6732E+00
     11.808  0.5358E-01  0.6785E+00
     11.907  0.5188E-01  0.6836E+00
     12.006  0.5555E-01  0.6891E+00
     12.104  0.6020E-01  0.6951E+00
     12.203  0.5981E-01  0.7010E+00
     12.302  0.5678E-01  0.7066E+00
     12.401  0.5516E-01  0.7120E+00
     12.500  0.5457E-01  0.7174E+00
     12.599  0.5607E-01  0.7230E+00
     12.697  0.6222E-01  0.7291E+00
     12.796  0.7213E-01  0.7362E+00
     12.895  0.8182E-01  0.7443E+00
     12.994  0.8568E-01  0.7528E+00
     13.093  0.8028E-01  0.7607E+00
     13.192  0.6993E-01  0.7676E+00
     13.290  0.6290E-01  0.7739E+00
     13.389  0.6268E-01  0.7801E+00
     13.488  0.6649E-01  0.7866E+00
     13.587  0.6884E-01  0.7934E+00
     13.686  0.6766E-01  0.8001E+00
     13.785  0.6760E-01  0.8068E+00
     13.883  0.7315E-01  0.8140E+00
     13.982  0.8123E-01  0.8221E+00
     14.081  0.8474E-01  0.8304E+00
     14.180  0.8089E-01  0.8384E+00
     14.279  0.7424E-01  0.8458E+00
     14.378  0.7051E-01  0.8527E+00
     14.476  0.6994E-01  0.8596E+00
     14.575  0.6924E-01  0.8665E+00
     14.674  0.6614E-01  0.8730E+00
     14.773  0.6101E-01  0.8790E+00
     14.872  0.5562E-01  0.8845E+00
     14.971  0.5184E-01  0.8897E+00
     15.069  0.5193E-01  0.8948E+00
     15.168  0.5652E-01  0.9004E+00
     15.267  0.6201E-01  0.9065E+00
     15.366  0.6417E-01  0.9129E+00
     15.465  0.6205E-01  0.9190E+00
     15.564  0.5714E-01  0.9246E+00
     15.662  0.5344E-01  0.9299E+00
     15.761  0.5400E-01  0.9353E+00
     15.860  0.5668E-01  0.9409E+00
     15.959  0.5727E-01  0.9465E+00
     16.058  0.5412E-01  0.9519E+00
     16.157  0.5036E-01  0.9568E+00
     16.255  0.5089E-01  0.9619E+00
     16.354  0.5483E-01  0.9673E+00
     16.453  0.5631E-01  0.9729E+00
     16.552  0.5201E-01  0.9780E+00
     16.651  0.4337E-01  0.9823E+00
     16.749  0.3386E-01  0.9856E+00
     16.848  0.2793E-01  0.9884E+00
     16.947  0.2971E-01  0.9913E+00
     17.046  0.3798E-01  0.9951E+00
     17.145  0.4507E-01  0.9995E+00
     17.244  0.4478E-01  0.1004E+01
     17.342  0.3926E-01  0.1008E+01
     17.441  0.3421E-01  0.1011E+01
     17.540  0.3050E-01  0.1014E+01
     17.639  0.2618E-01  0.1017E+01
     17.738  0.2228E-01  0.1019E+01
     17.837  0.2123E-01  0.1021E+01
     17.935  0.2357E-01  0.1023E+01
     18.034  0.2829E-01  0.1026E+01
     18.133  0.3304E-01  0.1030E+01
     18.232  0.3471E-01  0.1033E+01
     18.331  0.3202E-01  0.1036E+01
     18.430  0.2703E-01  0.1039E+01
     18.528  0.2263E-01  0.1041E+01
     18.627  0.1990E-01  0.1043E+01
     18.726  0.1917E-01  0.1045E+01
     18.825  0.2129E-01  0.1047E+01
     18.924  0.2509E-01  0.1049E+01
     19.023  0.2624E-01  0.1052E+01
     19.121  0.2248E-01  0.1054E+01
     19.220  0.1604E-01  0.1056E+01
     19.319  0.9826E-02  0.1057E+01
     19.418  0.5826E-02  0.1057E+01
     19.517  0.5200E-02  0.1058E+01
     19.616  0.7402E-02  0.1059E+01
     19.714  0.1021E-01  0.1060E+01
     19.813  0.1123E-01  0.1061E+01
     19.912  0.1003E-01  0.1062E+01
     20.011  0.8184E-02  0.1063E+01
     20.110  0.7008E-02  0.1063E+01
     20.209  0.6553E-02  0.1064E+01
     20.307  0.6467E-02  0.1065E+01
     20.406  0.6138E-02  0.1065E+01
     20.505  0.4825E-02  0.1066E+01
     20.604  0.2810E-02  0.1066E+01
     20.703  0.1271E-02  0.1066E+01
     20.802  0.8216E-03  0.1066E+01
     20.900  0.1111E-02  0.1066E+01
     20.999  0.1454E-02  0.1066E+01
     21.098  0.1397E-02  0.1067E+01
     21.197  0.9509E-03  0.1067E+01
     21.296  0.4457E-03  0.1067E+01
     21.395  0.1391E-03  0.1067E+01
     21.493  0.2815E-04  0.1067E+01
     21.592  0.3629E-05  0.1067E+01
     21.691  0.2949E-06  0.1067E+01
     21.790  0.1501E-07  0.1067E+01
     21.889  0.4767E-09  0.1067E+01
     21.988  0.9423E-11  0.1067E+01
     22.086  0.1157E-12  0.1067E+01
     22.185  0.8808E-15  0.1067E+01
     22.284  0.4161E-17  0.1067E+01
     22.383  0.0000E+00  0.1067E+01
     22.482  0.0000E+00  0.1067E+01
     22.580  0.0000E+00  0.1067E+01
     22.679  0.0000E+00  0.1067E+01
     22.778  0.0000E+00  0.1067E+01
     22.877  0.0000E+00  0.1067E+01
     22.976  0.0000E+00  0.1067E+01
     23.075  0.0000E+00  0.1067E+01
