unknown system                          
   1.00000000000000     
    -2.442235    2.442235    1.277575
     2.442235   -2.442235    1.277575
     2.442235    2.442235   -1.277575
   Si
     2
Direct
  0.250000  0.750000  0.500000
  0.000000  0.000000  0.000000
 
   28   28   28
 -5.5871     -4.0568     -.68042E-01  4.8733      9.0804      11.421      11.690      10.497      8.7924      7.1754    
  5.8240      4.7990      4.0970      3.6917      3.5595      3.6917      4.0970      4.7990      5.8241      7.1754    
  8.7924      10.497      11.690      11.421      9.0804      4.8733     -.68064E-01 -4.0569     -4.0569     -4.8423    
 -2.6919      1.5425      6.2757      9.9404      11.645      11.421      10.002      8.2986      6.7494      5.4896    
  4.5585      3.9436      3.6175      3.5595      3.7646      4.2452      5.0264      6.1316      7.5534      9.2107    
  10.877      11.838      11.181      8.4591      4.0894     -.64212     -.68064E-01 -2.6919     -2.7446     -.21422    
  3.8823      8.0081      10.827      11.742      11.006      9.4205      7.7583      6.3009      5.1477      4.3183    
  3.7934      3.5461      3.5595      3.8325      4.3799      5.2272      6.3936      7.8600      9.5287      11.130    
  11.903      11.030      8.2328      4.0894      4.8733      1.5425     -.21422     0.32816      2.9322      6.5238    
  9.7326      11.531      11.627      10.449      8.7922      7.2021      5.8550      4.8170      4.0911      3.6539    
  3.4811      3.5596      3.8915      4.4934      5.3896      6.5935      8.0760      9.7273      11.255      11.921    
  11.030      8.4591      9.0804      6.2756      3.8823      2.9322      3.8468      6.2167      9.0201      11.143    
  11.899      11.270      9.7936      8.1523      6.6601      5.4348      4.5137      3.8876      3.5319      3.4256    
  3.5596      3.9386      4.5793      5.5035      6.7187      8.1875      9.7949      11.255      11.903      11.181    
  11.421      9.9404      8.0081      6.5238      6.2167      7.2522      9.1410      11.005      12.036      11.871    
  10.707      9.1086      7.5346      6.1591      5.0596      4.2509      3.7163      3.4323      3.3820      3.5597    
  3.9713      4.6328      5.5623      6.7614      8.1875      9.7273      11.130      11.838      11.690      11.645    
  10.827      9.7326      9.0201      9.1410      10.076      11.343      12.266      12.345      11.491      10.033    
  8.4458      6.9704      5.7217      4.7446      4.0385      3.5834      3.3588      3.3520      3.5597      3.9881    
  4.6510      5.5623      6.7187      8.0760      9.5287      10.877      10.497      11.421      11.742      11.531    
  11.143      11.005      11.343      12.029      12.656      12.772      12.145      10.886      9.3580      7.8436    
  6.4870      5.3654      4.5006      3.8830      3.4928      3.3139      3.3368      3.5597      3.9881      4.6328    
  5.5035      6.5935      7.8600      9.2107      8.7924      10.002      11.006      11.627      11.899      12.036    
  12.266      12.656      13.041      13.121      12.655      11.617      10.226      8.7454      7.3364      6.1058    
  5.1028      4.3347      3.7883      3.4470      3.2987      3.3368      3.5597      3.9713      4.5793      5.3896    
  6.3936      7.5534      7.1754      8.2986      9.4205      10.449      11.270      11.871      12.345      12.772    
  13.121      13.239      12.943      12.158      10.988      9.6288      8.2409      6.9529      5.8430      4.9422    
  4.2507      3.7565      3.4470      3.3139      3.3520      3.5597      3.9386      4.4934      5.2272      6.1316    
  5.8241      6.7494      7.7583      8.7922      9.7936      10.707      11.491      12.145      12.655      12.943    
  12.893      12.422      11.562      10.426      9.1541      7.8821      6.7141      5.7091      4.8882      4.2507    
  3.7883      3.4928      3.3588      3.3820      3.5596      3.8915      4.3799      5.0264      4.7990      5.4896    
  6.3009      7.2021      8.1523      9.1086      10.033      10.886      11.617      12.158      12.422      12.331    
  11.860      11.053      10.008      8.8493      7.6959      6.6331      5.7091      4.9422      4.3347      3.8830    
  3.5834      3.4323      3.4256      3.5596      3.8325      4.2452      4.0970      4.5585      5.1477      5.8550    
  6.6601      7.5346      8.4458      9.3581      10.226      10.988      11.562      11.860      11.819      11.423    
  10.714      9.7845      8.7443      7.6959      6.7141      5.8430      5.1028      4.5006      4.0385      3.7163    
  3.5319      3.4811      3.5595      3.7646      3.6917      3.9436      4.3183      4.8170      5.4347      6.1591    
  6.9704      7.8436      8.7454      9.6288      10.426      11.053      11.423      11.472      11.185      10.596    
  9.7845      8.8493      7.8821      6.9529      6.1058      5.3654      4.7446      4.2509      3.8876      3.6539    
  3.5461      3.5595      3.5595      3.6175      3.7934      4.0911      4.5136      5.0596      5.7217      6.4870    
  7.3364      8.2409      9.1541      10.008      10.714      11.185      11.350      11.185      10.714      10.008    
  9.1541      8.2409      7.3364      6.4870      5.7217      5.0596      4.5137      4.0911      3.7934      3.6175    
  3.6917      3.5595      3.5461      3.6539      3.8876      4.2509      4.7446      5.3654      6.1058      6.9529    
  7.8821      8.8493      9.7845      10.596      11.185      11.472      11.423      11.053      10.426      9.6288    
  8.7454      7.8436      6.9704      6.1591      5.4348      4.8170      4.3183      3.9436      4.0970      3.7646    
  3.5595      3.4811      3.5318      3.7162      4.0385      4.5006      5.1028      5.8430      6.7141      7.6959    
  8.7443      9.7845      10.714      11.423      11.819      11.860      11.562      10.988      10.226      9.3580    
  8.4458      7.5346      6.6601      5.8550      5.1477      4.5585      4.7990      4.2452      3.8325      3.5596    
  3.4256      3.4322      3.5833      3.8829      4.3346      4.9422      5.7090      6.6331      7.6959      8.8493    
  10.008      11.053      11.860      12.331      12.422      12.158      11.617      10.886      10.033      9.1086    
  8.1523      7.2021      6.3009      5.4896      5.8240      5.0263      4.3799      3.8915      3.5596      3.3820    
  3.3588      3.4928      3.7882      4.2507      4.8882      5.7090      6.7141      7.8821      9.1541      10.426    
  11.562      12.422      12.893      12.943      12.655      12.145      11.491      10.707      9.7936      8.7922    
  7.7583      6.7494      7.1754      6.1316      5.2272      4.4934      3.9385      3.5596      3.3520      3.3138    
  3.4470      3.7564      4.2507      4.9422      5.8430      6.9529      8.2409      9.6288      10.988      12.158    
  12.943      13.239      13.121      12.772      12.345      11.871      11.270      10.449      9.4205      8.2986    
  8.7924      7.5533      6.3935      5.3895      4.5793      3.9712      3.5597      3.3367      3.2987      3.4470    
  3.7882      4.3346      5.1028      6.1058      7.3364      8.7454      10.226      11.617      12.655      13.121    
  13.041      12.656      12.266      12.036      11.899      11.627      11.006      10.002      10.497      9.2107    
  7.8600      6.5934      5.5035      4.6328      3.9880      3.5597      3.3367      3.3138      3.4928      3.8829    
  4.5006      5.3654      6.4870      7.8436      9.3581      10.886      12.145      12.772      12.656      12.029    
  11.343      11.005      11.143      11.531      11.742      11.421      11.690      10.877      9.5287      8.0759    
  6.7187      5.5622      4.6509      3.9880      3.5597      3.3520      3.3588      3.5833      4.0385      4.7446    
  5.7217      6.9704      8.4458      10.033      11.491      12.345      12.266      11.343      10.076      9.1410    
  9.0201      9.7326      10.827      11.645      11.421      11.838      11.130      9.7273      8.1875      6.7613    
  5.5622      4.6328      3.9712      3.5596      3.3820      3.4322      3.7162      4.2509      5.0596      6.1591    
  7.5346      9.1086      10.707      11.871      12.036      11.005      9.1410      7.2522      6.2167      6.5238    
  8.0081      9.9404      9.0804      11.181      11.903      11.255      9.7949      8.1875      6.7187      5.5035    
  4.5793      3.9385      3.5596      3.4256      3.5318      3.8876      4.5136      5.4347      6.6601      8.1523    
  9.7936      11.270      11.899      11.143      9.0201      6.2167      3.8468      2.9322      3.8823      6.2757    
  4.8733      8.4591      11.030      11.921      11.255      9.7273      8.0759      6.5934      5.3895      4.4934    
  3.8915      3.5596      3.4811      3.6539      4.0911      4.8170      5.8550      7.2021      8.7922      10.449    
  11.627      11.531      9.7326      6.5238      2.9322     0.32816     -.21422      1.5425     -.68042E-01  4.0894    
  8.2329      11.030      11.903      11.130      9.5287      7.8600      6.3935      5.2272      4.3799      3.8325    
  3.5595      3.5461      3.7934      4.3183      5.1477      6.3009      7.7583      9.4205      11.006      11.742    
  10.827      8.0081      3.8823     -.21422     -2.7446     -2.6919     -4.0568     -.64209      4.0894      8.4591    
  11.181      11.838      10.877      9.2107      7.5533      6.1316      5.0263      4.2452      3.7646      3.5595    
  3.6175      3.9436      4.5585      5.4896      6.7494      8.2986      10.002      11.421      11.645      9.9404    
  6.2756      1.5425     -2.6919     -4.8423     -4.0568     -2.9499     0.53463      5.0530      9.0083      11.264    
  11.550      10.393      8.6997      7.0782      5.7124      4.6666      3.9394      3.5045      3.3367      3.4249    
  3.7760      4.4122      5.3612      6.6335      8.1846      9.8723      11.225      11.347      9.5752      5.9712    
  1.4824     -2.3497     -2.9499     -4.0568     -2.3497      1.4824      5.9712      9.5753      11.347      11.225    
  9.8723      8.1846      6.6334      5.3612      4.4121      3.7760      3.4249      3.3367      3.5045      3.9395    
  4.6666      5.7125      7.0782      8.6997      10.393      11.550      11.264      9.0082      5.0530     0.53463    
 0.63756     -2.2399     -2.6918     -.55606      3.2873      7.3600      10.290      11.385      10.799      9.2827    
  7.6362      6.1772      5.0133      4.1694      3.6279      3.3616      3.3520      3.5967      4.1105      4.9199    
  6.0484      7.4869      9.1532      10.820      11.797      11.234      8.7568      4.8144      5.3200      1.7784    
 -.35015     -.21419      2.0954      5.5981      8.9219      10.954      11.288      10.265      8.6596      7.0826    
  5.7330      4.6861      3.9500      3.5022      3.3176      3.3820      3.6972      4.2805      5.1584      6.3499    
  7.8355      9.5183      11.140      11.990      11.321      8.9089      9.4468      6.4731      3.7407      2.3730    
  2.9323      5.1315      7.9918      10.346      11.392      11.000      9.6447      8.0352      6.5508      5.3220    
  4.3948      3.7638      3.4045      3.2950      3.4256      3.8014      4.4409      5.3690      6.5990      8.1020    
  9.7718      11.341      12.138      11.539      11.842      10.251      8.0399      6.1580      5.4507      6.2167    
  8.0519      10.073      11.384      11.501      10.525      8.9930      7.4379      6.0647      4.9620      4.1514    
  3.6183      3.3388      3.2950      3.4812      3.9046      4.5834      5.5394      6.7798      8.2683      9.8953    
  11.410      12.226      12.217      12.136      11.132      9.7089      8.6021      8.3826      9.1410      10.440    
  11.562      11.904      11.269      9.9211      8.3625      6.8949      5.6449      4.6670      3.9647      3.5187    
  3.3075      3.3176      3.5463      4.0015      4.6999      5.6590      6.8800      8.3218      9.8779      11.334    
  11.104      12.067      12.311      11.882      11.169      10.682      10.756      11.343      12.042      12.341    
  11.912      10.780      9.2903      7.7866      6.4302      5.3075      4.4468      3.8404      3.4679      3.3115    
  3.3616      3.6177      4.0871      4.7836      5.7199      6.8918      8.2571      9.7173      9.4219      10.720    
  11.743      12.272      12.332      12.181      12.129      12.326      12.656      12.805      12.464      11.531    
  10.178      8.7059      7.2965      6.0640      5.0644      4.3080      3.7817      3.4668      3.3500      3.4250    
  3.6918      4.1565      4.8290      5.7172      6.8134      8.0769      7.7927      9.0100      10.202      11.241    
  11.973      12.390      12.629      12.838      13.046      13.121      12.856      12.119      10.965      9.6035    
  8.2112      6.9196      5.8123      4.9235      4.2538      3.7891      3.5147      3.4212      3.5045      3.7647    
  4.2054      4.8328      5.6506      6.6493      6.4103      7.4236      8.5084      9.5901      10.592      11.430    
  12.065      12.536      12.878      13.051      12.943      12.449      11.565      10.410      9.1242      7.8450    
  6.6785      5.6862      4.8895      4.2853      3.8620      3.6095      3.5220      3.5966      3.8325      4.2307    
  4.7943      5.5240      5.3455      6.1127      6.9945      7.9501      8.9249      9.8637      10.721      11.457    
  12.043      12.446      12.598      12.422      11.887      11.036      9.9635      8.7913      7.6376      6.5889    
  5.6925      4.9640      4.4015      3.9980      3.7481      3.6486      3.6970      3.8914      4.2307      4.7156    
  4.6017      5.1270      5.7761      6.5333      7.3697      8.2471      9.1243      9.9633      10.725      11.362    
  11.809      11.994      11.860      11.395      10.641      9.6871      8.6428      7.6093      6.6594      5.8331    
  5.1458      4.5997      4.1935      3.9261      3.7961      3.8013      3.9384      4.2054      4.1564      4.4600    
  4.8827      5.4218      6.0677      6.8010      7.5953      8.4201      9.2422      10.020      10.698      11.204    
  11.463      11.423      11.070      10.442      9.6203      8.6993      7.7677      6.8902      6.1050      5.4306    
  4.8751      4.4431      4.1375      3.9587      3.9044      3.9711      3.9879      4.0870      4.2994      4.6271    
  5.0701      5.6229      6.2733      7.0037      7.7918      8.6093      9.4150      10.150      10.738      11.103    
  11.185      10.965      10.474      9.7783      8.9626      8.1073      7.2733      6.5000      5.8106      5.2200    
  4.7390      4.3746      4.1292      4.0013      4.0870      3.9879      4.0014      4.1293      4.3747      4.7391    
  5.2200      5.8106      6.5000      7.2733      8.1073      8.9626      9.7783      10.474      10.965      11.185    
  11.103      10.738      10.150      9.4150      8.6093      7.7918      7.0037      6.2733      5.6229      5.0701    
  4.6271      4.2994      4.4601      4.1564      3.9711      3.9044      3.9588      4.1376      4.4432      4.8751    
  5.4306      6.1051      6.8902      7.7677      8.6993      9.6203      10.442      11.070      11.423      11.463    
  11.204      10.698      10.020      9.2422      8.4201      7.5953      6.8010      6.0677      5.4218      4.8826    
  5.1271      4.6017      4.2054      3.9385      3.8013      3.7962      3.9261      4.1935      4.5997      5.1458    
  5.8331      6.6594      7.6093      8.6428      9.6871      10.641      11.395      11.860      11.994      11.809    
  11.362      10.725      9.9633      9.1243      8.2471      7.3698      6.5333      5.7761      6.1127      5.3456    
  4.7156      4.2308      3.8915      3.6971      3.6486      3.7481      3.9979      4.4014      4.9640      5.6925    
  6.5889      7.6376      8.7913      9.9635      11.036      11.887      12.422      12.598      12.446      12.043    
  11.457      10.721      9.8637      8.9249      7.9501      6.9946      7.4237      6.4104      5.5240      4.7943    
  4.2308      3.8325      3.5966      3.5220      3.6095      3.8619      4.2852      4.8895      5.6862      6.6785    
  7.8450      9.1242      10.410      11.565      12.449      12.943      13.051      12.878      12.536      12.065    
  11.430      10.592      9.5901      8.5085      9.0100      7.7927      6.6493      5.6507      4.8329      4.2054    
  3.7647      3.5045      3.4212      3.5147      3.7891      4.2538      4.9235      5.8123      6.9196      8.2113    
  9.6035      10.965      12.119      12.856      13.121      13.046      12.838      12.629      12.390      11.972    
  11.241      10.202      10.720      9.4220      8.0769      6.8134      5.7173      4.8291      4.1565      3.6918    
  3.4249      3.3500      3.4668      3.7816      4.3080      5.0643      6.0640      7.2965      8.7059      10.178    
  11.531      12.464      12.805      12.656      12.326      12.129      12.181      12.332      12.272      11.743    
  12.067      11.104      9.7173      8.2570      6.8918      5.7199      4.7836      4.0871      3.6176      3.3616    
  3.3115      3.4679      3.8404      4.4468      5.3075      6.4301      7.7866      9.2903      10.780      11.912    
  12.341      12.042      11.343      10.756      10.682      11.169      11.882      12.311      12.136      12.217    
  11.334      9.8778      8.3218      6.8799      5.6590      4.6999      4.0014      3.5462      3.3175      3.3074    
  3.5186      3.9646      4.6669      5.6449      6.8949      8.3625      9.9211      11.269      11.904      11.562    
  10.440      9.1409      8.3825      8.6020      9.7089      11.132      10.251      11.842      12.226      11.410    
  9.8953      8.2682      6.7798      5.5393      4.5833      3.9045      3.4811      3.2949      3.3387      3.6182    
  4.1513      4.9620      6.0647      7.4379      8.9930      10.525      11.501      11.384      10.073      8.0519    
  6.2167      5.4507      6.1580      8.0398      6.4731      9.4468      11.539      12.138      11.341      9.7718    
  8.1019      6.5989      5.3689      4.4408      3.8014      3.4256      3.2949      3.4044      3.7637      4.3948    
  5.3220      6.5508      8.0352      9.6447      11.000      11.392      10.346      7.9918      5.1315      2.9323    
  2.3730      3.7407      1.7784      5.3200      8.9089      11.321      11.990      11.140      9.5183      7.8354    
  6.3498      5.1583      4.2804      3.6971      3.3819      3.3175      3.5021      3.9499      4.6861      5.7330    
  7.0826      8.6596      10.265      11.287      10.954      8.9218      5.5981      2.0955     -.21413     -.35010    
 -2.2398     0.63758      4.8144      8.7568      11.234      11.797      10.820      9.1532      7.4868      6.0483    
  4.9198      4.1104      3.5966      3.3519      3.3616      3.6279      4.1694      5.0133      6.1772      7.6362    
  9.2827      10.799      11.385      10.290      7.3600      3.2873     -.55602     -2.6918     -.67850E-01 0.63769    
  3.3273      6.9154      10.046      11.727      11.709      10.453      8.7603      7.1503      5.7880      4.7339    
  3.9871      3.5221      3.3138      3.3501      3.6344      4.1855      5.0295      6.1825      7.6181      9.2313    
  10.729      11.380      10.517      8.0370      4.6100      1.4825     0.53476     -.64190     0.53475      3.5711    
  7.2402      10.190      11.555      11.254      9.8675      8.2002      6.6669      5.4018      4.4482      3.7970    
  3.4213      3.2987      3.4213      3.7970      4.4483      5.4018      6.6669      8.2002      9.8675      11.254    
  11.555      10.190      7.2401      3.5711      3.3273     0.63768     -.67868E-01  1.4825      4.6100      8.0371    
  10.517      11.380      10.729      9.2313      7.6181      6.1825      5.0295      4.1854      3.6344      3.3501    
  3.3139      3.5221      3.9872      4.7339      5.7880      7.1503      8.7603      10.453      11.709      11.727    
  10.046      6.9154      7.1670      3.9458      1.7785      1.5426      3.2874      6.2148      9.0977      10.883    
  11.138      10.135      8.5787      7.0427      5.7203      4.6882      3.9569      3.5062      3.3115      3.3588    
  3.6487      4.1969      5.0295      6.1690      7.6069      9.2674      10.956      12.099      11.952      10.181    
  10.606      7.9650      5.3140      3.7408      3.8824      5.5981      8.0541      10.167      11.136      10.776    
  9.4892      7.9395      6.4996      5.3007      4.3923      3.7721      3.4175      3.3075      3.4323      3.7962    
  4.4171      5.3205      6.5241      8.0100      9.6900      11.353      12.422      12.243      12.570      11.246    
  9.1516      7.1672      6.1580      6.5239      7.9918      9.7770      11.009      11.167      10.282      8.8324    
  7.3391      6.0111      4.9405      4.1532      3.6380      3.3722      3.3387      3.5319      3.9588      4.6377    
  5.5916      6.8323      8.3333      9.9981      11.616      12.656      12.765      12.860      11.956      10.482    
  9.1549      8.6021      9.0201      10.073      11.097      11.469      10.935      9.6907      8.2087      6.8007    
  5.5956      4.6524      3.9794      3.5596      3.3722      3.4044      3.6540      4.1293      4.8473      5.8270    
  7.0736      8.5532      10.167      11.720      11.647      12.708      13.019      12.562      11.687      10.925    
  10.682      11.005      11.562      11.852      11.504      10.481      9.0789      7.6453      6.3448      5.2673    
  4.4459      3.8762      3.5392      3.4174      3.5021      3.7934      4.2994      5.0343      6.0118      7.2305    
  8.6519      10.180      10.031      11.388      12.453      12.965      12.911      12.541      12.206      12.129    
  12.266      12.341      12.031      11.183      9.9139      8.5132      7.1672      5.9886      5.0371      4.3267    
  3.8460      3.5769      3.5060      3.6278      3.9437      4.4600      5.1872      6.1330      7.2907      8.6196    
  8.4570      9.7304      10.957      11.991      12.650      12.908      12.912      12.858      12.838      12.772    
  12.464      11.757      10.660      9.3589      8.0299      6.7977      5.7461      4.9118      4.2973      3.8887    
  3.6708      3.6342      3.7759      4.0970      4.6017      5.2957      6.1815      7.2483      7.1056      8.1752    
  9.2983      10.388      11.350      12.083      12.542      12.786      12.895      12.878      12.655      12.119    
  11.240      10.117      8.8831      7.6628      6.5573      5.6275      4.8955      4.3581      4.0024      3.8173    
  3.7968      3.9393      4.2452      4.7156      5.3520      6.1530      6.0491      6.8730      7.7951      8.7665    
  9.7219      10.595      11.331      11.890      12.266      12.462      12.446      12.158      11.565      10.704    
  9.6575      8.5339      7.4413      6.4614      5.6395      4.9894      4.5071      4.1833      4.0109      3.9869    
  4.1103      4.3798      4.7943      5.3521      5.2958      5.8774      6.5675      7.3446      8.1728      9.0056    
  9.7947      10.499      11.088      11.529      11.785      11.809      11.562      11.036      10.270      9.3420    
  8.3503      7.3876      6.5205      5.7849      5.1921      4.7406      4.4258      4.2449      4.1967      4.2803    
  4.4933      4.8329      4.8291      5.1873      5.6504      6.2110      6.8545      7.5563      8.2842      9.0039    
  9.6824      10.286      10.774      11.098      11.204      11.053      10.641      10.005      9.2154      8.3589    
  7.5143      6.7383      6.0624      5.4995      5.0527      4.7228      4.5107      4.4170      4.4408      4.5792    
  4.6327      4.7837      5.0344      5.3835      5.8270      6.3555      6.9533      7.5992      8.2689      8.9356    
  9.5658      10.114      10.524      10.738      10.714      10.442      9.9521      9.3035      8.5710      7.8233    
  7.1113      6.4661      5.9042      5.4349      5.0645      4.7980      4.6377      4.5833      4.6999      4.6509    
  4.6999      4.8474      5.0939      5.4381      5.8749      6.3947      6.9845      7.6282      8.3045      8.9810    
  9.6097      10.129      10.474      10.596      10.474      10.129      9.6097      8.9810      8.3045      7.6282    
  6.9844      6.3946      5.8748      5.4381      5.0939      4.8474      5.0344      4.7837      4.6328      4.5833    
  4.6377      4.7980      5.0646      5.4349      5.9043      6.4662      7.1113      7.8233      8.5710      9.3035    
  9.9521      10.442      10.714      10.738      10.524      10.114      9.5658      8.9357      8.2689      7.5992    
  6.9533      6.3555      5.8270      5.3835      5.6504      5.1873      4.8291      4.5793      4.4408      4.4171    
  4.5108      4.7228      5.0527      5.4995      6.0624      6.7383      7.5143      8.3589      9.2154      10.005    
  10.641      11.053      11.204      11.098      10.774      10.286      9.6824      9.0040      8.2842      7.5563    
  6.8545      6.2110      6.5676      5.8775      5.2958      4.8329      4.4934      4.2804      4.1968      4.2449    
  4.4258      4.7406      5.1921      5.7849      6.5205      7.3876      8.3503      9.3420      10.270      11.036    
  11.562      11.809      11.785      11.529      11.088      10.499      9.7947      9.0056      8.1728      7.3446    
  7.7952      6.8730      6.0492      5.3522      4.7944      4.3799      4.1103      3.9870      4.0109      4.1833    
  4.5071      4.9894      5.6395      6.4614      7.4413      8.5339      9.6575      10.704      11.565      12.158    
  12.446      12.462      12.266      11.890      11.331      10.595      9.7220      8.7665      9.2983      8.1752    
  7.1057      6.1531      5.3521      4.7156      4.2452      3.9394      3.7968      3.8173      4.0024      4.3581    
  4.8956      5.6275      6.5572      7.6628      8.8831      10.117      11.240      12.119      12.655      12.878    
  12.895      12.786      12.542      12.083      11.350      10.388      10.957      9.7304      8.4570      7.2483    
  6.1816      5.2957      4.6017      4.0970      3.7759      3.6343      3.6708      3.8887      4.2973      4.9118    
  5.7461      6.7977      8.0299      9.3589      10.660      11.757      12.464      12.772      12.838      12.858    
  12.912      12.908      12.650      11.991      12.453      11.388      10.031      8.6197      7.2907      6.1331    
  5.1872      4.4601      3.9437      3.6279      3.5060      3.5769      3.8460      4.3267      5.0370      5.9886    
  7.1672      8.5132      9.9139      11.183      12.031      12.341      12.266      12.129      12.205      12.541    
  12.911      12.965      13.019      12.708      11.647      10.180      8.6519      7.2306      6.0118      5.0343    
  4.2994      3.7934      3.5021      3.4174      3.5391      3.8762      4.4459      5.2673      6.3448      7.6453    
  9.0789      10.481      11.504      11.852      11.562      11.005      10.682      10.925      11.687      12.562    
  11.956      12.860      12.765      11.720      10.167      8.5532      7.0736      5.8270      4.8473      4.1293    
  3.6539      3.4043      3.3722      3.5595      3.9794      4.6524      5.5956      6.8007      8.2087      9.6906    
  10.935      11.469      11.097      10.073      9.0200      8.6020      9.1549      10.482      9.1515      11.246    
  12.570      12.656      11.616      9.9981      8.3333      6.8323      5.5915      4.6376      3.9588      3.5318    
  3.3387      3.3722      3.6380      4.1532      4.9405      6.0111      7.3391      8.8323      10.282      11.167    
  11.009      9.7769      7.9918      6.5238      6.1580      7.1672      5.3140      7.9649      10.606      12.243    
  12.422      11.353      9.6900      8.0100      6.5241      5.3205      4.4171      3.7962      3.4322      3.3074    
  3.4175      3.7720      4.3923      5.3007      6.4996      7.9395      9.4892      10.776      11.136      10.167    
  8.0541      5.5981      3.8824      3.7408      1.7785      3.9458      7.1670      10.181      11.952      12.099    
  10.957      9.2674      7.6069      6.1689      5.0294      4.1969      3.6487      3.3588      3.3115      3.5061    
  3.9569      4.6882      5.7203      7.0427      8.5787      10.135      11.137      10.882      9.0977      6.2148    
  3.2874      1.5427      4.8735      5.3201      7.1670      9.6200      11.651      12.507      12.028      10.627    
  8.9590      7.3886      6.0532      5.0057      4.2450      3.7481      3.4928      3.4668      3.6709      4.1185    
  4.8316      5.8283      7.0981      8.5705      10.083      11.181      11.262      10.092      8.0371      5.9713    
  5.0532      4.0896      4.8145      6.9154      9.4680      11.417      12.087      11.437      9.9720      8.3441    
  6.8533      5.6165      4.6719      4.0110      3.6095      3.4470      3.5147      3.8174      4.3723      5.2035    
  6.3250      7.7132      9.2740      10.782      11.653      11.312      9.6603      7.2401      6.9154      4.8145    
  4.0896      5.0532      7.2401      9.6603      11.312      11.653      10.782      9.2740      7.7133      6.3250    
  5.2034      4.3723      3.8174      3.5147      3.4470      3.6095      4.0110      4.6719      5.6165      6.8532    
  8.3441      9.9720      11.437      12.086      11.417      9.4680      9.6200      7.1670      5.3201      4.8735    
  5.9713      8.0371      10.092      11.262      11.181      10.083      8.5705      7.0981      5.8283      4.8316    