    2    2   15    1
  0.1529437E+02  0.3691622E-09  0.3691622E-09  0.3691622E-09  0.5000000E-15
  1.000000000000000E-004
  CAR 
 unknown system                          
      8     28      8
 
  0.8333333E-01  0.8333333E-01  0.8333333E-01  0.3703704E-01
    1       -3.658574   1.000000
    2        3.951984   1.000000
    3        7.166894   1.000000
    4        8.706241   0.999869
    5       12.901814   0.000000
    6       13.790089   0.000000
    7       13.999809   0.000000
    8       15.856113   0.000000
 
  0.2500000E+00  0.8333333E-01  0.8333333E-01  0.7407407E-01
    1       -1.336213   1.000000
    2        4.313166   1.000000
    3        7.499785   1.000000
    4        8.007523   1.000000
    5        9.759845   0.000073
    6       12.373765   0.000000
    7       13.621817   0.000000
    8       14.417073   0.000000
 
  0.4166667E+00  0.8333333E-01  0.8333333E-01  0.3703704E-01
    1        2.190697   1.000000
    2        2.743775   1.000000
    3        6.043881   1.000000
    4        6.150308   1.000000
    5        9.607101   0.003270
    6       11.410015   0.000000
    7       13.712134   0.000000
    8       14.597335   0.000000
 
 -0.8333333E-01  0.8333333E-01  0.8333333E-01  0.1851852E-01
    1       -4.439999   1.000000
    2        4.565694   1.000000
    3        5.734298   1.000000
    4        8.322129   1.000000
    5       11.548358   0.000000
    6       14.435286   0.000000
    7       17.588805   0.000000
    8       18.293646   0.000000
 
  0.2500000E+00  0.2500000E+00  0.8333333E-01  0.3703704E-01
    1        2.096646   1.000000
    2        4.003385   1.000000
    3        4.109775   1.000000
    4        5.870657   1.000000
    5       11.023453   0.000000
    6       12.258023   0.000000
    7       13.872504   0.000000
    8       14.374389   0.000000
 
  0.4166667E+00  0.2500000E+00  0.8333333E-01  0.7407407E-01
    1       -0.040628   1.000000
    2        1.868911   1.000000
    3        6.997713   1.000000
    4        8.323964   1.000000
    5       10.010955   0.000000
    6       11.846148   0.000000
    7       13.635186   0.000000
    8       15.284934   0.000000
 
 -0.4166667E+00  0.2500000E+00  0.8333333E-01  0.3703704E-01
    1       -2.670207   1.000000
    2        1.197764   1.000000
    3        8.066230   1.000000
    4        9.914137   0.000001
    5       11.511573   0.000000
    6       12.986156   0.000000
    7       14.125131   0.000000
    8       14.361929   0.000000
 
 -0.2500000E+00  0.2500000E+00  0.8333333E-01  0.3703704E-01
    1       -3.777685   1.000000
    2        1.983715   1.000000
    3        6.004675   1.000000
    4        9.918208   0.000000
    5       11.537585   0.000000
    6       14.601727   0.000000
    7       15.452313   0.000000
    8       18.923978   0.000000
 
 -0.8333333E-01  0.2500000E+00  0.8333333E-01  0.3703704E-01
    1       -3.328920   1.000000
    2        3.703183   1.000000
    3        5.209432   1.000000
    4       10.749802   0.000000
    5       11.887603   0.000000
    6       13.275868   0.000000
    7       14.106768   0.000000
    8       15.970411   0.000000
 
  0.4166667E+00  0.4166667E+00  0.8333333E-01  0.1851852E-01
    1       -1.040199   1.000000
    2       -1.040199   1.000000
    3        9.532641   0.014158
    4        9.532647   0.014156
    5       11.446731   0.000000
    6       11.446736   0.000000
    7       13.741544   0.000000
    8       13.741553   0.000000
 
 -0.4166667E+00  0.4166667E+00  0.8333333E-01  0.3703704E-01
    1       -2.463341   1.000000
    2       -0.521431   1.000000
    3        7.232437   1.000000
    4        9.091623   0.822669
    5       11.333971   0.000000
    6       13.181221   0.000000
    7       18.288936   0.000000
    8       18.531683   0.000000
 
 -0.2500000E+00  0.4166667E+00  0.8333333E-01  0.7407407E-01
    1       -2.345687   1.000000
    2        1.462936   1.000000
    3        5.612149   1.000000
    4        9.238468   0.455107
    5       11.402675   0.000000
    6       13.548783   0.000000
    7       15.575399   0.000000
    8       16.840209   0.000000
 
 -0.8333333E-01  0.4166667E+00  0.8333333E-01  0.3703704E-01
    1       -0.690090   1.000000
    2        4.299667   1.000000
    3        5.902088   1.000000
    4        6.475016   1.000000
    5       10.121244   0.000000
    6       12.352791   0.000000
    7       13.378825   0.000000
    8       15.466466   0.000000
 
 -0.4166667E+00 -0.4166667E+00  0.8333333E-01  0.3703704E-01
    1       -0.730799   1.000000
    2       -0.725907   1.000000
    3        7.109609   1.000000
    4        7.125257   1.000000
    5       11.290307   0.000000
    6       14.594011   0.000000
    7       15.373628   0.000000
    8       15.416174   0.000000
 
 -0.2500000E+00 -0.4166667E+00  0.8333333E-01  0.7407407E-01
    1        0.586490   1.000000
    2        2.432024   1.000000
    3        5.802286   1.000000
    4        6.593520   1.000000
    5        8.283583   1.000000
    6       11.878595   0.000000
    7       15.460180   0.000000
    8       17.063441   0.000000
 
 -0.8333333E-01 -0.4166667E+00  0.8333333E-01  0.3703704E-01
    1        1.471962   1.000000
    2        3.448937   1.000000
    3        6.409035   1.000000
    4        7.617762   1.000000
    5        8.228514   1.000000
    6       10.839059   0.000000
    7       11.684690   0.000000
    8       15.768506   0.000000
 
 -0.2500000E+00 -0.2500000E+00  0.8333333E-01  0.3703704E-01
    1        1.165441   1.000000
    2        4.903351   1.000000
    3        4.950060   1.000000
    4        7.757358   1.000000
    5        8.739934   0.999678
    6       10.320654   0.000000
    7       12.710124   0.000000
    8       13.549464   0.000000
 
 -0.8333333E-01 -0.2500000E+00  0.8333333E-01  0.3703704E-01
    1       -1.990508   1.000000
    2        6.758338   1.000000
    3        7.749685   1.000000
    4        8.510790   1.000000
    5        9.909537   0.000001
    6       11.179006   0.000000
    7       12.404563   0.000000
    8       13.600336   0.000000
 
 -0.8333333E-01 -0.8333333E-01  0.8333333E-01  0.9259259E-02
    1       -3.989595   1.000000
    2        6.839000   1.000000
    3        6.865086   1.000000
    4        6.865097   1.000000
    5       11.239620   0.000000
    6       14.558900   0.000000
    7       14.828715   0.000000
    8       16.770450   0.000000
 
  0.2500000E+00  0.2500000E+00  0.2500000E+00  0.9259259E-02
    1        3.401493   1.000000
    2        3.401496   1.000000
    3        4.076501   1.000000
    4        4.076503   1.000000
    5       13.282406   0.000000
    6       13.282408   0.000000
    7       15.085984   0.000000
    8       15.085985   0.000000
 
 -0.2500000E+00  0.2500000E+00  0.2500000E+00  0.1851852E-01
    1       -3.122048   1.000000
    2        1.975863   1.000000
    3        3.653917   1.000000
    4        8.609684   0.999993
    5       13.004678   0.000000
    6       16.168937   0.000000
    7       17.340322   0.000000
    8       18.269264   0.000000
 
 -0.4166667E+00  0.4166667E+00  0.2500000E+00  0.3703704E-01
    1       -1.826140   1.000000
    2        0.054067   1.000000
    3        4.309651   1.000000
    4        6.140462   1.000000
    5       14.862698   0.000000
    6       16.280986   0.000000
    7       17.842816   0.000000
    8       18.236486   0.000000
 
 -0.2500000E+00  0.4166667E+00  0.2500000E+00  0.3703704E-01
    1       -1.382158   1.000000
    2        1.754695   1.000000
    3        3.490495   1.000000
    4        6.551752   1.000000
    5       10.835242   0.000000
    6       16.620314   0.000000
    7       17.551255   0.000000
    8       18.468851   0.000000
 
 -0.4166667E+00 -0.4166667E+00  0.2500000E+00  0.3703704E-01
    1        0.162489   1.000000
    2        0.173364   1.000000
    3        4.426220   1.000000
    4        4.431099   1.000000
    5       10.564365   0.000000
    6       17.705278   0.000000
    7       18.366660   0.000000
    8       19.127710   0.000000
 
 -0.2500000E+00 -0.4166667E+00  0.2500000E+00  0.3703704E-01
    1        1.789578   1.000000
    2        3.020091   1.000000
    3        4.760483   1.000000
    4        5.247857   1.000000
    5        6.034174   1.000000
    6       14.009713   0.000000
    7       15.416386   0.000000
    8       17.327819   0.000000
 
 -0.2500000E+00 -0.2500000E+00  0.2500000E+00  0.9259259E-02
    1        0.849848   1.000000
    2        5.806303   1.000000
    3        5.896232   1.000000
    4        7.277561   1.000000
    5        7.277565   1.000000
    6       11.644693   0.000000
    7       12.328899   0.000000
    8       12.328921   0.000000
 
 -0.4166667E+00  0.4166667E+00  0.4166667E+00  0.1851852E-01
    1       -0.600604   1.000000
    2        0.658658   1.000000
    3        2.455807   1.000000
    4        3.697647   1.000000
    5       16.246517   0.000000
    6       16.436903   0.000000
    7       19.485985   0.000000
    8       20.601406   0.000000
 
 -0.4166667E+00 -0.4166667E+00  0.4166667E+00  0.9259259E-02
    1        1.087404   1.000000
    2        1.106496   1.000000
    3        2.885415   1.000000
    4        2.885415   1.000000
    5       10.279319   0.000000
    6       19.259945   0.000000
    7       20.393807   0.000000
    8       20.393824   0.000000
