unknown system                          
   1.00000000000000     
     0.000000    2.715000    2.715000
     2.715000    0.000000    2.715000
     2.715000    2.715000    0.000000
   Si
     2
Direct
  0.500000  0.500000  0.500000
  0.750000  0.750000  0.750000
 
   32   32   32
 0.88089741081E+00 0.90130819200E+00 0.96440443067E+00 0.10753740833E+01 0.12417824708E+01
 0.14725110513E+01 0.17767934457E+01 0.21629786042E+01 0.26362578493E+01 0.31949291322E+01
 0.38258451580E+01 0.45007794226E+01 0.51756902045E+01 0.57941037726E+01 0.62946200252E+01
 0.66213475904E+01 0.67349647569E+01 0.66213015204E+01 0.62945742753E+01 0.57941051205E+01
 0.51757447839E+01 0.45008553206E+01 0.38259043504E+01 0.31949522797E+01 0.26362474412E+01
 0.21629497631E+01 0.17767633854E+01 0.14724912199E+01 0.12417754624E+01 0.10753759537E+01
 0.96440946488E+00 0.90131188895E+00 0.90130819200E+00 0.93624938998E+00 0.10092646303E+01
 0.11259108028E+01 0.12930754755E+01 0.15178837718E+01 0.18067032712E+01 0.21639120705E+01
 0.25899066851E+01 0.30781869028E+01 0.36121699613E+01 0.41631355927E+01 0.46908222247E+01
 0.51475244609E+01 0.54853799281E+01 0.56653245085E+01 0.56653287017E+01 0.54853777653E+01
 0.51474981613E+01 0.46907878430E+01 0.41631295119E+01 0.36122001214E+01 0.30782184259E+01
 0.25899026966E+01 0.21638751031E+01 0.18066672147E+01 0.15178743146E+01 0.12930893955E+01
 0.11259295341E+01 0.10092759602E+01 0.93625307458E+00 0.90130869878E+00 0.96440443067E+00
 0.10092646303E+01 0.10882683489E+01 0.12067196015E+01 0.13703458721E+01 0.15842979122E+01
 0.18522463442E+01 0.21752666651E+01 0.25501815205E+01 0.29673879391E+01 0.34087928898E+01
 0.38469797424E+01 0.42467470554E+01 0.45695089559E+01 0.47799255384E+01 0.48530662949E+01
 0.47799313382E+01 0.45695237757E+01 0.42467716331E+01 0.38470041911E+01 0.34087989073E+01
 0.29673662843E+01 0.25501436243E+01 0.21752320975E+01 0.18522239629E+01 0.15842870959E+01
 0.13703479350E+01 0.12067343598E+01 0.10882846188E+01 0.10092695789E+01 0.96440083017E+00
 0.94990572510E+00 0.10753740833E+01 0.11259108028E+01 0.12067196015E+01 0.13224218735E+01
 0.14774119101E+01 0.16750353653E+01 0.19168096214E+01 0.22014289502E+01 0.25233902342E+01
 0.28714156880E+01 0.32272916007E+01 0.35660242401E+01 0.38580559643E+01 0.40736069613E+01
 0.41882707334E+01 0.41882620656E+01 0.40735930398E+01 0.38580612667E+01 0.35660569745E+01
 0.32273246697E+01 0.28714080567E+01 0.25233334742E+01 0.22013611059E+01 0.19167748191E+01
 0.16750409976E+01 0.14774340933E+01 0.13224391777E+01 0.12067271765E+01 0.11259111064E+01
 0.10753705775E+01 0.10512179742E+01 0.10512201580E+01 0.12417824708E+01 0.12930754755E+01
 0.13703458721E+01 0.14774119101E+01 0.16175175801E+01 0.17926928767E+01 0.20030302402E+01
 0.22457264095E+01 0.25139313346E+01 0.27957195522E+01 0.30737441740E+01 0.33261886757E+01
 0.35293450498E+01 0.36615396400E+01 0.37074590749E+01 0.36615532570E+01 0.35293457462E+01
 0.33261589253E+01 0.30736963977E+01 0.27956773916E+01 0.25139032413E+01 0.22457069369E+01
 0.20030182701E+01 0.17926961068E+01 0.16175397575E+01 0.14774435515E+01 0.13703701870E+01
 0.12930816206E+01 0.12417734871E+01 0.12127946361E+01 0.12034692928E+01 0.12128052108E+01
 0.14725110513E+01 0.15178837718E+01 0.15842979122E+01 0.16750353653E+01 0.17926928767E+01
 0.19386164844E+01 0.21121279196E+01 0.23095619866E+01 0.25233891112E+01 0.27418099990E+01
 0.29491709903E+01 0.31274337532E+01 0.32587073508E+01 0.33284439936E+01 0.33284518841E+01
 0.32587264611E+01 0.31274456702E+01 0.29491494919E+01 0.27417521471E+01 0.25233324807E+01
 0.23095514537E+01 0.21121669528E+01 0.19386670250E+01 0.17927215414E+01 0.16750427597E+01
 0.15843006757E+01 0.15178861814E+01 0.14725059435E+01 0.14447427061E+01 0.14317056426E+01
 0.14317122202E+01 0.14447547163E+01 0.17767934457E+01 0.18067032712E+01 0.18522463442E+01
 0.19168096214E+01 0.20030302402E+01 0.21121279196E+01 0.22430462988E+01 0.23916241000E+01
 0.25501807163E+01 0.27077849903E+01 0.28512402251E+01 0.29667009376E+01 0.30417852558E+01
 0.30678472195E+01 0.30417826181E+01 0.29667096360E+01 0.28512639426E+01 0.27078107137E+01
 0.25501986101E+01 0.23916378937E+01 0.22430613940E+01 0.21121430692E+01 0.20030419159E+01
 0.19168124533E+01 0.18522318151E+01 0.18066719269E+01 0.17767644337E+01 0.17588994578E+01
 0.17497661892E+01 0.17470028526E+01 0.17497601368E+01 0.17589075187E+01 0.21629786042E+01
 0.21639120705E+01 0.21752666651E+01 0.22014289502E+01 0.22457264095E+01 0.23095619866E+01
 0.23916241000E+01 0.24874979271E+01 0.25899060752E+01 0.26895397457E+01 0.27762625023E+01
 0.28405024935E+01 0.28747175935E+01 0.28747227164E+01 0.28405133898E+01 0.27762724664E+01
 0.26895524481E+01 0.25899345237E+01 0.24875416680E+01 0.23916538795E+01 0.23095453179E+01
 0.22456681288E+01 0.22013672017E+01 0.21752268523E+01 0.21638868830E+01 0.21629575086E+01
 0.21677587157E+01 0.21739114874E+01 0.21779492718E+01 0.21779430633E+01 0.21739051836E+01
 0.21677682293E+01 0.26362578493E+01 0.25899066851E+01 0.25501815205E+01 0.25233902342E+01
 0.25139313346E+01 0.25233891112E+01 0.25501807163E+01 0.25899060752E+01 0.26362557902E+01
 0.26821396646E+01 0.27207442248E+01 0.27464217398E+01 0.27554249458E+01 0.27464378848E+01
 0.27207716460E+01 0.26821624779E+01 0.26362539175E+01 0.25898742141E+01 0.25501333564E+01
 0.25233420052E+01 0.25138847477E+01 0.25233369041E+01 0.25501257146E+01 0.25898658275E+01
 0.26362452903E+01 0.26821552642E+01 0.27207682310E+01 0.27464382431E+01 0.27554268228E+01
 0.27464240531E+01 0.27207474767E+01 0.26821432004E+01 0.31949291322E+01 0.30781869028E+01
 0.29673879391E+01 0.28714156880E+01 0.27957195522E+01 0.27418099990E+01 0.27077849903E+01
 0.26895397457E+01 0.26821396646E+01 0.26809366794E+01 0.26822295507E+01 0.26835138539E+01
 0.26835263722E+01 0.26822565292E+01 0.26809601705E+01 0.26821472787E+01 0.26895145965E+01
 0.27077095780E+01 0.27417008046E+01 0.27956331314E+01 0.28713936014E+01 0.29674107782E+01
 0.30782062687E+01 0.31949295109E+01 0.33067186978E+01 0.34024398077E+01 0.34723116592E+01
 0.35091401762E+01 0.35091274897E+01 0.34722832862E+01 0.34024178260E+01 0.33067153705E+01
 0.38258451580E+01 0.36121699613E+01 0.34087928898E+01 0.32272916007E+01 0.30737441740E+01
 0.29491709903E+01 0.28512402251E+01 0.27762625023E+01 0.27207442248E+01 0.26822295507E+01
 0.26594357007E+01 0.26518881835E+01 0.26594657738E+01 0.26822439876E+01 0.27207213870E+01
 0.27762229810E+01 0.28511965735E+01 0.29491145600E+01 0.30736867180E+01 0.32272676340E+01
 0.34088116410E+01 0.36122083728E+01 0.38258897715E+01 0.40340844472E+01 0.42192969295E+01
 0.43650695539E+01 0.44582114153E+01 0.44902455230E+01 0.44582291106E+01 0.43650657121E+01
 0.42192566268E+01 0.40340327590E+01 0.45007794226E+01 0.41631355927E+01 0.38469797424E+01
 0.35660242401E+01 0.33261886757E+01 0.31274337532E+01 0.29667009376E+01 0.28405024935E+01
 0.27464217398E+01 0.26835138539E+01 0.26518881835E+01 0.26518986482E+01 0.26835264634E+01
 0.27464054295E+01 0.28404498239E+01 0.29666289222E+01 0.31273701283E+01 0.33261641675E+01
 0.35660497088E+01 0.38470227531E+01 0.41631537930E+01 0.45007810645E+01 0.48389320739E+01
 0.51520836713E+01 0.54142247492E+01 0.56027662245E+01 0.57013374072E+01 0.57013675533E+01
 0.56028096543E+01 0.54142155749E+01 0.51520362779E+01 0.48389048390E+01 0.51756902045E+01
 0.46908222247E+01 0.42467470554E+01 0.38580559643E+01 0.35293450498E+01 0.32587073508E+01
 0.30417852558E+01 0.28747175935E+01 0.27554249458E+01 0.26835263722E+01 0.26594657738E+01
 0.26835264634E+01 0.27554098613E+01 0.28746753880E+01 0.30417218654E+01 0.32586415141E+01
 0.35292953924E+01 0.38580368814E+01 0.42467677568E+01 0.46908756407E+01 0.51757430566E+01
 0.56757977187E+01 0.61569385249E+01 0.65814859632E+01 0.69138760615E+01 0.71255345621E+01
 0.71981803720E+01 0.71255569322E+01 0.69139284639E+01 0.65815547620E+01 0.61569831453E+01
 0.56757874539E+01 0.57941037726E+01 0.51475244609E+01 0.45695089559E+01 0.40736069613E+01
 0.36615396400E+01 0.33284439936E+01 0.30678472195E+01 0.28747227164E+01 0.27464378848E+01
 0.26822565292E+01 0.26822439876E+01 0.27464054295E+01 0.28746753880E+01 0.30677857540E+01
 0.33283817369E+01 0.36615000819E+01 0.40735941784E+01 0.45695081326E+01 0.51475382749E+01
 0.57941471640E+01 0.64809689139E+01 0.71660601170E+01 0.77991735592E+01 0.83290286393E+01
 0.87104200382E+01 0.89099516948E+01 0.89099597638E+01 0.87104629853E+01 0.83291138371E+01
 0.77992476285E+01 0.71660652161E+01 0.64809200788E+01 0.62946200252E+01 0.54853799281E+01
 0.47799255384E+01 0.41882707334E+01 0.37074590749E+01 0.33284518841E+01 0.30417826181E+01
 0.28405133898E+01 0.27207716460E+01 0.26809601705E+01 0.27207213870E+01 0.28404498239E+01
 0.30417218654E+01 0.33283817369E+01 0.37073932412E+01 0.41882561429E+01 0.47799749677E+01
 0.54854412207E+01 0.62946364814E+01 0.71794837076E+01 0.80930664715E+01 0.89739605483E+01
 0.97541007713E+01 0.10367807245E+02 0.10760382769E+02 0.10895484075E+02 0.10760358319E+02
 0.10367773804E+02 0.97540780458E+01 0.89739639111E+01 0.80930960811E+01 0.71795109822E+01
 0.66213475904E+01 0.56653245085E+01 0.48530662949E+01 0.41882620656E+01 0.36615532570E+01
 0.32587264611E+01 0.29667096360E+01 0.27762724664E+01 0.26821624779E+01 0.26821472787E+01
 0.27762229810E+01 0.29666289222E+01 0.32586415141E+01 0.36615000819E+01 0.41882561429E+01
 0.48530969844E+01 0.56653715264E+01 0.66213867923E+01 0.76970650653E+01 0.88448831348E+01
 0.99964592491E+01 0.11069459402E+02 0.11976678336E+02 0.12636431216E+02 0.12984220262E+02
 0.12984140254E+02 0.12636257391E+02 0.11976542132E+02 0.11069432985E+02 0.99965080180E+01
 0.88449276199E+01 0.76970626110E+01 0.67349647569E+01 0.56653287017E+01 0.47799313382E+01
 0.40735930398E+01 0.35293457462E+01 0.31274456702E+01 0.28512639426E+01 0.26895524481E+01
 0.26362539175E+01 0.26895145965E+01 0.28511965735E+01 0.31273701283E+01 0.35292953924E+01
 0.40735941784E+01 0.47799749677E+01 0.56653715264E+01 0.67349703629E+01 0.79728980985E+01
 0.93365288596E+01 0.10756730998E+02 0.12142914155E+02 0.13390225664E+02 0.14388707409E+02
 0.15036608798E+02 0.15260942898E+02 0.15036500039E+02 0.14388550573E+02 0.13390087969E+02
 0.12142829590E+02 0.10756703844E+02 0.93365448806E+01 0.79729228737E+01 0.66213015204E+01
 0.54853777653E+01 0.45695237757E+01 0.38580612667E+01 0.33261589253E+01 0.29491494919E+01
 0.27078107137E+01 0.25899345237E+01 0.25898742141E+01 0.27077095780E+01 0.29491145600E+01
 0.33261641675E+01 0.38580368814E+01 0.45695081326E+01 0.54854412207E+01 0.66213867923E+01
 0.79728980985E+01 0.95076204432E+01 0.11163032595E+02 0.12849027069E+02 0.14451905332E+02
 0.15836559458E+02 0.16854323301E+02 0.17392303011E+02 0.17392307661E+02 0.16854286504E+02
 0.15836402428E+02 0.14451656778E+02 0.12848839500E+02 0.11163015983E+02 0.95076976923E+01
 0.79729074543E+01 0.62945742753E+01 0.51474981613E+01 0.42467716331E+01 0.35660569745E+01
 0.30736963977E+01 0.27417521471E+01 0.25501986101E+01 0.24875416680E+01 0.25501333564E+01
 0.27417008046E+01 0.30736867180E+01 0.35660497088E+01 0.42467677568E+01 0.51475382749E+01
 0.62946364814E+01 0.76970650653E+01 0.93365288596E+01 0.11163032595E+02 0.13095648316E+02
 0.15023646649E+02 0.16793866369E+02 0.18216918393E+02 0.19137821516E+02 0.19456408853E+02
 0.19137725618E+02 0.18216806074E+02 0.16793762552E+02 0.15023513240E+02 0.13095507099E+02
 0.11162960926E+02 0.93365236374E+01 0.76970424845E+01 0.57941051205E+01 0.46907878430E+01
 0.38470041911E+01 0.32273246697E+01 0.27956773916E+01 0.25233324807E+01 0.23916378937E+01
 0.23916538795E+01 0.25233420052E+01 0.27956331314E+01 0.32272676340E+01 0.38470227531E+01
 0.46908756407E+01 0.57941471640E+01 0.71794837076E+01 0.88448831348E+01 0.10756730998E+02
 0.12849027069E+02 0.15023646649E+02 0.17128610184E+02 0.18947754255E+02 0.20286103704E+02
 0.20996131575E+02 0.20996041692E+02 0.20285971959E+02 0.18947765868E+02 0.17128693723E+02
 0.15023591873E+02 0.12848823781E+02 0.10756580769E+02 0.88448907757E+01 0.71795310838E+01
 0.51757447839E+01 0.41631295119E+01 0.34087989073E+01 0.28714080567E+01 0.25139032413E+01
 0.23095514537E+01 0.22430613940E+01 0.23095453179E+01 0.25138847477E+01 0.28713936014E+01
 0.34088116410E+01 0.41631537930E+01 0.51757430566E+01 0.64809689139E+01 0.80930664715E+01
 0.99964592491E+01 0.12142914155E+02 0.14451905332E+02 0.16793866369E+02 0.18947754255E+02
 0.20687100412E+02 0.21821191971E+02 0.22215733015E+02 0.21821233560E+02 0.20687142146E+02
 0.18947759920E+02 0.16793827509E+02 0.14451826390E+02 0.12142816931E+02 0.99963902231E+01
 0.80930562680E+01 0.64809908158E+01 0.45008553206E+01 0.36122001214E+01 0.29673662843E+01
 0.25233334742E+01 0.22457069369E+01 0.21121669528E+01 0.21121430692E+01 0.22456681288E+01
 0.25233369041E+01 0.29674107782E+01 0.36122083728E+01 0.45007810645E+01 0.56757977187E+01
 0.71660601170E+01 0.89739605483E+01 0.11069459402E+02 0.13390225664E+02 0.15836559458E+02
 0.18216918393E+02 0.20286103704E+02 0.21821191971E+02 0.22641525078E+02 0.22641598937E+02
 0.21821294074E+02 0.20286069123E+02 0.18216790045E+02 0.15836489499E+02 0.13390224322E+02
 0.11069423449E+02 0.89738847804E+01 0.71660496817E+01 0.56758803720E+01 0.38259043504E+01
 0.30782184259E+01 0.25501436243E+01 0.22013611059E+01 0.20030182701E+01 0.19386670250E+01
 0.20030419159E+01 0.22013672017E+01 0.25501257146E+01 0.30782062687E+01 0.38258897715E+01
 0.48389320739E+01 0.61569385249E+01 0.77991735592E+01 0.97541007713E+01 0.11976678336E+02
 0.14388707409E+02 0.16854323301E+02 0.19137821516E+02 0.20996131575E+02 0.22215733015E+02
 0.22641598937E+02 0.22215789795E+02 0.20996184316E+02 0.19137825639E+02 0.16854280757E+02
 0.14388630592E+02 0.11976589654E+02 0.97540561530E+01 0.77992135578E+01 0.61570253024E+01
 0.48389898065E+01 0.31949522797E+01 0.25899026966E+01 0.21752320975E+01 0.19167748191E+01
 0.17926961068E+01 0.17927215414E+01 0.19168124533E+01 0.21752268523E+01 0.25898658275E+01
 0.31949295109E+01 0.40340844472E+01 0.51520836713E+01 0.65814859632E+01 0.83290286393E+01
 0.10367807245E+02 0.12636431216E+02 0.15036608798E+02 0.17392303011E+02 0.19456408853E+02
 0.20996041692E+02 0.21821233560E+02 0.21821294074E+02 0.20996184316E+02 0.19456540587E+02
 0.17392339402E+02 0.15036537372E+02 0.12636326681E+02 0.10367771671E+02 0.83290919848E+01
 0.65815828425E+01 0.51521386685E+01 0.40340984858E+01 0.26362474412E+01 0.21638751031E+01
 0.18522239629E+01 0.16750409976E+01 0.16175397575E+01 0.16750427597E+01 0.18522318151E+01
 0.21638868830E+01 0.26362452903E+01 0.33067186978E+01 0.42192969295E+01 0.54142247492E+01
 0.69138760615E+01 0.87104200382E+01 0.10760382769E+02 0.12984220262E+02 0.15260942898E+02
 0.17392307661E+02 0.19137725618E+02 0.20285971959E+02 0.20687142146E+02 0.20286069123E+02
 0.19137825639E+02 0.17392339402E+02 0.15260927144E+02 0.12984213609E+02 0.10760408196E+02
 0.87104690180E+01 0.69139437808E+01 0.54143072451E+01 0.42193704409E+01 0.33067568193E+01
 0.21629497631E+01 0.18066672147E+01 0.15842870959E+01 0.14774340933E+01 0.14774435515E+01
 0.15843006757E+01 0.18066719269E+01 0.21629575086E+01 0.26821552642E+01 0.34024398077E+01
 0.43650695539E+01 0.56027662245E+01 0.71255345621E+01 0.89099516948E+01 0.10895484075E+02
 0.12984140254E+02 0.15036500039E+02 0.16854286504E+02 0.18216806074E+02 0.18947765868E+02
 0.18947759920E+02 0.18216790045E+02 0.16854280757E+02 0.15036537372E+02 0.12984213609E+02
 0.10895545313E+02 0.89099858646E+01 0.71255890697E+01 0.56028697424E+01 0.43651722191E+01
 0.34024835024E+01 0.26821514361E+01 0.17767633854E+01 0.15178743146E+01 0.13703479350E+01
 0.13224391777E+01 0.13703701870E+01 0.15178861814E+01 0.17767644337E+01 0.21677587157E+01
 0.27207682310E+01 0.34723116592E+01 0.44582114153E+01 0.57013374072E+01 0.71981803720E+01
 0.89099597638E+01 0.10760358319E+02 0.12636257391E+02 0.14388550573E+02 0.15836402428E+02
 0.16793762552E+02 0.17128693723E+02 0.16793827509E+02 0.15836489499E+02 0.14388630592E+02
 0.12636326681E+02 0.10760408196E+02 0.89099858646E+01 0.71982155280E+01 0.57014143131E+01
 0.44582978668E+01 0.34723467977E+01 0.27207516739E+01 0.21677417076E+01 0.14724912199E+01
 0.12930893955E+01 0.12067343598E+01 0.12067271765E+01 0.12930816206E+01 0.14725059435E+01
 0.17588994578E+01 0.21739114874E+01 0.27464382431E+01 0.35091401762E+01 0.44902455230E+01
 0.57013675533E+01 0.71255569322E+01 0.87104629853E+01 0.10367773804E+02 0.11976542132E+02
 0.13390087969E+02 0.14451656778E+02 0.15023513240E+02 0.15023591873E+02 0.14451826390E+02
 0.13390224322E+02 0.11976589654E+02 0.10367771671E+02 0.87104690180E+01 0.71255890697E+01
 0.57014143131E+01 0.44902920150E+01 0.35091706486E+01 0.27464363975E+01 0.21738785011E+01
 0.17588619186E+01 0.12417754624E+01 0.11259295341E+01 0.10882846188E+01 0.11259111064E+01
 0.12417734871E+01 0.14447427061E+01 0.17497661892E+01 0.21779492718E+01 0.27554268228E+01
 0.35091274897E+01 0.44582291106E+01 0.56028096543E+01 0.69139284639E+01 0.83291138371E+01
 0.97540780458E+01 0.11069432985E+02 0.12142829590E+02 0.12848839500E+02 0.13095507099E+02
 0.12848823781E+02 0.12142816931E+02 0.11069423449E+02 0.97540561530E+01 0.83290919848E+01
 0.69139437808E+01 0.56028697424E+01 0.44582978668E+01 0.35091706486E+01 0.27554378595E+01
 0.21779319510E+01 0.17497295144E+01 0.14447133544E+01 0.10753759537E+01 0.10092759602E+01
 0.10092695789E+01 0.10753705775E+01 0.12127946361E+01 0.14317056426E+01 0.17470028526E+01
 0.21779430633E+01 0.27464240531E+01 0.34722832862E+01 0.43650657121E+01 0.54142155749E+01
 0.65815547620E+01 0.77992476285E+01 0.89739639111E+01 0.99965080180E+01 0.10756703844E+02
 0.11163015983E+02 0.11162960926E+02 0.10756580769E+02 0.99963902231E+01 0.89738847804E+01
 0.77992135578E+01 0.65815828425E+01 0.54143072451E+01 0.43651722191E+01 0.34723467977E+01
 0.27464363975E+01 0.21779319510E+01 0.17469843352E+01 0.14316837063E+01 0.12127826324E+01
 0.96440946488E+00 0.93625307458E+00 0.96440083017E+00 0.10512179742E+01 0.12034692928E+01
 0.14317122202E+01 0.17497601368E+01 0.21739051836E+01 0.27207474767E+01 0.34024178260E+01
 0.42192566268E+01 0.51520362779E+01 0.61569831453E+01 0.71660652161E+01 0.80930960811E+01
 0.88449276199E+01 0.93365448806E+01 0.95076976923E+01 0.93365236374E+01 0.88448907757E+01
 0.80930562680E+01 0.71660496817E+01 0.61570253024E+01 0.51521386685E+01 0.42193704409E+01
 0.34024835024E+01 0.27207516739E+01 0.21738785011E+01 0.17497295144E+01 0.14316837063E+01
 0.12034493532E+01 0.10512162047E+01 0.90131188895E+00 0.90130869878E+00 0.94990572510E+00
 0.10512201580E+01 0.12128052108E+01 0.14447547163E+01 0.17589075187E+01 0.21677682293E+01
 0.26821432004E+01 0.33067153705E+01 0.40340327590E+01 0.48389048390E+01 0.56757874539E+01
 0.64809200788E+01 0.71795109822E+01 0.76970626110E+01 0.79729228737E+01 0.79729074543E+01
 0.76970424845E+01 0.71795310838E+01 0.64809908158E+01 0.56758803720E+01 0.48389898065E+01
 0.40340984858E+01 0.33067568193E+01 0.26821514361E+01 0.21677417076E+01 0.17588619186E+01
 0.14447133544E+01 0.12127826324E+01 0.10512162047E+01 0.94991072075E+00 0.90131074047E+00
 0.93625212012E+00 0.10092662518E+01 0.11259118424E+01 0.12930772244E+01 0.15178857704E+01
 0.18067042956E+01 0.21639125970E+01 0.25899078812E+01 0.30781882145E+01 0.36121702317E+01
 0.41631355448E+01 0.46908232844E+01 0.51475261262E+01 0.54853808669E+01 0.56653252983E+01
 0.56653309513E+01 0.54853814490E+01 0.51475022131E+01 0.46907922417E+01 0.41631341639E+01
 0.36122027419E+01 0.30782163127E+01 0.25898959894E+01 0.21638660947E+01 0.18066575228E+01
 0.15178650501E+01 0.12930827258E+01 0.11259271395E+01 0.10092766687E+01 0.93625449387E+00
 0.90131034261E+00 0.93625212012E+00 0.97959503669E+00 0.10561690224E+01 0.11713744076E+01
 0.13310326110E+01 0.15403420355E+01 0.18029300313E+01 0.21197493689E+01 0.24874980639E+01
 0.28965474711E+01 0.33289725252E+01 0.37578064944E+01 0.41486284820E+01 0.44638884341E+01
 0.46692984019E+01 0.47406869936E+01 0.46693070875E+01 0.44638741996E+01 0.41485901823E+01
 0.37577871909E+01 0.33289932208E+01 0.28965659630E+01 0.24874636821E+01 0.21196749999E+01
 0.18028765838E+01 0.15403424049E+01 0.13310621021E+01 0.11713950759E+01 0.10561738180E+01
 0.97959797269E+00 0.93625734356E+00 0.92227722928E+00 0.10092662518E+01 0.10561690224E+01
 0.11318111455E+01 0.12410613812E+01 0.13884871490E+01 0.15774489445E+01 0.18093156245E+01
 0.20825731074E+01 0.23916244237E+01 0.27253838558E+01 0.30662306253E+01 0.33901996615E+01
 0.36691262617E+01 0.38747761555E+01 0.39840982280E+01 0.39840994120E+01 0.38747802874E+01
 0.36691361702E+01 0.33902166301E+01 0.30662447452E+01 0.27253768920E+01 0.23915904751E+01
 0.20825301927E+01 0.18092887180E+01 0.15774465484E+01 0.13885000827E+01 0.12410771635E+01
 0.11318215159E+01 0.10561699354E+01 0.10092603933E+01 0.98698775421E+00 0.98699147269E+00
 0.11259118424E+01 0.11713744076E+01 0.12410613812E+01 0.13391576092E+01 0.14690745499E+01
 0.16327411749E+01 0.18299909786E+01 0.20578385923E+01 0.23095632068E+01 0.25738222536E+01
 0.28343240714E+01 0.30706753659E+01 0.32607519451E+01 0.33843552031E+01 0.34272532025E+01
 0.33843286549E+01 0.32607394793E+01 0.30707005790E+01 0.28343575639E+01 0.25738172374E+01
 0.23095153657E+01 0.20577915534E+01 0.18299832945E+01 0.16327659187E+01 0.14690975613E+01
 0.13391605525E+01 0.12410535976E+01 0.11713708141E+01 0.11259150118E+01 0.11006238658E+01
 0.10925506799E+01 0.11006199495E+01 0.12930772244E+01 0.13310326110E+01 0.13884871490E+01
 0.14690745499E+01 0.15754319904E+01 0.17086621070E+01 0.18677988460E+01 0.20491691306E+01
 0.22457269271E+01 0.24466456123E+01 0.26375691049E+01 0.28018655519E+01 0.29229529087E+01
 0.29873048573E+01 0.29872992194E+01 0.29229443545E+01 0.28018635182E+01 0.26375649289E+01
 0.24466245032E+01 0.22456930157E+01 0.20491437901E+01 0.18677955972E+01 0.17086747687E+01
 0.15754467321E+01 0.14690834719E+01 0.13884891497E+01 0.13310296131E+01 0.12930726682E+01
 0.12706785736E+01 0.12604645968E+01 0.12604655238E+01 0.12706816695E+01 0.15178857704E+01
 0.15403420355E+01 0.15774489445E+01 0.16327411749E+01 0.17086621070E+01 0.18060827877E+01
 0.19237675156E+01 0.20578379153E+01 0.22014282177E+01 0.23447543450E+01 0.24757888806E+01
 0.25816623614E+01 0.26507077366E+01 0.26747194431E+01 0.26507323673E+01 0.25816936964E+01
 0.24757965518E+01 0.23447240011E+01 0.22013873419E+01 0.20578311887E+01 0.19238018103E+01
 0.18061185166E+01 0.17086659182E+01 0.16327247838E+01 0.15774428205E+01 0.15403500207E+01
 0.15178856049E+01 0.15059757149E+01 0.15007468825E+01 0.14993636665E+01 0.15007684446E+01
 0.15059952628E+01 0.18067042956E+01 0.18029300313E+01 0.18093156245E+01 0.18299909786E+01
 0.18677988460E+01 0.19237675156E+01 0.19966347683E+01 0.20825731520E+01 0.21752663918E+01
 0.22663899324E+01 0.23464994217E+01 0.24063252933E+01 0.24383581645E+01 0.24383681120E+01
 0.24063490485E+01 0.23465209314E+01 0.22663951791E+01 0.21752604757E+01 0.20825770452E+01
 0.19966582936E+01 0.19237954616E+01 0.18678116017E+01 0.18299881294E+01 0.18093088688E+01
 0.18029231924E+01 0.18066931106E+01 0.18157700665E+01 0.18252816754E+01 0.18311933905E+01
 0.18311976172E+01 0.18252935325E+01 0.18157849683E+01 0.21639125970E+01 0.21197493689E+01
 0.20825731074E+01 0.20578385923E+01 0.20491691306E+01 0.20578379153E+01 0.20825731520E+01
 0.21197501901E+01 0.21639129153E+01 0.22085017383E+01 0.22467150876E+01 0.22725003094E+01
 0.22816137006E+01 0.22725103059E+01 0.22467169973E+01 0.22084914556E+01 0.21639099144E+01
 0.21197650523E+01 0.20825842846E+01 0.20578195937E+01 0.20491322324E+01 0.20578199664E+01
 0.20825853041E+01 0.21197652117E+01 0.21639068439E+01 0.22084852632E+01 0.22467102310E+01
 0.22725045763E+01 0.22816088433E+01 0.22724966411E+01 0.22467135582E+01 0.22085017193E+01
 0.25899078812E+01 0.24874980639E+01 0.23916244237E+01 0.23095632068E+01 0.22457269271E+01
 0.22014282177E+01 0.21752663918E+01 0.21639129153E+01 0.21629790578E+01 0.21677680675E+01
 0.21739067035E+01 0.21779475331E+01 0.21779552755E+01 0.21739178788E+01 0.21677658700E+01
 0.21629644904E+01 0.21638908561E+01 0.21752267572E+01 0.22013649034E+01 0.22456647567E+01
 0.23095397166E+01 0.23916458175E+01 0.24875332047E+01 0.25899269494E+01 0.26895451632E+01
 0.27762660549E+01 0.28405103408E+01 0.28747236845E+01 0.28747201430E+01 0.28405048081E+01
 0.27762651711E+01 0.26895428276E+01 0.30781882145E+01 0.28965474711E+01 0.27253838558E+01
 0.25738222536E+01 0.24466456123E+01 0.23447543450E+01 0.22663899324E+01 0.22085017383E+01
 0.21677680675E+01 0.21411665478E+01 0.21262726495E+01 0.21214910715E+01 0.21262659147E+01
 0.21411666220E+01 0.21677781713E+01 0.22084899211E+01 0.22663111595E+01 0.23446191500E+01
 0.24465427191E+01 0.25738341467E+01 0.27254908545E+01 0.28966539074E+01 0.30782343540E+01
 0.32574640078E+01 0.34193204312E+01 0.35485779061E+01 0.36321065694E+01 0.36609967488E+01
 0.36320917676E+01 0.35485581674E+01 0.34193110347E+01 0.32574573033E+01 0.36121702317E+01
 0.33289725252E+01 0.30662306253E+01 0.28343240714E+01 0.26375691049E+01 0.24757888806E+01
 0.23464994217E+01 0.22467150876E+01 0.21739067035E+01 0.21262726495E+01 0.21027036309E+01
 0.21026903067E+01 0.21262509355E+01 0.21739000848E+01 0.22466998436E+01 0.23464148662E+01
 0.24756263261E+01 0.26374290378E+01 0.28343332552E+01 0.30663977438E+01 0.33291733733E+01
 0.36122881463E+01 0.38993140968E+01 0.41691332781E+01 0.43985970174E+01 0.45659391378E+01
 0.46542370056E+01 0.46542288526E+01 0.45659162272E+01 0.43985725837E+01 0.41691202347E+01
 0.38992807811E+01 0.41631355448E+01 0.37578064944E+01 0.33901996615E+01 0.30706753659E+01
 0.28018655519E+01 0.25816623614E+01 0.24063252933E+01 0.22725003094E+01 0.21779475331E+01
 0.21214910715E+01 0.21026903067E+01 0.21214754219E+01 0.21779394646E+01 0.22724713780E+01
 0.24062010177E+01 0.25814439859E+01 0.28016917108E+01 0.30706972062E+01 0.33904098781E+01
 0.37580472413E+01 0.41632724905E+01 0.45867346059E+01 0.50008103771E+01 0.53725833861E+01
 0.56684256701E+01 0.58592168916E+01 0.59251616648E+01 0.58592269843E+01 0.56684238167E+01
 0.53725703144E+01 0.50008019669E+01 0.45866989303E+01 0.46908232844E+01 0.41486284820E+01
 0.36691262617E+01 0.32607519451E+01 0.29229529087E+01 0.26507077366E+01 0.24383581645E+01
 0.22816137006E+01 0.21779552755E+01 0.21262659147E+01 0.21262509355E+01 0.21779394646E+01
 0.22815978339E+01 0.24382437260E+01 0.26504439443E+01 0.29226971697E+01 0.32607409010E+01
 0.36693907566E+01 0.41489498786E+01 0.46909863645E+01 0.52750622204E+01 0.58680330301E+01
 0.64266146622E+01 0.69027649694E+01 0.72507702244E+01 0.74346956400E+01 0.74347125661E+01
 0.72508011719E+01 0.69027872162E+01 0.64266463618E+01 0.58680886050E+01 0.52750684488E+01
 0.51475261262E+01 0.44638884341E+01 0.38747761555E+01 0.33843552031E+01 0.29873048573E+01
 0.26747194431E+01 0.24383681120E+01 0.22725103059E+01 0.21739178788E+01 0.21411666220E+01
 0.21739000848E+01 0.22724713780E+01 0.24382437260E+01 0.26744607578E+01 0.29870353009E+01
 0.33843149676E+01 0.38750459069E+01 0.44642660106E+01 0.51477449238E+01 0.59066899888E+01
 0.67049479747E+01 0.74902095801E+01 0.81992794014E+01 0.87664585775E+01 0.91337214622E+01
 0.92609416590E+01 0.91337381325E+01 0.87664733031E+01 0.81992986009E+01 0.74902712753E+01
 0.67050417846E+01 0.59066929227E+01 0.54853808669E+01 0.46692984019E+01 0.39840982280E+01
 0.34272532025E+01 0.29872992194E+01 0.26507323673E+01 0.24063490485E+01 0.22467169973E+01
 0.21677658700E+01 0.21677781713E+01 0.22466998436E+01 0.24062010177E+01 0.26504439443E+01
 0.29870353009E+01 0.34272420475E+01 0.39843958602E+01 0.46696995101E+01 0.54856116510E+01
 0.64184824283E+01 0.74331676143E+01 0.84719422397E+01 0.94584361182E+01 0.10306025407E+02
 0.10929839740E+02 0.11261132234E+02 0.11261126322E+02 0.10929809072E+02 0.10305967136E+02
 0.94584050050E+01 0.84720078539E+01 0.74332952741E+01 0.64185024833E+01 0.56653252983E+01
 0.47406869936E+01 0.39840994120E+01 0.33843286549E+01 0.29229443545E+01 0.25816936964E+01
 0.23465209314E+01 0.22084914556E+01 0.21629644904E+01 0.22084899211E+01 0.23464148662E+01
 0.25814439859E+01 0.29226971697E+01 0.33843149676E+01 0.39843958602E+01 0.47411074729E+01
 0.56655827561E+01 0.67528710251E+01 0.79738592163E+01 0.92712016439E+01 0.10560656640E+02
 0.11737661928E+02 0.12689083540E+02 0.13310439497E+02 0.13526699165E+02 0.13310400307E+02
 0.12688991812E+02 0.11737554548E+02 0.10560635192E+02 0.92713299875E+01 0.79740441145E+01
 0.67528987347E+01 0.56653309513E+01 0.46693070875E+01 0.38747802874E+01 0.32607394793E+01
 0.28018635182E+01 0.24757965518E+01 0.22663951791E+01 0.21639099144E+01 0.21638908561E+01
 0.22663111595E+01 0.24756263261E+01 0.28016917108E+01 0.32607409010E+01 0.38750459069E+01
 0.46696995101E+01 0.56655827561E+01 0.68692521187E+01 0.82625257189E+01 0.97952885671E+01
 0.11383493166E+02 0.12912285541E+02 0.14244614539E+02 0.15237898421E+02 0.15770195345E+02
 0.15770178668E+02 0.15237851369E+02 0.14244544073E+02 0.12912219998E+02 0.11383502924E+02
 0.97954253726E+01 0.82627065709E+01 0.68692743384E+01 0.54853814490E+01 0.44638741996E+01
 0.36691361702E+01 0.30707005790E+01 0.26375649289E+01 0.23447240011E+01 0.21752604757E+01
 0.21197650523E+01 0.21752267572E+01 0.23446191500E+01 0.26374290378E+01 0.30706972062E+01
 0.36693907566E+01 0.44642660106E+01 0.54856116510E+01 0.67528710251E+01 0.82625257189E+01
 0.99780395077E+01 0.11824465367E+02 0.13687565556E+02 0.15417169481E+02 0.16838737863E+02
 0.17779647155E+02 0.18109440416E+02 0.17779610429E+02 0.16838737185E+02 0.15417190880E+02
 0.13687526895E+02 0.11824408807E+02 0.99781151342E+01 0.82627232216E+01 0.67529441818E+01
 0.51475022131E+01 0.41485901823E+01 0.33902166301E+01 0.28343575639E+01 0.24466245032E+01
 0.22013873419E+01 0.20825770452E+01 0.20825842846E+01 0.22013649034E+01 0.24465427191E+01
 0.28343332552E+01 0.33904098781E+01 0.41489498786E+01 0.51477449238E+01 0.64184824283E+01
 0.79738592163E+01 0.97952885671E+01 0.11824465367E+02 0.13958902579E+02 0.16049909867E+02
 0.17906079589E+02 0.19310156933E+02 0.20067650044E+02 0.20067622961E+02 0.19310159208E+02
 0.17906189093E+02 0.16050008601E+02 0.13958854823E+02 0.11824377270E+02 0.97953721822E+01