 running on    8 total cores
 distrk:  each k-point on    8 cores,    1 groups
 distr:  one band on    1 cores,    8 groups
 using from now: INCAR     
 vasp.5.4.4.18Apr17-6-g9f103f2a35 (build Dec 09 2018 21:25:21) complex          
  
 POSCAR found type information on POSCAR  Si
 POSCAR found :  1 types and       2 ions
 scaLAPACK will be used

 ----------------------------------------------------------------------------- 
|                                                                             |
|           W    W    AA    RRRRR   N    N  II  N    N   GGGG   !!!           |
|           W    W   A  A   R    R  NN   N  II  NN   N  G    G  !!!           |
|           W    W  A    A  R    R  N N  N  II  N N  N  G       !!!           |
|           W WW W  AAAAAA  RRRRR   N  N N  II  N  N N  G  GGG   !            |
|           WW  WW  A    A  R   R   N   NN  II  N   NN  G    G                |
|           W    W  A    A  R    R  N    N  II  N    N   GGGG   !!!           |
|                                                                             |
|      For optimal performance we recommend to set                            |
|        NCORE= 4 - approx SQRT( number of cores)                             |
|      NCORE specifies how many cores store one orbital (NPAR=cpu/NCORE).     |
|      This setting can  greatly improve the performance of VASP for DFT.     |
|      The default,   NCORE=1            might be grossly inefficient         |
|      on modern multi-core architectures or massively parallel machines.     |
|      Do your own testing !!!!                                               |
|      Unfortunately you need to use the default for GW and RPA calculations. |
|      (for HF NCORE is supported but not extensively tested yet)             |
|                                                                             |
 ----------------------------------------------------------------------------- 

 LDA part: xc-table for Pade appr. of Perdew
 POSCAR, INCAR and KPOINTS ok, starting setup
 FFT: planning ...
 WAVECAR not read
 entering main loop
       N       E                     dE             d eps       ncg     rms          rms(c)
DAV:   1     0.456250410782E+01    0.45625E+01   -0.27025E+03   160   0.531E+02
DAV:   2    -0.108654190989E+02   -0.15428E+02   -0.13858E+02   264   0.708E+01
DAV:   3    -0.110153299084E+02   -0.14991E+00   -0.14991E+00   208   0.962E+00
DAV:   4    -0.110159548415E+02   -0.62493E-03   -0.62493E-03   256   0.621E-01
DAV:   5    -0.110159550517E+02   -0.21025E-06   -0.21023E-06   200   0.114E-02    0.301E+00
DAV:   6    -0.108911372612E+02    0.12482E+00   -0.82414E-02   184   0.150E+00    0.178E+00
DAV:   7    -0.108341248418E+02    0.57012E-01   -0.15176E-01   200   0.216E+00    0.154E-01
DAV:   8    -0.108354482576E+02   -0.13234E-02   -0.41333E-03   160   0.481E-01    0.253E-02
DAV:   9    -0.108355432207E+02   -0.94963E-04   -0.10382E-04   160   0.817E-02
   1 F= -.10835543E+02 E0= -.10835542E+02  d E =-.108355E+02
 curvature:   0.00 expect dE= 0.000E+00 dE for cont linesearch  0.000E+00
 trial: gam= 0.00000 g(F)=  0.124E-44 g(S)=  0.000E+00 ort = 0.000E+00 (trialstep = 0.100E+01)
 search vector abs. value=  0.100E-09
 reached required accuracy - stopping structural energy minimisation
 writing wavefunctions
