unknown system                          
   1.00000000000000     
     0.000000    2.715000    2.715000
     2.715000    0.000000    2.715000
     2.715000    2.715000    0.000000
   Si
     2
Direct
  0.500000  0.500000  0.500000
  0.750000  0.750000  0.750000
 
   28   28   28
 0.88924     0.91626     0.99959      1.1463      1.3684      1.6816      2.1018      2.6384      3.2873      4.0234    
  4.7977      5.5383      6.1587      6.5737      6.7199      6.5737      6.1588      5.5384      4.7978      4.0234    
  3.2872      2.6384      2.1018      1.6816      1.3684      1.1463     0.99959     0.91625     0.91626     0.96183    
  1.0564      1.2072      1.4246      1.7209      2.1061      2.5824      3.1382      3.7438      4.3505      4.8946    
  5.3080      5.5318      5.5318      5.3080      4.8947      4.3505      3.7438      3.1382      2.5824      2.1061    
  1.7209      1.4246      1.2072      1.0564     0.96183     0.91626     0.99959      1.0564      1.1557      1.3043    
  1.5107      1.7836      2.1274      2.5387      3.0010      3.4832      3.9406      4.3207      4.5735      4.6622    
  4.5735      4.3207      3.9406      3.4832      3.0010      2.5387      2.1275      1.7836      1.5107      1.3043    
  1.1557      1.0564     0.99959     0.98110      1.1463      1.2072      1.3043      1.4438      1.6323      1.8748    
  2.1716      2.5149      2.8862      3.2557      3.5853      3.8344      3.9688      3.9688      3.8344      3.5853    
  3.2557      2.8862      2.5149      2.1716      1.8748      1.6323      1.4438      1.3043      1.2072      1.1463    
  1.1171      1.1171      1.3684      1.4246      1.5107      1.6323      1.7941      1.9982      2.2417      2.5149    
  2.7992      3.0685      3.2921      3.4405      3.4926      3.4405      3.2921      3.0685      2.7992      2.5149    
  2.2417      1.9982      1.7941      1.6323      1.5107      1.4246      1.3684      1.3370      1.3270      1.3370    
  1.6816      1.7209      1.7836      1.8748      1.9982      2.1539      2.3375      2.5387      2.7410      2.9229    
  3.0612      3.1361      3.1361      3.0612      2.9229      2.7410      2.5387      2.3374      2.1538      1.9982    
  1.8748      1.7836      1.7209      1.6816      1.6598      1.6504      1.6504      1.6598      2.1018      2.1061    
  2.1274      2.1716      2.2417      2.3375      2.4541      2.5824      2.7087      2.8163      2.8891      2.9149    
  2.8891      2.8163      2.7087      2.5824      2.4541      2.3374      2.2418      2.1716      2.1275      2.1061    
  2.1018      2.1069      2.1139      2.1170      2.1139      2.1069      2.6384      2.5824      2.5387      2.5149    
  2.5149      2.5387      2.5824      2.6384      2.6963      2.7440      2.7710      2.7710      2.7440      2.6962    
  2.6384      2.5824      2.5387      2.5149      2.5149      2.5387      2.5824      2.6384      2.6962      2.7440    
  2.7710      2.7710      2.7440      2.6963      3.2873      3.1382      3.0010      2.8862      2.7992      2.7410    
  2.7087      2.6963      2.6960      2.7001      2.7022      2.7001      2.6960      2.6962      2.7086      2.7411    
  2.7993      2.8862      3.0010      3.1382      3.2872      3.4328      3.5565      3.6400      3.6695      3.6400    
  3.5565      3.4329      4.0234      3.7438      3.4832      3.2557      3.0685      2.9229      2.8163      2.7440    
  2.7001      2.6796      2.6796      2.7000      2.7439      2.8163      2.9229      3.0686      3.2558      3.4832    
  3.7438      4.0234      4.3003      4.5467      4.7331      4.8338      4.8338      4.7331      4.5467      4.3002    
  4.7977      4.3505      3.9406      3.5853      3.2921      3.0612      2.8891      2.7710      2.7022      2.6796    
  2.7022      2.7709      2.8891      3.0612      3.2921      3.5853      3.9406      4.3504      4.7977      5.2536    
  5.6790      6.0288      6.2598      6.3406      6.2598      6.0288      5.6790      5.2536      5.5383      4.8946    
  4.3207      3.8344      3.4405      3.1361      2.9149      2.7710      2.7001      2.7000      2.7709      2.9148    
  3.1361      3.4406      3.8345      4.3207      4.8946      5.5383      6.2175      6.8809      7.4648      7.9025    
  8.1375      8.1375      7.9024      7.4648      6.8809      6.2175      6.1587      5.3080      4.5735      3.9688    
  3.4926      3.1361      2.8891      2.7440      2.6960      2.7439      2.8891      3.1361      3.4927      3.9689    
  4.5735      5.3079      6.1587      7.0903      8.0424      8.9321      9.6644      10.148      10.318      10.148    
  9.6643      8.9321      8.0424      7.0904      6.5737      5.5318      4.6622      3.9688      3.4405      3.0612    
  2.8163      2.6962      2.6962      2.8163      3.0612      3.4406      3.9689      4.6622      5.5317      6.5736    
  7.7589      9.0254      10.276      11.389      12.229      12.682      12.682      12.229      11.388      10.276    
  9.0254      7.7590      6.7199      5.5318      4.5735      3.8344      3.2921      2.9229      2.7087      2.6384    
  2.7086      2.9229      3.2921      3.8345      4.5735      5.5317      6.7198      8.1230      9.6885      11.317    
  12.866      14.161      15.026      15.330      15.026      14.161      12.866      11.317      9.6884      8.1231    
  6.5737      5.3080      4.3207      3.5853      3.0685      2.7410      2.5824      2.5824      2.7411      3.0686    
  3.5853      4.3207      5.3079      6.5736      8.1230      9.9231      11.889      13.873      15.674      17.044    
  17.780      17.780      17.044      15.674      13.873      11.888      9.9231      8.1231      6.1588      4.8947    
  3.9406      3.2557      2.7992      2.5387      2.4541      2.5387      2.7993      3.2558      3.9406      4.8946    
  6.1587      7.7589      9.6885      11.889      14.232      16.507      18.406      19.656      20.092      19.657    
  18.406      16.507      14.232      11.888      9.6884      7.7589      5.5384      4.3505      3.4832      2.8862    
  2.5149      2.3374      2.3374      2.5149      2.8862      3.4832      4.3504      5.5383      7.0903      9.0254    
  11.317      13.873      16.507      18.887      20.673      21.626      21.626      20.673      18.887      16.507    
  13.873      11.317      9.0253      7.0903      4.7978      3.7438      3.0010      2.5149      2.2417      2.1538    
  2.2418      2.5149      3.0010      3.7438      4.7977      6.2175      8.0424      10.276      12.866      15.674    
  18.406      20.673      22.162      22.681      22.162      20.673      18.406      15.674      12.866      10.276    
  8.0424      6.2176      4.0234      3.1382      2.5387      2.1716      1.9982      1.9982      2.1716      2.5387    
  3.1382      4.0234      5.2536      6.8809      8.9321      11.389      14.161      17.044      19.656      21.626    
  22.681      22.681      21.626      19.657      17.044      14.161      11.388      8.9321      6.8809      5.2537    
  3.2872      2.5824      2.1275      1.8748      1.7941      1.8748      2.1275      2.5824      3.2872      4.3003    
  5.6790      7.4648      9.6644      12.229      15.026      17.780      20.092      21.626      22.162      21.626    
  20.092      17.780      15.026      12.229      9.6644      7.4648      5.6790      4.3003      2.6384      2.1061    
  1.7836      1.6323      1.6323      1.7836      2.1061      2.6384      3.4328      4.5467      6.0288      7.9025    
  10.148      12.682      15.330      17.780      19.657      20.673      20.673      19.657      17.780      15.330    
  12.682      10.148      7.9025      6.0288      4.5468      3.4328      2.1018      1.7209      1.5107      1.4438    
  1.5107      1.7209      2.1018      2.6962      3.5565      4.7331      6.2598      8.1375      10.318      12.682    
  15.026      17.044      18.406      18.887      18.406      17.044      15.026      12.682      10.318      8.1376    
  6.2598      4.7331      3.5565      2.6962      1.6816      1.4246      1.3043      1.3043      1.4246      1.6816    
  2.1069      2.7440      3.6400      4.8338      6.3406      8.1375      10.148      12.229      14.161      15.674    
  16.507      16.507      15.674      14.161      12.229      10.148      8.1376      6.3407      4.8338      3.6400    
  2.7439      2.1069      1.3684      1.2072      1.1557      1.2072      1.3684      1.6598      2.1139      2.7710    
  3.6695      4.8338      6.2598      7.9024      9.6643      11.388      12.866      13.873      14.232      13.873    
  12.866      11.388      9.6644      7.9025      6.2598      4.8338      3.6695      2.7709      2.1139      1.6598    
  1.1463      1.0564      1.0564      1.1463      1.3370      1.6504      2.1170      2.7710      3.6400      4.7331    
  6.0288      7.4648      8.9321      10.276      11.317      11.888      11.888      11.317      10.276      8.9321    
  7.4648      6.0288      4.7331      3.6400      2.7709      2.1170      1.6504      1.3370     0.99959     0.96183    
 0.99959      1.1171      1.3270      1.6504      2.1139      2.7440      3.5565      4.5467      5.6790      6.8809    
  8.0424      9.0254      9.6884      9.9231      9.6884      9.0253      8.0424      6.8809      5.6790      4.5468    
  3.5565      2.7439      2.1139      1.6504      1.3270      1.1171     0.91625     0.91626     0.98110      1.1171    
  1.3370      1.6598      2.1069      2.6963      3.4329      4.3002      5.2536      6.2175      7.0904      7.7590    
  8.1231      8.1231      7.7589      7.0903      6.2176      5.2537      4.3003      3.4328      2.6962      2.1069    
  1.6598      1.3370      1.1171     0.98109     0.91626     0.96183      1.0564      1.2072      1.4246      1.7209    
  2.1061      2.5824      3.1382      3.7438      4.3505      4.8946      5.3080      5.5318      5.5318      5.3080    
  4.8947      4.3505      3.7438      3.1382      2.5824      2.1061      1.7209      1.4246      1.2072      1.0564    
 0.96183     0.91626     0.96183      1.0172      1.1137      1.2578      1.4578      1.7221      2.0554      2.4541    
  2.9024      3.3697      3.8127      4.1807      4.4252      4.5110      4.4252      4.1807      3.8127      3.3697    
  2.9023      2.4541      2.0554      1.7222      1.4578      1.2578      1.1137      1.0172     0.96183     0.94380    
  1.0564      1.1137      1.2046      1.3349      1.5109      1.7376      2.0155      2.3375      2.6857      3.0320    
  3.3402      3.5728      3.6982      3.6982      3.5728      3.3402      3.0319      2.6857      2.3374      2.0156    
  1.7376      1.5109      1.3349      1.2046      1.1137      1.0564      1.0288      1.0288      1.2072      1.2578    
  1.3349      1.4438      1.5890      1.7731      1.9937      2.2417      2.4999      2.7438      2.9457      3.0794    
  3.1262      3.0794      2.9457      2.7438      2.4999      2.2418      1.9937      1.7731      1.5890      1.4437    
  1.3349      1.2578      1.2072      1.1787      1.1696      1.1787      1.4246      1.4578      1.5109      1.5890    
  1.6958      1.8319      1.9937      2.1716      2.3503      2.5103      2.6314      2.6968      2.6968      2.6314    
  2.5103      2.3503      2.1716      1.9937      1.8319      1.6957      1.5890      1.5109      1.4578      1.4246    
  1.4061      1.3980      1.3980      1.4061      1.7209      1.7221      1.7376      1.7731      1.8319      1.9141    
  2.0155      2.1274      2.2373      2.3306      2.3933      2.4155      2.3933      2.3306      2.2373      2.1274    
  2.0155      1.9141      1.8319      1.7731      1.7376      1.7221      1.7209      1.7271      1.7340      1.7369    
  1.7340      1.7271      2.1061      2.0554      2.0155      1.9937      1.9937      2.0155      2.0554      2.1061    
  2.1580      2.2005      2.2244      2.2244      2.2005      2.1580      2.1061      2.0554      2.0155      1.9937    
  1.9937      2.0155      2.0554      2.1061      2.1580      2.2005      2.2244      2.2244      2.2005      2.1580    
  2.5824      2.4541      2.3375      2.2417      2.1716      2.1274      2.1061      2.1018      2.1069      2.1139    
  2.1170      2.1139      2.1069      2.1018      2.1061      2.1275      2.1716      2.2418      2.3374      2.4541    
  2.5824      2.7087      2.8163      2.8891      2.9149      2.8891      2.8163      2.7087      3.1382      2.9024    
  2.6857      2.4999      2.3503      2.2373      2.1580      2.1069      2.0779      2.0650      2.0650      2.0778    
  2.1069      2.1580      2.2374      2.3503      2.4999      2.6857      2.9023      3.1382      3.3747      3.5874    
  3.7494      3.8372      3.8372      3.7494      3.5874      3.3747      3.7438      3.3697      3.0320      2.7438    
  2.5103      2.3306      2.2005      2.1139      2.0650      2.0493      2.0650      2.1139      2.2005      2.3306    
  2.5103      2.7438      3.0319      3.3697      3.7438      4.1308      4.4969      4.8013      5.0041      5.0754    
  5.0041      4.8013      4.4968      4.1308      4.3505      3.8127      3.3402      2.9457      2.6314      2.3933    
  2.2244      2.1170      2.0650      2.0650      2.1170      2.2244      2.3934      2.6315      2.9457      3.3402    
  3.8126      4.3504      4.9266      5.4982      6.0085      6.3955      6.6049      6.6049      6.3955      6.0085    
  5.4982      4.9266      4.8946      4.1807      3.5728      3.0794      2.6968      2.4155      2.2244      2.1139    
  2.0778      2.1139      2.2244      2.4155      2.6969      3.0794      3.5728      4.1806      4.8946      5.6882    
  6.5122      7.2943      7.9468      8.3824      8.5358      8.3825      7.9468      7.2943      6.5122      5.6882    
  5.3080      4.4252      3.6982      3.1262      2.6968      2.3933      2.2005      2.1069      2.1069      2.2005    
  2.3934      2.6969      3.1263      3.6981      4.4251      5.3079      6.3266      7.4319      8.5407      9.5404    
  10.304      10.720      10.720      10.304      9.5404      8.5407      7.4318      6.3266      5.5318      4.5110    
  3.6982      3.0794      2.6314      2.3306      2.1580      2.1018      2.1580      2.3306      2.6315      3.0794    
  3.6981      4.5109      5.5317      6.7538      8.1372      9.5981      11.006      12.197      13.000      13.284    
  13.000      12.197      11.006      9.5980      8.1371      6.7538      5.5318      4.4252      3.5728      2.9457    
  2.5103      2.2373      2.1061      2.1061      2.2374      2.5103      2.9457      3.5728      4.4251      5.5317    
  6.9044      8.5216      10.312      12.145      13.827      15.131      15.848      15.848      15.131      13.827    
  12.145      10.312      8.5215      6.9043      5.3080      4.1807      3.3402      2.7438      2.3503      2.1274    
  2.0554      2.1275      2.3503      2.7438      3.3402      4.1806      5.3079      6.7538      8.5216      10.565    
  12.771      14.941      16.809      18.085      18.540      18.085      16.809      14.941      12.771      10.565    
  8.5214      6.7538      4.8947      3.8127      3.0319      2.4999      2.1716      2.0155      2.0155      2.1716    
  2.4999      3.0319      3.8126      4.8946      6.3266      8.1372      10.312      12.771      15.338      17.739    
  19.628      20.671      20.671      19.628      17.739      15.338      12.771      10.312      8.1371      6.3266    
  4.3505      3.3697      2.6857      2.2418      1.9937      1.9141      1.9937      2.2418      2.6857      3.3697    
  4.3504      5.6882      7.4319      9.5981      12.145      14.941      17.739      20.179      21.852      22.447    
  21.852      20.179      17.739      14.941      12.145      9.5980      7.4318      5.6883      3.7438      2.9023    
  2.3374      1.9937      1.8319      1.8319      1.9937      2.3374      2.9023      3.7438      4.9266      6.5122    
  8.5407      11.006      13.827      16.809      19.628      21.852      23.080      23.080      21.852      19.628    
  16.809      13.827      11.006      8.5407      6.5122      4.9266      3.1382      2.4541      2.0156      1.7731    
  1.6957      1.7731      2.0155      2.4541      3.1382      4.1308      5.4982      7.2943      9.5404      12.197    
  15.131      18.085      20.671      22.447      23.080      22.447      20.671      18.085      15.131      12.197    
  9.5404      7.2943      5.4982      4.1308      2.5824      2.0554      1.7376      1.5890      1.5890      1.7376    
  2.0554      2.5824      3.3747      4.4969      6.0085      7.9468      10.304      13.000      15.848      18.540    
  20.671      21.852      21.852      20.671      18.539      15.848      13.000      10.304      7.9469      6.0085    
  4.4968      3.3747      2.1061      1.7222      1.5109      1.4437      1.5109      1.7221      2.1061      2.7087    
  3.5874      4.8013      6.3955      8.3824      10.720      13.284      15.848      18.085      19.628      20.179    
  19.628      18.085      15.848      13.284      10.720      8.3826      6.3955      4.8013      3.5874      2.7086    
  1.7209      1.4578      1.3349      1.3349      1.4578      1.7209      2.1580      2.8163      3.7494      5.0041    
  6.6049      8.5358      10.720      13.000      15.131      16.809      17.739      17.739      16.809      15.131    
  13.000      10.720      8.5359      6.6050      5.0040      3.7493      2.8163      2.1580      1.4246      1.2578    
  1.2046      1.2578      1.4246      1.7271      2.2005      2.8891      3.8372      5.0754      6.6049      8.3825    
  10.304      12.197      13.827      14.941      15.338      14.941      13.827      12.197      10.304      8.3826    
  6.6050      5.0753      3.8372      2.8891      2.2005      1.7271      1.2072      1.1137      1.1137      1.2072    
  1.4061      1.7340      2.2244      2.9149      3.8372      5.0041      6.3955      7.9468      9.5404      11.006    
  12.145      12.771      12.771      12.145      11.006      9.5404      7.9469      6.3955      5.0040      3.8372    
  2.9148      2.2244      1.7340      1.4061      1.0564      1.0172      1.0564      1.1787      1.3980      1.7369    
  2.2244      2.8891      3.7494      4.8013      6.0085      7.2943      8.5407      9.5980      10.312      10.565    
  10.312      9.5980      8.5407      7.2943      6.0085      4.8013      3.7493      2.8891      2.2244      1.7369    
  1.3980      1.1787     0.96183     0.96183      1.0288      1.1696      1.3980      1.7340      2.2005      2.8163    
  3.5874      4.4968      5.4982      6.5122      7.4318      8.1371      8.5215      8.5214      8.1371      7.4318    
  6.5122      5.4982      4.4968      3.5874      2.8163      2.2005      1.7340      1.3980      1.1696      1.0288    
 0.91626     0.94380      1.0288      1.1787      1.4061      1.7271      2.1580      2.7087      3.3747      4.1308    
  4.9266      5.6882      6.3266      6.7538      6.9043      6.7538      6.3266      5.6883      4.9266      4.1308    
  3.3747      2.7086      2.1580      1.7271      1.4061      1.1787      1.0288     0.94379     0.99959      1.0564    
  1.1557      1.3043      1.5107      1.7836      2.1274      2.5387      3.0010      3.4832      3.9406      4.3207    
  4.5735      4.6622      4.5735      4.3207      3.9406      3.4832      3.0010      2.5387      2.1275      1.7836    
  1.5107      1.3043      1.1557      1.0564     0.99959     0.98110      1.0564      1.1137      1.2046      1.3349    
  1.5109      1.7376      2.0155      2.3375      2.6857      3.0320      3.3402      3.5728      3.6982      3.6982    
  3.5728      3.3402      3.0319      2.6857      2.3374      2.0155      1.7376      1.5109      1.3349      1.2046    
  1.1137      1.0564      1.0288      1.0288      1.1557      1.2046      1.2789      1.3837      1.5235      1.7011    
  1.9141      2.1539      2.4033      2.6388      2.8335      2.9622      3.0073      2.9622      2.8335      2.6388    
  2.4033      2.1539      1.9142      1.7011      1.5235      1.3837      1.2789      1.2046      1.1557      1.1281    
  1.1193      1.1281      1.3043      1.3349      1.3837      1.4555      1.5543      1.6809      1.8319      1.9982    
  2.1650      2.3139      2.4263      2.4868      2.4868      2.4263      2.3139      2.1650      1.9982      1.8320    
  1.6809      1.5543      1.4555      1.3837      1.3349      1.3043      1.2870      1.2793      1.2793      1.2870    
  1.5107      1.5109      1.5235      1.5543      1.6066      1.6809      1.7731      1.8748      1.9744      2.0583    
  2.1145      2.1342      2.1145      2.0583      1.9744      1.8748      1.7731      1.6809      1.6066      1.5542    
  1.5235      1.5109      1.5107      1.5166      1.5228      1.5253      1.5228      1.5166      1.7836      1.7376    
  1.7011      1.6809      1.6809      1.7011      1.7376      1.7836      1.8299      1.8674      1.8883      1.8883    
  1.8674      1.8299      1.7836      1.7376      1.7011      1.6809      1.6809      1.7011      1.7376      1.7836    
  1.8299      1.8674      1.8883      1.8883      1.8674      1.8299      2.1274      2.0155      1.9141      1.8319    
  1.7731      1.7376      1.7221      1.7209      1.7271      1.7340      1.7369      1.7340      1.7271      1.7209    
  1.7221      1.7376      1.7731      1.8319      1.9141      2.0155      2.1274      2.2373      2.3306      2.3933    
  2.4155      2.3933      2.3306      2.2373      2.5387      2.3375      2.1539      1.9982      1.8748      1.7836    
  1.7209      1.6816      1.6598      1.6504      1.6504      1.6598      1.6816      1.7209      1.7836      1.8748    
  1.9982      2.1538      2.3374      2.5387      2.7410      2.9229      3.0612      3.1361      3.1361      3.0612    
  2.9229      2.7410      3.0010      2.6857      2.4033      2.1650      1.9744      1.8299      1.7271      1.6598    
  1.6223      1.6103      1.6223      1.6598      1.7271      1.8300      1.9744      2.1649      2.4032      2.6857    
  3.0010      3.3289      3.6399      3.8988      4.0713      4.1319      4.0713      3.8988      3.6399      3.3289    
  3.4832      3.0320      2.6388      2.3139      2.0583      1.8674      1.7340      1.6504      1.6103      1.6103    
  1.6504      1.7340      1.8675      2.0583      2.3139      2.6387      3.0319      3.4832      3.9699      4.4548    
  4.8891      5.2190      5.3977      5.3978      5.2190      4.8891      4.4548      3.9698      3.9406      3.3402    
  2.8335      2.4263      2.1145      1.8883      1.7369      1.6504      1.6223      1.6504      1.7369      1.8884    
  2.1145      2.4263      2.8334      3.3402      3.9406      4.6125      5.3139      5.9823      6.5416      6.9156    
  7.0473      6.9156      6.5416      5.9823      5.3139      4.6125      4.3207      3.5728      2.9622      2.4868    
  2.1342      1.8883      1.7340      1.6598      1.6598      1.7340      1.8884      2.1343      2.4868      2.9622    
  3.5728      4.3207      5.1897      6.1376      7.0927      7.9563      8.6177      8.9778      8.9778      8.6177    
  7.9564      7.0927      6.1376      5.1896      4.5735      3.6982      3.0073      2.4868      2.1145      1.8674    
  1.7271      1.6816      1.7271      1.8675      2.1145      2.4868      3.0072      3.6981      4.5735      5.6286    
  6.8293      8.1024      9.3331      10.375      11.079      11.328      11.079      10.376      9.3332      8.1023    
  6.8292      5.6286      4.6622      3.6982      2.9622      2.4263      2.0583      1.8299      1.7209      1.7209    
  1.8300      2.0583      2.4263      2.9622      3.6981      4.6622      5.8665      7.2928      8.8784      10.505    
  12.000      13.160      13.797      13.797      13.160      12.000      10.505      8.8784      7.2927      5.8664    
  4.5735      3.5728      2.8335      2.3139      1.9744      1.7836      1.7221      1.7836      1.9744      2.3139    
  2.8334      3.5728      4.5735      5.8665      7.4563      9.3020      11.298      13.265      14.958      16.115    
  16.526      16.115      14.959      13.265      11.298      9.3020      7.4562      5.8664      4.3207      3.3402    
  2.6388      2.1650      1.8748      1.7376      1.7376      1.8748      2.1649      2.6387      3.3402      4.3207    
  5.6286      7.2928      9.3020      11.580      13.962      16.191      17.944      18.915      18.915      17.944    
  16.191      13.962      11.580      9.3020      7.2928      5.6286      3.9406      3.0319      2.4033      1.9982    
  1.7731      1.7011      1.7731      1.9982      2.4032      3.0319      3.9406      5.1897      6.8293      8.8784    
  11.298      13.962      16.630      18.960      20.567      21.142      20.566      18.960      16.630      13.962    
  11.299      8.8785      6.8293      5.1896      3.4832      2.6857      2.1539      1.8320      1.6809      1.6809    
  1.8319      2.1538      2.6857      3.4832      4.6125      6.1376      8.1024      10.505      13.265      16.191    
  18.960      21.158      22.384      22.384      21.158      18.959      16.191      13.266      10.505      8.1024    
  6.1376      4.6125      3.0010      2.3374      1.9142      1.6809      1.6066      1.6809      1.9141      2.3374    
  3.0010      3.9699      5.3139      7.0927      9.3331      12.000      14.958      17.944      20.567      22.384    
  23.036      22.384      20.566      17.944      14.959      12.000      9.3332      7.0926      5.3138      3.9698    
  2.5387      2.0155      1.7011      1.5543      1.5542      1.7011      2.0155      2.5387      3.3289      4.4548    
  5.9823      7.9563      10.375      13.160      16.115      18.915      21.142      22.384      22.384      21.142    
  18.915      16.115      13.160      10.376      7.9564      5.9823      4.4547      3.3289      2.1275      1.7376    
  1.5235      1.4555      1.5235      1.7376      2.1274      2.7410      3.6399      4.8891      6.5416      8.6177    
  11.079      13.797      16.526      18.915      20.566      21.158      20.566      18.915      16.526      13.797    
  11.079      8.6177      6.5415      4.8890      3.6399      2.7410      1.7836      1.5109      1.3837      1.3837    
  1.5109      1.7836      2.2373      2.9229      3.8988      5.2190      6.9156      8.9778      11.328      13.797    
  16.115      17.944      18.960      18.959      17.944      16.115      13.797      11.328      8.9778      6.9155    
  5.2190      3.8988      2.9229      2.2374      1.5107      1.3349      1.2789      1.3349      1.5107      1.8299    
  2.3306      3.0612      4.0713      5.3977      7.0473      8.9778      11.079      13.160      14.959      16.191    
  16.630      16.191      14.959      13.160      11.079      8.9778      7.0473      5.3977      4.0713      3.0612    
  2.3306      1.8300      1.3043      1.2046      1.2046      1.3043      1.5166      1.8674      2.3933      3.1361    
  4.1319      5.3978      6.9156      8.6177      10.376      12.000      13.265      13.962      13.962      13.266    
  12.000      10.376      8.6177      6.9155      5.3977      4.1319      3.1361      2.3934      1.8675      1.5166    
  1.1557      1.1137      1.1557      1.2870      1.5228      1.8883      2.4155      3.1361      4.0713      5.2190    
  6.5416      7.9564      9.3332      10.505      11.298      11.580      11.299      10.505      9.3332      7.9564    
  6.5415      5.2190      4.0713      3.1361      2.4155      1.8884      1.5228      1.2870      1.0564      1.0564    
  1.1281      1.2793      1.5253      1.8883      2.3933      3.0612      3.8988      4.8891      5.9823      7.0927    
  8.1023      8.8784      9.3020      9.3020      8.8785      8.1024      7.0926      5.9823      4.8890      3.8988    
  3.0612      2.3934      1.8884      1.5254      1.2793      1.1281     0.99959      1.0288      1.1193      1.2793    
  1.5228      1.8674      2.3306      2.9229      3.6399      4.4548      5.3139      6.1376      6.8292      7.2927    
  7.4562      7.2928      6.8293      6.1376      5.3138      4.4547      3.6399      2.9229      2.3306      1.8675    
  1.5228      1.2793      1.1192      1.0288     0.98110      1.0288      1.1281      1.2870      1.5166      1.8299    
  2.2373      2.7410      3.3289      3.9698      4.6125      5.1896      5.6286      5.8664      5.8664      5.6286    
  5.1896      4.6125      3.9698      3.3289      2.7410      2.2374      1.8300      1.5166      1.2870      1.1281    
  1.0288     0.98110      1.1463      1.2072      1.3043      1.4438      1.6323      1.8748      2.1716      2.5149    
  2.8862      3.2557      3.5853      3.8344      3.9688      3.9688      3.8344      3.5853      3.2557      2.8862    
  2.5149      2.1716      1.8748      1.6323      1.4438      1.3043      1.2072      1.1463      1.1171      1.1171    
  1.2072      1.2578      1.3349      1.4438      1.5890      1.7731      1.9937      2.2417      2.4999      2.7438    
  2.9457      3.0794      3.1262      3.0794      2.9457      2.7438      2.4999      2.2418      1.9937      1.7731    
  1.5890      1.4437      1.3349      1.2578      1.2072      1.1787      1.1696      1.1787      1.3043      1.3349    
  1.3837      1.4555      1.5543      1.6809      1.8319      1.9982      2.1650      2.3139      2.4263      2.4868    
  2.4868      2.4263      2.3139      2.1650      1.9982      1.8320      1.6809      1.5543      1.4555      1.3837    
  1.3349      1.3043      1.2870      1.2793      1.2793      1.2870      1.4438      1.4438      1.4555      1.4847    
  1.5350      1.6066      1.6958      1.7941      1.8902      1.9710      2.0249      2.0438      2.0249      1.9710    