unknown system                          
   1.00000000000000     
     0.000000    2.715000    2.715000
     2.715000    0.000000    2.715000
     2.715000    2.715000    0.000000
   Si
     2
Direct
  0.500000  0.500000  0.500000
  0.750000  0.750000  0.750000
 
   28   28   28
 0.88923760959E+00 0.91625700418E+00 0.99959031861E+00 0.11463020614E+01 0.13683962599E+01
 0.16816249353E+01 0.21017909204E+01 0.26384416458E+01 0.32872699597E+01 0.40233986581E+01
 0.47977322190E+01 0.55383434440E+01 0.61587460348E+01 0.65737263029E+01 0.67198915801E+01
 0.65737139158E+01 0.61587562308E+01 0.55383923854E+01 0.47977867971E+01 0.40234121617E+01
 0.32872350415E+01 0.26383938664E+01 0.21017664689E+01 0.16816287427E+01 0.13684101091E+01
 0.11463100701E+01 0.99959036054E+00 0.91625471633E+00 0.91625700418E+00 0.96182819545E+00
 0.10564252011E+01 0.12071734320E+01 0.14246063058E+01 0.17209164091E+01 0.21061119711E+01
 0.25824078120E+01 0.31382313519E+01 0.37438354395E+01 0.43504728167E+01 0.48946333397E+01
 0.53079762114E+01 0.55317521176E+01 0.55317533587E+01 0.53079887488E+01 0.48946625855E+01
 0.43504961677E+01 0.37438234480E+01 0.31381888787E+01 0.25823728949E+01 0.21061118402E+01
 0.17209407936E+01 0.14246281210E+01 0.12071811834E+01 0.10564263343E+01 0.96183037847E+00
 0.91625866892E+00 0.99959031861E+00 0.10564252011E+01 0.11557248113E+01 0.13042741598E+01
 0.15107307631E+01 0.17835538923E+01 0.21274334165E+01 0.25387016197E+01 0.30010350607E+01
 0.34832215878E+01 0.39405666424E+01 0.43207226501E+01 0.45734598401E+01 0.46621857872E+01
 0.45734644474E+01 0.43207282794E+01 0.39405618988E+01 0.34831980941E+01 0.30010053119E+01
 0.25386919471E+01 0.21274534455E+01 0.17835840007E+01 0.15107458746E+01 0.13042706383E+01
 0.11557172324E+01 0.10564244430E+01 0.99959360945E+00 0.98110037236E+00 0.11463020614E+01
 0.12071734320E+01 0.13042741598E+01 0.14437951007E+01 0.16323328668E+01 0.18748328212E+01
 0.21716057764E+01 0.25149010485E+01 0.28862056829E+01 0.32557486094E+01 0.35853022607E+01
 0.38344011193E+01 0.39688071303E+01 0.39688070845E+01 0.38343995945E+01 0.35852964827E+01
 0.32557395626E+01 0.28862020737E+01 0.25149116158E+01 0.21716254418E+01 0.18748442960E+01
 0.16323263853E+01 0.14437795055E+01 0.13042638899E+01 0.12071720077E+01 0.11463038630E+01
 0.11170698323E+01 0.11170690008E+01 0.13683962599E+01 0.14246063058E+01 0.15107307631E+01
 0.16323328668E+01 0.17941220188E+01 0.19981836200E+01 0.22417459408E+01 0.25148997331E+01
 0.27992339410E+01 0.30685128545E+01 0.32920573788E+01 0.34405200508E+01 0.34926065434E+01
 0.34405210035E+01 0.32920623918E+01 0.30685234156E+01 0.27992471281E+01 0.25149093220E+01
 0.22417450053E+01 0.19981695585E+01 0.17941024260E+01 0.16323222192E+01 0.15107357375E+01
 0.14246177287E+01 0.13684014268E+01 0.13370316236E+01 0.13269963171E+01 0.13370329765E+01
 0.16816249353E+01 0.17209164091E+01 0.17835538923E+01 0.18748328212E+01 0.19981836200E+01
 0.21538512298E+01 0.23374515379E+01 0.25387007215E+01 0.27410313428E+01 0.29229026047E+01
 0.30611792501E+01 0.31360584582E+01 0.31360605672E+01 0.30611867281E+01 0.29229138550E+01
 0.27410367427E+01 0.25386898047E+01 0.23374259292E+01 0.21538262986E+01 0.19981759022E+01
 0.18748466597E+01 0.17835790871E+01 0.17209369349E+01 0.16816312897E+01 0.16597983358E+01
 0.16503657208E+01 0.16503691559E+01 0.16598025461E+01 0.21017909204E+01 0.21061119711E+01
 0.21274334165E+01 0.21716057764E+01 0.22417459408E+01 0.23374515379E+01 0.24541041816E+01
 0.25824104196E+01 0.27086689674E+01 0.28163393213E+01 0.28891127552E+01 0.29148717868E+01
 0.28891186461E+01 0.28163416177E+01 0.27086554381E+01 0.25823785043E+01 0.24540693438E+01
 0.23374385846E+01 0.22417664510E+01 0.21716448517E+01 0.21274629991E+01 0.21061173435E+01
 0.21017804839E+01 0.21069331398E+01 0.21139287938E+01 0.21169827162E+01 0.21139324917E+01
 0.21069432587E+01 0.26384416458E+01 0.25824078120E+01 0.25387016197E+01 0.25149010485E+01
 0.25148997331E+01 0.25387007215E+01 0.25824104196E+01 0.26384447686E+01 0.26962520384E+01
 0.27439504940E+01 0.27709586783E+01 0.27709635526E+01 0.27439527690E+01 0.26962323352E+01
 0.26384065364E+01 0.25823832287E+01 0.25387117402E+01 0.25149451508E+01 0.25149473852E+01
 0.25387152599E+01 0.25823845303E+01 0.26384079198E+01 0.26962360817E+01 0.27439553503E+01
 0.27709618066E+01 0.27709558458E+01 0.27439500776E+01 0.26962515740E+01 0.32872699597E+01
 0.31382313519E+01 0.30010350607E+01 0.28862056829E+01 0.27992339410E+01 0.27410313428E+01
 0.27086689674E+01 0.26962520384E+01 0.26960409521E+01 0.27000586287E+01 0.27021760137E+01
 0.27000629495E+01 0.26960273189E+01 0.26962184148E+01 0.27086495544E+01 0.27410564855E+01
 0.27992887937E+01 0.28862437314E+01 0.30010269509E+01 0.31381900890E+01 0.32872319823E+01
 0.34328467028E+01 0.35565470734E+01 0.36400017971E+01 0.36695110674E+01 0.36399831724E+01
 0.35565307628E+01 0.34328560112E+01 0.40233986581E+01 0.37438354395E+01 0.34832215878E+01
 0.32557486094E+01 0.30685128545E+01 0.29229026047E+01 0.28163393213E+01 0.27439504940E+01
 0.27000586287E+01 0.26796185375E+01 0.26796173830E+01 0.27000447542E+01 0.27439184900E+01
 0.28163174401E+01 0.29229237472E+01 0.30685646645E+01 0.32557810598E+01 0.34832058779E+01
 0.37437938438E+01 0.40233718056E+01 0.43002528652E+01 0.45467430722E+01 0.47331241441E+01
 0.48337880868E+01 0.48337828720E+01 0.47331088973E+01 0.45467248123E+01 0.43002499841E+01
 0.47977322190E+01 0.43504728167E+01 0.39405666424E+01 0.35853022607E+01 0.32920573788E+01
 0.30611792501E+01 0.28891127552E+01 0.27709586783E+01 0.27021760137E+01 0.26796173830E+01
 0.27021546133E+01 0.27709200787E+01 0.28890831174E+01 0.30611916455E+01 0.32921077246E+01
 0.35853442204E+01 0.39405638102E+01 0.43504384576E+01 0.47977052711E+01 0.52536204975E+01
 0.56790062155E+01 0.60287557962E+01 0.62597640456E+01 0.63406167821E+01 0.62597651135E+01
 0.60287511673E+01 0.56789968646E+01 0.52536227508E+01 0.55383434440E+01 0.48946333397E+01
 0.43207226501E+01 0.38344011193E+01 0.34405200508E+01 0.31360584582E+01 0.29148717868E+01
 0.27709635526E+01 0.27000629495E+01 0.27000447542E+01 0.27709200787E+01 0.29148360398E+01
 0.31360678184E+01 0.34405777308E+01 0.38344630704E+01 0.43207393643E+01 0.48945989433E+01
 0.55382926002E+01 0.62174773527E+01 0.68809010809E+01 0.74648041238E+01 0.79024591809E+01
 0.81375186038E+01 0.81375084290E+01 0.79024368581E+01 0.74647871549E+01 0.68809052505E+01
 0.62175101761E+01 0.61587460348E+01 0.53079762114E+01 0.45734598401E+01 0.39688071303E+01
 0.34926065434E+01 0.31360605672E+01 0.28891186461E+01 0.27439527690E+01 0.26960273189E+01
 0.27439184900E+01 0.28890831174E+01 0.31360678184E+01 0.34926698808E+01 0.39688847715E+01
 0.45734873243E+01 0.53079283377E+01 0.61586580735E+01 0.70902852034E+01 0.80423729422E+01
 0.89321458999E+01 0.96644056371E+01 0.10148310539E+02 0.10317693960E+02 0.10148252056E+02
 0.96643282583E+01 0.89320984302E+01 0.80423849330E+01 0.70903542854E+01 0.65737263029E+01
 0.55317521176E+01 0.46621857872E+01 0.39688070845E+01 0.34405210035E+01 0.30611867281E+01
 0.28163416177E+01 0.26962323352E+01 0.26962184148E+01 0.28163174401E+01 0.30611916455E+01
 0.34405777308E+01 0.39688847715E+01 0.46622142293E+01 0.55316900471E+01 0.65736103592E+01
 0.77588903032E+01 0.90253912622E+01 0.10276498822E+02 0.11388547267E+02 0.12228749641E+02
 0.12682415137E+02 0.12682385775E+02 0.12228670447E+02 0.11388446853E+02 0.10276425197E+02
 0.90253931464E+01 0.77589767962E+01 0.67198915801E+01 0.55317533587E+01 0.45734644474E+01
 0.38343995945E+01 0.32920623918E+01 0.29229138550E+01 0.27086554381E+01 0.26384065364E+01
 0.27086495544E+01 0.29229237472E+01 0.32921077246E+01 0.38344630704E+01 0.45734873243E+01
 0.55316900471E+01 0.67197737091E+01 0.81229978229E+01 0.96884586437E+01 0.11317393741E+02
 0.12866266957E+02 0.14160860585E+02 0.15026288173E+02 0.15330478776E+02 0.15026308585E+02
 0.14160846304E+02 0.12866185482E+02 0.11317293869E+02 0.96884308093E+01 0.81230752071E+01
 0.65737139158E+01 0.53079887488E+01 0.43207282794E+01 0.35852964827E+01 0.30685234156E+01
 0.27410367427E+01 0.25823785043E+01 0.25823832287E+01 0.27410564855E+01 0.30685646645E+01
 0.35853442204E+01 0.43207393643E+01 0.53079283377E+01 0.65736103592E+01 0.81229978229E+01
 0.99231214389E+01 0.11888507102E+02 0.13873217887E+02 0.15673826833E+02 0.17043534016E+02
 0.17779540696E+02 0.17779609405E+02 0.17043666534E+02 0.15673882276E+02 0.13873138708E+02
 0.11888374606E+02 0.99230621408E+01 0.81230537754E+01 0.61587562308E+01 0.48946625855E+01
 0.39405618988E+01 0.32557395626E+01 0.27992471281E+01 0.25386898047E+01 0.24540693438E+01
 0.25387117402E+01 0.27992887937E+01 0.32557810598E+01 0.39405638102E+01 0.48945989433E+01
 0.61586580735E+01 0.77588903032E+01 0.96884586437E+01 0.11888507102E+02 0.14231610762E+02
 0.16506727690E+02 0.18406159692E+02 0.19656470767E+02 0.20091589676E+02 0.19656634412E+02
 0.18406341325E+02 0.16506774843E+02 0.14231501247E+02 0.11888353065E+02 0.96883887456E+01
 0.77589378501E+01 0.55383923854E+01 0.43504961677E+01 0.34831980941E+01 0.28862020737E+01
 0.25149093220E+01 0.23374259292E+01 0.23374385846E+01 0.25149451508E+01 0.28862437314E+01
 0.34832058779E+01 0.43504384576E+01 0.55382926002E+01 0.70902852034E+01 0.90253912622E+01
 0.11317393741E+02 0.13873217887E+02 0.16506727690E+02 0.18887226173E+02 0.20672906914E+02
 0.21625571980E+02 0.21625664964E+02 0.20673109877E+02 0.18887377978E+02 0.16506719512E+02
 0.13873076122E+02 0.11317242333E+02 0.90253397363E+01 0.70903461023E+01 0.47977867971E+01
 0.37438234480E+01 0.30010053119E+01 0.25149116158E+01 0.22417450053E+01 0.21538262986E+01
 0.22417664510E+01 0.25149473852E+01 0.30010269509E+01 0.37437938438E+01 0.47977052711E+01
 0.62174773527E+01 0.80423729422E+01 0.10276498822E+02 0.12866266957E+02 0.15673826833E+02
 0.18406159692E+02 0.20672906914E+02 0.22162310459E+02 0.22680665634E+02 0.22162485820E+02
 0.20673120417E+02 0.18406256211E+02 0.15673756831E+02 0.12866108442E+02 0.10276377342E+02
 0.80423607191E+01 0.62175514635E+01 0.40234121617E+01 0.31381888787E+01 0.25386919471E+01
 0.21716254418E+01 0.19981695585E+01 0.19981759022E+01 0.21716448517E+01 0.25387152599E+01
 0.31381900890E+01 0.40233718056E+01 0.52536204975E+01 0.68809010809E+01 0.89321458999E+01
 0.11388547267E+02 0.14160860585E+02 0.17043534016E+02 0.19656470767E+02 0.21625571980E+02
 0.22680665634E+02 0.22680769473E+02 0.21625796756E+02 0.19656640515E+02 0.17043542432E+02
 0.14160741739E+02 0.11388414383E+02 0.89320875092E+01 0.68809279984E+01 0.52536826922E+01
 0.32872350415E+01 0.25823728949E+01 0.21274534455E+01 0.18748442960E+01 0.17941024260E+01
 0.18748466597E+01 0.21274629991E+01 0.25823845303E+01 0.32872319823E+01 0.43002528652E+01
 0.56790062155E+01 0.74648041238E+01 0.96644056371E+01 0.12228749641E+02 0.15026288173E+02
 0.17779540696E+02 0.20091589676E+02 0.21625664964E+02 0.22162485820E+02 0.21625796756E+02
 0.20091729888E+02 0.17779575663E+02 0.15026217678E+02 0.12228656924E+02 0.96643611748E+01
 0.74648170948E+01 0.56790441110E+01 0.43002803708E+01 0.26383938664E+01 0.21061118402E+01
 0.17835840007E+01 0.16323263853E+01 0.16323222192E+01 0.17835790871E+01 0.21061173435E+01
 0.26384079198E+01 0.34328467028E+01 0.45467430722E+01 0.60287557962E+01 0.79024591809E+01
 0.10148310539E+02 0.12682415137E+02 0.15330478776E+02 0.17779609405E+02 0.19656634412E+02
 0.20673109877E+02 0.20673120417E+02 0.19656640515E+02 0.17779575663E+02 0.15330418816E+02
 0.12682379020E+02 0.10148323958E+02 0.79025011077E+01 0.60287909861E+01 0.45467544854E+01
 0.34328381714E+01 0.21017664689E+01 0.17209407936E+01 0.15107458746E+01 0.14437795055E+01
 0.15107357375E+01 0.17209369349E+01 0.21017804839E+01 0.26962360817E+01 0.35565470734E+01
 0.47331241441E+01 0.62597640456E+01 0.81375186038E+01 0.10317693960E+02 0.12682385775E+02
 0.15026308585E+02 0.17043666534E+02 0.18406341325E+02 0.18887377978E+02 0.18406256211E+02
 0.17043542432E+02 0.15026217678E+02 0.12682379020E+02 0.10317760016E+02 0.81375984299E+01
 0.62598077255E+01 0.47331239750E+01 0.35565225608E+01 0.26962089650E+01 0.16816287427E+01
 0.14246281210E+01 0.13042706383E+01 0.13042638899E+01 0.14246177287E+01 0.16816312897E+01
 0.21069331398E+01 0.27439553503E+01 0.36400017971E+01 0.48337880868E+01 0.63406167821E+01
 0.81375084290E+01 0.10148252056E+02 0.12228670447E+02 0.14160846304E+02 0.15673882276E+02
 0.16506774843E+02 0.16506719512E+02 0.15673756831E+02 0.14160741739E+02 0.12228656924E+02
 0.10148323958E+02 0.81375984299E+01 0.63406634113E+01 0.48337816977E+01 0.36399690139E+01
 0.27439218713E+01 0.21069122619E+01 0.13684101091E+01 0.12071811834E+01 0.11557172324E+01
 0.12071720077E+01 0.13684014268E+01 0.16597983358E+01 0.21139287938E+01 0.27709618066E+01
 0.36695110674E+01 0.48337828720E+01 0.62597651135E+01 0.79024368581E+01 0.96643282583E+01
 0.11388446853E+02 0.12866185482E+02 0.13873138708E+02 0.14231501247E+02 0.13873076122E+02
 0.12866108442E+02 0.11388414383E+02 0.96643611748E+01 0.79025011077E+01 0.62598077255E+01
 0.48337816977E+01 0.36694837275E+01 0.27709350635E+01 0.21139148347E+01 0.16597976354E+01
 0.11463100701E+01 0.10564263343E+01 0.10564244430E+01 0.11463038630E+01 0.13370316236E+01
 0.16503657208E+01 0.21169827162E+01 0.27709558458E+01 0.36399831724E+01 0.47331088973E+01
 0.60287511673E+01 0.74647871549E+01 0.89320984302E+01 0.10276425197E+02 0.11317293869E+02
 0.11888374606E+02 0.11888353065E+02 0.11317242333E+02 0.10276377342E+02 0.89320875092E+01
 0.74648170948E+01 0.60287909861E+01 0.47331239750E+01 0.36399690139E+01 0.27709350635E+01
 0.21169752161E+01 0.16503718785E+01 0.13370412342E+01 0.99959036054E+00 0.96183037847E+00
 0.99959360945E+00 0.11170698323E+01 0.13269963171E+01 0.16503691559E+01 0.21139324917E+01
 0.27439500776E+01 0.35565307628E+01 0.45467248123E+01 0.56789968646E+01 0.68809052505E+01
 0.80423849330E+01 0.90253931464E+01 0.96884308093E+01 0.99230621408E+01 0.96883887456E+01
 0.90253397363E+01 0.80423607191E+01 0.68809279984E+01 0.56790441110E+01 0.45467544854E+01
 0.35565225608E+01 0.27439218713E+01 0.21139148347E+01 0.16503718785E+01 0.13270057391E+01
 0.11170720945E+01 0.91625471633E+00 0.91625866892E+00 0.98110037236E+00 0.11170690008E+01
 0.13370329765E+01 0.16598025461E+01 0.21069432587E+01 0.26962515740E+01 0.34328560112E+01
 0.43002499841E+01 0.52536227508E+01 0.62175101761E+01 0.70903542854E+01 0.77589767962E+01
 0.81230752071E+01 0.81230537754E+01 0.77589378501E+01 0.70903461023E+01 0.62175514635E+01
 0.52536826922E+01 0.43002803708E+01 0.34328381714E+01 0.26962089650E+01 0.21069122619E+01
 0.16597976354E+01 0.13370412342E+01 0.11170720945E+01 0.98109497388E+00 0.91625757988E+00
 0.96182952799E+00 0.10564262497E+01 0.12071741637E+01 0.14246075225E+01 0.17209180253E+01
 0.21061130496E+01 0.25824081520E+01 0.31382314252E+01 0.37438349264E+01 0.43504709108E+01
 0.48946304551E+01 0.53079737834E+01 0.55317507795E+01 0.55317528305E+01 0.53079892816E+01
 0.48946647839E+01 0.43504994452E+01 0.37438263053E+01 0.31381906908E+01 0.25823739438E+01
 0.21061118386E+01 0.17209390956E+01 0.14246253012E+01 0.12071787323E+01 0.10564247972E+01
 0.96182929232E+00 0.91625812018E+00 0.96182952799E+00 0.10171821781E+01 0.11136832654E+01
 0.12577702418E+01 0.14578155122E+01 0.17221247267E+01 0.20553866917E+01 0.24541032088E+01
 0.29023586307E+01 0.33697130368E+01 0.38127156787E+01 0.41806829847E+01 0.44251644494E+01
 0.45109622920E+01 0.44251730476E+01 0.41806980590E+01 0.38127213480E+01 0.33696905439E+01
 0.29023157639E+01 0.24540749598E+01 0.20553967005E+01 0.17221587152E+01 0.14578420170E+01
 0.12577766562E+01 0.11136808789E+01 0.10171835686E+01 0.96183375856E+00 0.94379609894E+00
 0.10564262497E+01 0.11136832654E+01 0.12046138166E+01 0.13349101552E+01 0.15109134053E+01
 0.17375962000E+01 0.20155310344E+01 0.23374536056E+01 0.26856989273E+01 0.30319586824E+01
 0.33402359679E+01 0.35728429421E+01 0.36981880384E+01 0.36981903741E+01 0.35728447904E+01
 0.33402260336E+01 0.30319322973E+01 0.26856697266E+01 0.23374451357E+01 0.20155511680E+01
 0.17376264929E+01 0.15109298695E+01 0.13349082209E+01 0.12046064269E+01 0.11136811556E+01
 0.10564287885E+01 0.10288162019E+01 0.10288144964E+01 0.12071741637E+01 0.12577702418E+01
 0.13349101552E+01 0.14437515491E+01 0.15890026054E+01 0.17730769915E+01 0.19937242082E+01
 0.22417479880E+01 0.24998839452E+01 0.27438280820E+01 0.29457146189E+01 0.30794104158E+01
 0.31262386181E+01 0.30794113865E+01 0.29457089710E+01 0.27438145919E+01 0.24998751419E+01
 0.22417571162E+01 0.19937464723E+01 0.17730919657E+01 0.15889978709E+01 0.14437363790E+01
 0.13349009740E+01 0.12577702655E+01 0.12071754318E+01 0.11787380837E+01 0.11695909596E+01
 0.11787390797E+01 0.14246075225E+01 0.14578155122E+01 0.15109134053E+01 0.15890026054E+01
 0.16957619089E+01 0.18319335562E+01 0.19937234004E+01 0.21716057013E+01 0.23502752047E+01
 0.25103017412E+01 0.26314350965E+01 0.26968052617E+01 0.26968069477E+01 0.26314371094E+01
 0.25103010577E+01 0.23502760834E+01 0.21716136260E+01 0.19937335716E+01 0.18319337023E+01
 0.16957488085E+01 0.15889887902E+01 0.15109122801E+01 0.14578246403E+01 0.14246136005E+01
 0.14060661075E+01 0.13979708937E+01 0.13979736796E+01 0.14060683645E+01 0.17209180253E+01
 0.17221247267E+01 0.17375962000E+01 0.17730769915E+01 0.18319335562E+01 0.19141464340E+01
 0.20155305610E+01 0.21274340924E+01 0.22373327090E+01 0.23306042903E+01 0.23933330674E+01
 0.24154677713E+01 0.23933350463E+01 0.23306037915E+01 0.22373277924E+01 0.21274274980E+01
 0.20155246975E+01 0.19141413600E+01 0.18319309337E+01 0.17730807183E+01 0.17376064576E+01
 0.17221351329E+01 0.17209217185E+01 0.17270691428E+01 0.17339768762E+01 0.17368645332E+01
 0.17339812160E+01 0.17270723742E+01 0.21061130496E+01 0.20553866917E+01 0.20155310344E+01
 0.19937242082E+01 0.19937234004E+01 0.20155305610E+01 0.20553885608E+01 0.21061154156E+01
 0.21579997381E+01 0.22004614254E+01 0.22243605124E+01 0.22243604399E+01 0.22004568457E+01
 0.21579858412E+01 0.21060980157E+01 0.20553800732E+01 0.20155373382E+01 0.19937411895E+01
 0.19937428516E+01 0.20155402517E+01 0.20553818512E+01 0.21060998651E+01 0.21579889551E+01
 0.22004588261E+01 0.22243592529E+01 0.22243583037E+01 0.22004605895E+01 0.21579989033E+01
 0.25824081520E+01 0.24541032088E+01 0.23374536056E+01 0.22417479880E+01 0.21716057013E+01
 0.21274340924E+01 0.21061154156E+01 0.21017940776E+01 0.21069436303E+01 0.21139323095E+01
 0.21169834984E+01 0.21139275513E+01 0.21069282164E+01 0.21017755591E+01 0.21061154801E+01
 0.21274622394E+01 0.21716436428E+01 0.22417676031E+01 0.23374436159E+01 0.24540745422E+01
 0.25823808170E+01 0.27086567978E+01 0.28163435207E+01 0.28891182599E+01 0.29148676252E+01
 0.28891085265E+01 0.28163379082E+01 0.27086680739E+01 0.31382314252E+01 0.29023586307E+01
 0.26856989273E+01 0.24998839452E+01 0.23502752047E+01 0.22373327090E+01 0.21579997381E+01
 0.21069436303E+01 0.20778563994E+01 0.20650282242E+01 0.20650245724E+01 0.20778434128E+01
 0.21069281682E+01 0.21580057113E+01 0.22373728520E+01 0.23503229471E+01 0.24998957654E+01
 0.26856639360E+01 0.29023094162E+01 0.31382056110E+01 0.33747438651E+01 0.35874149046E+01
 0.37493791661E+01 0.38372318852E+01 0.38372261159E+01 0.37493627564E+01 0.35873949965E+01
 0.33747383086E+01 0.37438349264E+01 0.33697130368E+01 0.30319586824E+01 0.27438280820E+01
 0.25103017412E+01 0.23306042903E+01 0.22004614254E+01 0.21139323095E+01 0.20650282242E+01
 0.20492770518E+01 0.20650160852E+01 0.21139184262E+01 0.22004685021E+01 0.23306447514E+01
 0.25103487579E+01 0.27438331027E+01 0.30319087124E+01 0.33696520231E+01 0.37438153457E+01
 0.41308386084E+01 0.44968857413E+01 0.48013235153E+01 0.50040852410E+01 0.50753644602E+01
 0.50040865812E+01 0.48013081865E+01 0.44968495814E+01 0.41308117033E+01 0.43504709108E+01
 0.38127156787E+01 0.33402359679E+01 0.29457146189E+01 0.26314350965E+01 0.23933330674E+01
 0.22243605124E+01 0.21169834984E+01 0.20650245724E+01 0.20650160852E+01 0.21169698565E+01
 0.22243677602E+01 0.23933737119E+01 0.26314827429E+01 0.29457205172E+01 0.33401839461E+01
 0.38126489222E+01 0.43504480695E+01 0.49266326238E+01 0.54981957286E+01 0.60085045102E+01
 0.63954885666E+01 0.66049343280E+01 0.66049435149E+01 0.63954994116E+01 0.60084877715E+01
 0.54981508844E+01 0.49266007769E+01 0.48946304551E+01 0.41806829847E+01 0.35728429421E+01
 0.30794104158E+01 0.26968052617E+01 0.24154677713E+01 0.22243604399E+01 0.21139275513E+01
 0.20778434128E+01 0.21139184262E+01 0.22243677602E+01 0.24155087769E+01 0.26968571134E+01
 0.30794231948E+01 0.35727936659E+01 0.41806086916E+01 0.48945934012E+01 0.56882442347E+01
 0.65122340600E+01 0.72943474206E+01 0.79468469000E+01 0.83824416551E+01 0.85357650455E+01
 0.83824537995E+01 0.79468483947E+01 0.72943173900E+01 0.65121847249E+01 0.56882212647E+01
 0.53079737834E+01 0.44251644494E+01 0.36981880384E+01 0.31262386181E+01 0.26968069477E+01
 0.23933350463E+01 0.22004568457E+01 0.21069282164E+01 0.21069281682E+01 0.22004685021E+01
 0.23933737119E+01 0.26968571134E+01 0.31262543030E+01 0.36981391320E+01 0.44250787840E+01
 0.53079185909E+01 0.63266218816E+01 0.74318736354E+01 0.85407094668E+01 0.95403776033E+01
 0.10304282597E+02 0.10719776465E+02 0.10719788059E+02 0.10304300010E+02 0.95403656840E+01
 0.85406544279E+01 0.74318089832E+01 0.63266054437E+01 0.55317507795E+01 0.45109622920E+01
 0.36981903741E+01 0.30794113865E+01 0.26314371094E+01 0.23306037915E+01 0.21579858412E+01
 0.21017755591E+01 0.21580057113E+01 0.23306447514E+01 0.26314827429E+01 0.30794231948E+01
 0.36981391320E+01 0.45108687288E+01 0.55316839279E+01 0.67538335137E+01 0.81371898541E+01
 0.95980813464E+01 0.11006462657E+02 0.12197130040E+02 0.12999836390E+02 0.13283880986E+02
 0.12999905093E+02 0.12197194151E+02 0.11006448624E+02 0.95979891899E+01 0.81370946191E+01
 0.67538139239E+01 0.55317528305E+01 0.44251730476E+01 0.35728447904E+01 0.29457089710E+01
 0.25103010577E+01 0.22373277924E+01 0.21060980157E+01 0.21061154801E+01 0.22373728520E+01
 0.25103487579E+01 0.29457205172E+01 0.35727936659E+01 0.44250787840E+01 0.55316839279E+01
 0.69043561103E+01 0.85215781797E+01 0.10312443891E+02 0.12144929367E+02 0.13826974320E+02
 0.15131261214E+02 0.15847541341E+02 0.15847624379E+02 0.15131436942E+02 0.13827092536E+02
 0.12144900476E+02 0.10312308289E+02 0.85214534925E+01 0.69043298134E+01 0.53079892816E+01
 0.41806980590E+01 0.33402260336E+01 0.27438145919E+01 0.23502760834E+01 0.21274274980E+01
 0.20553800732E+01 0.21274622394E+01 0.23503229471E+01 0.27438331027E+01 0.33401839461E+01
 0.41806086916E+01 0.53079185909E+01 0.67538335137E+01 0.85215781797E+01 0.10565461944E+02
 0.12770628128E+02 0.14940739518E+02 0.16808640730E+02 0.18084841772E+02 0.18539633830E+02
 0.18085024283E+02 0.16808864083E+02 0.14940844093E+02 0.12770562336E+02 0.10565302554E+02
 0.85214499382E+01 0.67538119950E+01 0.48946647839E+01 0.38127213480E+01 0.30319322973E+01
 0.24998751419E+01 0.21716136260E+01 0.20155246975E+01 0.20155373382E+01 0.21716436428E+01
 0.24998957654E+01 0.30319087124E+01 0.38126489222E+01 0.48945934012E+01 0.63266218816E+01
 0.81371898541E+01 0.10312443891E+02 0.12770628128E+02 0.15337668869E+02 0.17738700528E+02
 0.19627771650E+02 0.20671281582E+02 0.20671357911E+02 0.19627946867E+02 0.17738855998E+02
 0.15337709629E+02 0.12770543879E+02 0.10312305552E+02 0.81370940427E+01 0.63266217725E+01
 0.43504994452E+01 0.33696905439E+01 0.26856697266E+01 0.22417571162E+01 0.19937335716E+01
 0.19141413600E+01 0.19937411895E+01 0.22417676031E+01 0.26856639360E+01 0.33696520231E+01
 0.43504480695E+01 0.56882442347E+01 0.74318736354E+01 0.95980813464E+01 0.12144929367E+02
 0.14940739518E+02 0.17738700528E+02 0.20179210797E+02 0.21851993489E+02 0.22447370052E+02
 0.21852048450E+02 0.20179291225E+02 0.17738762566E+02 0.14940746321E+02 0.12144874001E+02
 0.95980000142E+01 0.74318251246E+01 0.56882588312E+01 0.37438263053E+01 0.29023157639E+01
 0.23374451357E+01 0.19937464723E+01 0.18319337023E+01 0.18319309337E+01 0.19937428516E+01
 0.23374436159E+01 0.29023094162E+01 0.37438153457E+01 0.49266326238E+01 0.65122340600E+01
 0.85407094668E+01 0.11006462657E+02 0.13826974320E+02 0.16808640730E+02 0.19627771650E+02
 0.21851993489E+02 0.23080214700E+02 0.23080207769E+02 0.21851981473E+02 0.19627773181E+02
 0.16808663485E+02 0.13826999937E+02 0.11006463661E+02 0.85406843133E+01 0.65122104785E+01
 0.49266310013E+01 0.31381906908E+01 0.24540749598E+01 0.20155511680E+01 0.17730919657E+01
 0.16957488085E+01 0.17730807183E+01 0.20155402517E+01 0.24540745422E+01 0.31382056110E+01
 0.41308386084E+01 0.54981957286E+01 0.72943474206E+01 0.95403776033E+01 0.12197130040E+02
 0.15131261214E+02 0.18084841772E+02 0.20671281582E+02 0.22447370052E+02 0.23080207769E+02
 0.22447308198E+02 0.20671201134E+02 0.18084803422E+02 0.15131294321E+02 0.12197202542E+02
 0.95404276870E+01 0.72943455811E+01 0.54981625169E+01 0.41308074506E+01 0.25823739438E+01
 0.20553967005E+01 0.17376264929E+01 0.15889978709E+01 0.15889887902E+01 0.17376064576E+01
 0.20553818512E+01 0.25823808170E+01 0.33747438651E+01 0.44968857413E+01 0.60085045102E+01
 0.79468469000E+01 0.10304282597E+02 0.12999836390E+02 0.15847541341E+02 0.18539633830E+02
 0.20671357911E+02 0.21852048450E+02 0.21851981473E+02 0.20671201134E+02 0.18539492902E+02
 0.15847510021E+02 0.12999921314E+02 0.10304400602E+02 0.79469070560E+01 0.60084864828E+01
 0.44968339828E+01 0.33747066334E+01 0.21061118386E+01 0.17221587152E+01 0.15109298695E+01
 0.14437363790E+01 0.15109122801E+01 0.17221351329E+01 0.21060998651E+01 0.27086567978E+01
 0.35874149046E+01 0.48013235153E+01 0.63954885666E+01 0.83824416551E+01 0.10719776465E+02
 0.13283880986E+02 0.15847624379E+02 0.18085024283E+02 0.19627946867E+02 0.20179291225E+02
 0.19627773181E+02 0.18084803422E+02 0.15847510021E+02 0.13283932265E+02 0.10719919830E+02
 0.83825519923E+01 0.63955031994E+01 0.48012734283E+01 0.35873641501E+01 0.27086392307E+01
 0.17209390956E+01 0.14578420170E+01 0.13349082209E+01 0.13349009740E+01 0.14578246403E+01
 0.17209217185E+01 0.21579889551E+01 0.28163435207E+01 0.37493791661E+01 0.50040852410E+01
 0.66049343280E+01 0.85357650455E+01 0.10719788059E+02 0.12999905093E+02 0.15131436942E+02
 0.16808864083E+02 0.17738855998E+02 0.17738762566E+02 0.16808663485E+02 0.15131294321E+02
 0.12999921314E+02 0.10719919830E+02 0.85358863247E+01 0.66049622417E+01 0.50040365811E+01
 0.37493201379E+01 0.28163158932E+01 0.21579922134E+01 0.14246253012E+01 0.12577766562E+01
 0.12046064269E+01 0.12577702655E+01 0.14246136005E+01 0.17270691428E+01 0.22004588261E+01
 0.28891182599E+01 0.38372318852E+01 0.50753644602E+01 0.66049435149E+01 0.83824537995E+01
 0.10304300010E+02 0.12197194151E+02 0.13827092536E+02 0.14940844093E+02 0.15337709629E+02
 0.14940746321E+02 0.13826999937E+02 0.12197202542E+02 0.10304400602E+02 0.83825519923E+01
 0.66049622417E+01 0.50753115181E+01 0.38371689978E+01 0.28890890931E+01 0.22004616469E+01
 0.17270828597E+01 0.12071787323E+01 0.11136808789E+01 0.11136811556E+01 0.12071754318E+01
 0.14060661075E+01 0.17339768762E+01 0.22243592529E+01 0.29148676252E+01 0.38372261159E+01
 0.50040865812E+01 0.63954994116E+01 0.79468483947E+01 0.95403656840E+01 0.11006448624E+02
 0.12144900476E+02 0.12770562336E+02 0.12770543879E+02 0.12144874001E+02 0.11006463661E+02
 0.95404276870E+01 0.79469070560E+01 0.63955031994E+01 0.50040365811E+01 0.38371689978E+01
 0.29148443444E+01 0.22243715913E+01 0.17340001736E+01 0.14060804066E+01 0.10564247972E+01
 0.10171835686E+01 0.10564287885E+01 0.11787380837E+01 0.13979708937E+01 0.17368645332E+01
 0.22243583037E+01 0.28891085265E+01 0.37493627564E+01 0.48013081865E+01 0.60084877715E+01
 0.72943173900E+01 0.85406544279E+01 0.95979891899E+01 0.10312308289E+02 0.10565302554E+02
 0.10312305552E+02 0.95980000142E+01 0.85406843133E+01 0.72943455811E+01 0.60084864828E+01
 0.48012734283E+01 0.37493201379E+01 0.28890890931E+01 0.22243715913E+01 0.17368941731E+01
 0.13979930268E+01 0.11787428096E+01 0.96182929232E+00 0.96183375856E+00 0.10288162019E+01
 0.11695909596E+01 0.13979736796E+01 0.17339812160E+01 0.22004605895E+01 0.28163379082E+01
 0.35873949965E+01 0.44968495814E+01 0.54981508844E+01 0.65121847249E+01 0.74318089832E+01
 0.81370946191E+01 0.85214534925E+01 0.85214499382E+01 0.81370940427E+01 0.74318251246E+01
 0.65122104785E+01 0.54981625169E+01 0.44968339828E+01 0.35873641501E+01 0.28163158932E+01
 0.22004616469E+01 0.17340001736E+01 0.13979930268E+01 0.11695968691E+01 0.10288103886E+01
 0.91625812018E+00 0.94379609894E+00 0.10288144964E+01 0.11787390797E+01 0.14060683645E+01
 0.17270723742E+01 0.21579989033E+01 0.27086680739E+01 0.33747383086E+01 0.41308117033E+01
 0.49266007769E+01 0.56882212647E+01 0.63266054437E+01 0.67538139239E+01 0.69043298134E+01
 0.67538119950E+01 0.63266217725E+01 0.56882588312E+01 0.49266310013E+01 0.41308074506E+01
 0.33747066334E+01 0.27086392307E+01 0.21579922134E+01 0.17270828597E+01 0.14060804066E+01
 0.11787428096E+01 0.10288103886E+01 0.94379094733E+00 0.99959256948E+00 0.10564278720E+01
 0.11557263354E+01 0.13042748700E+01 0.15107320449E+01 0.17835553152E+01 0.21274333816E+01
 0.25387001699E+01 0.30010333732E+01 0.34832194501E+01 0.39405632414E+01 0.43207191911E+01
 0.45734585631E+01 0.46621869028E+01 0.45734666122E+01 0.43207313095E+01 0.39405662489E+01
 0.34832023962E+01 0.30010073306E+01 0.25386915092E+01 0.21274518742E+01 0.17835814208E+01
 0.15107417999E+01 0.13042664396E+01 0.11557151061E+01 0.10564244213E+01 0.99959419195E+00
 0.98110140527E+00 0.10564278720E+01 0.11136845453E+01 0.12046142511E+01 0.13349101163E+01
 0.15109134683E+01 0.17375960217E+01 0.20155299614E+01 0.23374518712E+01 0.26856972138E+01
 0.30319570908E+01 0.33402344992E+01 0.35728423836E+01 0.36981891832E+01 0.36981928058E+01
 0.35728474641E+01 0.33402285175E+01 0.30319344325E+01 0.26856707365E+01 0.23374442991E+01
 0.20155489350E+01 0.17376238899E+01 0.15109273078E+01 0.13349058689E+01 0.12046050726E+01
 0.11136814860E+01 0.10564302880E+01 0.10288178448E+01 0.10288160423E+01 0.11557263354E+01
 0.12046142511E+01 0.12789314301E+01 0.13836742613E+01 0.15235409137E+01 0.17010563944E+01