<?xml version="1.0" encoding="ISO-8859-1"?>
<modeling>
 <generator>
  <i name="program" type="string">vasp </i>
  <i name="version" type="string">5.4.4.18Apr17-6-g9f103f2a35  </i>
  <i name="subversion" type="string">(build Dec 09 2018 21:25:21) complex            parallel </i>
  <i name="platform" type="string">IFC18.0.1.163_CrayMPICH7.7.0_MKL18.0.1.163 </i>
  <i name="date" type="string">2019 03 19 </i>
  <i name="time" type="string">13:27:23 </i>
 </generator>
 <incar>
  <i type="string" name="PREC">normal</i>
  <i type="int" name="IBRION">     2</i>
  <i name="EDIFF">      0.00040000</i>
  <i name="EDIFFG">     -0.01000000</i>
  <i type="int" name="NSW">    15</i>
  <i type="int" name="ISIF">     2</i>
  <i name="ENCUT">    200.00000000</i>
  <i type="int" name="NBANDS">     8</i>
  <i type="logical" name="LREAL"> F  </i>
  <i type="int" name="ISMEAR">     0</i>
  <i name="SIGMA">      0.20000000</i>
  <v type="int" name="KPOINT_BSE">    -1     0     0     0</v>
 </incar>
 <structure name="primitive_cell" >
  <crystal>
   <varray name="basis" >
    <v>       0.00000000       2.71500000       2.71500000 </v>
    <v>       2.71500000       0.00000000       2.71500000 </v>
    <v>       2.71500000       2.71500000       0.00000000 </v>
   </varray>
   <i name="volume">     40.02575175 </i>
   <varray name="rec_basis" >
    <v>      -0.18416206       0.18416206       0.18416206 </v>
    <v>       0.18416206      -0.18416206       0.18416206 </v>
    <v>       0.18416206       0.18416206      -0.18416206 </v>
   </varray>
  </crystal>
  <varray name="positions" >
   <v>      -0.50000000      -0.50000000      -0.50000000 </v>
   <v>      -0.25000000      -0.25000000      -0.25000000 </v>
  </varray>
 </structure>
 <varray name="primitive_index" >
  <v type="int" >        1 </v>
  <v type="int" >        2 </v>
 </varray>
 <kpoints>
  <generation param="Monkhorst-Pack">
   <v type="int" name="divisions">      10       10       10 </v>
   <v name="usershift">      0.00000000       0.00000000       0.00000000 </v>
   <v name="genvec1">      0.10000000       0.00000000      -0.00000000 </v>
   <v name="genvec2">      0.00000000       0.10000000       0.00000000 </v>
   <v name="genvec3">     -0.00000000      -0.00000000       0.10000000 </v>
   <v name="shift">      0.50000000       0.50000000       0.50000000 </v>
  </generation>
  <varray name="kpointlist" >
   <v>       0.05000000       0.05000000       0.05000000 </v>
   <v>       0.15000000       0.05000000       0.05000000 </v>
   <v>       0.25000000       0.05000000       0.05000000 </v>
   <v>       0.35000000       0.05000000       0.05000000 </v>
   <v>       0.45000000       0.05000000       0.05000000 </v>
   <v>      -0.45000000       0.05000000       0.05000000 </v>
   <v>      -0.35000000       0.05000000       0.05000000 </v>
   <v>      -0.25000000       0.05000000       0.05000000 </v>
   <v>      -0.15000000       0.05000000       0.05000000 </v>
   <v>      -0.05000000       0.05000000       0.05000000 </v>
   <v>       0.15000000       0.15000000       0.05000000 </v>
   <v>       0.25000000       0.15000000       0.05000000 </v>
   <v>       0.35000000       0.15000000       0.05000000 </v>
   <v>       0.45000000       0.15000000       0.05000000 </v>
   <v>      -0.45000000       0.15000000       0.05000000 </v>
   <v>      -0.35000000       0.15000000       0.05000000 </v>
   <v>      -0.25000000       0.15000000       0.05000000 </v>
   <v>      -0.15000000       0.15000000       0.05000000 </v>
   <v>      -0.05000000       0.15000000       0.05000000 </v>
   <v>       0.25000000       0.25000000       0.05000000 </v>
   <v>       0.35000000       0.25000000       0.05000000 </v>
   <v>       0.45000000       0.25000000       0.05000000 </v>
   <v>      -0.45000000       0.25000000       0.05000000 </v>
   <v>      -0.35000000       0.25000000       0.05000000 </v>
   <v>      -0.25000000       0.25000000       0.05000000 </v>
   <v>      -0.15000000       0.25000000       0.05000000 </v>
   <v>      -0.05000000       0.25000000       0.05000000 </v>
   <v>       0.35000000       0.35000000       0.05000000 </v>
   <v>       0.45000000       0.35000000       0.05000000 </v>
   <v>      -0.45000000       0.35000000       0.05000000 </v>
   <v>      -0.35000000       0.35000000       0.05000000 </v>
   <v>      -0.25000000       0.35000000       0.05000000 </v>
   <v>      -0.15000000       0.35000000       0.05000000 </v>
   <v>      -0.05000000       0.35000000       0.05000000 </v>
   <v>       0.45000000       0.45000000       0.05000000 </v>
   <v>      -0.45000000       0.45000000       0.05000000 </v>
   <v>      -0.35000000       0.45000000       0.05000000 </v>
   <v>      -0.25000000       0.45000000       0.05000000 </v>
   <v>      -0.15000000       0.45000000       0.05000000 </v>
   <v>      -0.05000000       0.45000000       0.05000000 </v>
   <v>      -0.45000000      -0.45000000       0.05000000 </v>
   <v>      -0.35000000      -0.45000000       0.05000000 </v>
   <v>      -0.25000000      -0.45000000       0.05000000 </v>
   <v>      -0.15000000      -0.45000000       0.05000000 </v>
   <v>      -0.35000000      -0.35000000       0.05000000 </v>
   <v>      -0.25000000      -0.35000000       0.05000000 </v>
   <v>      -0.15000000      -0.35000000       0.05000000 </v>
   <v>      -0.25000000      -0.25000000       0.05000000 </v>
   <v>      -0.15000000      -0.25000000       0.05000000 </v>
   <v>      -0.15000000      -0.15000000       0.05000000 </v>
   <v>       0.15000000       0.15000000       0.15000000 </v>
   <v>       0.25000000       0.15000000       0.15000000 </v>
   <v>       0.35000000       0.15000000       0.15000000 </v>
   <v>       0.45000000       0.15000000       0.15000000 </v>
   <v>      -0.45000000       0.15000000       0.15000000 </v>
   <v>      -0.35000000       0.15000000       0.15000000 </v>
   <v>      -0.25000000       0.15000000       0.15000000 </v>
   <v>      -0.15000000       0.15000000       0.15000000 </v>
   <v>       0.25000000       0.25000000       0.15000000 </v>
   <v>       0.35000000       0.25000000       0.15000000 </v>
   <v>       0.45000000       0.25000000       0.15000000 </v>
   <v>      -0.45000000       0.25000000       0.15000000 </v>
   <v>      -0.35000000       0.25000000       0.15000000 </v>
   <v>      -0.25000000       0.25000000       0.15000000 </v>
   <v>      -0.15000000       0.25000000       0.15000000 </v>
   <v>       0.35000000       0.35000000       0.15000000 </v>
   <v>       0.45000000       0.35000000       0.15000000 </v>
   <v>      -0.45000000       0.35000000       0.15000000 </v>
   <v>      -0.35000000       0.35000000       0.15000000 </v>
   <v>      -0.25000000       0.35000000       0.15000000 </v>
   <v>      -0.15000000       0.35000000       0.15000000 </v>
   <v>       0.45000000       0.45000000       0.15000000 </v>
   <v>      -0.45000000       0.45000000       0.15000000 </v>
   <v>      -0.35000000       0.45000000       0.15000000 </v>
   <v>      -0.25000000       0.45000000       0.15000000 </v>
   <v>      -0.15000000       0.45000000       0.15000000 </v>
   <v>      -0.45000000      -0.45000000       0.15000000 </v>
   <v>      -0.35000000      -0.45000000       0.15000000 </v>
   <v>      -0.25000000      -0.45000000       0.15000000 </v>
   <v>      -0.35000000      -0.35000000       0.15000000 </v>
   <v>      -0.25000000      -0.35000000       0.15000000 </v>
   <v>      -0.25000000      -0.25000000       0.15000000 </v>
   <v>       0.25000000       0.25000000       0.25000000 </v>
   <v>       0.35000000       0.25000000       0.25000000 </v>
   <v>       0.45000000       0.25000000       0.25000000 </v>
   <v>      -0.45000000       0.25000000       0.25000000 </v>
   <v>      -0.35000000       0.25000000       0.25000000 </v>
   <v>      -0.25000000       0.25000000       0.25000000 </v>
   <v>       0.35000000       0.35000000       0.25000000 </v>
   <v>       0.45000000       0.35000000       0.25000000 </v>
   <v>      -0.45000000       0.35000000       0.25000000 </v>
   <v>      -0.35000000       0.35000000       0.25000000 </v>
   <v>      -0.25000000       0.35000000       0.25000000 </v>
   <v>       0.45000000       0.45000000       0.25000000 </v>
   <v>      -0.45000000       0.45000000       0.25000000 </v>
   <v>      -0.35000000       0.45000000       0.25000000 </v>
   <v>      -0.25000000       0.45000000       0.25000000 </v>
   <v>      -0.45000000      -0.45000000       0.25000000 </v>
   <v>      -0.35000000      -0.45000000       0.25000000 </v>
   <v>      -0.35000000      -0.35000000       0.25000000 </v>
   <v>       0.35000000       0.35000000       0.35000000 </v>
   <v>       0.45000000       0.35000000       0.35000000 </v>
   <v>      -0.45000000       0.35000000       0.35000000 </v>
   <v>      -0.35000000       0.35000000       0.35000000 </v>
   <v>       0.45000000       0.45000000       0.35000000 </v>
   <v>      -0.45000000       0.45000000       0.35000000 </v>
   <v>      -0.35000000       0.45000000       0.35000000 </v>
   <v>      -0.45000000      -0.45000000       0.35000000 </v>
   <v>       0.45000000       0.45000000       0.45000000 </v>
   <v>      -0.45000000       0.45000000       0.45000000 </v>
  </varray>
  <varray name="weights" >
   <v>       0.00200000 </v>
   <v>       0.00600000 </v>
   <v>       0.00600000 </v>
   <v>       0.00600000 </v>
   <v>       0.00600000 </v>
   <v>       0.00600000 </v>
   <v>       0.00600000 </v>
   <v>       0.00600000 </v>
   <v>       0.00600000 </v>
   <v>       0.00600000 </v>
   <v>       0.00600000 </v>
   <v>       0.01200000 </v>
   <v>       0.01200000 </v>
   <v>       0.01200000 </v>
   <v>       0.01200000 </v>
   <v>       0.01200000 </v>
   <v>       0.01200000 </v>
   <v>       0.01200000 </v>
   <v>       0.01200000 </v>
   <v>       0.00600000 </v>
   <v>       0.01200000 </v>
   <v>       0.01200000 </v>
   <v>       0.01200000 </v>
   <v>       0.01200000 </v>
   <v>       0.01200000 </v>
   <v>       0.01200000 </v>
   <v>       0.01200000 </v>
   <v>       0.00600000 </v>
   <v>       0.01200000 </v>
   <v>       0.01200000 </v>
   <v>       0.01200000 </v>
   <v>       0.01200000 </v>
   <v>       0.01200000 </v>
   <v>       0.01200000 </v>
   <v>       0.00600000 </v>
   <v>       0.01200000 </v>
   <v>       0.01200000 </v>
   <v>       0.01200000 </v>
   <v>       0.01200000 </v>
   <v>       0.01200000 </v>
   <v>       0.00600000 </v>
   <v>       0.01200000 </v>
   <v>       0.01200000 </v>
   <v>       0.01200000 </v>
   <v>       0.00600000 </v>
   <v>       0.01200000 </v>
   <v>       0.01200000 </v>
   <v>       0.00600000 </v>
   <v>       0.01200000 </v>
   <v>       0.00600000 </v>
   <v>       0.00200000 </v>
   <v>       0.00600000 </v>
   <v>       0.00600000 </v>
   <v>       0.00600000 </v>
   <v>       0.00600000 </v>
   <v>       0.00600000 </v>
   <v>       0.00600000 </v>
   <v>       0.00600000 </v>
   <v>       0.00600000 </v>
   <v>       0.01200000 </v>
   <v>       0.01200000 </v>
   <v>       0.01200000 </v>
   <v>       0.01200000 </v>
   <v>       0.01200000 </v>
   <v>       0.01200000 </v>
   <v>       0.00600000 </v>
   <v>       0.01200000 </v>
   <v>       0.01200000 </v>
   <v>       0.01200000 </v>
   <v>       0.01200000 </v>
   <v>       0.01200000 </v>
   <v>       0.00600000 </v>
   <v>       0.01200000 </v>
   <v>       0.01200000 </v>
   <v>       0.01200000 </v>
   <v>       0.01200000 </v>
   <v>       0.00600000 </v>
   <v>       0.01200000 </v>
   <v>       0.01200000 </v>
   <v>       0.00600000 </v>
   <v>       0.01200000 </v>
   <v>       0.00600000 </v>
   <v>       0.00200000 </v>
   <v>       0.00600000 </v>
   <v>       0.00600000 </v>
   <v>       0.00600000 </v>
   <v>       0.00600000 </v>
   <v>       0.00600000 </v>
   <v>       0.00600000 </v>
   <v>       0.01200000 </v>
   <v>       0.01200000 </v>
   <v>       0.01200000 </v>
   <v>       0.01200000 </v>
   <v>       0.00600000 </v>
   <v>       0.01200000 </v>
   <v>       0.01200000 </v>
   <v>       0.01200000 </v>
   <v>       0.00600000 </v>
   <v>       0.01200000 </v>
   <v>       0.00600000 </v>
   <v>       0.00200000 </v>
   <v>       0.00600000 </v>
   <v>       0.00600000 </v>
   <v>       0.00600000 </v>
   <v>       0.00600000 </v>
   <v>       0.01200000 </v>
   <v>       0.01200000 </v>
   <v>       0.00600000 </v>
   <v>       0.00200000 </v>
   <v>       0.00600000 </v>
  </varray>
 </kpoints>
 <parameters>
  <separator name="general" >
   <i type="string" name="SYSTEM">unknown system</i>
   <i type="logical" name="LCOMPAT"> F  </i>
  </separator>
  <separator name="electronic" >
   <i type="string" name="PREC">normal</i>
   <i name="ENMAX">    200.00000000</i>
   <i name="ENAUG">    322.06900000</i>
   <i name="EDIFF">      0.00040000</i>
   <i type="int" name="IALGO">    38</i>
   <i type="int" name="IWAVPR">    11</i>
   <i type="int" name="NBANDS">     8</i>
   <i name="NELECT">      8.00000000</i>
   <i type="int" name="TURBO">     0</i>
   <i type="int" name="IRESTART">     0</i>
   <i type="int" name="NREBOOT">     0</i>
   <i type="int" name="NMIN">     0</i>
   <i name="EREF">      0.00000000</i>
   <separator name="electronic smearing" >
    <i type="int" name="ISMEAR">     0</i>
    <i name="SIGMA">      0.20000000</i>
    <i name="KSPACING">      0.50000000</i>
    <i type="logical" name="KGAMMA"> T  </i>
   </separator>
   <separator name="electronic projectors" >
    <i type="logical" name="LREAL"> F  </i>
    <v name="ROPT">      0.00000000</v>
    <i type="int" name="LMAXPAW">  -100</i>
    <i type="int" name="LMAXMIX">     2</i>
    <i type="logical" name="NLSPLINE"> F  </i>
   </separator>
   <separator name="electronic startup" >
    <i type="int" name="ISTART">     1</i>
    <i type="int" name="ICHARG">     0</i>
    <i type="int" name="INIWAV">     1</i>
   </separator>
   <separator name="electronic spin" >
    <i type="int" name="ISPIN">     1</i>
    <i type="logical" name="LNONCOLLINEAR"> F  </i>
    <v name="MAGMOM">      1.00000000      1.00000000</v>
    <i name="NUPDOWN">     -1.00000000</i>
    <i type="logical" name="LSORBIT"> F  </i>
    <v name="SAXIS">      0.00000000      0.00000000      1.00000000</v>
    <i type="logical" name="LSPIRAL"> F  </i>
    <v name="QSPIRAL">      0.00000000      0.00000000      0.00000000</v>
    <i type="logical" name="LZEROZ"> F  </i>
   </separator>
   <separator name="electronic exchange-correlation" >
    <i type="logical" name="LASPH"> F  </i>
    <i type="logical" name="LMETAGGA"> F  </i>
   </separator>
   <separator name="electronic convergence" >
    <i type="int" name="NELM">    60</i>
    <i type="int" name="NELMDL">     0</i>
    <i type="int" name="NELMIN">     2</i>
    <i name="ENINI">    200.00000000</i>
    <separator name="electronic convergence detail" >
     <i type="logical" name="LDIAG"> T  </i>
     <i type="logical" name="LSUBROT"> F  </i>
     <i name="WEIMIN">      0.00100000</i>
     <i name="EBREAK">      0.00001250</i>
     <i name="DEPER">      0.30000000</i>
     <i type="int" name="NRMM">     4</i>
     <i name="TIME">      0.40000000</i>
    </separator>
   </separator>
   <separator name="electronic mixer" >
    <i name="AMIX">      0.40000000</i>
    <i name="BMIX">      1.00000000</i>
    <i name="AMIN">      0.10000000</i>
    <i name="AMIX_MAG">      1.60000000</i>
    <i name="BMIX_MAG">      1.00000000</i>
    <separator name="electronic mixer details" >
     <i type="int" name="IMIX">     4</i>
     <i type="logical" name="MIXFIRST"> F  </i>
     <i type="int" name="MAXMIX">   -45</i>
     <i name="WC">    100.00000000</i>
     <i type="int" name="INIMIX">     1</i>
     <i type="int" name="MIXPRE">     1</i>
     <i type="int" name="MREMOVE">     5</i>
    </separator>
   </separator>
   <separator name="electronic dipolcorrection" >
    <i type="logical" name="LDIPOL"> F  </i>
    <i type="logical" name="LMONO"> F  </i>
    <i type="int" name="IDIPOL">     0</i>
    <i name="EPSILON">      1.00000000</i>
    <v name="DIPOL">   -100.00000000   -100.00000000   -100.00000000</v>
    <i name="EFIELD">      0.00000000</i>
   </separator>
  </separator>
  <separator name="grids" >
   <i type="int" name="NGX">    14</i>
   <i type="int" name="NGY">    14</i>
   <i type="int" name="NGZ">    14</i>
   <i type="int" name="NGXF">    28</i>
   <i type="int" name="NGYF">    28</i>
   <i type="int" name="NGZF">    28</i>
   <i type="logical" name="ADDGRID"> F  </i>
  </separator>
  <separator name="ionic" >
   <i type="int" name="NSW">    15</i>
   <i type="int" name="IBRION">     2</i>
   <i type="int" name="MDALGO">     0</i>
   <i type="int" name="ISIF">     2</i>
   <i name="PSTRESS">      0.00000000</i>
   <i name="EDIFFG">     -0.01000000</i>
   <i type="int" name="NFREE">     1</i>
   <i name="POTIM">      0.50000000</i>
   <i name="SMASS">     -3.00000000</i>
   <i name="SCALEE">      1.00000000</i>
  </separator>
  <separator name="ionic md" >
   <i name="TEBEG">      0.00010000</i>
   <i name="TEEND">      0.00010000</i>
   <i type="int" name="NBLOCK">     1</i>
   <i type="int" name="KBLOCK">    15</i>
   <i type="int" name="NPACO">   256</i>
   <i name="APACO">     16.00000000</i>
  </separator>
  <separator name="symmetry" >
   <i type="int" name="ISYM">     2</i>
   <i name="SYMPREC">      0.00001000</i>
  </separator>
  <separator name="dos" >
   <i type="int" name="LORBIT">     0</i>
   <v name="RWIGS">     -1.00000000</v>
   <i type="int" name="NEDOS">   301</i>
   <i name="EMIN">     10.00000000</i>
   <i name="EMAX">    -10.00000000</i>
   <i name="EFERMI">      0.00000000</i>
  </separator>
  <separator name="writing" >
   <i type="int" name="NWRITE">     2</i>
   <i type="logical" name="LWAVE"> T  </i>
   <i type="logical" name="LDOWNSAMPLE"> F  </i>
   <i type="logical" name="LCHARG"> T  </i>
   <i type="logical" name="LPARD"> F  </i>
   <i type="logical" name="LVTOT"> F  </i>
   <i type="logical" name="LVHAR"> F  </i>
   <i type="logical" name="LELF"> F  </i>
   <i type="logical" name="LOPTICS"> F  </i>
   <v name="STM">      0.00000000      0.00000000      0.00000000      0.00000000      0.00000000      0.00000000      0.00000000</v>
  </separator>
  <separator name="performance" >
   <i type="int" name="NPAR">     8</i>
   <i type="int" name="NSIM">     4</i>
   <i type="int" name="NBLK">    -1</i>
   <i type="logical" name="LPLANE"> T  </i>
   <i type="logical" name="LSCALAPACK"> T  </i>
   <i type="logical" name="LSCAAWARE"> F  </i>
   <i type="logical" name="LSCALU"> F  </i>
   <i type="logical" name="LASYNC"> F  </i>
   <i type="logical" name="LORBITALREAL"> F  </i>
  </separator>
  <separator name="miscellaneous" >
   <i type="int" name="IDIOT">     3</i>
   <i type="int" name="ISPECIAL">     0</i>
   <i type="logical" name="LMUSIC"> F  </i>
   <v name="POMASS">     28.08500000</v>
   <v name="DARWINR">      0.00000000</v>
   <v name="DARWINV">      1.00000000</v>
   <i type="logical" name="LCORR"> T  </i>
  </separator>
  <i type="logical" name="GGA_COMPAT"> T  </i>
  <i type="logical" name="LBERRY"> F  </i>
  <i type="int" name="ICORELEVEL">     0</i>
  <i type="logical" name="LDAU"> F  </i>
  <i type="int" name="I_CONSTRAINED_M">     0</i>
  <separator name="electronic exchange-correlation" >
   <i type="string" name="GGA">--</i>
   <i type="int" name="VOSKOWN">     0</i>
   <i type="logical" name="LHFCALC"> F  </i>
   <i type="string" name="PRECFOCK"></i>
   <i type="logical" name="LSYMGRAD"> F  </i>
   <i type="logical" name="LHFONE"> F  </i>
   <i type="logical" name="LRHFCALC"> F  </i>
   <i type="logical" name="LTHOMAS"> F  </i>
   <i type="logical" name="LMODELHF"> F  </i>
   <i name="ENCUT4O">     -1.00000000</i>
   <i type="int" name="EXXOEP">     0</i>
   <i type="int" name="FOURORBIT">     0</i>
   <i name="AEXX">      0.00000000</i>
   <i name="HFALPHA">      0.00000000</i>
   <i name="MCALPHA">      0.00000000</i>
   <i name="ALDAX">      1.00000000</i>
   <i name="AGGAX">      1.00000000</i>
   <i name="ALDAC">      1.00000000</i>
   <i name="AGGAC">      1.00000000</i>
   <i type="int" name="NKREDX">     1</i>
   <i type="int" name="NKREDY">     1</i>
   <i type="int" name="NKREDZ">     1</i>
   <i type="logical" name="SHIFTRED"> F  </i>
   <i type="logical" name="ODDONLY"> F  </i>
   <i type="logical" name="EVENONLY"> F  </i>
   <i type="int" name="LMAXFOCK">     0</i>
   <i type="int" name="NMAXFOCKAE">     0</i>
   <i type="logical" name="LFOCKAEDFT"> F  </i>
   <i name="HFSCREEN">      0.00000000</i>
   <i name="HFSCREENC">      0.00000000</i>
   <i type="int" name="NBANDSGWLOW">     0</i>
  </separator>
  <separator name="vdW DFT" >
   <i type="logical" name="LUSE_VDW"> F  </i>
   <i name="Zab_VDW">     -0.84910000</i>
   <i name="PARAM1">      0.12340000</i>
   <i name="PARAM2">      1.00000000</i>
   <i name="PARAM3">      0.00000000</i>
  </separator>
  <separator name="model GW" >
   <i type="int" name="MODEL_GW">     0</i>
   <i name="MODEL_EPS0">     12.00772552</i>
   <i name="MODEL_ALPHA">      1.00000000</i>
  </separator>
  <separator name="linear response parameters" >
   <i type="logical" name="LEPSILON"> F  </i>
   <i type="logical" name="LRPA"> F  </i>
   <i type="logical" name="LNABLA"> F  </i>
   <i type="logical" name="LVEL"> F  </i>
   <i type="int" name="KINTER">     0</i>
   <i name="CSHIFT">      0.10000000</i>
   <i name="OMEGAMAX">     -1.00000000</i>
   <i name="DEG_THRESHOLD">      0.00200000</i>
   <i name="RTIME">     -0.10000000</i>
   <i name="WPLASMAI">      0.00000000</i>
   <v name="DFIELD">      0.00000000      0.00000000      0.00000000</v>
   <v name="WPLASMA">      0.00000000      0.00000000      0.00000000      0.00000000      0.00000000      0.00000000      0.00000000      0.00000000      0.00000000</v>
  </separator>
  <separator name="orbital magnetization" >
   <i type="logical" name="NUCIND"> F  </i>
   <v name="MAGPOS">      0.00000000      0.00000000      0.00000000</v>
   <i type="logical" name="LNICSALL"> T  </i>
   <i type="logical" name="ORBITALMAG"> F  </i>
   <i type="logical" name="LMAGBLOCH"> F  </i>
   <i type="logical" name="LCHIMAG"> F  </i>
   <i type="logical" name="LGAUGE"> T  </i>
   <i type="int" name="MAGATOM">     0</i>
   <v name="MAGDIPOL">      0.00000000      0.00000000      0.00000000</v>
   <v name="AVECCONST">      0.00000000      0.00000000      0.00000000</v>
  </separator>
  <separator name="response functions" >
   <i type="logical" name="LADDER"> F  </i>
   <i type="logical" name="LRPAFORCE"> F  </i>
   <i type="logical" name="LFXC"> F  </i>
   <i type="logical" name="LHARTREE"> T  </i>
   <i type="int" name="IBSE">     0</i>
   <v type="int" name="KPOINT">    -1     0     0     0</v>
   <i type="logical" name="LTCTE"> F  </i>
   <i type="logical" name="LTETE"> F  </i>
   <i type="logical" name="LTRIPLET"> F  </i>
   <i type="logical" name="LFXCEPS"> F  </i>
   <i type="logical" name="LFXHEG"> F  </i>
   <i type="int" name="NATURALO">     2</i>
   <i type="logical" name="L2ORDER"> F  </i>
   <i type="logical" name="LMP2LT"> F  </i>
   <i type="logical" name="LUSEW"> F  </i>
   <i name="ENCUTGW">     -2.00000000</i>
   <i name="ENCUTGWSOFT">     -2.00000000</i>
   <i name="ENCUTLF">     -1.00000000</i>
   <i type="int" name="LMAXMP2">    -1</i>
   <i name="SCISSOR">      0.00000000</i>
   <i type="int" name="NOMEGA">     0</i>
   <i type="int" name="NOMEGAR">     0</i>
   <i type="int" name="NBANDSGW">    -1</i>
   <i type="int" name="NBANDSO">    -1</i>
   <i type="int" name="NBANDSV">    -1</i>
   <i type="int" name="NELM">     1</i>
   <i type="int" name="NELMHF">     1</i>
   <i type="int" name="DIM">     3</i>
   <i type="int" name="ANTIRES">     0</i>
   <i name="OMEGAMAX">    -30.00000000</i>
   <i name="OMEGAMIN">    -30.00000000</i>
   <i name="OMEGATL">   -200.00000000</i>
   <i type="int" name="OMEGAGRID">   140</i>
   <i name="CSHIFT">     -0.10000000</i>
   <i type="logical" name="SELFENERGY"> F  </i>
   <i type="logical" name="LSPECTRAL"> F  </i>
   <i type="logical" name="LSPECTRALGW"> F  </i>
   <i type="logical" name="LSINGLES"> F  </i>
   <i type="logical" name="LFERMIGW"> F  </i>
   <i type="logical" name="ODDONLYGW"> F  </i>
   <i type="logical" name="EVENONLYGW"> F  </i>
   <i type="int" name="NKREDLFX">     1</i>
   <i type="int" name="NKREDLFY">     1</i>
   <i type="int" name="NKREDLFZ">     1</i>
   <i type="int" name="MAXMEM">  2800</i>
   <i type="int" name="TELESCOPE">     0</i>
   <i type="int" name="TAUPAR">     1</i>
   <i type="int" name="OMEGAPAR">    -1</i>
   <i name="LAMBDA">      1.00000000</i>
  </separator>
  <separator name="External order field" >
   <i name="OFIELD_KAPPA">      0.00000000</i>
   <v name="OFIELD_K">      0.00000000      0.00000000      0.00000000</v>
   <i name="OFIELD_Q6_NEAR">      0.00000000</i>
   <i name="OFIELD_Q6_FAR">      0.00000000</i>
   <i name="OFIELD_A">      0.00000000</i>
  </separator>
 </parameters>
 <atominfo>
  <atoms>       2 </atoms>
  <types>       1 </types>
  <array name="atoms" >
   <dimension dim="1">ion</dimension>
   <field type="string">element</field>
   <field type="int">atomtype</field>
   <set>
    <rc><c>Si</c><c>   1</c></rc>
    <rc><c>Si</c><c>   1</c></rc>
   </set>
  </array>
  <array name="atomtypes" >
   <dimension dim="1">type</dimension>
   <field type="int">atomspertype</field>
   <field type="string">element</field>
   <field>mass</field>
   <field>valence</field>
   <field type="string">pseudopotential</field>
   <set>
    <rc><c>   2</c><c>Si</c><c>     28.08500000</c><c>      4.00000000</c><c> PAW_PBE Si 05Jan2001                   </c></rc>
   </set>
  </array>
 </atominfo>
 <structure name="initialpos" >
  <crystal>
   <varray name="basis" >
    <v>       0.00000000       2.71500000       2.71500000 </v>
    <v>       2.71500000       0.00000000       2.71500000 </v>
    <v>       2.71500000       2.71500000       0.00000000 </v>
   </varray>
   <i name="volume">     40.02575175 </i>
   <varray name="rec_basis" >
    <v>      -0.18416206       0.18416206       0.18416206 </v>
    <v>       0.18416206      -0.18416206       0.18416206 </v>
    <v>       0.18416206       0.18416206      -0.18416206 </v>
   </varray>
  </crystal>
  <varray name="positions" >
   <v>       0.50000000       0.50000000       0.50000000 </v>
   <v>       0.75000000       0.75000000       0.75000000 </v>
  </varray>
 </structure>
 <calculation>
  <scstep>
   <time name="dav">    0.54    0.55</time>
   <time name="total">    0.61    0.63</time>
   <energy>
    <i name="alphaZ">      3.36414203 </i>
    <i name="ewald">   -228.56352493 </i>
    <i name="hartreedc">    -14.90168494 </i>
    <i name="XCdc">    -17.94092167 </i>
    <i name="pawpsdc">     75.90016613 </i>
    <i name="pawaedc">    -40.95088581 </i>
    <i name="eentropy">     -0.00005458 </i>
    <i name="bandstr">      6.18267650 </i>
    <i name="atom">    206.11247263 </i>
    <i name="e_fr_energy">    -10.79761465 </i>
    <i name="e_wo_entrp">    -10.79756007 </i>
    <i name="e_0_energy">    -10.79758736 </i>
   </energy>
  </scstep>
  <scstep>
   <time name="dav">    0.51    0.51</time>
   <time name="total">    0.54    0.55</time>
   <energy>
    <i name="alphaZ">      3.36414203 </i>
    <i name="ewald">   -228.56352493 </i>
    <i name="hartreedc">    -14.90142670 </i>
    <i name="XCdc">    -17.94091942 </i>
    <i name="pawpsdc">     75.89848979 </i>
    <i name="pawaedc">    -40.94914983 </i>
    <i name="eentropy">     -0.00005452 </i>
    <i name="bandstr">      6.18235614 </i>
    <i name="atom">    206.11247263 </i>
    <i name="e_fr_energy">    -10.79761482 </i>
    <i name="e_wo_entrp">    -10.79756030 </i>
    <i name="e_0_energy">    -10.79758756 </i>
   </energy>
  </scstep>
  <structure>
   <crystal>
    <varray name="basis" >
     <v>       0.00000000       2.71500000       2.71500000 </v>
     <v>       2.71500000       0.00000000       2.71500000 </v>
     <v>       2.71500000       2.71500000       0.00000000 </v>
    </varray>
    <i name="volume">     40.02575175 </i>
    <varray name="rec_basis" >
     <v>      -0.18416206       0.18416206       0.18416206 </v>
     <v>       0.18416206      -0.18416206       0.18416206 </v>
     <v>       0.18416206       0.18416206      -0.18416206 </v>
    </varray>
   </crystal>
   <varray name="positions" >
    <v>       0.50000000       0.50000000       0.50000000 </v>
    <v>       0.75000000       0.75000000       0.75000000 </v>
   </varray>
  </structure>
  <varray name="forces" >
   <v>       0.00000000       0.00000000       0.00000000 </v>
   <v>      -0.00000000      -0.00000000      -0.00000000 </v>
  </varray>
  <varray name="stress" >
   <v>      18.44390067       0.00000000      -0.00000000 </v>
   <v>       0.00000000      18.44390067      -0.00000000 </v>
   <v>      -0.00000000       0.00000000      18.44390067 </v>
  </varray>
  <energy>
   <i name="e_fr_energy">    -10.79761482 </i>
   <i name="e_wo_entrp">    -10.79758756 </i>
   <i name="e_0_energy">     -0.00005452 </i>
  </energy>
  <time name="totalsc">    2.30    3.46</time>
  <eigenvalues>
   <array>
    <dimension dim="1">band</dimension>
    <dimension dim="2">kpoint</dimension>
    <dimension dim="3">spin</dimension>
    <field>eigene</field>
    <field>occ</field>
    <set>
     <set comment="spin 1">
      <set comment="kpoint 1">
       <r>   -6.0981    1.0000 </r>
       <r>    5.4948    1.0000 </r>
       <r>    5.7987    0.9940 </r>
       <r>    5.7987    0.9940 </r>
       <r>    8.4847    0.0000 </r>
       <r>    8.5069    0.0000 </r>
       <r>    8.5069    0.0000 </r>
       <r>    9.4491    0.0000 </r>
      </set>
      <set comment="kpoint 2">
       <r>   -5.9239    1.0000 </r>
       <r>    4.3499    1.0000 </r>
       <r>    5.2185    1.0000 </r>
       <r>    5.7209    0.9989 </r>
       <r>    8.5662    0.0000 </r>
       <r>    8.6729    0.0000 </r>
       <r>    8.9213    0.0000 </r>
       <r>   10.5326    0.0000 </r>
      </set>
      <set comment="kpoint 3">
       <r>   -5.4966    1.0000 </r>
       <r>    2.5171    1.0000 </r>
       <r>    4.7821    1.0000 </r>
       <r>    5.3681    1.0000 </r>
       <r>    8.2235    0.0000 </r>
       <r>    9.1385    0.0000 </r>
       <r>    9.4726    0.0000 </r>
       <r>   11.9978    0.0000 </r>
      </set>
      <set comment="kpoint 4">
       <r>   -4.8485    1.0000 </r>
       <r>    0.7773    1.0000 </r>
       <r>    4.4906    1.0000 </r>
       <r>    4.9982    1.0000 </r>
       <r>    7.8901    0.0000 </r>
       <r>    9.3346    0.0000 </r>
       <r>    9.5300    0.0000 </r>
       <r>   13.1658    0.0000 </r>
      </set>
      <set comment="kpoint 5">
       <r>   -4.1034    1.0000 </r>
       <r>   -0.6154    1.0000 </r>
       <r>    4.3631    1.0000 </r>
       <r>    4.7205    1.0000 </r>
       <r>    7.6825    0.0000 </r>
       <r>    9.3053    0.0000 </r>
       <r>    9.3132    0.0000 </r>
       <r>   13.7319    0.0000 </r>
      </set>
      <set comment="kpoint 6">
       <r>   -3.7839    1.0000 </r>
       <r>   -1.0986    1.0000 </r>
       <r>    4.4021    1.0000 </r>
       <r>    4.5752    1.0000 </r>
       <r>    7.6312    0.0000 </r>
       <r>    9.1665    0.0000 </r>
       <r>    9.3572    0.0000 </r>
       <r>   13.7064    0.0000 </r>
      </set>
      <set comment="kpoint 7">
       <r>   -4.3444    1.0000 </r>
       <r>   -0.2113    1.0000 </r>
       <r>    4.5832    1.0000 </r>
       <r>    4.5920    1.0000 </r>
       <r>    7.7396    0.0000 </r>
       <r>    9.1782    0.0000 </r>
       <r>    9.5389    0.0000 </r>
       <r>   13.4095    0.0000 </r>
      </set>
      <set comment="kpoint 8">
       <r>   -5.0846    1.0000 </r>
       <r>    1.3310    1.0000 </r>
       <r>    4.7541    1.0000 </r>
       <r>    4.9119    1.0000 </r>
       <r>    7.9942    0.0000 </r>
       <r>    9.1930    0.0000 </r>
       <r>    9.7094    0.0000 </r>
       <r>   12.3268    0.0000 </r>
      </set>
      <set comment="kpoint 9">
       <r>   -5.6658    1.0000 </r>
       <r>    3.1378    1.0000 </r>
       <r>    5.0756    1.0000 </r>
       <r>    5.3088    1.0000 </r>
       <r>    8.3218    0.0000 </r>
       <r>    8.9018    0.0000 </r>
       <r>    9.4973    0.0000 </r>
       <r>   11.4420    0.0000 </r>
      </set>
      <set comment="kpoint 10">
       <r>   -6.0107    1.0000 </r>
       <r>    4.9408    1.0000 </r>
       <r>    5.4883    1.0000 </r>
       <r>    5.6227    0.9999 </r>
       <r>    8.3123    0.0000 </r>
       <r>    8.7618    0.0000 </r>
       <r>    8.9186    0.0000 </r>
       <r>    9.9707    0.0000 </r>
      </set>
      <set comment="kpoint 11">
       <r>   -5.8364    1.0000 </r>
       <r>    4.2495    1.0000 </r>
       <r>    5.0462    1.0000 </r>
       <r>    5.1582    1.0000 </r>
       <r>    7.9946    0.0000 </r>
       <r>    9.3376    0.0000 </r>
       <r>    9.5645    0.0000 </r>
       <r>   10.4836    0.0000 </r>
      </set>
      <set comment="kpoint 12">
       <r>   -5.4923    1.0000 </r>
       <r>    2.9981    1.0000 </r>
       <r>    4.2924    1.0000 </r>
       <r>    4.9660    1.0000 </r>
       <r>    8.0601    0.0000 </r>
       <r>    9.5313    0.0000 </r>
       <r>   10.1971    0.0000 </r>
       <r>   10.6815    0.0000 </r>
      </set>
      <set comment="kpoint 13">
       <r>   -4.9127    1.0000 </r>
       <r>    1.3425    1.0000 </r>
       <r>    3.8603    1.0000 </r>
       <r>    4.5960    1.0000 </r>
       <r>    8.2862    0.0000 </r>
       <r>    9.4758    0.0000 </r>
       <r>   10.4626    0.0000 </r>
       <r>   10.9100    0.0000 </r>
      </set>
      <set comment="kpoint 14">
       <r>   -4.1726    1.0000 </r>
       <r>   -0.1465    1.0000 </r>
       <r>    3.5887    1.0000 </r>
       <r>    4.3099    1.0000 </r>
       <r>    8.2425    0.0000 </r>
       <r>    9.3083    0.0000 </r>
       <r>   10.3225    0.0000 </r>
       <r>   12.0824    0.0000 </r>
      </set>
      <set comment="kpoint 15">
       <r>   -3.6097    1.0000 </r>
       <r>   -1.0186    1.0000 </r>
       <r>    3.4091    1.0000 </r>
       <r>    4.2635    1.0000 </r>
       <r>    8.2450    0.0000 </r>
       <r>    9.1636    0.0000 </r>
       <r>   10.1548    0.0000 </r>
       <r>   13.7009    0.0000 </r>
      </set>
      <set comment="kpoint 16">
       <r>   -3.9336    1.0000 </r>
       <r>   -0.5370    1.0000 </r>
       <r>    3.3459    1.0000 </r>
       <r>    4.4567    1.0000 </r>
       <r>    8.3800    0.0000 </r>
       <r>    9.1691    0.0000 </r>
       <r>   10.1262    0.0000 </r>
       <r>   13.1588    0.0000 </r>
      </set>
      <set comment="kpoint 17">
       <r>   -4.6795    1.0000 </r>
       <r>    0.8174    1.0000 </r>
       <r>    3.4617    1.0000 </r>
       <r>    4.8170    1.0000 </r>
       <r>    8.6076    0.0000 </r>
       <r>    9.2442    0.0000 </r>
       <r>   10.1800    0.0000 </r>
       <r>   11.7581    0.0000 </r>
      </set>
      <set comment="kpoint 18">
       <r>   -5.3254    1.0000 </r>
       <r>    2.4170    1.0000 </r>
       <r>    3.8414    1.0000 </r>
       <r>    5.2302    1.0000 </r>
       <r>    8.7190    0.0000 </r>
       <r>    9.1204    0.0000 </r>
       <r>    9.9689    0.0000 </r>
       <r>   11.1412    0.0000 </r>
      </set>
      <set comment="kpoint 19">
       <r>   -5.7507    1.0000 </r>
       <r>    3.6858    1.0000 </r>
       <r>    4.7696    1.0000 </r>
       <r>    5.4642    1.0000 </r>
       <r>    8.3945    0.0000 </r>
       <r>    8.9701    0.0000 </r>
       <r>    9.4449    0.0000 </r>
       <r>   11.0027    0.0000 </r>
      </set>
      <set comment="kpoint 20">
       <r>   -5.2316    1.0000 </r>
       <r>    2.6589    1.0000 </r>
       <r>    4.1323    1.0000 </r>
       <r>    4.1587    1.0000 </r>
       <r>    7.2803    0.0000 </r>
       <r>    9.4584    0.0000 </r>
       <r>   11.0426    0.0000 </r>
       <r>   11.1551    0.0000 </r>
      </set>
      <set comment="kpoint 21">
       <r>   -4.7277    1.0000 </r>
       <r>    1.5547    1.0000 </r>
       <r>    3.4336    1.0000 </r>
       <r>    3.9138    1.0000 </r>
       <r>    7.4161    0.0000 </r>
       <r>    9.0499    0.0000 </r>
       <r>   11.1968    0.0000 </r>
       <r>   11.9161    0.0000 </r>
      </set>
      <set comment="kpoint 22">
       <r>   -4.0262    1.0000 </r>
       <r>    0.2544    1.0000 </r>
       <r>    2.8180    1.0000 </r>
       <r>    3.6856    1.0000 </r>
       <r>    7.6661    0.0000 </r>
       <r>    9.7715    0.0000 </r>
       <r>   10.8929    0.0000 </r>
       <r>   11.9807    0.0000 </r>
      </set>
      <set comment="kpoint 23">
       <r>   -3.3254    1.0000 </r>
       <r>   -0.7862    1.0000 </r>
       <r>    2.3366    1.0000 </r>
       <r>    3.7066    1.0000 </r>
       <r>    7.7832    0.0000 </r>
       <r>   10.5254    0.0000 </r>
       <r>   11.4348    0.0000 </r>
       <r>   11.7841    0.0000 </r>
      </set>
      <set comment="kpoint 24">
       <r>   -3.3495    1.0000 </r>
       <r>   -0.7464    1.0000 </r>
       <r>    2.0841    1.0000 </r>
       <r>    3.9596    1.0000 </r>
       <r>    8.0674    0.0000 </r>
       <r>   10.3026    0.0000 </r>
       <r>   11.5899    0.0000 </r>
       <r>   13.0524    0.0000 </r>
      </set>
      <set comment="kpoint 25">
       <r>   -4.0575    1.0000 </r>
       <r>    0.2813    1.0000 </r>
       <r>    2.1809    1.0000 </r>
       <r>    4.3839    1.0000 </r>
       <r>    8.5247    0.0000 </r>
       <r>   10.0581    0.0000 </r>
       <r>   11.3298    0.0000 </r>
       <r>   11.5897    0.0000 </r>
      </set>
      <set comment="kpoint 26">
       <r>   -4.7503    1.0000 </r>
       <r>    1.2696    1.0000 </r>
       <r>    2.9414    1.0000 </r>
       <r>    4.8545    1.0000 </r>
       <r>    8.9248    0.0000 </r>
       <r>    9.3451    0.0000 </r>
       <r>   10.5876    0.0000 </r>
       <r>   11.1453    0.0000 </r>
      </set>
      <set comment="kpoint 27">
       <r>   -5.2446    1.0000 </r>
       <r>    1.9146    1.0000 </r>
       <r>    4.3380    1.0000 </r>
       <r>    5.0965    1.0000 </r>
       <r>    8.3783    0.0000 </r>
       <r>    9.1196    0.0000 </r>
       <r>    9.8774    0.0000 </r>
       <r>   11.6018    0.0000 </r>
      </set>
      <set comment="kpoint 28">
       <r>   -4.2994    1.0000 </r>
       <r>    0.9379    1.0000 </r>
       <r>    3.3668    1.0000 </r>
       <r>    3.4815    1.0000 </r>
       <r>    6.7456    0.0000 </r>
       <r>    8.0616    0.0000 </r>
       <r>   12.8310    0.0000 </r>
       <r>   12.8905    0.0000 </r>
      </set>
      <set comment="kpoint 29">
       <r>   -3.6548    1.0000 </r>
       <r>   -0.0002    1.0000 </r>
       <r>    2.8157    1.0000 </r>
       <r>    3.2118    1.0000 </r>
       <r>    7.0027    0.0000 </r>
       <r>    7.9426    0.0000 </r>
       <r>   12.8281    0.0000 </r>
       <r>   13.7735    0.0000 </r>
      </set>
      <set comment="kpoint 30">
       <r>   -2.9038    1.0000 </r>
       <r>   -0.8940    1.0000 </r>
       <r>    1.9918    1.0000 </r>
       <r>    3.2212    1.0000 </r>
       <r>    7.2132    0.0000 </r>
       <r>    9.1794    0.0000 </r>
       <r>   12.4827    0.0000 </r>
       <r>   13.7378    0.0000 </r>
      </set>
      <set comment="kpoint 31">
       <r>   -2.6706    1.0000 </r>
       <r>   -1.1260    1.0000 </r>
       <r>    1.4849    1.0000 </r>
       <r>    3.4654    1.0000 </r>
       <r>    7.4997    0.0000 </r>
       <r>   11.0472    0.0000 </r>
       <r>   12.1427    0.0000 </r>
       <r>   13.1357    0.0000 </r>
      </set>
      <set comment="kpoint 32">
       <r>   -3.3162    1.0000 </r>
       <r>   -0.5265    1.0000 </r>
       <r>    1.6526    1.0000 </r>
       <r>    3.8977    1.0000 </r>
       <r>    7.9921    0.0000 </r>
       <r>   10.9650    0.0000 </r>
       <r>   12.1608    0.0000 </r>
       <r>   12.3958    0.0000 </r>
      </set>
      <set comment="kpoint 33">
       <r>   -4.0125    1.0000 </r>
       <r>   -0.0947    1.0000 </r>
       <r>    2.6768    1.0000 </r>
       <r>    4.4105    1.0000 </r>
       <r>    8.5214    0.0000 </r>
       <r>    9.5505    0.0000 </r>
       <r>   10.7548    0.0000 </r>
       <r>   12.2816    0.0000 </r>
      </set>
      <set comment="kpoint 34">
       <r>   -4.5415    1.0000 </r>
       <r>    0.2812    1.0000 </r>
       <r>    4.0905    1.0000 </r>
       <r>    4.7325    1.0000 </r>
       <r>    8.1301    0.0000 </r>
       <r>    9.1851    0.0000 </r>
       <r>    9.8062    0.0000 </r>
       <r>   12.5873    0.0000 </r>
      </set>
      <set comment="kpoint 35">
       <r>   -3.0682    1.0000 </r>
       <r>   -0.7719    1.0000 </r>
       <r>    2.9386    1.0000 </r>
       <r>    3.0901    1.0000 </r>
       <r>    6.5438    0.0029 </r>
       <r>    7.1064    0.0000 </r>
       <r>   14.7122    0.0000 </r>
       <r>   14.7279    0.0000 </r>
      </set>
      <set comment="kpoint 36">
       <r>   -2.3204    1.0000 </r>
       <r>   -1.5686    1.0000 </r>
       <r>    2.5329    1.0000 </r>
       <r>    2.9243    1.0000 </r>
       <r>    6.8716    0.0000 </r>
       <r>    7.3997    0.0000 </r>
       <r>   14.5866    0.0000 </r>
       <r>   15.3355    0.0000 </r>
      </set>
      <set comment="kpoint 37">
       <r>   -2.3341    1.0000 </r>
       <r>   -1.4671    1.0000 </r>
       <r>    1.8121    1.0000 </r>
       <r>    3.1324    1.0000 </r>
       <r>    7.1197    0.0000 </r>
       <r>    9.0613    0.0000 </r>
       <r>   13.3197    0.0000 </r>
       <r>   14.2413    0.0000 </r>
      </set>
      <set comment="kpoint 38">
       <r>   -2.9297    1.0000 </r>
       <r>   -0.9987    1.0000 </r>
       <r>    1.8006    1.0000 </r>
       <r>    3.5459    1.0000 </r>
       <r>    7.5979    0.0000 </r>
       <r>   11.0404    0.0000 </r>
       <r>   11.4867    0.0000 </r>
       <r>   12.6301    0.0000 </r>
      </set>
      <set comment="kpoint 39">
       <r>   -3.4399    1.0000 </r>
       <r>   -0.9578    1.0000 </r>
       <r>    2.7244    1.0000 </r>
       <r>    4.0814    1.0000 </r>
       <r>    8.1926    0.0000 </r>
       <r>    9.6429    0.0000 </r>
       <r>   10.8281    0.0000 </r>
       <r>   13.5691    0.0000 </r>
      </set>
      <set comment="kpoint 40">
       <r>   -3.8450    1.0000 </r>
       <r>   -0.8963    1.0000 </r>
       <r>    3.9924    1.0000 </r>
       <r>    4.5091    1.0000 </r>
       <r>    7.9817    0.0000 </r>
       <r>    9.1121    0.0000 </r>
       <r>    9.6347    0.0000 </r>
       <r>   13.7610    0.0000 </r>
      </set>
      <set comment="kpoint 41">
       <r>   -2.3547    1.0000 </r>
       <r>   -1.5855    1.0000 </r>
       <r>    2.8524    1.0000 </r>
       <r>    3.0112    1.0000 </r>
       <r>    6.5737    0.0015 </r>
       <r>    6.8338    0.0000 </r>
       <r>   15.5652    0.0000 </r>
       <r>   15.6301    0.0000 </r>
      </set>
      <set comment="kpoint 42">
       <r>   -3.0157    1.0000 </r>
       <r>   -0.7927    1.0000 </r>
       <r>    2.6283    1.0000 </r>
       <r>    3.0191    1.0000 </r>
       <r>    6.9067    0.0000 </r>
       <r>    7.5919    0.0000 </r>
       <r>   13.7005    0.0000 </r>
       <r>   14.7172    0.0000 </r>
      </set>
      <set comment="kpoint 43">
       <r>   -3.4869    1.0000 </r>
       <r>   -0.3047    1.0000 </r>
       <r>    2.3399    1.0000 </r>
       <r>    3.4020    1.0000 </r>
       <r>    7.4004    0.0000 </r>
       <r>    9.4135    0.0000 </r>
       <r>   11.6704    0.0000 </r>
       <r>   12.8396    0.0000 </r>
      </set>
      <set comment="kpoint 44">
       <r>   -3.7578    1.0000 </r>
       <r>   -0.5024    1.0000 </r>
       <r>    2.9733    1.0000 </r>
       <r>    3.9564    1.0000 </r>
       <r>    8.0316    0.0000 </r>
       <r>    9.8592    0.0000 </r>
       <r>   10.9940    0.0000 </r>
       <r>   11.6996    0.0000 </r>
      </set>
      <set comment="kpoint 45">
       <r>   -3.7188    1.0000 </r>
       <r>    0.0738    1.0000 </r>
       <r>    3.1100    1.0000 </r>
       <r>    3.2478    1.0000 </r>
       <r>    6.5987    0.0008 </r>
       <r>    7.5188    0.0000 </r>
       <r>   13.7729    0.0000 </r>
       <r>   13.8005    0.0000 </r>
      </set>
      <set comment="kpoint 46">
       <r>   -4.2277    1.0000 </r>
       <r>    0.7883    1.0000 </r>
       <r>    3.0879    1.0000 </r>
       <r>    3.5087    1.0000 </r>
       <r>    7.1724    0.0000 </r>
       <r>    8.4356    0.0000 </r>
       <r>   11.9948    0.0000 </r>
       <r>   12.8295    0.0000 </r>
      </set>
      <set comment="kpoint 47">
       <r>   -4.5046    1.0000 </r>
       <r>    0.7954    1.0000 </r>
       <r>    3.3497    1.0000 </r>
       <r>    4.0872    1.0000 </r>
       <r>    7.9808    0.0000 </r>
       <r>   10.1242    0.0000 </r>
       <r>   10.2870    0.0000 </r>
       <r>   11.1913    0.0000 </r>
      </set>
      <set comment="kpoint 48">
       <r>   -4.8050    1.0000 </r>
       <r>    1.8053    1.0000 </r>
       <r>    3.7090    1.0000 </r>
       <r>    3.7871    1.0000 </r>
       <r>    6.9782    0.0000 </r>
       <r>    8.7226    0.0000 </r>
       <r>   11.9146    0.0000 </r>
       <r>   12.0116    0.0000 </r>
      </set>
      <set comment="kpoint 49">
       <r>   -5.1505    1.0000 </r>
       <r>    2.2901    1.0000 </r>
       <r>    3.8398    1.0000 </r>
       <r>    4.4157    1.0000 </r>
       <r>    7.7196    0.0000 </r>
       <r>    9.6950    0.0000 </r>
       <r>   10.4981    0.0000 </r>
       <r>   11.0328    0.0000 </r>
      </set>
      <set comment="kpoint 50">
       <r>   -5.5762    1.0000 </r>
       <r>    3.4806    1.0000 </r>
       <r>    4.5868    1.0000 </r>
       <r>    4.6261    1.0000 </r>
       <r>    7.6308    0.0000 </r>
       <r>    9.9392    0.0000 </r>
       <r>   10.3248    0.0000 </r>
       <r>   10.4296    0.0000 </r>
      </set>
      <set comment="kpoint 51">
       <r>   -5.8377    1.0000 </r>
       <r>    3.7786    1.0000 </r>
       <r>    5.4641    1.0000 </r>
       <r>    5.4641    1.0000 </r>
       <r>    8.2724    0.0000 </r>
       <r>    8.9894    0.0000 </r>
       <r>    8.9894    0.0000 </r>
       <r>   11.0034    0.0000 </r>
      </set>
      <set comment="kpoint 52">
       <r>   -5.5799    1.0000 </r>
       <r>    3.0517    1.0000 </r>
       <r>    4.3176    1.0000 </r>
       <r>    5.5343    1.0000 </r>
       <r>    8.7539    0.0000 </r>
       <r>    9.0067    0.0000 </r>
       <r>    9.3269    0.0000 </r>
       <r>   11.4849    0.0000 </r>
      </set>
      <set comment="kpoint 53">
       <r>   -5.0771    1.0000 </r>
       <r>    1.8345    1.0000 </r>
       <r>    3.3734    1.0000 </r>
       <r>    5.2066    1.0000 </r>
       <r>    8.8271    0.0000 </r>
       <r>    9.5114    0.0000 </r>
       <r>    9.8003    0.0000 </r>
       <r>   11.6490    0.0000 </r>
      </set>
      <set comment="kpoint 54">
       <r>   -4.3763    1.0000 </r>
       <r>    0.3338    1.0000 </r>
       <r>    3.0575    1.0000 </r>
       <r>    4.7616    1.0000 </r>
       <r>    8.4704    0.0000 </r>
       <r>    9.8588    0.0000 </r>
       <r>    9.8764    0.0000 </r>
       <r>   12.7133    0.0000 </r>
      </set>
      <set comment="kpoint 55">
       <r>   -3.6764    1.0000 </r>
       <r>   -0.8187    1.0000 </r>
       <r>    3.0470    1.0000 </r>
       <r>    4.3832    1.0000 </r>
       <r>    8.1591    0.0000 </r>
       <r>    9.7221    0.0000 </r>
       <r>   10.0514    0.0000 </r>
       <r>   14.1253    0.0000 </r>
      </set>
      <set comment="kpoint 56">
       <r>   -3.6701    1.0000 </r>
       <r>   -0.8304    1.0000 </r>
       <r>    3.2583    1.0000 </r>
       <r>    4.1520    1.0000 </r>
       <r>    7.9941    0.0000 </r>
       <r>    9.7249    0.0000 </r>
       <r>   10.2950    0.0000 </r>
       <r>   12.7109    0.0000 </r>
      </set>
      <set comment="kpoint 57">
       <r>   -4.3680    1.0000 </r>
       <r>    0.3155    1.0000 </r>
       <r>    3.6489    1.0000 </r>
       <r>    4.1043    1.0000 </r>
       <r>    7.9799    0.0000 </r>
       <r>    9.8691    0.0000 </r>
       <r>   10.6072    0.0000 </r>
       <r>   11.0994    0.0000 </r>
      </set>
      <set comment="kpoint 58">
       <r>   -5.0708    1.0000 </r>
       <r>    1.8724    1.0000 </r>
       <r>    4.1590    1.0000 </r>
       <r>    4.2533    1.0000 </r>
       <r>    7.9110    0.0000 </r>
       <r>    9.8468    0.0000 </r>
       <r>   10.4017    0.0000 </r>
       <r>   10.7455    0.0000 </r>
      </set>
      <set comment="kpoint 59">
       <r>   -5.4095    1.0000 </r>
       <r>    2.4993    1.0000 </r>
       <r>    4.6553    1.0000 </r>
       <r>    4.7982    1.0000 </r>
       <r>    8.2282    0.0000 </r>
       <r>    9.2388    0.0000 </r>
       <r>   10.0991    0.0000 </r>
       <r>   11.0105    0.0000 </r>
      </set>
      <set comment="kpoint 60">
       <r>   -4.9892    1.0000 </r>
       <r>    1.7913    1.0000 </r>
       <r>    3.3988    1.0000 </r>
       <r>    4.7016    1.0000 </r>
       <r>    8.4328    0.0000 </r>
       <r>    9.5733    0.0000 </r>
       <r>   10.4087    0.0000 </r>
       <r>   10.8524    0.0000 </r>
      </set>
      <set comment="kpoint 61">
       <r>   -4.3493    1.0000 </r>
       <r>    0.7231    1.0000 </r>
       <r>    2.5734    1.0000 </r>
       <r>    4.2949    1.0000 </r>
       <r>    9.0326    0.0000 </r>
       <r>    9.3115    0.0000 </r>
       <r>   10.5065    0.0000 </r>
       <r>   11.6055    0.0000 </r>
      </set>
      <set comment="kpoint 62">
       <r>   -3.6028    1.0000 </r>
       <r>   -0.4649    1.0000 </r>
       <r>    2.3337    1.0000 </r>
       <r>    3.8897    1.0000 </r>
       <r>    8.8404    0.0000 </r>
       <r>    9.2673    0.0000 </r>
       <r>   11.6865    0.0000 </r>
       <r>   11.9429    0.0000 </r>
      </set>
      <set comment="kpoint 63">
       <r>   -3.2667    1.0000 </r>
       <r>   -0.9330    1.0000 </r>
       <r>    2.3809    1.0000 </r>
       <r>    3.6870    1.0000 </r>
       <r>    8.5188    0.0000 </r>
       <r>    9.4715    0.0000 </r>
       <r>   11.8012    0.0000 </r>
       <r>   12.5548    0.0000 </r>
      </set>
      <set comment="kpoint 64">
       <r>   -3.8360    1.0000 </r>
       <r>   -0.1167    1.0000 </r>
       <r>    2.5959    1.0000 </r>
       <r>    3.7756    1.0000 </r>
       <r>    8.3553    0.0000 </r>
       <r>    9.8198    0.0000 </r>
       <r>   10.7687    0.0000 </r>
       <r>   11.8878    0.0000 </r>
      </set>
      <set comment="kpoint 65">
       <r>   -4.5747    1.0000 </r>
       <r>    1.1639    1.0000 </r>
       <r>    3.0114    1.0000 </r>
       <r>    4.1120    1.0000 </r>
       <r>    8.1418    0.0000 </r>
       <r>    9.6626    0.0000 </r>
       <r>   10.2430    0.0000 </r>
       <r>   11.7811    0.0000 </r>
      </set>
      <set comment="kpoint 66">
       <r>   -4.6526    1.0000 </r>
       <r>    1.2412    1.0000 </r>
       <r>    3.5272    1.0000 </r>
       <r>    3.8997    1.0000 </r>
       <r>    7.5745    0.0000 </r>
       <r>    9.4925    0.0000 </r>
       <r>   10.9400    0.0000 </r>
       <r>   11.4230    0.0000 </r>
      </set>
      <set comment="kpoint 67">
       <r>   -4.0862    1.0000 </r>
       <r>    0.5207    1.0000 </r>
       <r>    2.6919    1.0000 </r>
       <r>    3.5682    1.0000 </r>
       <r>    7.8963    0.0000 </r>
       <r>    9.1134    0.0000 </r>
       <r>   10.9082    0.0000 </r>
       <r>   12.7545    0.0000 </r>
      </set>
      <set comment="kpoint 68">
       <r>   -3.3534    1.0000 </r>
       <r>   -0.3657    1.0000 </r>
       <r>    2.0812    1.0000 </r>
       <r>    3.1184    1.0000 </r>
       <r>    8.6249    0.0000 </r>
       <r>    9.5875    0.0000 </r>
       <r>   10.4847    0.0000 </r>
       <r>   13.6952    0.0000 </r>
      </set>
      <set comment="kpoint 69">
       <r>   -2.7695    1.0000 </r>
       <r>   -1.0405    1.0000 </r>
       <r>    1.7727    1.0000 </r>
       <r>    2.9709    1.0000 </r>
       <r>    8.8776    0.0000 </r>
       <r>    9.9826    0.0000 </r>
       <r>   11.4015    0.0000 </r>
       <r>   12.6740    0.0000 </r>
      </set>
      <set comment="kpoint 70">
       <r>   -3.1370    1.0000 </r>
       <r>   -0.6221    1.0000 </r>
       <r>    1.7723    1.0000 </r>
       <r>    3.2027    1.0000 </r>
       <r>    9.2570    0.0000 </r>
       <r>    9.6896    0.0000 </r>
       <r>   10.7481    0.0000 </r>
       <r>   13.5336    0.0000 </r>
      </set>
      <set comment="kpoint 71">
       <r>   -3.8805    1.0000 </r>
       <r>    0.1835    1.0000 </r>
       <r>    2.2837    1.0000 </r>
       <r>    3.6795    1.0000 </r>
       <r>    8.8092    0.0000 </r>
       <r>    9.7627    0.0000 </r>
       <r>   10.0562    0.0000 </r>
       <r>   12.6410    0.0000 </r>
      </set>
      <set comment="kpoint 72">
       <r>   -3.5967    1.0000 </r>
       <r>   -0.1074    1.0000 </r>
       <r>    2.5518    1.0000 </r>
       <r>    3.3804    1.0000 </r>
       <r>    7.0292    0.0000 </r>
       <r>    8.5525    0.0000 </r>
       <r>   12.7751    0.0000 </r>
       <r>   12.8953    0.0000 </r>
      </set>
      <set comment="kpoint 73">
       <r>   -2.9162    1.0000 </r>
       <r>   -0.8443    1.0000 </r>
       <r>    2.2809    1.0000 </r>
       <r>    2.8326    1.0000 </r>
       <r>    7.5943    0.0000 </r>
       <r>    8.3799    0.0000 </r>
       <r>   12.4487    0.0000 </r>
       <r>   14.6803    0.0000 </r>
      </set>
      <set comment="kpoint 74">
       <r>   -2.1965    1.0000 </r>
       <r>   -1.5191    1.0000 </r>
       <r>    1.9372    1.0000 </r>
       <r>    2.4342    1.0000 </r>
       <r>    8.4379    0.0000 </r>
       <r>    9.2071    0.0000 </r>
       <r>   12.0152    0.0000 </r>
       <r>   12.9071    0.0000 </r>
      </set>
      <set comment="kpoint 75">
       <r>   -2.4917    1.0000 </r>
       <r>   -1.2194    1.0000 </r>
       <r>    1.6126    1.0000 </r>
       <r>    2.7668    1.0000 </r>
       <r>    8.7993    0.0000 </r>
       <r>   10.6314    0.0000 </r>
       <r>   11.3505    0.0000 </r>
       <r>   11.8079    0.0000 </r>
      </set>
      <set comment="kpoint 76">
       <r>   -3.1724    1.0000 </r>
       <r>   -0.7792    1.0000 </r>
       <r>    2.0292    1.0000 </r>
       <r>    3.3670    1.0000 </r>
       <r>    9.0376    0.0000 </r>
       <r>    9.3508    0.0000 </r>
       <r>   11.5833    0.0000 </r>
       <r>   12.7915    0.0000 </r>
      </set>
      <set comment="kpoint 77">
       <r>   -2.3193    1.0000 </r>
       <r>   -1.5360    1.0000 </r>
       <r>    2.1300    1.0000 </r>
       <r>    3.1505    1.0000 </r>
       <r>    6.7650    0.0000 </r>
       <r>    8.1439    0.0000 </r>
       <r>   14.4568    0.0000 </r>
       <r>   14.7025    0.0000 </r>
      </set>
      <set comment="kpoint 78">
       <r>   -2.2613    1.0000 </r>
       <r>   -1.5425    1.0000 </r>
       <r>    2.1964    1.0000 </r>
       <r>    2.6826    1.0000 </r>
       <r>    7.5366    0.0000 </r>
       <r>    8.2242    0.0000 </r>
       <r>   13.3072    0.0000 </r>
       <r>   14.2196    0.0000 </r>
      </set>
      <set comment="kpoint 79">
       <r>   -2.7818    1.0000 </r>
       <r>   -0.9374    1.0000 </r>
       <r>    1.9702    1.0000 </r>
       <r>    2.6842    1.0000 </r>
       <r>    8.4988    0.0000 </r>
       <r>    9.3370    0.0000 </r>
       <r>   11.2073    0.0000 </r>
       <r>   13.8548    0.0000 </r>
      </set>
      <set comment="kpoint 80">
       <r>   -2.9750    1.0000 </r>
       <r>   -0.8265    1.0000 </r>
       <r>    2.2696    1.0000 </r>
       <r>    3.2277    1.0000 </r>
       <r>    6.8576    0.0000 </r>
       <r>    8.2805    0.0000 </r>
       <r>   13.6922    0.0000 </r>
       <r>   13.7344    0.0000 </r>
      </set>
      <set comment="kpoint 81">
       <r>   -3.5304    1.0000 </r>
       <r>   -0.1497    1.0000 </r>
       <r>    2.4470    1.0000 </r>
       <r>    3.1312    1.0000 </r>
       <r>    7.7131    0.0000 </r>
       <r>    8.6770    0.0000 </r>
       <r>   11.6477    0.0000 </r>
       <r>   13.7420    0.0000 </r>
      </set>
      <set comment="kpoint 82">
       <r>   -4.1594    1.0000 </r>
       <r>    0.5851    1.0000 </r>
       <r>    2.9763    1.0000 </r>
       <r>    3.6053    1.0000 </r>
       <r>    7.2705    0.0000 </r>
       <r>    8.9571    0.0000 </r>
       <r>   11.8377    0.0000 </r>
       <r>   12.1368    0.0000 </r>
      </set>
      <set comment="kpoint 83">
       <r>   -5.3308    1.0000 </r>
       <r>    1.9106    1.0000 </r>
       <r>    5.0866    1.0000 </r>
       <r>    5.0866    1.0000 </r>
       <r>    7.8869    0.0000 </r>
       <r>    9.3790    0.0000 </r>
       <r>    9.3790    0.0000 </r>
       <r>   12.7724    0.0000 </r>
      </set>
      <set comment="kpoint 84">
       <r>   -5.0001    1.0000 </r>
       <r>    1.3457    1.0000 </r>
       <r>    3.9049    1.0000 </r>
       <r>    5.1362    1.0000 </r>
       <r>    8.4264    0.0000 </r>
       <r>    9.4110    0.0000 </r>
       <r>    9.6560    0.0000 </r>
       <r>   12.3053    0.0000 </r>
      </set>
      <set comment="kpoint 85">
       <r>   -4.4375    1.0000 </r>
       <r>    0.7627    1.0000 </r>
       <r>    2.5262    1.0000 </r>
       <r>    4.7630    1.0000 </r>
       <r>    8.5585    0.0000 </r>
       <r>   10.1904    0.0000 </r>
       <r>   10.4503    0.0000 </r>
       <r>   11.9292    0.0000 </r>
      </set>
      <set comment="kpoint 86">
       <r>   -3.7085    1.0000 </r>
       <r>   -0.1380    1.0000 </r>
       <r>    1.8660    1.0000 </r>
       <r>    4.2718    1.0000 </r>
       <r>    8.0580    0.0000 </r>
       <r>   11.0422    0.0000 </r>
       <r>   11.2886    0.0000 </r>
       <r>   12.5516    0.0000 </r>
      </set>
      <set comment="kpoint 87">
       <r>   -3.1117    1.0000 </r>
       <r>   -0.9296    1.0000 </r>
       <r>    1.8938    1.0000 </r>
       <r>    3.8673    1.0000 </r>
       <r>    7.6189    0.0000 </r>
       <r>   11.3653    0.0000 </r>
       <r>   11.4634    0.0000 </r>
       <r>   12.3594    0.0000 </r>
      </set>
      <set comment="kpoint 88">
       <r>   -3.4108    1.0000 </r>
       <r>   -0.5483    1.0000 </r>
       <r>    2.3032    1.0000 </r>
       <r>    3.6346    1.0000 </r>
       <r>    7.3881    0.0000 </r>
       <r>   10.3375    0.0000 </r>
       <r>   11.6264    0.0000 </r>
       <r>   11.8234    0.0000 </r>
      </set>
      <set comment="kpoint 89">
       <r>   -4.7619    1.0000 </r>
       <r>    0.7984    1.0000 </r>
       <r>    4.3516    1.0000 </r>
       <r>    4.4152    1.0000 </r>
       <r>    8.1786    0.0000 </r>
       <r>    9.2563    0.0000 </r>
       <r>   10.1135    0.0000 </r>
       <r>   11.6568    0.0000 </r>
      </set>
      <set comment="kpoint 90">
       <r>   -4.2883    1.0000 </r>
       <r>    0.3326    1.0000 </r>
       <r>    3.0259    1.0000 </r>
       <r>    4.3022    1.0000 </r>
       <r>    8.6119    0.0000 </r>
       <r>    9.3281    0.0000 </r>
       <r>   10.9287    0.0000 </r>
       <r>   11.2550    0.0000 </r>
      </set>
      <set comment="kpoint 91">
       <r>   -3.6194    1.0000 </r>
       <r>   -0.1767    1.0000 </r>
       <r>    1.9247    1.0000 </r>
       <r>    3.8145    1.0000 </r>
       <r>    8.7939    0.0000 </r>
       <r>    9.8461    0.0000 </r>
       <r>   11.0693    0.0000 </r>
       <r>   12.5026    0.0000 </r>
      </set>
      <set comment="kpoint 92">
       <r>   -2.9008    1.0000 </r>
       <r>   -0.8851    1.0000 </r>
       <r>    1.5618    1.0000 </r>
       <r>    3.3477    1.0000 </r>
       <r>    8.2756    0.0000 </r>
       <r>   10.8041    0.0000 </r>
       <r>   11.8862    0.0000 </r>
       <r>   12.3812    0.0000 </r>
      </set>
      <set comment="kpoint 93">
       <r>   -2.8241    1.0000 </r>
       <r>   -0.9784    1.0000 </r>
       <r>    1.8331    1.0000 </r>
       <r>    3.0859    1.0000 </r>
       <r>    7.9350    0.0000 </r>
       <r>   10.1783    0.0000 </r>
       <r>   11.2739    0.0000 </r>
       <r>   13.7101    0.0000 </r>
      </set>
      <set comment="kpoint 94">
       <r>   -3.9121    1.0000 </r>
       <r>   -0.1272    1.0000 </r>
       <r>    2.9375    1.0000 </r>
       <r>    3.8404    1.0000 </r>
       <r>    7.6658    0.0000 </r>
       <r>   10.6215    0.0000 </r>
       <r>   10.7476    0.0000 </r>
       <r>   11.1753    0.0000 </r>
      </set>
      <set comment="kpoint 95">
       <r>   -3.3378    1.0000 </r>
       <r>   -0.5484    1.0000 </r>
       <r>    2.1806    1.0000 </r>
       <r>    3.3564    1.0000 </r>
       <r>    8.1114    0.0000 </r>
       <r>   10.2771    0.0000 </r>
       <r>   10.6488    0.0000 </r>
       <r>   12.8284    0.0000 </r>
      </set>
      <set comment="kpoint 96">
       <r>   -2.6317    1.0000 </r>
       <r>   -1.0693    1.0000 </r>
       <r>    1.7352    1.0000 </r>
       <r>    2.6598    1.0000 </r>
       <r>    9.5105    0.0000 </r>
       <r>    9.8877    0.0000 </r>
       <r>   10.5841    0.0000 </r>
       <r>   12.5806    0.0000 </r>
      </set>
      <set comment="kpoint 97">
       <r>   -2.1529    1.0000 </r>
       <r>   -1.5065    1.0000 </r>
       <r>    1.8005    1.0000 </r>
       <r>    2.2832    1.0000 </r>
       <r>    9.4668    0.0000 </r>
       <r>   10.1895    0.0000 </r>
       <r>   10.8885    0.0000 </r>
       <r>   11.6663    0.0000 </r>
      </set>
      <set comment="kpoint 98">
       <r>   -2.8974    1.0000 </r>
       <r>   -0.9645    1.0000 </r>
       <r>    1.8243    1.0000 </r>
       <r>    3.4938    1.0000 </r>
       <r>    7.1864    0.0000 </r>
       <r>   10.1302    0.0000 </r>
       <r>   12.5298    0.0000 </r>
       <r>   12.5679    0.0000 </r>
      </set>
      <set comment="kpoint 99">
       <r>   -2.3882    1.0000 </r>
       <r>   -1.3593    1.0000 </r>
       <r>    1.6336    1.0000 </r>
       <r>    2.9570    1.0000 </r>
       <r>    7.8432    0.0000 </r>
       <r>   10.0839    0.0000 </r>
       <r>   12.0584    0.0000 </r>
       <r>   13.0041    0.0000 </r>
      </set>
      <set comment="kpoint 100">
       <r>   -2.4744    1.0000 </r>
       <r>   -1.3245    1.0000 </r>
       <r>    1.5664    1.0000 </r>
       <r>    3.4224    1.0000 </r>
       <r>    7.0832    0.0000 </r>
       <r>   10.0249    0.0000 </r>
       <r>   13.2140    0.0000 </r>
       <r>   13.5288    0.0000 </r>
      </set>
      <set comment="kpoint 101">
       <r>   -4.6270    1.0000 </r>
       <r>    0.2467    1.0000 </r>
       <r>    4.8064    1.0000 </r>
       <r>    4.8064    1.0000 </r>
       <r>    7.5802    0.0000 </r>
       <r>    9.3687    0.0000 </r>
       <r>    9.3687    0.0000 </r>
       <r>   13.7525    0.0000 </r>
      </set>
      <set comment="kpoint 102">
       <r>   -4.2601    1.0000 </r>
       <r>   -0.1708    1.0000 </r>
       <r>    3.7411    1.0000 </r>
       <r>    4.7516    1.0000 </r>
       <r>    8.1625    0.0000 </r>
       <r>    9.4528    0.0000 </r>
       <r>    9.5363    0.0000 </r>
       <r>   13.5140    0.0000 </r>
      </set>
      <set comment="kpoint 103">
       <r>   -3.6916    1.0000 </r>
       <r>   -0.4603    1.0000 </r>
       <r>    2.3536    1.0000 </r>
       <r>    4.3109    1.0000 </r>
       <r>    8.1080    0.0000 </r>
       <r>   10.4839    0.0000 </r>
       <r>   10.5641    0.0000 </r>
       <r>   13.4038    0.0000 </r>
      </set>
      <set comment="kpoint 104">
       <r>   -2.9913    1.0000 </r>
       <r>   -0.8461    1.0000 </r>
       <r>    1.4971    1.0000 </r>
       <r>    3.8071    1.0000 </r>
       <r>    7.5292    0.0000 </r>
       <r>   11.9357    0.0000 </r>
       <r>   12.0536    0.0000 </r>
       <r>   12.5998    0.0000 </r>
      </set>
      <set comment="kpoint 105">
       <r>   -4.0162    1.0000 </r>
       <r>   -0.5772    1.0000 </r>
       <r>    3.9920    1.0000 </r>
       <r>    4.3570    1.0000 </r>
       <r>    8.0397    0.0000 </r>
       <r>    9.1937    0.0000 </r>
       <r>    9.8563    0.0000 </r>
       <r>   13.0229    0.0000 </r>
      </set>
      <set comment="kpoint 106">
       <r>   -3.5880    1.0000 </r>
       <r>   -0.7973    1.0000 </r>
       <r>    2.8933    1.0000 </r>
       <r>    4.0421    1.0000 </r>
       <r>    8.6423    0.0000 </r>
       <r>    9.0341    0.0000 </r>
       <r>   10.9214    0.0000 </r>
       <r>   12.8160    0.0000 </r>
      </set>
      <set comment="kpoint 107">
       <r>   -3.0248    1.0000 </r>
       <r>   -0.9409    1.0000 </r>
       <r>    1.8866    1.0000 </r>
       <r>    3.4571    1.0000 </r>
       <r>    8.3589    0.0000 </r>
       <r>   10.1165    0.0000 </r>
       <r>   12.3440    0.0000 </r>
       <r>   12.6471    0.0000 </r>
      </set>
      <set comment="kpoint 108">
       <r>   -3.3501    1.0000 </r>
       <r>   -0.9493    1.0000 </r>
       <r>    2.5250    1.0000 </r>
       <r>    3.9848    1.0000 </r>
       <r>    7.7911    0.0000 </r>
       <r>   10.5184    0.0000 </r>
       <r>   10.8383    0.0000 </r>
       <r>   12.4802    0.0000 </r>
      </set>
      <set comment="kpoint 109">
       <r>   -3.9315    1.0000 </r>
       <r>   -0.9404    1.0000 </r>
       <r>    4.6606    1.0000 </r>
       <r>    4.6606    1.0000 </r>
       <r>    7.4164    0.0000 </r>
       <r>    9.2416    0.0000 </r>
       <r>    9.2416    0.0000 </r>
       <r>   13.6145    0.0000 </r>
      </set>
      <set comment="kpoint 110">
       <r>   -3.6971    1.0000 </r>
       <r>   -1.0551    1.0000 </r>
       <r>    3.7781    1.0000 </r>
       <r>    4.4767    1.0000 </r>
       <r>    8.0255    0.0000 </r>
       <r>    9.2379    0.0000 </r>
       <r>    9.6343    0.0000 </r>
       <r>   13.9925    0.0000 </r>
      </set>
     </set>
    </set>
   </array>
  </eigenvalues>
  <separator name="orbital magnetization" >
   <v name="MAGDIPOLOUT">      0.00000000      0.00000000      0.00000000</v>
  </separator>
  <dos>
   <i name="efermi">      6.15357956 </i>
   <total>
    <array>
     <dimension dim="1">gridpoints</dimension>
     <dimension dim="2">spin</dimension>
     <field>energy</field>
     <field>total</field>
     <field>integrated</field>
     <set>
      <set comment="spin 1">
       <r>    -8.0981     0.0000     0.0000 </r>
       <r>    -8.0123     0.0000     0.0000 </r>
       <r>    -7.9266     0.0000     0.0000 </r>
       <r>    -7.8408     0.0000     0.0000 </r>
       <r>    -7.7550     0.0000     0.0000 </r>
       <r>    -7.6693     0.0000     0.0000 </r>
       <r>    -7.5835     0.0000     0.0000 </r>
       <r>    -7.4978     0.0000     0.0000 </r>
       <r>    -7.4120     0.0000     0.0000 </r>
       <r>    -7.3262     0.0000     0.0000 </r>
       <r>    -7.2405     0.0000     0.0000 </r>
       <r>    -7.1547     0.0000     0.0000 </r>
       <r>    -7.0689     0.0000     0.0000 </r>
       <r>    -6.9832     0.0000     0.0000 </r>
       <r>    -6.8974     0.0000     0.0000 </r>
       <r>    -6.8117     0.0000     0.0000 </r>
       <r>    -6.7259     0.0000     0.0000 </r>
       <r>    -6.6401     0.0000     0.0000 </r>
       <r>    -6.5544     0.0000     0.0000 </r>
       <r>    -6.4686     0.0003     0.0000 </r>
       <r>    -6.3829     0.0014     0.0001 </r>
       <r>    -6.2971     0.0057     0.0006 </r>
       <r>    -6.2113     0.0172     0.0021 </r>
       <r>    -6.1256     0.0400     0.0055 </r>
       <r>    -6.0398     0.0740     0.0119 </r>
       <r>    -5.9541     0.1138     0.0217 </r>
       <r>    -5.8683     0.1526     0.0347 </r>
       <r>    -5.7825     0.1860     0.0507 </r>
       <r>    -5.6968     0.2141     0.0691 </r>
       <r>    -5.6110     0.2405     0.0897 </r>
       <r>    -5.5253     0.2653     0.1124 </r>
       <r>    -5.4395     0.2853     0.1369 </r>
       <r>    -5.3537     0.3025     0.1628 </r>
       <r>    -5.2680     0.3236     0.1906 </r>
       <r>    -5.1822     0.3485     0.2205 </r>
       <r>    -5.0965     0.3697     0.2522 </r>
       <r>    -5.0107     0.3821     0.2850 </r>
       <r>    -4.9249     0.3913     0.3185 </r>
       <r>    -4.8392     0.4115     0.3538 </r>
       <r>    -4.7534     0.4454     0.3920 </r>
       <r>    -4.6676     0.4742     0.4327 </r>
       <r>    -4.5819     0.4831     0.4741 </r>
       <r>    -4.4961     0.4842     0.5156 </r>
       <r>    -4.4104     0.5006     0.5586 </r>
       <r>    -4.3246     0.5368     0.6046 </r>
       <r>    -4.2388     0.5775     0.6541 </r>
       <r>    -4.1531     0.6130     0.7067 </r>
       <r>    -4.0673     0.6455     0.7621 </r>
       <r>    -3.9816     0.6734     0.8198 </r>
       <r>    -3.8958     0.6985     0.8797 </r>
       <r>    -3.8100     0.7379     0.9430 </r>
       <r>    -3.7243     0.7998     1.0116 </r>
       <r>    -3.6385     0.8540     1.0848 </r>
       <r>    -3.5528     0.8602     1.1586 </r>
       <r>    -3.4670     0.8249     1.2293 </r>
       <r>    -3.3812     0.7832     1.2965 </r>
       <r>    -3.2955     0.7360     1.3596 </r>
       <r>    -3.2097     0.6735     1.4174 </r>
       <r>    -3.1240     0.6309     1.4715 </r>
       <r>    -3.0382     0.6461     1.5269 </r>
       <r>    -2.9524     0.6917     1.5862 </r>
       <r>    -2.8667     0.6968     1.6460 </r>
       <r>    -2.7809     0.6260     1.6997 </r>
       <r>    -2.6952     0.5101     1.7434 </r>
       <r>    -2.6094     0.4095     1.7785 </r>
       <r>    -2.5236     0.3690     1.8102 </r>
       <r>    -2.4379     0.3947     1.8440 </r>
       <r>    -2.3521     0.4466     1.8823 </r>
       <r>    -2.2663     0.4593     1.9217 </r>
       <r>    -2.1806     0.3955     1.9556 </r>
       <r>    -2.0948     0.2754     1.9792 </r>
       <r>    -2.0091     0.1522     1.9923 </r>
       <r>    -1.9233     0.0691     1.9982 </r>
       <r>    -1.8375     0.0432     2.0019 </r>
       <r>    -1.7518     0.0818     2.0089 </r>
       <r>    -1.6660     0.1887     2.0251 </r>
       <r>    -1.5803     0.3330     2.0537 </r>
       <r>    -1.4945     0.4371     2.0912 </r>
       <r>    -1.4087     0.4477     2.1296 </r>
       <r>    -1.3230     0.4048     2.1643 </r>
       <r>    -1.2372     0.4099     2.1994 </r>
       <r>    -1.1515     0.5423     2.2459 </r>
       <r>    -1.0657     0.8053     2.3150 </r>
       <r>    -0.9799     1.1065     2.4099 </r>
       <r>    -0.8942     1.2974     2.5212 </r>
       <r>    -0.8084     1.2809     2.6310 </r>
       <r>    -0.7227     1.0995     2.7253 </r>
       <r>    -0.6369     0.8939     2.8020 </r>
       <r>    -0.5511     0.7575     2.8669 </r>
       <r>    -0.4654     0.6686     2.9243 </r>
       <r>    -0.3796     0.5900     2.9749 </r>
       <r>    -0.2939     0.5531     3.0223 </r>
       <r>    -0.2081     0.5846     3.0724 </r>
       <r>    -0.1223     0.6223     3.1258 </r>
       <r>    -0.0366     0.5826     3.1758 </r>
       <r>     0.0492     0.4820     3.2171 </r>
       <r>     0.1350     0.4148     3.2527 </r>
       <r>     0.2207     0.4216     3.2888 </r>
       <r>     0.3065     0.4413     3.3267 </r>
       <r>     0.3922     0.4043     3.3614 </r>
       <r>     0.4780     0.3259     3.3893 </r>
       <r>     0.5638     0.2784     3.4132 </r>
       <r>     0.6495     0.3039     3.4392 </r>
       <r>     0.7353     0.3731     3.4712 </r>
       <r>     0.8210     0.4069     3.5061 </r>
       <r>     0.9068     0.3545     3.5365 </r>
       <r>     0.9926     0.2558     3.5585 </r>
       <r>     1.0783     0.1956     3.5753 </r>
       <r>     1.1641     0.2127     3.5935 </r>
       <r>     1.2498     0.2798     3.6175 </r>
       <r>     1.3356     0.3533     3.6478 </r>
       <r>     1.4214     0.4252     3.6843 </r>
       <r>     1.5071     0.5214     3.7290 </r>
       <r>     1.5929     0.6616     3.7857 </r>
       <r>     1.6786     0.8442     3.8581 </r>
       <r>     1.7644     1.0408     3.9474 </r>
       <r>     1.8502     1.1754     4.0482 </r>
       <r>     1.9359     1.1733     4.1488 </r>
       <r>     2.0217     1.0604     4.2397 </r>
       <r>     2.1074     0.9565     4.3218 </r>
       <r>     2.1932     0.9535     4.4035 </r>
       <r>     2.2790     1.0312     4.4920 </r>
       <r>     2.3647     1.0982     4.5862 </r>
       <r>     2.4505     1.1069     4.6811 </r>
       <r>     2.5362     1.0932     4.7748 </r>
       <r>     2.6220     1.0991     4.8691 </r>
       <r>     2.7078     1.1200     4.9651 </r>
       <r>     2.7935     1.1575     5.0644 </r>
       <r>     2.8793     1.2485     5.1715 </r>
       <r>     2.9651     1.3880     5.2905 </r>
       <r>     3.0508     1.4871     5.4181 </r>
       <r>     3.1366     1.4760     5.5446 </r>
       <r>     3.2223     1.4074     5.6653 </r>
       <r>     3.3081     1.3913     5.7847 </r>
       <r>     3.3939     1.4416     5.9083 </r>
       <r>     3.4796     1.4629     6.0337 </r>
       <r>     3.5654     1.4053     6.1543 </r>
       <r>     3.6511     1.3339     6.2687 </r>
       <r>     3.7369     1.3194     6.3818 </r>
       <r>     3.8227     1.3445     6.4971 </r>
       <r>     3.9084     1.3421     6.6122 </r>
       <r>     3.9942     1.2796     6.7220 </r>
       <r>     4.0799     1.1939     6.8243 </r>
       <r>     4.1657     1.1561     6.9235 </r>
       <r>     4.2515     1.1993     7.0263 </r>
       <r>     4.3372     1.2639     7.1347 </r>
       <r>     4.4230     1.2449     7.2415 </r>
       <r>     4.5087     1.1233     7.3378 </r>
       <r>     4.5945     0.9908     7.4228 </r>
       <r>     4.6803     0.9209     7.5018 </r>
       <r>     4.7660     0.8828     7.5775 </r>
       <r>     4.8518     0.8068     7.6467 </r>
       <r>     4.9375     0.6876     7.7056 </r>
       <r>     5.0233     0.5781     7.7552 </r>
       <r>     5.1091     0.5070     7.7987 </r>
       <r>     5.1948     0.4530     7.8376 </r>
       <r>     5.2806     0.3943     7.8714 </r>
       <r>     5.3664     0.3388     7.9004 </r>
       <r>     5.4521     0.2988     7.9260 </r>
       <r>     5.5379     0.2630     7.9486 </r>
       <r>     5.6236     0.2154     7.9671 </r>
       <r>     5.7094     0.1597     7.9808 </r>
       <r>     5.7952     0.1080     7.9900 </r>
       <r>     5.8809     0.0653     7.9956 </r>
       <r>     5.9667     0.0330     7.9985 </r>
       <r>     6.0524     0.0132     7.9996 </r>
       <r>     6.1382     0.0044     8.0000 </r>
       <r>     6.2240     0.0035     8.0003 </r>
       <r>     6.3097     0.0113     8.0012 </r>
       <r>     6.3955     0.0333     8.0041 </r>
       <r>     6.4812     0.0729     8.0103 </r>
       <r>     6.5670     0.1235     8.0209 </r>
       <r>     6.6528     0.1771     8.0361 </r>
       <r>     6.7385     0.2393     8.0566 </r>
       <r>     6.8243     0.3154     8.0837 </r>
       <r>     6.9100     0.3915     8.1173 </r>
       <r>     6.9958     0.4488     8.1558 </r>
       <r>     7.0816     0.4843     8.1973 </r>
       <r>     7.1673     0.5033     8.2405 </r>
       <r>     7.2531     0.5178     8.2849 </r>
       <r>     7.3388     0.5579     8.3327 </r>
       <r>     7.4246     0.6523     8.3886 </r>
       <r>     7.5104     0.7886     8.4563 </r>
       <r>     7.5961     0.9098     8.5343 </r>
       <r>     7.6819     0.9640     8.6170 </r>
       <r>     7.7677     0.9711     8.7003 </r>
       <r>     7.8534     1.0195     8.7877 </r>
       <r>     7.9392     1.1605     8.8872 </r>
       <r>     8.0249     1.3366     9.0019 </r>
       <r>     8.1107     1.4555     9.1267 </r>
       <r>     8.1965     1.4977     9.2551 </r>
       <r>     8.2822     1.5052     9.3842 </r>
       <r>     8.3680     1.5014     9.5130 </r>
       <r>     8.4537     1.4667     9.6388 </r>
       <r>     8.5395     1.3808     9.7572 </r>
       <r>     8.6253     1.2606     9.8653 </r>
       <r>     8.7110     1.1516     9.9640 </r>
       <r>     8.7968     1.0946    10.0579 </r>
       <r>     8.8825     1.1120    10.1533 </r>
       <r>     8.9683     1.2176    10.2577 </r>
       <r>     9.0541     1.4088    10.3785 </r>
       <r>     9.1398     1.6386    10.5190 </r>
       <r>     9.2256     1.8260    10.6756 </r>
       <r>     9.3113     1.9131    10.8397 </r>
       <r>     9.3971     1.9003    11.0027 </r>
       <r>     9.4829     1.8203    11.1588 </r>
       <r>     9.5686     1.6996    11.3045 </r>
       <r>     9.6544     1.5639    11.4387 </r>
       <r>     9.7401     1.4496    11.5630 </r>
       <r>     9.8259     1.3714    11.6806 </r>
       <r>     9.9117     1.3178    11.7936 </r>
       <r>     9.9974     1.2972    11.9049 </r>
       <r>    10.0832     1.3245    12.0185 </r>
       <r>    10.1690     1.3561    12.1347 </r>
       <r>    10.2547     1.3273    12.2486 </r>
       <r>    10.3405     1.2512    12.3559 </r>
       <r>    10.4262     1.1985    12.4587 </r>
       <r>    10.5120     1.1898    12.5607 </r>
       <r>    10.5978     1.1837    12.6622 </r>
       <r>    10.6835     1.1690    12.7625 </r>
       <r>    10.7693     1.1914    12.8646 </r>
       <r>    10.8550     1.2726    12.9738 </r>
       <r>    10.9408     1.3599    13.0904 </r>
       <r>    11.0266     1.3771    13.2085 </r>
       <r>    11.1123     1.3001    13.3200 </r>
       <r>    11.1981     1.1673    13.4201 </r>
       <r>    11.2838     1.0366    13.5090 </r>
       <r>    11.3696     0.9535    13.5908 </r>
       <r>    11.4554     0.9482    13.6721 </r>
       <r>    11.5411     1.0258    13.7601 </r>
       <r>    11.6269     1.1433    13.8581 </r>
       <r>    11.7126     1.2264    13.9633 </r>
       <r>    11.7984     1.2395    14.0696 </r>
       <r>    11.8842     1.2024    14.1727 </r>
       <r>    11.9699     1.1274    14.2694 </r>
       <r>    12.0557     1.0006    14.3552 </r>
       <r>    12.1414     0.8378    14.4271 </r>
       <r>    12.2272     0.7099    14.4880 </r>
       <r>    12.3130     0.6850    14.5467 </r>
       <r>    12.3987     0.7645    14.6123 </r>
       <r>    12.4845     0.8941    14.6890 </r>
       <r>    12.5703     1.0128    14.7758 </r>
       <r>    12.6560     1.0830    14.8687 </r>
       <r>    12.7418     1.0939    14.9625 </r>
       <r>    12.8275     1.0376    15.0515 </r>
       <r>    12.9133     0.9051    15.1291 </r>
       <r>    12.9991     0.7295    15.1917 </r>
       <r>    13.0848     0.5785    15.2413 </r>
       <r>    13.1706     0.4839    15.2828 </r>
       <r>    13.2563     0.4300    15.3197 </r>
       <r>    13.3421     0.4018    15.3541 </r>
       <r>    13.4279     0.4123    15.3895 </r>
       <r>    13.5136     0.4918    15.4317 </r>
       <r>    13.5994     0.6505    15.4874 </r>
       <r>    13.6851     0.8249    15.5582 </r>
       <r>    13.7709     0.8819    15.6338 </r>
       <r>    13.8567     0.7450    15.6977 </r>
       <r>    13.9424     0.4981    15.7404 </r>
       <r>    14.0282     0.2951    15.7657 </r>
       <r>    14.1139     0.2050    15.7833 </r>
       <r>    14.1997     0.1896    15.7996 </r>
       <r>    14.2855     0.1833    15.8153 </r>
       <r>    14.3712     0.1638    15.8294 </r>
       <r>    14.4570     0.1587    15.8430 </r>
       <r>    14.5427     0.1962    15.8598 </r>
       <r>    14.6285     0.2600    15.8821 </r>
       <r>    14.7143     0.2935    15.9073 </r>
       <r>    14.8000     0.2542    15.9291 </r>
       <r>    14.8858     0.1621    15.9430 </r>
       <r>    14.9716     0.0756    15.9495 </r>
       <r>    15.0573     0.0299    15.9520 </r>
       <r>    15.1431     0.0233    15.9540 </r>
       <r>    15.2288     0.0410    15.9575 </r>
       <r>    15.3146     0.0661    15.9632 </r>
       <r>    15.4004     0.0831    15.9703 </r>
       <r>    15.4861     0.0879    15.9779 </r>
       <r>    15.5719     0.0852    15.9852 </r>
       <r>    15.6576     0.0746    15.9916 </r>
       <r>    15.7434     0.0536    15.9962 </r>
       <r>    15.8292     0.0291    15.9987 </r>
       <r>    15.9149     0.0115    15.9997 </r>
       <r>    16.0007     0.0033    15.9999 </r>
       <r>    16.0864     0.0007    16.0000 </r>
       <r>    16.1722     0.0001    16.0000 </r>
       <r>    16.2580     0.0000    16.0000 </r>
       <r>    16.3437     0.0000    16.0000 </r>
       <r>    16.4295     0.0000    16.0000 </r>
       <r>    16.5152     0.0000    16.0000 </r>
       <r>    16.6010     0.0000    16.0000 </r>
       <r>    16.6868     0.0000    16.0000 </r>
       <r>    16.7725     0.0000    16.0000 </r>
       <r>    16.8583     0.0000    16.0000 </r>
       <r>    16.9440     0.0000    16.0000 </r>
       <r>    17.0298     0.0000    16.0000 </r>
       <r>    17.1156     0.0000    16.0000 </r>
       <r>    17.2013     0.0000    16.0000 </r>
       <r>    17.2871     0.0000    16.0000 </r>
       <r>    17.3729     0.0000    16.0000 </r>
       <r>    17.4586     0.0000    16.0000 </r>
       <r>    17.5444     0.0000    16.0000 </r>
       <r>    17.6301     0.0000    16.0000 </r>
      </set>
     </set>
    </array>
   </total>
  </dos>
 </calculation>
 <structure name="finalpos" >
  <crystal>
   <varray name="basis" >
    <v>       0.00000000       2.71500000       2.71500000 </v>
    <v>       2.71500000       0.00000000       2.71500000 </v>
    <v>       2.71500000       2.71500000       0.00000000 </v>
   </varray>
   <i name="volume">     40.02575175 </i>
   <varray name="rec_basis" >
    <v>      -0.18416206       0.18416206       0.18416206 </v>
    <v>       0.18416206      -0.18416206       0.18416206 </v>
    <v>       0.18416206       0.18416206      -0.18416206 </v>
   </varray>
  </crystal>
  <varray name="positions" >
   <v>       0.50000000       0.50000000       0.50000000 </v>
   <v>       0.75000000       0.75000000       0.75000000 </v>
  </varray>
 </structure>
</modeling>
