   2   2   0   0
  0.1529437E+02  0.3691622E-09  0.3691622E-09  0.3691622E-09  0.5000000E-15
  1.000000000000000E-004
  CAR 
 unknown system                          
     22.48436797     -6.45026083  301      9.15259731      1.00000000
     -6.450  0.0000E+00  0.0000E+00
     -6.354  0.0000E+00  0.0000E+00
     -6.257  0.0000E+00  0.0000E+00
     -6.161  0.0000E+00  0.0000E+00
     -6.064  0.0000E+00  0.0000E+00
     -5.968  0.0000E+00  0.0000E+00
     -5.872  0.0000E+00  0.0000E+00
     -5.775  0.0000E+00  0.0000E+00
     -5.679  0.0000E+00  0.0000E+00
     -5.582  0.1563E-16  0.1508E-17
     -5.486  0.3108E-14  0.3013E-15
     -5.389  0.3979E-12  0.3868E-13
     -5.293  0.3225E-10  0.3149E-11
     -5.196  0.1656E-08  0.1628E-09
     -5.100  0.5392E-07  0.5363E-08
     -5.004  0.1115E-05  0.1129E-06
     -4.907  0.1466E-04  0.1527E-05
     -4.811  0.1228E-03  0.1337E-04
     -4.714  0.6552E-03  0.7656E-04
     -4.618  0.2231E-02  0.2918E-03
     -4.521  0.4855E-02  0.7600E-03
     -4.425  0.6763E-02  0.1412E-02
     -4.328  0.6108E-02  0.2001E-02
     -4.232  0.3950E-02  0.2382E-02
     -4.135  0.3072E-02  0.2679E-02
     -4.039  0.4942E-02  0.3155E-02
     -3.943  0.9778E-02  0.4098E-02
     -3.846  0.1718E-01  0.5755E-02
     -3.750  0.2413E-01  0.8083E-02
     -3.653  0.2558E-01  0.1055E-01
     -3.557  0.2102E-01  0.1258E-01
     -3.460  0.1658E-01  0.1418E-01
     -3.364  0.1643E-01  0.1576E-01
     -3.267  0.1743E-01  0.1744E-01
     -3.171  0.1561E-01  0.1895E-01
     -3.075  0.1136E-01  0.2004E-01
     -2.978  0.7173E-02  0.2073E-01
     -2.882  0.5933E-02  0.2131E-01
     -2.785  0.9520E-02  0.2223E-01
     -2.689  0.1663E-01  0.2383E-01
     -2.592  0.2466E-01  0.2621E-01
     -2.496  0.3314E-01  0.2940E-01
     -2.399  0.3972E-01  0.3324E-01
     -2.303  0.3798E-01  0.3690E-01
     -2.207  0.2794E-01  0.3959E-01
     -2.110  0.1982E-01  0.4151E-01
     -2.014  0.2015E-01  0.4345E-01
     -1.917  0.2387E-01  0.4575E-01
     -1.821  0.2313E-01  0.4798E-01
     -1.724  0.1698E-01  0.4962E-01
     -1.628  0.1205E-01  0.5078E-01
     -1.531  0.1611E-01  0.5234E-01
     -1.435  0.2940E-01  0.5517E-01
     -1.338  0.4081E-01  0.5911E-01
     -1.242  0.3959E-01  0.6293E-01
     -1.146  0.3004E-01  0.6582E-01
     -1.049  0.2295E-01  0.6804E-01
     -0.953  0.2238E-01  0.7019E-01
     -0.856  0.3005E-01  0.7309E-01
     -0.760  0.4432E-01  0.7737E-01
     -0.663  0.5371E-01  0.8255E-01
     -0.567  0.4837E-01  0.8721E-01
     -0.470  0.3245E-01  0.9034E-01
     -0.374  0.1717E-01  0.9200E-01
     -0.278  0.1118E-01  0.9308E-01
     -0.181  0.1832E-01  0.9484E-01
     -0.085  0.3583E-01  0.9830E-01
      0.012  0.5266E-01  0.1034E+00
      0.108  0.5683E-01  0.1089E+00
      0.205  0.4607E-01  0.1133E+00
      0.301  0.2951E-01  0.1161E+00
      0.398  0.2074E-01  0.1181E+00
      0.494  0.2530E-01  0.1206E+00
      0.590  0.3369E-01  0.1238E+00
      0.687  0.3259E-01  0.1270E+00
      0.783  0.2253E-01  0.1292E+00
      0.880  0.1479E-01  0.1306E+00
      0.976  0.1639E-01  0.1322E+00
      1.073  0.2592E-01  0.1347E+00
      1.169  0.3617E-01  0.1382E+00
      1.266  0.4167E-01  0.1422E+00
      1.362  0.4538E-01  0.1465E+00
      1.459  0.4893E-01  0.1513E+00
      1.555  0.4827E-01  0.1559E+00
      1.651  0.4787E-01  0.1605E+00
      1.748  0.5612E-01  0.1660E+00
      1.844  0.6714E-01  0.1724E+00
      1.941  0.6829E-01  0.1790E+00
      2.037  0.5880E-01  0.1847E+00
      2.134  0.4783E-01  0.1893E+00
      2.230  0.4173E-01  0.1933E+00
      2.327  0.4123E-01  0.1973E+00
      2.423  0.4185E-01  0.2013E+00
      2.519  0.3666E-01  0.2049E+00
      2.616  0.2766E-01  0.2075E+00
      2.712  0.2335E-01  0.2098E+00
      2.809  0.2460E-01  0.2122E+00
      2.905  0.2589E-01  0.2147E+00
      3.002  0.2356E-01  0.2169E+00
      3.098  0.1768E-01  0.2186E+00
      3.195  0.1310E-01  0.2199E+00
      3.291  0.1685E-01  0.2215E+00
      3.388  0.2966E-01  0.2244E+00
      3.484  0.4293E-01  0.2285E+00
      3.580  0.4808E-01  0.2332E+00
      3.677  0.4472E-01  0.2375E+00
      3.773  0.3844E-01  0.2412E+00
      3.870  0.3707E-01  0.2448E+00
      3.966  0.4390E-01  0.2490E+00
      4.063  0.5500E-01  0.2543E+00
      4.159  0.6814E-01  0.2609E+00
      4.256  0.8216E-01  0.2688E+00
      4.352  0.8682E-01  0.2772E+00
      4.448  0.7287E-01  0.2842E+00
      4.545  0.4877E-01  0.2889E+00
      4.641  0.3175E-01  0.2920E+00
      4.738  0.2900E-01  0.2948E+00
      4.834  0.3430E-01  0.2981E+00
      4.931  0.3752E-01  0.3017E+00
      5.027  0.3517E-01  0.3051E+00
      5.124  0.3225E-01  0.3082E+00
      5.220  0.3150E-01  0.3112E+00
      5.316  0.2918E-01  0.3140E+00
      5.413  0.2685E-01  0.3166E+00
      5.509  0.3174E-01  0.3197E+00
      5.606  0.4461E-01  0.3240E+00
      5.702  0.6184E-01  0.3300E+00
      5.799  0.8171E-01  0.3378E+00
      5.895  0.9779E-01  0.3473E+00
      5.992  0.1005E+00  0.3570E+00
      6.088  0.8719E-01  0.3654E+00
      6.185  0.6440E-01  0.3716E+00
      6.281  0.4716E-01  0.3761E+00
      6.377  0.4789E-01  0.3808E+00
      6.474  0.6125E-01  0.3867E+00
      6.570  0.6923E-01  0.3933E+00
      6.667  0.6303E-01  0.3994E+00
      6.763  0.5156E-01  0.4044E+00
      6.860  0.4878E-01  0.4091E+00
      6.956  0.6023E-01  0.4149E+00
      7.053  0.7617E-01  0.4223E+00
      7.149  0.7868E-01  0.4298E+00
      7.245  0.6358E-01  0.4360E+00
      7.342  0.4640E-01  0.4405E+00
      7.438  0.4208E-01  0.4445E+00
      7.535  0.4865E-01  0.4492E+00
      7.631  0.5466E-01  0.4545E+00
      7.728  0.5434E-01  0.4597E+00
      7.824  0.5119E-01  0.4647E+00
      7.921  0.5237E-01  0.4697E+00
      8.017  0.5970E-01  0.4755E+00
      8.114  0.7029E-01  0.4822E+00
      8.210  0.8153E-01  0.4901E+00
      8.306  0.8476E-01  0.4983E+00
      8.403  0.7379E-01  0.5054E+00
      8.499  0.5843E-01  0.5110E+00
      8.596  0.4875E-01  0.5157E+00
      8.692  0.4140E-01  0.5197E+00
      8.789  0.3157E-01  0.5228E+00
      8.885  0.2366E-01  0.5251E+00
      8.982  0.2451E-01  0.5274E+00
      9.078  0.3232E-01  0.5305E+00
      9.174  0.3756E-01  0.5342E+00
      9.271  0.3449E-01  0.5375E+00
      9.367  0.2903E-01  0.5403E+00
      9.464  0.3051E-01  0.5432E+00
      9.560  0.4008E-01  0.5471E+00
      9.657  0.5484E-01  0.5524E+00
      9.753  0.7242E-01  0.5594E+00
      9.850  0.8563E-01  0.5676E+00
      9.946  0.8487E-01  0.5758E+00
     10.042  0.6941E-01  0.5825E+00
     10.139  0.4935E-01  0.5873E+00
     10.235  0.3465E-01  0.5906E+00
     10.332  0.2644E-01  0.5932E+00
     10.428  0.2295E-01  0.5954E+00
     10.525  0.2582E-01  0.5979E+00
     10.621  0.3473E-01  0.6012E+00
     10.718  0.4405E-01  0.6055E+00
     10.814  0.4797E-01  0.6101E+00
     10.911  0.4582E-01  0.6145E+00
     11.007  0.4402E-01  0.6187E+00
     11.103  0.5160E-01  0.6237E+00
     11.200  0.7277E-01  0.6307E+00
     11.296  0.1001E+00  0.6404E+00
     11.393  0.1143E+00  0.6514E+00
     11.489  0.1036E+00  0.6614E+00
     11.586  0.8266E-01  0.6694E+00
     11.682  0.7510E-01  0.6766E+00
     11.779  0.7932E-01  0.6843E+00
     11.875  0.7372E-01  0.6914E+00
     11.971  0.5307E-01  0.6965E+00
     12.068  0.3823E-01  0.7002E+00
     12.164  0.4557E-01  0.7046E+00
     12.261  0.6457E-01  0.7108E+00
     12.357  0.7063E-01  0.7176E+00
     12.454  0.5586E-01  0.7230E+00
     12.550  0.3679E-01  0.7266E+00
     12.647  0.2914E-01  0.7294E+00
     12.743  0.3255E-01  0.7325E+00
     12.839  0.3938E-01  0.7363E+00
     12.936  0.4286E-01  0.7404E+00
     13.032  0.4202E-01  0.7445E+00
     13.129  0.4258E-01  0.7486E+00
     13.225  0.4999E-01  0.7534E+00
     13.322  0.6754E-01  0.7599E+00
     13.418  0.9689E-01  0.7693E+00
     13.515  0.1275E+00  0.7816E+00
     13.611  0.1375E+00  0.7948E+00
     13.708  0.1208E+00  0.8065E+00
     13.804  0.9519E-01  0.8157E+00
     13.900  0.7798E-01  0.8232E+00
     13.997  0.6936E-01  0.8299E+00
     14.093  0.6218E-01  0.8359E+00
     14.190  0.6120E-01  0.8418E+00
     14.286  0.7491E-01  0.8490E+00
     14.383  0.9241E-01  0.8579E+00
     14.479  0.9250E-01  0.8669E+00
     14.576  0.7190E-01  0.8738E+00
     14.672  0.4682E-01  0.8783E+00
     14.768  0.2993E-01  0.8812E+00
     14.865  0.2099E-01  0.8832E+00
     14.961  0.1918E-01  0.8851E+00
     15.058  0.2920E-01  0.8879E+00
     15.154  0.5488E-01  0.8932E+00
     15.251  0.9089E-01  0.9019E+00
     15.347  0.1187E+00  0.9134E+00
     15.444  0.1195E+00  0.9249E+00
     15.540  0.9571E-01  0.9341E+00
     15.637  0.6785E-01  0.9407E+00
     15.733  0.4978E-01  0.9455E+00
     15.829  0.4104E-01  0.9494E+00
     15.926  0.3707E-01  0.9530E+00
     16.022  0.3544E-01  0.9564E+00
     16.119  0.3449E-01  0.9598E+00
     16.215  0.3226E-01  0.9629E+00
     16.312  0.2892E-01  0.9657E+00
     16.408  0.2724E-01  0.9683E+00
     16.505  0.2816E-01  0.9710E+00
     16.601  0.3151E-01  0.9741E+00
     16.697  0.3714E-01  0.9776E+00
     16.794  0.4131E-01  0.9816E+00
     16.890  0.4150E-01  0.9856E+00
     16.987  0.3912E-01  0.9894E+00
     17.083  0.3488E-01  0.9928E+00
     17.180  0.3092E-01  0.9957E+00
     17.276  0.2925E-01  0.9986E+00
     17.373  0.2937E-01  0.1001E+01
     17.469  0.3205E-01  0.1004E+01
     17.565  0.3558E-01  0.1008E+01
     17.662  0.3492E-01  0.1011E+01
     17.758  0.2982E-01  0.1014E+01
     17.855  0.2425E-01  0.1016E+01
     17.951  0.2240E-01  0.1019E+01
     18.048  0.2962E-01  0.1022E+01
     18.144  0.4614E-01  0.1026E+01
     18.241  0.6001E-01  0.1032E+01
     18.337  0.5913E-01  0.1037E+01
     18.434  0.4635E-01  0.1042E+01
     18.530  0.3190E-01  0.1045E+01
     18.626  0.2069E-01  0.1047E+01
     18.723  0.1489E-01  0.1048E+01
     18.819  0.1674E-01  0.1050E+01
     18.916  0.2322E-01  0.1052E+01
     19.012  0.2646E-01  0.1055E+01
     19.109  0.2267E-01  0.1057E+01
     19.205  0.1585E-01  0.1059E+01
     19.302  0.1123E-01  0.1060E+01
     19.398  0.9133E-02  0.1061E+01
     19.494  0.6882E-02  0.1061E+01
     19.591  0.3818E-02  0.1062E+01
     19.687  0.1417E-02  0.1062E+01
     19.784  0.3438E-03  0.1062E+01
     19.880  0.8476E-04  0.1062E+01
     19.977  0.2383E-03  0.1062E+01
     20.073  0.1091E-02  0.1062E+01
     20.170  0.3348E-02  0.1062E+01
     20.266  0.6950E-02  0.1063E+01
     20.362  0.1022E-01  0.1064E+01
     20.459  0.1119E-01  0.1065E+01
     20.555  0.9281E-02  0.1066E+01
     20.652  0.5642E-02  0.1066E+01
     20.748  0.2388E-02  0.1067E+01
     20.845  0.6750E-03  0.1067E+01
     20.941  0.1244E-03  0.1067E+01
     21.038  0.1475E-04  0.1067E+01
     21.134  0.1118E-05  0.1067E+01
     21.231  0.5397E-07  0.1067E+01
     21.327  0.1656E-08  0.1067E+01
     21.423  0.3225E-10  0.1067E+01
     21.520  0.3979E-12  0.1067E+01
     21.616  0.3107E-14  0.1067E+01
     21.713  0.1705E-16  0.1067E+01
     21.809  0.0000E+00  0.1067E+01
     21.906  0.0000E+00  0.1067E+01
     22.002  0.0000E+00  0.1067E+01
     22.099  0.0000E+00  0.1067E+01
     22.195  0.0000E+00  0.1067E+01
     22.291  0.0000E+00  0.1067E+01
     22.388  0.0000E+00  0.1067E+01
     22.484  0.0000E+00  0.1067E+01
