unknown system                          
   1.00000000000000     
     0.000000    2.715000    2.715000
     2.715000    0.000000    2.715000
     2.715000    2.715000    0.000000
   Si
     2
Direct
  0.500000  0.500000  0.500000
  0.750000  0.750000  0.750000
 
   36   36   36
 0.88210779308E+00 0.89845265963E+00 0.94854574749E+00 0.10354215588E+01 0.11637401124E+01
 0.13393059316E+01 0.15685339359E+01 0.18578239580E+01 0.22126564166E+01 0.26361595755E+01
 0.31270306400E+01 0.36770329218E+01 0.42687250158E+01 0.48743805016E+01 0.54569872170E+01
 0.59736952254E+01 0.63813029158E+01 0.66426868948E+01 0.67327643545E+01 0.66426769561E+01
 0.63812925811E+01 0.59737019875E+01 0.54570279955E+01 0.48744574689E+01 0.42688184332E+01
 0.36771104324E+01 0.31270675283E+01 0.26361529993E+01 0.22126229582E+01 0.18577856899E+01
 0.15685057724E+01 0.13392918686E+01 0.11637370079E+01 0.10354242491E+01 0.94854992147E+00
 0.89845546768E+00 0.89845265963E+00 0.92695848319E+00 0.98571794095E+00 0.10780213731E+01
 0.12083157350E+01 0.13817090967E+01 0.16033986886E+01 0.18779756124E+01 0.22084724835E+01
 0.25950160528E+01 0.30330922518E+01 0.35117133509E+01 0.40120844544E+01 0.45075146246E+01
 0.49651423554E+01 0.53495346193E+01 0.56275771731E+01 0.57736037164E+01 0.57736039235E+01
 0.56275803943E+01 0.53495492289E+01 0.49651787034E+01 0.45075733917E+01 0.40121483194E+01
 0.35117552639E+01 0.30330949272E+01 0.25949832581E+01 0.22084232210E+01 0.18779304159E+01
 0.16033699563E+01 0.13816985829E+01 0.12083169532E+01 0.10780249927E+01 0.98571809869E+00
 0.92695567153E+00 0.89845096844E+00 0.94854574749E+00 0.98571794095E+00 0.10500709348E+01
 0.11449044146E+01 0.12742611423E+01 0.14424220328E+01 0.16533126769E+01 0.19097811370E+01
 0.22126666732E+01 0.25596147281E+01 0.29437370276E+01 0.33524303140E+01 0.37668492561E+01
 0.41625487298E+01 0.45115811042E+01 0.47858936334E+01 0.49614001878E+01 0.50218213412E+01
 0.49614048892E+01 0.47859059106E+01 0.45116043429E+01 0.41625804385E+01 0.37668763051E+01
 0.33524348064E+01 0.29437102346E+01 0.25595645489E+01 0.22126114509E+01 0.19097379857E+01
 0.16532906198E+01 0.14424208124E+01 0.12742723816E+01 0.11449156140E+01 0.10500731020E+01
 0.98571146458E+00 0.94853869757E+00 0.93640092100E+00 0.10354215588E+01 0.10780213731E+01
 0.11449044146E+01 0.12392225404E+01 0.13645050758E+01 0.15241549077E+01 0.17208601647E+01
 0.19558945595E+01 0.22282737209E+01 0.25337914194E+01 0.28640847351E+01 0.32060206009E+01
 0.35417747445E+01 0.38499129785E+01 0.41075570906E+01 0.42933752416E+01 0.43908119850E+01
 0.43908132236E+01 0.42933798885E+01 0.41075654789E+01 0.38499206224E+01 0.35417721644E+01
 0.32059995553E+01 0.28640456322E+01 0.25337442932E+01 0.22282322491E+01 0.19558693861E+01
 0.17208559565E+01 0.15241696307E+01 0.13645296822E+01 0.12392437510E+01 0.11449120887E+01
 0.10780151322E+01 0.10354103337E+01 0.10147423330E+01 0.10147476518E+01 0.11637401124E+01
 0.12083157350E+01 0.12742611423E+01 0.13645050758E+01 0.14820307321E+01 0.16293901420E+01
 0.18081533256E+01 0.20182808882E+01 0.22574225534E+01 0.25202027613E+01 0.27976510326E+01
 0.30770199110E+01 0.33422465076E+01 0.35752216229E+01 0.37578341181E+01 0.38744980074E+01
 0.39146354333E+01 0.38744979553E+01 0.37578335634E+01 0.35752166581E+01 0.33422310015E+01
 0.30769923060E+01 0.27976182965E+01 0.25201759081E+01 0.22574095241E+01 0.20182843322E+01
 0.18081724635E+01 0.16294210422E+01 0.14820647988E+01 0.13645308964E+01 0.12742708055E+01
 0.12083099140E+01 0.11637271579E+01 0.11380732381E+01 0.11297168419E+01 0.11380830164E+01
 0.13393059316E+01 0.13817090967E+01 0.14424220328E+01 0.15241549077E+01 0.16293901420E+01
 0.17599363468E+01 0.19164486136E+01 0.20979147975E+01 0.23011265306E+01 0.25202027154E+01
 0.27463048504E+01 0.29677341839E+01 0.31705870322E+01 0.33400501145E+01 0.34622471084E+01
 0.35263303718E+01 0.35263303449E+01 0.34622459269E+01 0.33400443479E+01 0.31705730677E+01
 0.29677138189E+01 0.27462873498E+01 0.25201985763E+01 0.23011397661E+01 0.20979423634E+01
 0.19164849245E+01 0.17599750367E+01 0.16294230078E+01 0.15241739790E+01 0.14424245783E+01
 0.13816994351E+01 0.13392920139E+01 0.13126801437E+01 0.12999106667E+01 0.12999148178E+01
 0.13126912692E+01 0.15685339359E+01 0.16033986886E+01 0.16533126769E+01 0.17208601647E+01
 0.18081533256E+01 0.19164486136E+01 0.20457665571E+01 0.21945144364E+01 0.23591283761E+01
 0.25337914076E+01 0.27103421066E+01 0.28785277488E+01 0.30267361074E+01 0.31432429598E+01
 0.32178439386E+01 0.32435434376E+01 0.32178459935E+01 0.31432431427E+01 0.30267307321E+01
 0.28785186415E+01 0.27103373339E+01 0.25337994885E+01 0.23591517860E+01 0.21945489186E+01
 0.20458047608E+01 0.19164820852E+01 0.18081733564E+01 0.17208617114E+01 0.16532989233E+01
 0.16033794175E+01 0.15685181561E+01 0.15460486577E+01 0.15336403862E+01 0.15296952521E+01
 0.15336441255E+01 0.15460578060E+01 0.18578239580E+01 0.18779756124E+01 0.19097811370E+01
 0.19558945595E+01 0.20182808882E+01 0.20979147975E+01 0.21945144364E+01 0.23062992261E+01
 0.24297786058E+01 0.25596148698E+01 0.26886579322E+01 0.28082872501E+01 0.29091684272E+01
 0.29824183923E+01 0.30209996977E+01 0.30210030899E+01 0.29824255155E+01 0.29091737826E+01
 0.28082893067E+01 0.26886604712E+01 0.25596227906E+01 0.24297939439E+01 0.23063205518E+01
 0.21945371607E+01 0.20979306893E+01 0.20182804807E+01 0.19558741605E+01 0.19097480907E+01
 0.18779444122E+01 0.18578056145E+01 0.18463372366E+01 0.18406501613E+01 0.18384447916E+01
 0.18384431687E+01 0.18406481156E+01 0.18463419810E+01 0.22126564166E+01 0.22084724835E+01
 0.22126666732E+01 0.22282737209E+01 0.22574225534E+01 0.23011265306E+01 0.23591283761E+01
 0.24297786058E+01 0.25099490132E+01 0.25950162095E+01 0.26790007324E+01 0.27549770183E+01
 0.28158238950E+01 0.28552564079E+01 0.28689244956E+01 0.28552672266E+01 0.28158393178E+01
 0.27549904452E+01 0.26790088476E+01 0.25950180357E+01 0.25099452006E+01 0.24297720800E+01
 0.23591215739E+01 0.23011160756E+01 0.22574002995E+01 0.22282361724E+01 0.22126220769E+01
 0.22084362908E+01 0.22126396675E+01 0.22215883830E+01 0.22314915374E+01 0.22389915599E+01
 0.22417648413E+01 0.22389819161E+01 0.22314797218E+01 0.22215860779E+01 0.26361595755E+01
 0.25950160528E+01 0.25596147281E+01 0.25337914194E+01 0.25202027613E+01 0.25202027154E+01
 0.25337914076E+01 0.25596148698E+01 0.25950162095E+01 0.26361596231E+01 0.26782856005E+01
 0.27161715760E+01 0.27448158179E+01 0.27602462426E+01 0.27602546187E+01 0.27448367901E+01
 0.27161950786E+01 0.26783000584E+01 0.26361556906E+01 0.25949910243E+01 0.25595750838E+01
 0.25337486624E+01 0.25201631812E+01 0.25201637242E+01 0.25337499531E+01 0.25595764818E+01
 0.25949921127E+01 0.26361562634E+01 0.26782999587E+01 0.27161943909E+01 0.27448359391E+01
 0.27602539629E+01 0.27602457550E+01 0.27448153726E+01 0.27161712641E+01 0.26782855059E+01
 0.31270306400E+01 0.30330922518E+01 0.29437370276E+01 0.28640847351E+01 0.27976510326E+01
 0.27463048504E+01 0.27103421066E+01 0.26886579322E+01 0.26790007324E+01 0.26782856005E+01
 0.26829670569E+01 0.26894891283E+01 0.26947954057E+01 0.26968155176E+01 0.26948140966E+01
 0.26895170544E+01 0.26829870252E+01 0.26782790280E+01 0.26789586092E+01 0.26885887815E+01
 0.27102670037E+01 0.27462420482E+01 0.27976062322E+01 0.28640560941E+01 0.29437249504E+01
 0.30330991233E+01 0.31270540393E+01 0.32190783583E+01 0.33017686532E+01 0.33676357691E+01
 0.34101549637E+01 0.34248534812E+01 0.34101392571E+01 0.33676090578E+01 0.33017364779E+01
 0.32190464986E+01 0.36770329218E+01 0.35117133509E+01 0.33524303140E+01 0.32060206009E+01
 0.30770199110E+01 0.29677341839E+01 0.28785277488E+01 0.28082872501E+01 0.27549770183E+01
 0.27161715760E+01 0.26894891283E+01 0.26729115874E+01 0.26649995417E+01 0.26650095861E+01
 0.26729360508E+01 0.26895103914E+01 0.27161647484E+01 0.27549256678E+01 0.28081990627E+01
 0.28784317783E+01 0.29676604317E+01 0.30769821508E+01 0.32060170560E+01 0.33524540349E+01
 0.35117566287E+01 0.36770846910E+01 0.38394967185E+01 0.39885125380E+01 0.41130860580E+01
 0.42029395702E+01 0.42500651656E+01 0.42500614754E+01 0.42029282651E+01 0.41130651885E+01
 0.39884785012E+01 0.38394496490E+01 0.42687250158E+01 0.40120844544E+01 0.37668492561E+01
 0.35417747445E+01 0.33422465076E+01 0.31705870322E+01 0.30267361074E+01 0.29091684272E+01
 0.28158238950E+01 0.27448158179E+01 0.26947954057E+01 0.26649995417E+01 0.26551009267E+01
 0.26650150900E+01 0.26948123679E+01 0.27448080222E+01 0.28157690759E+01 0.29090711767E+01
 0.30266309517E+01 0.31705138193E+01 0.33422239687E+01 0.35417973748E+01 0.37669015027E+01
 0.40121504924E+01 0.42687895435E+01 0.45248435748E+01 0.47657956960E+01 0.49758104592E+01
 0.51394267698E+01 0.52435298813E+01 0.52792768028E+01 0.52435373495E+01 0.51394343485E+01
 0.49758066082E+01 0.47657704618E+01 0.45247947375E+01 0.48743805016E+01 0.45075146246E+01
 0.41625487298E+01 0.38499129785E+01 0.35752216229E+01 0.33400501145E+01 0.31432429598E+01
 0.29824183923E+01 0.28552564079E+01 0.27602462426E+01 0.26968155176E+01 0.26650095861E+01
 0.26650150900E+01 0.26968236991E+01 0.27602338546E+01 0.28551988907E+01 0.29823164783E+01
 0.31431336653E+01 0.33399812311E+01 0.35752144491E+01 0.38499539289E+01 0.41626112250E+01
 0.45075785273E+01 0.48744332881E+01 0.52478909987E+01 0.56085934648E+01 0.59346763563E+01
 0.62039389125E+01 0.63963709237E+01 0.64967297920E+01 0.64967408974E+01 0.63963982132E+01
 0.62039681370E+01 0.59346926643E+01 0.56085867239E+01 0.52478586843E+01 0.54569872170E+01
 0.49651423554E+01 0.45115811042E+01 0.41075570906E+01 0.37578341181E+01 0.34622471084E+01
 0.32178439386E+01 0.30209996977E+01 0.28689244956E+01 0.27602546187E+01 0.26948140966E+01
 0.26729360508E+01 0.26948123679E+01 0.27602338546E+01 0.28688619378E+01 0.30208934447E+01
 0.32177304895E+01 0.34621796726E+01 0.37578367920E+01 0.41076075122E+01 0.45116391255E+01
 0.49651841762E+01 0.54570090812E+01 0.59688586112E+01 0.64762115017E+01 0.69502151922E+01
 0.73604466836E+01 0.76781073008E+01 0.78793350053E+01 0.79482753849E+01 0.78793560306E+01
 0.76781419687E+01 0.73604843935E+01 0.69502455893E+01 0.64762266893E+01 0.59688554388E+01
 0.59736952254E+01 0.53495346193E+01 0.47858936334E+01 0.42933752416E+01 0.38744980074E+01
 0.35263303718E+01 0.32435434376E+01 0.30210030899E+01 0.28552672266E+01 0.27448367901E+01
 0.26895170544E+01 0.26895103914E+01 0.27448080222E+01 0.28551988907E+01 0.30208934447E+01
 0.32434268761E+01 0.35262619127E+01 0.38745050270E+01 0.42934303745E+01 0.47859439909E+01
 0.53495503198E+01 0.59736813437E+01 0.66382804773E+01 0.73141996153E+01 0.79653546272E+01
 0.85520776994E+01 0.90350316071E+01 0.93793230352E+01 0.95585952807E+01 0.95585942159E+01
 0.93793238580E+01 0.90350425451E+01 0.85521025349E+01 0.79653880829E+01 0.73142332376E+01
 0.66383084549E+01 0.63813029158E+01 0.56275771731E+01 0.49614001878E+01 0.43908119850E+01
 0.39146354333E+01 0.35263303449E+01 0.32178459935E+01 0.29824255155E+01 0.28158393178E+01
 0.27161950786E+01 0.26829870252E+01 0.27161647484E+01 0.28157690759E+01 0.29823164783E+01
 0.32177304895E+01 0.35262619127E+01 0.39146436991E+01 0.43908695047E+01 0.49614466021E+01
 0.56275754429E+01 0.63812621639E+01 0.72026529227E+01 0.80596211463E+01 0.89097912931E+01
 0.97042723198E+01 0.10392134356E+02 0.10925191014E+02 0.11263164998E+02 0.11378995291E+02
 0.11263116412E+02 0.10925124904E+02 0.10392089060E+02 0.97042662394E+01 0.89098176810E+01
 0.80596657963E+01 0.72027047082E+01 0.66426868948E+01 0.57736037164E+01 0.50218213412E+01
 0.43908132236E+01 0.38744979553E+01 0.34622459269E+01 0.31432431427E+01 0.29091737826E+01
 0.27549904452E+01 0.26783000584E+01 0.26782790280E+01 0.27549256678E+01 0.29090711767E+01
 0.31431336653E+01 0.34621796726E+01 0.38745050270E+01 0.43908695047E+01 0.50218659692E+01
 0.57735952483E+01 0.66426340578E+01 0.76119004719E+01 0.86489916882E+01 0.97076016412E+01
 0.10731237358E+02 0.11657842137E+02 0.12424716314E+02 0.12974337522E+02 0.13261636608E+02
 0.13261578555E+02 0.12974193459E+02 0.12424556515E+02 0.11657730831E+02 0.10731196573E+02
 0.97076158013E+01 0.86490383335E+01 0.76119630054E+01 0.67327643545E+01 0.57736039235E+01
 0.49614048892E+01 0.42933798885E+01 0.37578335634E+01 0.33400443479E+01 0.30267307321E+01
 0.28082893067E+01 0.26790088476E+01 0.26361556906E+01 0.26789586092E+01 0.28081990627E+01
 0.30266309517E+01 0.33399812311E+01 0.37578367920E+01 0.42934303745E+01 0.49614466021E+01
 0.57735952483E+01 0.67327123632E+01 0.78271500864E+01 0.90275582456E+01 0.10287246250E+02
 0.11545455184E+02 0.12731630933E+02 0.13769623727E+02 0.14582971908E+02 0.15102815763E+02
 0.15281477474E+02 0.15102665673E+02 0.14582735390E+02 0.13769393873E+02 0.12731477197E+02
 0.11545391027E+02 0.10287246266E+02 0.90275964774E+01 0.78272092153E+01 0.66426769561E+01
 0.56275803943E+01 0.47859059106E+01 0.41075654789E+01 0.35752166581E+01 0.31705730677E+01
 0.28785186415E+01 0.26886604712E+01 0.25950180357E+01 0.25949910243E+01 0.26885887815E+01
 0.28784317783E+01 0.31705138193E+01 0.35752144491E+01 0.41076075122E+01 0.47859439909E+01
 0.56275754429E+01 0.66426340578E+01 0.78271500864E+01 0.91581406179E+01 0.10592569663E+02
 0.12069872585E+02 0.13515619747E+02 0.14844277541E+02 0.15958679305E+02 0.16760913793E+02
 0.17180297598E+02 0.17180220770E+02 0.16760708325E+02 0.15958414149E+02 0.14844038127E+02
 0.13515461821E+02 0.12069798722E+02 0.10592553052E+02 0.91581614812E+01 0.78271957691E+01
 0.63812925811E+01 0.53495492289E+01 0.45116043429E+01 0.38499206224E+01 0.33422310015E+01
 0.29677138189E+01 0.27103373339E+01 0.25596227906E+01 0.25099452006E+01 0.25595750838E+01
 0.27102670037E+01 0.29676604317E+01 0.33422239687E+01 0.38499539289E+01 0.45116391255E+01
 0.53495503198E+01 0.63812621639E+01 0.76119004719E+01 0.90275582456E+01 0.10592569663E+02
 0.12251070931E+02 0.13930182032E+02 0.15540730849E+02 0.16965240736E+02 0.18080846406E+02
 0.18791668037E+02 0.19035784314E+02 0.18791567402E+02 0.18080661272E+02 0.16965016181E+02
 0.15540528852E+02 0.13930042016E+02 0.12250992566E+02 0.10592535705E+02 0.90275602652E+01
 0.76119302807E+01 0.59737019875E+01 0.49651787034E+01 0.41625804385E+01 0.35417721644E+01
 0.30769923060E+01 0.27462873498E+01 0.25337994885E+01 0.24297939439E+01 0.24297720800E+01
 0.25337486624E+01 0.27462420482E+01 0.30769821508E+01 0.35417973748E+01 0.41626112250E+01
 0.49651841762E+01 0.59736813437E+01 0.72026529227E+01 0.86489916882E+01 0.10287246250E+02
 0.12069872585E+02 0.13930182032E+02 0.15781967306E+02 0.17497264093E+02 0.18932420347E+02
 0.19966386224E+02 0.20508357752E+02 0.20508342003E+02 0.19966325182E+02 0.18932297711E+02
 0.17497098621E+02 0.15781805841E+02 0.13930058223E+02 0.12069791230E+02 0.10287201485E+02
 0.86489827183E+01 0.72026721925E+01 0.54570279955E+01 0.45075733917E+01 0.37668763051E+01
 0.32059995553E+01 0.27976182965E+01 0.25201985763E+01 0.23591517860E+01 0.23063205518E+01
 0.23591215739E+01 0.25201631812E+01 0.27976062322E+01 0.32060170560E+01 0.37669015027E+01
 0.45075785273E+01 0.54570090812E+01 0.66382804773E+01 0.80596211463E+01 0.97076016412E+01
 0.11545455184E+02 0.13515619747E+02 0.15540730849E+02 0.17497264093E+02 0.19226888899E+02
 0.20586959626E+02 0.21458635380E+02 0.21759255065E+02 0.21458658146E+02 0.20586953134E+02
 0.19226811432E+02 0.17497130221E+02 0.15540589895E+02 0.13515505962E+02 0.11545376356E+02
 0.97075573756E+01 0.80596134565E+01 0.66382997433E+01 0.48744574689E+01 0.40121483194E+01
 0.33524348064E+01 0.28640456322E+01 0.25201759081E+01 0.23011397661E+01 0.21945489186E+01
 0.21945371607E+01 0.23011160756E+01 0.25201637242E+01 0.28640560941E+01 0.33524540349E+01
 0.40121504924E+01 0.48744332881E+01 0.59688586112E+01 0.73141996153E+01 0.89097912931E+01
 0.10731237358E+02 0.12731630933E+02 0.14844277541E+02 0.16965240736E+02 0.18932420347E+02
 0.20586959626E+02 0.21787545216E+02 0.22420628504E+02 0.22420666903E+02 0.21787615693E+02
 0.20586978114E+02 0.18932349025E+02 0.16965113368E+02 0.14844148664E+02 0.12731528524E+02
 0.10731167045E+02 0.89097575021E+01 0.73142057786E+01 0.59688892610E+01 0.42688184332E+01
 0.35117552639E+01 0.29437102346E+01 0.25337442932E+01 0.22574095241E+01 0.20979423634E+01
 0.20458047608E+01 0.20979306893E+01 0.22574002995E+01 0.25337499531E+01 0.29437249504E+01
 0.35117566287E+01 0.42687895435E+01 0.52478909987E+01 0.64762115017E+01 0.79653546272E+01
 0.97042723198E+01 0.11657842137E+02 0.13769623727E+02 0.15958679305E+02 0.18080846406E+02
 0.19966386224E+02 0.21458635380E+02 0.22420628504E+02 0.22753558312E+02 0.22420715618E+02
 0.21458723872E+02 0.19966394819E+02 0.18080768629E+02 0.15958564339E+02 0.13769513735E+02
 0.11657753334E+02 0.97042151463E+01 0.79653427567E+01 0.64762437485E+01 0.52479388572E+01
 0.36771104324E+01 0.30330949272E+01 0.25595645489E+01 0.22282322491E+01 0.20182843322E+01
 0.19164849245E+01 0.19164820852E+01 0.20182804807E+01 0.22282361724E+01 0.25595764818E+01
 0.30330991233E+01 0.36770846910E+01 0.45248435748E+01 0.56085934648E+01 0.69502151922E+01
 0.85520776994E+01 0.10392134356E+02 0.12424716314E+02 0.14582971908E+02 0.16760913793E+02
 0.18791668037E+02 0.20508357752E+02 0.21759255065E+02 0.22420666903E+02 0.22420715618E+02
 0.21759357522E+02 0.20508429921E+02 0.18791665766E+02 0.16760853850E+02 0.14582887969E+02
 0.12424628452E+02 0.10392061624E+02 0.85520469970E+01 0.69502420361E+01 0.56086579693E+01
 0.45249030383E+01 0.31270675283E+01 0.25949832581E+01 0.22126114509E+01 0.19558693861E+01
 0.18081724635E+01 0.17599750367E+01 0.18081733564E+01 0.19558741605E+01 0.22126220769E+01
 0.25949921127E+01 0.31270540393E+01 0.38394967185E+01 0.47657956960E+01 0.59346763563E+01
 0.73604466836E+01 0.90350316071E+01 0.10925191014E+02 0.12974337522E+02 0.15102815763E+02
 0.17180297598E+02 0.19035784314E+02 0.20508342003E+02 0.21458658146E+02 0.21787615693E+02
 0.21458723872E+02 0.20508429921E+02 0.19035848717E+02 0.17180320479E+02 0.15102797886E+02
 0.12974283941E+02 0.10925122765E+02 0.90349893729E+01 0.73604654562E+01 0.59347508825E+01
 0.47658815941E+01 0.38395511829E+01 0.26361529993E+01 0.22084232210E+01 0.19097379857E+01
 0.17208559565E+01 0.16294210422E+01 0.16294230078E+01 0.17208617114E+01 0.19097480907E+01
 0.22084362908E+01 0.26361562634E+01 0.32190783583E+01 0.39885125380E+01 0.49758104592E+01
 0.62039389125E+01 0.76781073008E+01 0.93793230352E+01 0.11263164998E+02 0.13261636608E+02
 0.15281477474E+02 0.17180220770E+02 0.18791567402E+02 0.19966325182E+02 0.20586953134E+02
 0.20586978114E+02 0.19966394819E+02 0.18791665766E+02 0.17180320479E+02 0.15281543738E+02
 0.13261643634E+02 0.11263123207E+02 0.93792812203E+01 0.76781183935E+01 0.62040157426E+01
 0.49759143454E+01 0.39885913021E+01 0.32191092034E+01 0.22126229582E+01 0.18779304159E+01
 0.16532906198E+01 0.15241696307E+01 0.14820647988E+01 0.15241739790E+01 0.16532989233E+01
 0.18779444122E+01 0.22126396675E+01 0.26782999587E+01 0.33017686532E+01 0.41130860580E+01
 0.51394267698E+01 0.63963709237E+01 0.78793350053E+01 0.95585952807E+01 0.11378995291E+02
 0.13261578555E+02 0.15102665673E+02 0.16760708325E+02 0.18080661272E+02 0.18932297711E+02
 0.19226811432E+02 0.18932349025E+02 0.18080768629E+02 0.16760853850E+02 0.15102797886E+02
 0.13261643634E+02 0.11378985744E+02 0.95585596541E+01 0.78793378960E+01 0.63964410238E+01
 0.51395358321E+01 0.41131792363E+01 0.33018117144E+01 0.26782994166E+01 0.18577856899E+01
 0.16033699563E+01 0.14424208124E+01 0.13645296822E+01 0.13645308964E+01 0.14424245783E+01
 0.16033794175E+01 0.18578056145E+01 0.22215883830E+01 0.27161943909E+01 0.33676357691E+01
 0.42029395702E+01 0.52435298813E+01 0.64967297920E+01 0.79482753849E+01 0.95585942159E+01
 0.11263116412E+02 0.12974193459E+02 0.14582735390E+02 0.15958414149E+02 0.16965016181E+02
 0.17497098621E+02 0.17497130221E+02 0.16965113368E+02 0.15958564339E+02 0.14582887969E+02
 0.12974283941E+02 0.11263123207E+02 0.95585596541E+01 0.79482678723E+01 0.64967872544E+01
 0.52436334740E+01 0.42030368426E+01 0.33676853328E+01 0.27161937726E+01 0.22215649902E+01
 0.15685057724E+01 0.13816985829E+01 0.12742723816E+01 0.12392437510E+01 0.12742708055E+01
 0.13816994351E+01 0.15685181561E+01 0.18463372366E+01 0.22314915374E+01 0.27448359391E+01
 0.34101549637E+01 0.42500651656E+01 0.52792768028E+01 0.64967408974E+01 0.78793560306E+01
 0.93793238580E+01 0.10925124904E+02 0.12424556515E+02 0.13769393873E+02 0.14844038127E+02
 0.15540528852E+02 0.15781805841E+02 0.15540589895E+02 0.14844148664E+02 0.13769513735E+02
 0.12424628452E+02 0.10925122765E+02 0.93792812203E+01 0.78793378960E+01 0.64967872544E+01
 0.52793735610E+01 0.42501629967E+01 0.34102094711E+01 0.27448365570E+01 0.22314616600E+01
 0.18463086899E+01 0.13392918686E+01 0.12083169532E+01 0.11449156140E+01 0.11449120887E+01
 0.12083099140E+01 0.13392920139E+01 0.15460486577E+01 0.18406501613E+01 0.22389915599E+01
 0.27602539629E+01 0.34248534812E+01 0.42500614754E+01 0.52435373495E+01 0.63963982132E+01
 0.76781419687E+01 0.90350425451E+01 0.10392089060E+02 0.11657730831E+02 0.12731477197E+02
 0.13515461821E+02 0.13930042016E+02 0.13930058223E+02 0.13515505962E+02 0.12731528524E+02
 0.11657753334E+02 0.10392061624E+02 0.90349893729E+01 0.76781183935E+01 0.63964410238E+01
 0.52436334740E+01 0.42501629967E+01 0.34249151609E+01 0.27602601794E+01 0.22389598247E+01
 0.18406131426E+01 0.15460294110E+01 0.11637370079E+01 0.10780249927E+01 0.10500731020E+01
 0.10780151322E+01 0.11637271579E+01 0.13126801437E+01 0.15336403862E+01 0.18384447916E+01
 0.22417648413E+01 0.27602457550E+01 0.34101392571E+01 0.42029282651E+01 0.51394343485E+01
 0.62039681370E+01 0.73604843935E+01 0.85521025349E+01 0.97042662394E+01 0.10731196573E+02
 0.11545391027E+02 0.12069798722E+02 0.12250992566E+02 0.12069791230E+02 0.11545376356E+02
 0.10731167045E+02 0.97042151463E+01 0.85520469970E+01 0.73604654562E+01 0.62040157426E+01
 0.51395358321E+01 0.42030368426E+01 0.34102094711E+01 0.27602601794E+01 0.22417367172E+01
 0.18384035702E+01 0.15336125966E+01 0.13126752485E+01 0.10354242491E+01 0.98571809869E+00
 0.98571146458E+00 0.10354103337E+01 0.11380732381E+01 0.12999106667E+01 0.15296952521E+01
 0.18384431687E+01 0.22389819161E+01 0.27448153726E+01 0.33676090578E+01 0.41130651885E+01
 0.49758066082E+01 0.59346926643E+01 0.69502455893E+01 0.79653880829E+01 0.89098176810E+01
 0.97076158013E+01 0.10287246266E+02 0.10592553052E+02 0.10592535705E+02 0.10287201485E+02
 0.97075573756E+01 0.89097575021E+01 0.79653427567E+01 0.69502420361E+01 0.59347508825E+01
 0.49759143454E+01 0.41131792363E+01 0.33676853328E+01 0.27448365570E+01 0.22389598247E+01
 0.18384035702E+01 0.15296626137E+01 0.12998985125E+01 0.11380803483E+01 0.94854992147E+00
 0.92695567153E+00 0.94853869757E+00 0.10147423330E+01 0.11297168419E+01 0.12999148178E+01
 0.15336441255E+01 0.18406481156E+01 0.22314797218E+01 0.27161712641E+01 0.33017364779E+01
 0.39884785012E+01 0.47657704618E+01 0.56085867239E+01 0.64762266893E+01 0.73142332376E+01
 0.80596657963E+01 0.86490383335E+01 0.90275964774E+01 0.91581614812E+01 0.90275602652E+01
 0.86489827183E+01 0.80596134565E+01 0.73142057786E+01 0.64762437485E+01 0.56086579693E+01
 0.47658815941E+01 0.39885913021E+01 0.33018117144E+01 0.27161937726E+01 0.22314616600E+01
 0.18406131426E+01 0.15336125966E+01 0.12998985125E+01 0.11297183277E+01 0.10147548985E+01
 0.89845546768E+00 0.89845096844E+00 0.93640092100E+00 0.10147476518E+01 0.11380830164E+01
 0.13126912692E+01 0.15460578060E+01 0.18463419810E+01 0.22215860779E+01 0.26782855059E+01
 0.32190464986E+01 0.38394496490E+01 0.45247947375E+01 0.52478586843E+01 0.59688554388E+01
 0.66383084549E+01 0.72027047082E+01 0.76119630054E+01 0.78272092153E+01 0.78271957691E+01
 0.76119302807E+01 0.72026721925E+01 0.66382997433E+01 0.59688892610E+01 0.52479388572E+01
 0.45249030383E+01 0.38395511829E+01 0.32191092034E+01 0.26782994166E+01 0.22215649902E+01
 0.18463086899E+01 0.15460294110E+01 0.13126752485E+01 0.11380803483E+01 0.10147548985E+01
 0.93641082139E+00 0.89845275105E+00 0.92695848869E+00 0.98571798789E+00 0.10780214522E+01
 0.12083157393E+01 0.13817090330E+01 0.16033986632E+01 0.18779756358E+01 0.22084724825E+01
 0.25950160509E+01 0.30330923328E+01 0.35117134501E+01 0.40120843725E+01 0.45075142412E+01
 0.49651416744E+01 0.53495336718E+01 0.56275761011E+01 0.57736029177E+01 0.57736038533E+01
 0.56275811463E+01 0.53495504268E+01 0.49651797721E+01 0.45075738114E+01 0.40121477583E+01
 0.35117537787E+01 0.30330930788E+01 0.25949818086E+01 0.22084226312E+01 0.18779306983E+01
 0.16033709001E+01 0.13816999014E+01 0.12083182776E+01 0.10780260057E+01 0.98571874289E+00
 0.92695608245E+00 0.89845122265E+00 0.92695848869E+00 0.96351605374E+00 0.10267469181E+01
 0.11198431068E+01 0.12467607560E+01 0.14117480901E+01 0.16187607079E+01 0.18707199669E+01
 0.21685466269E+01 0.25099488621E+01 0.28880852348E+01 0.32904231498E+01 0.36982752313E+01
 0.40874980832E+01 0.44306023028E+01 0.47000955416E+01 0.48724402768E+01 0.49317584310E+01
 0.48724449028E+01 0.47001077336E+01 0.44306263702E+01 0.40875336449E+01 0.36983111450E+01
 0.32904413068E+01 0.28880736372E+01 0.25099108352E+01 0.21684975285E+01 0.18706768558E+01
 0.16187345978E+01 0.14117411219E+01 0.12467664829E+01 0.11198503184E+01 0.10267471212E+01
 0.96350921644E+00 0.92695167144E+00 0.91500768192E+00 0.98571798789E+00 0.10267469181E+01
 0.10910379325E+01 0.11815714712E+01 0.13017848585E+01 0.14551068607E+01 0.16443562249E+01
 0.18709835517E+01 0.21341591978E+01 0.24297785412E+01 0.27495632704E+01 0.30805438726E+01
 0.34052520471E+01 0.37028724408E+01 0.39513821118E+01 0.41303997009E+01 0.42241954018E+01
 0.42241959525E+01 0.41304028751E+01 0.39513904509E+01 0.37028851426E+01 0.34052622757E+01
 0.30805417088E+01 0.27495427705E+01 0.24297426198E+01 0.21341181448E+01 0.18709494509E+01
 0.16443378339E+01 0.14551063944E+01 0.13017966739E+01 0.11815844303E+01 0.10910421912E+01
 0.10267405604E+01 0.98570774226E+00 0.96576842264E+00 0.96577324468E+00 0.10780214522E+01
 0.11198431068E+01 0.11815714712E+01 0.12659773891E+01 0.13760302539E+01 0.15144262592E+01
 0.16829830295E+01 0.18819157101E+01 0.21090552093E+01 0.23591283963E+01 0.26232775815E+01
 0.28890268101E+01 0.31408776252E+01 0.33616197999E+01 0.35342758741E+01 0.36443955640E+01
 0.36822463721E+01 0.36443935593E+01 0.35342739130E+01 0.33616178476E+01 0.31408717986E+01
 0.28890130230E+01 0.26232557979E+01 0.23591027828E+01 0.21090316130E+01 0.18819000075E+01
 0.16829800547E+01 0.15144371645E+01 0.13760499218E+01 0.12659959612E+01 0.11815802957E+01
 0.11198401768E+01 0.10780120202E+01 0.10538759653E+01 0.10459988540E+01 0.10538836143E+01
 0.12083157393E+01 0.12467607560E+01 0.13017848585E+01 0.13760302539E+01 0.14720926736E+01
 0.15920462299E+01 0.17368693440E+01 0.19058185934E+01 0.20958384522E+01 0.23011265309E+01
 0.25129896808E+01 0.27201163953E+01 0.29093483103E+01 0.30669552257E+01 0.31803000138E+01
 0.32396327274E+01 0.32396315562E+01 0.31802969116E+01 0.30669498886E+01 0.29093386202E+01
 0.27201016119E+01 0.25129735466E+01 0.23011150574E+01 0.20958353536E+01 0.19058245444E+01
 0.17368840757E+01 0.15920681842E+01 0.14721167846E+01 0.13760490088E+01 0.13017930590E+01
 0.12467587516E+01 0.12083082629E+01 0.11841239124E+01 0.11724897195E+01 0.11724926297E+01
 0.11841311715E+01 0.13817090330E+01 0.14117480901E+01 0.14551068607E+01 0.15144262592E+01
 0.15920462299E+01 0.16895530784E+01 0.18072880172E+01 0.19438738070E+01 0.20958384459E+01
 0.22574225166E+01 0.24206548190E+01 0.25757676277E+01 0.27119919272E+01 0.28187127806E+01
 0.28868629894E+01 0.29103049389E+01 0.28868636567E+01 0.28187117772E+01 0.27119864408E+01
 0.25757578947E+01 0.24206458879E+01 0.22574212030E+01 0.20958482244E+01 0.19438933361E+01
 0.18073133687E+01 0.16895791770E+01 0.15920669537E+01 0.15144365327E+01 0.14551062687E+01
 0.14117411777E+01 0.13817013467E+01 0.13624347547E+01 0.13518188245E+01 0.13484456109E+01
 0.13518214936E+01 0.13624402254E+01 0.16033986632E+01 0.16187607079E+01 0.16443562249E+01
 0.16829830295E+01 0.17368693440E+01 0.18072880172E+01 0.18941957033E+01 0.19959362299E+01
 0.21090552008E+01 0.22282737420E+01 0.23466739176E+01 0.24561510013E+01 0.25481674628E+01
 0.26147785974E+01 0.26497897956E+01 0.26497921430E+01 0.26147829634E+01 0.25481687931E+01
 0.24561475369E+01 0.23466693218E+01 0.22282740399E+01 0.21090642953E+01 0.19959539938E+01
 0.18942182734E+01 0.18073085156E+01 0.17368799483E+01 0.16829795166E+01 0.16443418287E+01
 0.16187442784E+01 0.16033878944E+01 0.15952921869E+01 0.15917021929E+01 0.15904887624E+01
 0.15904881040E+01 0.15917017143E+01 0.15952957003E+01 0.18779756358E+01 0.18707199669E+01
 0.18709835517E+01 0.18819157101E+01 0.19058185934E+01 0.19438738070E+01 0.19959362299E+01
 0.20604010533E+01 0.21341592083E+01 0.22126667649E+01 0.22901748894E+01 0.23601807291E+01
 0.24161313299E+01 0.24523275210E+01 0.24648605910E+01 0.24523339691E+01 0.24161386642E+01
 0.23601836042E+01 0.22901724858E+01 0.22126620272E+01 0.21341561509E+01 0.20604029779E+01
 0.19959434195E+01 0.19438811546E+01 0.19058174897E+01 0.18819009896E+01 0.18709589884E+01
 0.18706959969E+01 0.18779615442E+01 0.18891031675E+01 0.19004183100E+01 0.19086862118E+01
 0.19117017214E+01 0.19086809541E+01 0.19004129739E+01 0.18891051722E+01 0.22084724825E+01
 0.21685466269E+01 0.21341591978E+01 0.21090552093E+01 0.20958384522E+01 0.20958384459E+01
 0.21090552008E+01 0.21341592083E+01 0.21685466694E+01 0.22084725446E+01 0.22493126392E+01
 0.22860144895E+01 0.23137501886E+01 0.23286865739E+01 0.23286912637E+01 0.23137607591E+01
 0.22860232032E+01 0.22493126229E+01 0.22084611203E+01 0.21685265776E+01 0.21341379102E+01
 0.21090400428E+01 0.20958298971E+01 0.20958293516E+01 0.21090386719E+01 0.21341363696E+01
 0.21685255722E+01 0.22084610657E+01 0.22493134966E+01 0.22860246389E+01 0.23137622818E+01
 0.23286925056E+01 0.23286873749E+01 0.23137505771E+01 0.22860145970E+01 0.22493126100E+01
 0.25950160509E+01 0.25099488621E+01 0.24297785412E+01 0.23591283963E+01 0.23011265309E+01
 0.22574225166E+01 0.22282737420E+01 0.22126667649E+01 0.22084725446E+01 0.22126564138E+01