 running on    8 total cores
 distrk:  each k-point on    8 cores,    1 groups
 distr:  one band on    1 cores,    8 groups
 using from now: INCAR     
 vasp.5.4.4.18Apr17-6-g9f103f2a35 (build Dec 09 2018 21:25:21) complex          
  
 POSCAR found type information on POSCAR  Si
 POSCAR found :  1 types and       2 ions
 scaLAPACK will be used

 ----------------------------------------------------------------------------- 
|                                                                             |
|           W    W    AA    RRRRR   N    N  II  N    N   GGGG   !!!           |
|           W    W   A  A   R    R  NN   N  II  NN   N  G    G  !!!           |
|           W    W  A    A  R    R  N N  N  II  N N  N  G       !!!           |
|           W WW W  AAAAAA  RRRRR   N  N N  II  N  N N  G  GGG   !            |
|           WW  WW  A    A  R   R   N   NN  II  N   NN  G    G                |
|           W    W  A    A  R    R  N    N  II  N    N   GGGG   !!!           |
|                                                                             |
|      For optimal performance we recommend to set                            |
|        NCORE= 4 - approx SQRT( number of cores)                             |
|      NCORE specifies how many cores store one orbital (NPAR=cpu/NCORE).     |
|      This setting can  greatly improve the performance of VASP for DFT.     |
|      The default,   NCORE=1            might be grossly inefficient         |
|      on modern multi-core architectures or massively parallel machines.     |
|      Do your own testing !!!!                                               |
|      Unfortunately you need to use the default for GW and RPA calculations. |
|      (for HF NCORE is supported but not extensively tested yet)             |
|                                                                             |
 ----------------------------------------------------------------------------- 

 LDA part: xc-table for Pade appr. of Perdew
 POSCAR, INCAR and KPOINTS ok, starting setup
 FFT: planning ...
 WAVECAR not read
 entering main loop
       N       E                     dE             d eps       ncg     rms          rms(c)
DAV:   1     0.480437158809E+01    0.48044E+01   -0.27532E+03   960   0.589E+02
DAV:   2    -0.108416169152E+02   -0.15646E+02   -0.14968E+02  1520   0.734E+01
DAV:   3    -0.110219412833E+02   -0.18032E+00   -0.18032E+00  1200   0.104E+01
DAV:   4    -0.110227257151E+02   -0.78443E-03   -0.78443E-03  1584   0.739E-01
DAV:   5    -0.110227260099E+02   -0.29485E-06   -0.29448E-06  1208   0.139E-02    0.301E+00
DAV:   6    -0.108980021176E+02    0.12472E+00   -0.82593E-02  1168   0.150E+00    0.178E+00
DAV:   7    -0.108411395969E+02    0.56863E-01   -0.15158E-01  1224   0.216E+00    0.154E-01
DAV:   8    -0.108424603657E+02   -0.13208E-02   -0.41891E-03  1088   0.485E-01    0.250E-02
DAV:   9    -0.108425525332E+02   -0.92167E-04   -0.98297E-05   792   0.816E-02
   1 F= -.10842553E+02 E0= -.10842529E+02  d E =-.108426E+02
 curvature:   0.00 expect dE= 0.000E+00 dE for cont linesearch  0.000E+00
 trial: gam= 0.00000 g(F)=  0.894E-46 g(S)=  0.000E+00 ort = 0.000E+00 (trialstep = 0.100E+01)
 search vector abs. value=  0.100E-09
 reached required accuracy - stopping structural energy minimisation
 writing wavefunctions
