unknown system                          
   1.00000000000000     
     0.000000    2.715000    2.715000
     2.715000    0.000000    2.715000
     2.715000    2.715000    0.000000
   Si
     2
Direct
  0.500000  0.500000  0.500000
  0.750000  0.750000  0.750000
 
   28   28   28
 0.88904510738E+00 0.91608254612E+00 0.99946550152E+00 0.11462453205E+01 0.13684060958E+01
 0.16816796437E+01 0.21018563659E+01 0.26384838325E+01 0.32872673418E+01 0.40233483890E+01
 0.47976455113E+01 0.55382330803E+01 0.61586182078E+01 0.65735844282E+01 0.67197438505E+01
 0.65735721105E+01 0.61586282259E+01 0.55382814159E+01 0.47976993849E+01 0.40233616859E+01
 0.32872329083E+01 0.26384367668E+01 0.21018322851E+01 0.16816834121E+01 0.13684198159E+01
 0.11462532825E+01 0.99946549646E+00 0.91608018437E+00 0.91608254612E+00 0.96168770864E+00
 0.10563441237E+01 0.12071601729E+01 0.14246479586E+01 0.17209824973E+01 0.21061651892E+01
 0.25824174528E+01 0.31381844670E+01 0.37437397488E+01 0.43503479986E+01 0.48944969658E+01
 0.53078365111E+01 0.55316112158E+01 0.55316124675E+01 0.53078489635E+01 0.48945259133E+01
 0.43503710405E+01 0.37437278089E+01 0.31381424528E+01 0.25823829807E+01 0.21061650666E+01
 0.17210065185E+01 0.14246694723E+01 0.12071679599E+01 0.10563455131E+01 0.96169011603E+00
 0.91608428841E+00 0.99946550152E+00 0.10563441237E+01 0.11557024798E+01 0.13043064694E+01
 0.15107946229E+01 0.17836150320E+01 0.21274587734E+01 0.25386718474E+01 0.30009518661E+01
 0.34831044177E+01 0.39404393429E+01 0.43206001764E+01 0.45733449203E+01 0.46620740129E+01
 0.45733496003E+01 0.43206059062E+01 0.39404347503E+01 0.34830811832E+01 0.30009223954E+01
 0.25386622329E+01 0.21274785214E+01 0.17836447087E+01 0.15108094744E+01 0.13043030002E+01
 0.11556951426E+01 0.10563435963E+01 0.99946891114E+00 0.98095959529E+00 0.11462453205E+01
 0.12071601729E+01 0.13043064694E+01 0.14438579209E+01 0.16323988921E+01 0.18748725191E+01
 0.21715988535E+01 0.25148448837E+01 0.28861155991E+01 0.32556480279E+01 0.35852090305E+01
 0.38343205149E+01 0.39687347049E+01 0.39687347178E+01 0.38343191551E+01 0.35852034810E+01
 0.32556391816E+01 0.28861120447E+01 0.25148553080E+01 0.21716182773E+01 0.18748838511E+01
 0.16323924799E+01 0.14438425228E+01 0.13042963369E+01 0.12071587279E+01 0.11462470112E+01
 0.11169869557E+01 0.11169861840E+01 0.13684060958E+01 0.14246479586E+01 0.15107946229E+01
 0.16323988921E+01 0.17941675970E+01 0.19981927275E+01 0.22417162388E+01 0.25148435584E+01
 0.27991709745E+01 0.30684585400E+01 0.32920161186E+01 0.34404877691E+01 0.34925771262E+01
 0.34404887557E+01 0.32920211586E+01 0.30684690560E+01 0.27991840374E+01 0.25148530555E+01
 0.22417153789E+01 0.19981789070E+01 0.17941482644E+01 0.16323883823E+01 0.15107995704E+01
 0.14246592204E+01 0.13684110398E+01 0.13370140149E+01 0.13269681478E+01 0.13370155336E+01
 0.16816796437E+01 0.17209824973E+01 0.17836150320E+01 0.18748725191E+01 0.19981927275E+01
 0.21538323781E+01 0.23374184188E+01 0.25386709471E+01 0.27410161577E+01 0.29229014763E+01
 0.30611843839E+01 0.31360640337E+01 0.31360661151E+01 0.30611917734E+01 0.29229125776E+01
 0.27410214229E+01 0.25386600863E+01 0.23373931601E+01 0.21538078955E+01 0.19981851813E+01
 0.18748861177E+01 0.17836398341E+01 0.17210027883E+01 0.16816859561E+01 0.16598336532E+01
 0.16503864374E+01 0.16503898686E+01 0.16598378491E+01 0.21018563659E+01 0.21061651892E+01
 0.21274587734E+01 0.21715988535E+01 0.22417162388E+01 0.23374184188E+01 0.24540875953E+01
 0.25824200891E+01 0.27086991942E+01 0.28163750893E+01 0.28891431751E+01 0.29148982027E+01
 0.28891489846E+01 0.28163773175E+01 0.27086857039E+01 0.25823883703E+01 0.24540530930E+01
 0.23374057634E+01 0.22417367202E+01 0.21716374896E+01 0.21274878252E+01 0.21061703480E+01
 0.21018460776E+01 0.21069936118E+01 0.21139761583E+01 0.21170234030E+01 0.21139797387E+01
 0.21070034981E+01 0.26384838325E+01 0.25824174528E+01 0.25386718474E+01 0.25148448837E+01
 0.25148435584E+01 0.25386709471E+01 0.25824200891E+01 0.26384869728E+01 0.26963055440E+01
 0.27439956979E+01 0.27709919356E+01 0.27709967612E+01 0.27439979648E+01 0.26962860565E+01
 0.26384490886E+01 0.25823930948E+01 0.25386818535E+01 0.25148886399E+01 0.25148908755E+01
 0.25386853512E+01 0.25823943340E+01 0.26384504190E+01 0.26962898078E+01 0.27440005865E+01
 0.27709950527E+01 0.27709891478E+01 0.27439953422E+01 0.26963051151E+01 0.32872673418E+01
 0.31381844670E+01 0.30009518661E+01 0.28861155991E+01 0.27991709745E+01 0.27410161577E+01
 0.27086991942E+01 0.26963055440E+01 0.26960910822E+01 0.27000923118E+01 0.27022008858E+01
 0.27000966530E+01 0.26960777319E+01 0.26962724152E+01 0.27086800144E+01 0.27410409509E+01
 0.27992251776E+01 0.28861532837E+01 0.30009439606E+01 0.31381437612E+01 0.32872298307E+01
 0.34328709024E+01 0.35565692015E+01 0.36400060789E+01 0.36695055926E+01 0.36399877735E+01
 0.35565531896E+01 0.34328801452E+01 0.40233483890E+01 0.37437397488E+01 0.34831044177E+01
 0.32556480279E+01 0.30684585400E+01 0.29229014763E+01 0.28163750893E+01 0.27439956979E+01
 0.27000923118E+01 0.26796384459E+01 0.26796373697E+01 0.27000787751E+01 0.27439642808E+01
 0.28163536022E+01 0.29229223769E+01 0.30685096558E+01 0.32556799859E+01 0.34830887949E+01
 0.37436985940E+01 0.40233218750E+01 0.43002416003E+01 0.45467390791E+01 0.47330977424E+01
 0.48337370021E+01 0.48337319362E+01 0.47330828352E+01 0.45467211053E+01 0.43002387230E+01
 0.47976455113E+01 0.43503479986E+01 0.39404393429E+01 0.35852090305E+01 0.32920161186E+01
 0.30611843839E+01 0.28891431751E+01 0.27709919356E+01 0.27022008858E+01 0.26796373697E+01
 0.27021798934E+01 0.27709539906E+01 0.28891140048E+01 0.30611966499E+01 0.32920658640E+01
 0.35852504922E+01 0.39404364584E+01 0.43503138333E+01 0.47976186656E+01 0.52535815692E+01
 0.56789890932E+01 0.60287187890E+01 0.62596866992E+01 0.63405192158E+01 0.62596878311E+01
 0.60287142541E+01 0.56789798478E+01 0.52535838791E+01 0.55382330803E+01 0.48944969658E+01
 0.43206001764E+01 0.38343205149E+01 0.34404877691E+01 0.31360640337E+01 0.29148982027E+01
 0.27709967612E+01 0.27000966530E+01 0.27000787751E+01 0.27709539906E+01 0.29148629514E+01
 0.31360732160E+01 0.34405447471E+01 0.38343818866E+01 0.43206168687E+01 0.48944629266E+01
 0.55381825665E+01 0.62174198386E+01 0.68808851425E+01 0.74647840953E+01 0.79023923976E+01
 0.81374063317E+01 0.81373962575E+01 0.79023702535E+01 0.74647672067E+01 0.68808892715E+01
 0.62174525033E+01 0.61586182078E+01 0.53078365111E+01 0.45733449203E+01 0.39687347049E+01
 0.34925771262E+01 0.31360661151E+01 0.28891489846E+01 0.27439979648E+01 0.26960777319E+01
 0.27439642808E+01 0.28891140048E+01 0.31360732160E+01 0.34926396283E+01 0.39688115216E+01
 0.45733722630E+01 0.53077892106E+01 0.61585310650E+01 0.70902089741E+01 0.80423577118E+01
 0.89321554329E+01 0.96643808168E+01 0.10148222706E+02 0.10317575058E+02 0.10148164762E+02
 0.96643040492E+01 0.89321082099E+01 0.80423694719E+01 0.70902774289E+01 0.65735844282E+01
 0.55316112158E+01 0.46620740129E+01 0.39687347178E+01 0.34404887557E+01 0.30611917734E+01
 0.28163773175E+01 0.26962860565E+01 0.26962724152E+01 0.28163536022E+01 0.30611966499E+01
 0.34405447471E+01 0.39688115216E+01 0.46621021518E+01 0.55315496369E+01 0.65734693800E+01
 0.77587902909E+01 0.90253615793E+01 0.10276524429E+02 0.11388568470E+02 0.12228709572E+02
 0.12682314804E+02 0.12682285736E+02 0.12228631063E+02 0.11388468710E+02 0.10276451075E+02
 0.90253631987E+01 0.77588760385E+01 0.67197438505E+01 0.55316124675E+01 0.45733496003E+01
 0.38343191551E+01 0.32920211586E+01 0.29229125776E+01 0.27086857039E+01 0.26384490886E+01
 0.27086800144E+01 0.29229223769E+01 0.32920658640E+01 0.38343818866E+01 0.45733722630E+01
 0.55315496369E+01 0.67196267052E+01 0.81228787824E+01 0.96884044697E+01 0.11317410908E+02
 0.12866310873E+02 0.14160861846E+02 0.15026213726E+02 0.15330366891E+02 0.15026234032E+02
 0.14160847563E+02 0.12866229651E+02 0.11317311403E+02 0.96883767451E+01 0.81229557662E+01
 0.65735721105E+01 0.53078489635E+01 0.43206059062E+01 0.35852034810E+01 0.30684690560E+01
 0.27410214229E+01 0.25823883703E+01 0.25823930948E+01 0.27410409509E+01 0.30685096558E+01
 0.35852504922E+01 0.43206168687E+01 0.53077892106E+01 0.65734693800E+01 0.81228787824E+01
 0.99230548416E+01 0.11888508103E+02 0.13873259503E+02 0.15673844039E+02 0.17043471944E+02
 0.17779407656E+02 0.17779475973E+02 0.17043603617E+02 0.15673898890E+02 0.13873180454E+02
 0.11888376269E+02 0.99229960444E+01 0.81229345040E+01 0.61586282259E+01 0.48945259133E+01
 0.39404347503E+01 0.32556391816E+01 0.27991840374E+01 0.25386600863E+01 0.24540530930E+01
 0.25386818535E+01 0.27992251776E+01 0.32556799859E+01 0.39404364584E+01 0.48944629266E+01
 0.61585310650E+01 0.77587902909E+01 0.96884044697E+01 0.11888508103E+02 0.14231646975E+02
 0.16506743477E+02 0.18406093095E+02 0.19656305602E+02 0.20091380076E+02 0.19656468689E+02
 0.18406273964E+02 0.16506790232E+02 0.14231537813E+02 0.11888354907E+02 0.96883350825E+01
 0.77588374311E+01 0.55382814159E+01 0.43503710405E+01 0.34830811832E+01 0.28861120447E+01
 0.25148530555E+01 0.23373931601E+01 0.23374057634E+01 0.25148886399E+01 0.28861532837E+01
 0.34830887949E+01 0.43503138333E+01 0.55381825665E+01 0.70902089741E+01 0.90253615793E+01
 0.11317410908E+02 0.13873259503E+02 0.16506743477E+02 0.18887154383E+02 0.20672715269E+02
 0.21625292859E+02 0.21625385801E+02 0.20672918042E+02 0.18887305897E+02 0.16506735286E+02
 0.13873118333E+02 0.11317260385E+02 0.90253104253E+01 0.70902693352E+01 0.47976993849E+01
 0.37437278089E+01 0.30009223954E+01 0.25148553080E+01 0.22417153789E+01 0.21538078955E+01
 0.22417367202E+01 0.25148908755E+01 0.30009439606E+01 0.37436985940E+01 0.47976186656E+01
 0.62174198386E+01 0.80423577118E+01 0.10276524429E+02 0.12866310873E+02 0.15673844039E+02
 0.18406093095E+02 0.20672715269E+02 0.22162002509E+02 0.22680309826E+02 0.22162177660E+02
 0.20672928416E+02 0.18406189407E+02 0.15673774372E+02 0.12866153255E+02 0.10276403825E+02
 0.80423456537E+01 0.62174933273E+01 0.40233616859E+01 0.31381424528E+01 0.25386622329E+01
 0.21716182773E+01 0.19981789070E+01 0.19981851813E+01 0.21716374896E+01 0.25386853512E+01
 0.31381437612E+01 0.40233218750E+01 0.52535815692E+01 0.68808851425E+01 0.89321554329E+01
 0.11388568470E+02 0.14160861846E+02 0.17043471944E+02 0.19656305602E+02 0.21625292859E+02
 0.22680309826E+02 0.22680413214E+02 0.21625516670E+02 0.19656474679E+02 0.17043480507E+02
 0.14160743837E+02 0.11388436514E+02 0.89320974484E+01 0.68809117409E+01 0.52536430530E+01
 0.32872329083E+01 0.25823829807E+01 0.21274785214E+01 0.18748838511E+01 0.17941482644E+01
 0.18748861177E+01 0.21274878252E+01 0.25823943340E+01 0.32872298307E+01 0.43002416003E+01
 0.56789890932E+01 0.74647840953E+01 0.96643808168E+01 0.12228709572E+02 0.15026213726E+02
 0.17779407656E+02 0.20091380076E+02 0.21625385801E+02 0.22162177660E+02 0.21625516670E+02
 0.20091519455E+02 0.17779442709E+02 0.15026144051E+02 0.12228617608E+02 0.96643364944E+01
 0.74647966247E+01 0.56790263548E+01 0.43002687036E+01 0.26384367668E+01 0.21061650666E+01
 0.17836447087E+01 0.16323924799E+01 0.16323883823E+01 0.17836398341E+01 0.21061703480E+01
 0.26384504190E+01 0.34328709024E+01 0.45467390791E+01 0.60287187890E+01 0.79023923976E+01
 0.10148222706E+02 0.12682314804E+02 0.15330366891E+02 0.17779475973E+02 0.19656468689E+02
 0.20672918042E+02 0.20672928416E+02 0.19656474679E+02 0.17779442709E+02 0.15330307797E+02
 0.12682279186E+02 0.10148235852E+02 0.79024335836E+01 0.60287533334E+01 0.45467502871E+01
 0.34328626080E+01 0.21018322851E+01 0.17210065185E+01 0.15108094744E+01 0.14438425228E+01
 0.15107995704E+01 0.17210027883E+01 0.21018460776E+01 0.26962898078E+01 0.35565692015E+01
 0.47330977424E+01 0.62596866992E+01 0.81374063317E+01 0.10317575058E+02 0.12682285736E+02
 0.15026234032E+02 0.17043603617E+02 0.18406273964E+02 0.18887305897E+02 0.18406189407E+02
 0.17043480507E+02 0.15026144051E+02 0.12682279186E+02 0.10317640463E+02 0.81374852172E+01
 0.62597298147E+01 0.47330976006E+01 0.35565451099E+01 0.26962631678E+01 0.16816834121E+01
 0.14246694723E+01 0.13043030002E+01 0.13042963369E+01 0.14246592204E+01 0.16816859561E+01
 0.21069936118E+01 0.27440005865E+01 0.36400060789E+01 0.48337370021E+01 0.63405192158E+01
 0.81373962575E+01 0.10148164762E+02 0.12228631063E+02 0.14160847563E+02 0.15673898890E+02
 0.16506790232E+02 0.16506735286E+02 0.15673774372E+02 0.14160743837E+02 0.12228617608E+02
 0.10148235852E+02 0.81374852172E+01 0.63405653370E+01 0.48337308014E+01 0.36399738069E+01
 0.27439675598E+01 0.21069729718E+01 0.13684198159E+01 0.12071679599E+01 0.11556951426E+01
 0.12071587279E+01 0.13684110398E+01 0.16598336532E+01 0.21139761583E+01 0.27709950527E+01
 0.36695055926E+01 0.48337319362E+01 0.62596878311E+01 0.79023702535E+01 0.96643040492E+01
 0.11388468710E+02 0.12866229651E+02 0.13873180454E+02 0.14231537813E+02 0.13873118333E+02
 0.12866153255E+02 0.11388436514E+02 0.96643364944E+01 0.79024335836E+01 0.62597298147E+01
 0.48337308014E+01 0.36694786666E+01 0.27709686505E+01 0.21139623587E+01 0.16598330523E+01
 0.11462532825E+01 0.10563455131E+01 0.10563435963E+01 0.11462470112E+01 0.13370140149E+01
 0.16503864374E+01 0.21170234030E+01 0.27709891478E+01 0.36399877735E+01 0.47330828352E+01
 0.60287142541E+01 0.74647672067E+01 0.89321082099E+01 0.10276451075E+02 0.11317311403E+02
 0.11888376269E+02 0.11888354907E+02 0.11317260385E+02 0.10276403825E+02 0.89320974484E+01
 0.74647966247E+01 0.60287533334E+01 0.47330976006E+01 0.36399738069E+01 0.27709686505E+01
 0.21170160157E+01 0.16503926179E+01 0.13370236785E+01 0.99946549646E+00 0.96169011603E+00
 0.99946891114E+00 0.11169869557E+01 0.13269681478E+01 0.16503898686E+01 0.21139797387E+01
 0.27439953422E+01 0.35565531896E+01 0.45467211053E+01 0.56789798478E+01 0.68808892715E+01
 0.80423694719E+01 0.90253631987E+01 0.96883767451E+01 0.99229960444E+01 0.96883350825E+01
 0.90253104253E+01 0.80423456537E+01 0.68809117409E+01 0.56790263548E+01 0.45467502871E+01
 0.35565451099E+01 0.27439675598E+01 0.21139623587E+01 0.16503926179E+01 0.13269774483E+01
 0.11169890229E+01 0.91608018437E+00 0.91608428841E+00 0.98095959529E+00 0.11169861840E+01
 0.13370155336E+01 0.16598378491E+01 0.21070034981E+01 0.26963051151E+01 0.34328801452E+01
 0.43002387230E+01 0.52535838791E+01 0.62174525033E+01 0.70902774289E+01 0.77588760385E+01
 0.81229557662E+01 0.81229345040E+01 0.77588374311E+01 0.70902693352E+01 0.62174933273E+01
 0.52536430530E+01 0.43002687036E+01 0.34328626080E+01 0.26962631678E+01 0.21069729718E+01
 0.16598330523E+01 0.13370236785E+01 0.11169890229E+01 0.98095388386E+00 0.91608308930E+00
 0.96168904183E+00 0.10563451902E+01 0.12071609117E+01 0.14246491758E+01 0.17209841190E+01
 0.21061662573E+01 0.25824177449E+01 0.31381844780E+01 0.37437391978E+01 0.43503460849E+01
 0.48944940919E+01 0.53078341188E+01 0.55316099400E+01 0.55316119941E+01 0.53078495108E+01
 0.48945280981E+01 0.43503743040E+01 0.37437306496E+01 0.31381442384E+01 0.25823840184E+01
 0.21061650943E+01 0.17210048700E+01 0.14246666852E+01 0.12071655202E+01 0.10563439779E+01
 0.96168901431E+00 0.91608370131E+00 0.96168904183E+00 0.10170839739E+01 0.11136440630E+01
 0.12577895962E+01 0.14578741761E+01 0.17221900918E+01 0.20554235222E+01 0.24540865715E+01
 0.29022840102E+01 0.33695965008E+01 0.38125820623E+01 0.41805509330E+01 0.44250397787E+01
 0.45108411775E+01 0.44250484524E+01 0.41805660279E+01 0.38125877200E+01 0.33695741735E+01
 0.29022415444E+01 0.24540586815E+01 0.20554335204E+01 0.17222236906E+01 0.14579002128E+01
 0.12577957748E+01 0.11136417668E+01 0.10170856468E+01 0.96169350597E+00 0.94364053748E+00
 0.10563451902E+01 0.11136440630E+01 0.12046240507E+01 0.13349620682E+01 0.15109845697E+01
 0.17376559045E+01 0.20155510894E+01 0.23374204990E+01 0.26856205691E+01 0.30318590345E+01
 0.33401398501E+01 0.35727625748E+01 0.36981201994E+01 0.36981225712E+01 0.35727645284E+01
 0.33401300935E+01 0.30318328909E+01 0.26855915929E+01 0.23374121143E+01 0.20155711347E+01
 0.17376860178E+01 0.15110008363E+01 0.13349599293E+01 0.12046164983E+01 0.11136419321E+01
 0.10563478386E+01 0.10287118777E+01 0.10287100995E+01 0.12071609117E+01 0.12577895962E+01
 0.13349620682E+01 0.14438245174E+01 0.15890757127E+01 0.17731265601E+01 0.19937340092E+01
 0.22417183024E+01 0.24998321437E+01 0.27437781540E+01 0.29456829114E+01 0.30793981283E+01
 0.31262343113E+01 0.30793990748E+01 0.29456773118E+01 0.27437647896E+01 0.24998233967E+01
 0.22417273211E+01 0.19937561274E+01 0.17731415628E+01 0.15890711808E+01 0.14438094934E+01
 0.13349528117E+01 0.12577894195E+01 0.12071620467E+01 0.11787016558E+01 0.11695463102E+01
 0.11787026780E+01 0.14246491758E+01 0.14578741761E+01 0.15109845697E+01 0.15890757127E+01
 0.16958227645E+01 0.18319701455E+01 0.19937331823E+01 0.21715987653E+01 0.23502690705E+01
 0.25103108757E+01 0.26314633600E+01 0.26968459021E+01 0.26968475506E+01 0.26314653194E+01
 0.25103101804E+01 0.23502699137E+01 0.21716065784E+01 0.19937432848E+01 0.18319704198E+01
 0.16958099302E+01 0.15890620701E+01 0.15109833980E+01 0.14578831382E+01 0.14246551312E+01
 0.14060922807E+01 0.13979880398E+01 0.13979908229E+01 0.14060945694E+01 0.17209841190E+01
 0.17221900918E+01 0.17376559045E+01 0.17731265601E+01 0.18319701455E+01 0.19141712809E+01
 0.20155506109E+01 0.21274594557E+01 0.22373707727E+01 0.23306557904E+01 0.23933934677E+01
 0.24155310868E+01 0.23933954649E+01 0.23306553264E+01 0.22373658555E+01 0.21274528012E+01
 0.20155447308E+01 0.19141663312E+01 0.18319676736E+01 0.17731302414E+01 0.17376659054E+01
 0.17222002628E+01 0.17209877807E+01 0.17271318436E+01 0.17340346636E+01 0.17369199614E+01
 0.17340388950E+01 0.17271349560E+01 0.21061662573E+01 0.20554235222E+01 0.20155510894E+01
 0.19937340092E+01 0.19937331823E+01 0.20155506109E+01 0.20554254467E+01 0.21061686716E+01
 0.21580620866E+01 0.22005242806E+01 0.22244205924E+01 0.22244205792E+01 0.22005198527E+01
 0.21580483339E+01 0.21061512782E+01 0.20554168213E+01 0.20155572470E+01 0.19937509144E+01
 0.19937525959E+01 0.20155601670E+01 0.20554185470E+01 0.21061530844E+01 0.21580514810E+01
 0.22005218921E+01 0.22244194135E+01 0.22244184031E+01 0.22005234987E+01 0.21580612789E+01
 0.25824177449E+01 0.24540865715E+01 0.23374204990E+01 0.22417183024E+01 0.21715987653E+01
 0.21274594557E+01 0.21061686716E+01 0.21018595181E+01 0.21070037906E+01 0.21139794753E+01
 0.21170241545E+01 0.21139749015E+01 0.21069886745E+01 0.21018411890E+01 0.21061685732E+01
 0.21274871217E+01 0.21716362639E+01 0.22417378423E+01 0.23374107880E+01 0.24540582645E+01
 0.25823906291E+01 0.27086870604E+01 0.28163792999E+01 0.28891486868E+01 0.29148940835E+01
 0.28891389754E+01 0.28163737062E+01 0.27086982800E+01 0.31381844780E+01 0.29022840102E+01
 0.26856205691E+01 0.24998321437E+01 0.23502690705E+01 0.22373707727E+01 0.21580620866E+01
 0.21070037906E+01 0.20778971035E+01 0.20650514619E+01 0.20650479498E+01 0.20778844888E+01
 0.21069887160E+01 0.21580680966E+01 0.22374104335E+01 0.23503161496E+01 0.24998437116E+01
 0.26855859661E+01 0.29022354564E+01 0.31381590597E+01 0.33747271439E+01 0.35874100273E+01
 0.37493652655E+01 0.38372044984E+01 0.38371987890E+01 0.37493490473E+01 0.35873903672E+01
 0.33747216277E+01 0.37437391978E+01 0.33695965008E+01 0.30318590345E+01 0.27437781540E+01
 0.25103108757E+01 0.23306557904E+01 0.22005242806E+01 0.21139794753E+01 0.20650514619E+01
 0.20492893743E+01 0.20650396639E+01 0.21139660021E+01 0.22005314547E+01 0.23306958766E+01
 0.25103573411E+01 0.27437829713E+01 0.30318094145E+01 0.33695360388E+01 0.37437198497E+01
 0.41307809794E+01 0.44968517955E+01 0.48012818770E+01 0.50040176881E+01 0.50752830380E+01
 0.50040190779E+01 0.48012667829E+01 0.44968160282E+01 0.41307543033E+01 0.43503460849E+01
 0.38125820623E+01 0.33401398501E+01 0.29456829114E+01 0.26314633600E+01 0.23933934677E+01
 0.22244205924E+01 0.21170241545E+01 0.20650479498E+01 0.20650396639E+01 0.21170108302E+01
 0.22244277553E+01 0.23934335148E+01 0.26315103948E+01 0.29456887807E+01 0.33400884203E+01
 0.38125159543E+01 0.43503233886E+01 0.49265523377E+01 0.54981591187E+01 0.60084749286E+01
 0.63954275468E+01 0.66048388904E+01 0.66048480150E+01 0.63954383396E+01 0.60084583909E+01
 0.54981147427E+01 0.49265208661E+01 0.48944940919E+01 0.41805509330E+01 0.35727625748E+01
 0.30793981283E+01 0.26968459021E+01 0.24155310868E+01 0.22244205792E+01 0.21139749015E+01
 0.20778844888E+01 0.21139660021E+01 0.22244277553E+01 0.24155712805E+01 0.26968968318E+01
 0.30794107287E+01 0.35727140391E+01 0.41804776206E+01 0.48944574908E+01 0.56881563958E+01
 0.65122153110E+01 0.72943673089E+01 0.79468480536E+01 0.83823925703E+01 0.85356896665E+01
 0.83824046063E+01 0.79468495056E+01 0.72943374965E+01 0.65121663988E+01 0.56881336299E+01
 0.53078341188E+01 0.44250397787E+01 0.36981201994E+01 0.31262343113E+01 0.26968475506E+01
 0.23933954649E+01 0.22005198527E+01 0.21069886745E+01 0.21069887160E+01 0.22005314547E+01
 0.23934335148E+01 0.26968968318E+01 0.31262496496E+01 0.36980718490E+01 0.44249550774E+01
 0.53077795339E+01 0.63265298276E+01 0.74318729478E+01 0.85407883425E+01 0.95404711570E+01
 0.10304326504E+02 0.10719765206E+02 0.10719776728E+02 0.10304343797E+02 0.95404592690E+01
 0.85407335918E+01 0.74318086660E+01 0.63265134184E+01 0.55316099400E+01 0.45108411775E+01
 0.36981225712E+01 0.30793990748E+01 0.26314653194E+01 0.23306553264E+01 0.21580483339E+01
 0.21018411890E+01 0.21580680966E+01 0.23306958766E+01 0.26315103948E+01 0.30794107287E+01
 0.36980718490E+01 0.45107483884E+01 0.55315434622E+01 0.67537349773E+01 0.81371933745E+01
 0.95981985135E+01 0.11006635871E+02 0.12197270718E+02 0.12999899324E+02 0.13283903887E+02
 0.12999967655E+02 0.12197334478E+02 0.11006621889E+02 0.95981068435E+01 0.81370987464E+01
 0.67537156472E+01 0.55316119941E+01 0.44250484524E+01 0.35727645284E+01 0.29456773118E+01
 0.25103101804E+01 0.22373658555E+01 0.21061512782E+01 0.21061685732E+01 0.22374104335E+01
 0.25103573411E+01 0.29456887807E+01 0.35727140391E+01 0.44249550774E+01 0.55315434622E+01
 0.69042539131E+01 0.85215773231E+01 0.10312572167E+02 0.12145143462E+02 0.13827175218E+02
 0.15131366661E+02 0.15847556892E+02 0.15847639494E+02 0.15131541480E+02 0.13827292837E+02
 0.12145114746E+02 0.10312437393E+02 0.85214535986E+01 0.69042280828E+01 0.53078495108E+01
 0.41805660279E+01 0.33401300935E+01 0.27437647896E+01 0.23502699137E+01 0.21274528012E+01
 0.20554168213E+01 0.21274871217E+01 0.23503161496E+01 0.27437829713E+01 0.33400884203E+01
 0.41804776206E+01 0.53077795339E+01 0.67537349773E+01 0.85215773231E+01 0.10565590236E+02
 0.12770852372E+02 0.14940958535E+02 0.16808743654E+02 0.18084795234E+02 0.18539518902E+02
 0.18084976929E+02 0.16808966039E+02 0.14941062719E+02 0.12770787031E+02 0.10565431851E+02
 0.85214499857E+01 0.67537136108E+01 0.48945280981E+01 0.38125877200E+01 0.30318328909E+01
 0.24998233967E+01 0.21716065784E+01 0.20155447308E+01 0.20155572470E+01 0.21716362639E+01
 0.24998437116E+01 0.30318094145E+01 0.38125159543E+01 0.48944574908E+01 0.63265298276E+01
 0.81371933745E+01 0.10312572167E+02 0.12770852372E+02 0.15337888573E+02 0.17738783985E+02
 0.19627643810E+02 0.20670994260E+02 0.20671070374E+02 0.19627818552E+02 0.17738939094E+02
 0.15337929409E+02 0.12770768706E+02 0.10312434631E+02 0.81370980356E+01 0.63265294692E+01
 0.43503743040E+01 0.33695741735E+01 0.26855915929E+01 0.22417273211E+01 0.19937432848E+01
 0.19141663312E+01 0.19937509144E+01 0.22417378423E+01 0.26855859661E+01 0.33695360388E+01
 0.43503233886E+01 0.56881563958E+01 0.74318729478E+01 0.95981985135E+01 0.12145143462E+02
 0.14940958535E+02 0.17738783985E+02 0.20179045251E+02 0.21851581030E+02 0.22446853954E+02
 0.21851636025E+02 0.20179125761E+02 0.17738846174E+02 0.14940965598E+02 0.12145088497E+02
 0.95981176159E+01 0.74318246370E+01 0.56881707847E+01 0.37437306496E+01 0.29022415444E+01
 0.23374121143E+01 0.19937561274E+01 0.18319704198E+01 0.18319676736E+01 0.19937525959E+01
 0.23374107880E+01 0.29022354564E+01 0.37437198497E+01 0.49265523377E+01 0.65122153110E+01
 0.85407883425E+01 0.11006635871E+02 0.13827175218E+02 0.16808743654E+02 0.19627643810E+02
 0.21851581030E+02 0.23079603785E+02 0.23079596853E+02 0.21851569097E+02 0.19627645568E+02
 0.16808766622E+02 0.13827200875E+02 0.11006636852E+02 0.85407633077E+01 0.65121919489E+01
 0.49265507949E+01 0.31381442384E+01 0.24540586815E+01 0.20155711347E+01 0.17731415628E+01
 0.16958099302E+01 0.17731302414E+01 0.20155601670E+01 0.24540582645E+01 0.31381590597E+01
 0.41307809794E+01 0.54981591187E+01 0.72943673089E+01 0.95404711570E+01 0.12197270718E+02
 0.15131366661E+02 0.18084795234E+02 0.20670994260E+02 0.22446853954E+02 0.23079596853E+02
 0.22446791991E+02 0.20670913942E+02 0.18084757226E+02 0.15131399801E+02 0.12197342717E+02
 0.95405206760E+01 0.72943653909E+01 0.54981262583E+01 0.41307501554E+01 0.25823840184E+01
 0.20554335204E+01 0.17376860178E+01 0.15890711808E+01 0.15890620701E+01 0.17376659054E+01
 0.20554185470E+01 0.25823906291E+01 0.33747271439E+01 0.44968517955E+01 0.60084749286E+01
 0.79468480536E+01 0.10304326504E+02 0.12999899324E+02 0.15847556892E+02 0.18539518902E+02
 0.20671070374E+02 0.21851636025E+02 0.21851569097E+02 0.20670913942E+02 0.18539378676E+02
 0.15847525997E+02 0.12999983734E+02 0.10304443356E+02 0.79469074064E+01 0.60084569695E+01
 0.44968006160E+01 0.33746904254E+01 0.21061650943E+01 0.17222236906E+01 0.15110008363E+01
 0.14438094934E+01 0.15109833980E+01 0.17222002628E+01 0.21061530844E+01 0.27086870604E+01
 0.35874100273E+01 0.48012818770E+01 0.63954275468E+01 0.83823925703E+01 0.10719765206E+02
 0.13283903887E+02 0.15847639494E+02 0.18084976929E+02 0.19627818552E+02 0.20179125761E+02
 0.19627645568E+02 0.18084757226E+02 0.15847525997E+02 0.13283954925E+02 0.10719907323E+02
 0.83825017093E+01 0.63954419211E+01 0.48012323674E+01 0.35873599919E+01 0.27086698856E+01
 0.17210048700E+01 0.14579002128E+01 0.13349599293E+01 0.13349528117E+01 0.14578831382E+01
 0.17209877807E+01 0.21580514810E+01 0.28163792999E+01 0.37493652655E+01 0.50040176881E+01
 0.66048388904E+01 0.85356896665E+01 0.10719776728E+02 0.12999967655E+02 0.15131541480E+02
 0.16808966039E+02 0.17738939094E+02 0.17738846174E+02 0.16808766622E+02 0.15131399801E+02
 0.12999983734E+02 0.10719907323E+02 0.85358097463E+01 0.66048665459E+01 0.50039696900E+01
 0.37493070631E+01 0.28163520790E+01 0.21580546878E+01 0.14246666852E+01 0.12577957748E+01
 0.12046164983E+01 0.12577894195E+01 0.14246551312E+01 0.17271318436E+01 0.22005218921E+01
 0.28891486868E+01 0.38372044984E+01 0.50752830380E+01 0.66048480150E+01 0.83824046063E+01
 0.10304343797E+02 0.12197334478E+02 0.13827292837E+02 0.14941062719E+02 0.15337929409E+02
 0.14940965598E+02 0.13827200875E+02 0.12197342717E+02 0.10304443356E+02 0.83825017093E+01
 0.66048665459E+01 0.50752308566E+01 0.38371425256E+01 0.28891198865E+01 0.22005245508E+01
 0.17271452835E+01 0.12071655202E+01 0.11136417668E+01 0.11136419321E+01 0.12071620467E+01
 0.14060922807E+01 0.17340346636E+01 0.22244194135E+01 0.29148940835E+01 0.38371987890E+01
 0.50040190779E+01 0.63954383396E+01 0.79468495056E+01 0.95404592690E+01 0.11006621889E+02
 0.12145114746E+02 0.12770787031E+02 0.12770768706E+02 0.12145088497E+02 0.11006636852E+02
 0.95405206760E+01 0.79469074064E+01 0.63954419211E+01 0.50039696900E+01 0.38371425256E+01
 0.29148711354E+01 0.22244314581E+01 0.17340575594E+01 0.14061064975E+01 0.10563439779E+01
 0.10170856468E+01 0.10563478386E+01 0.11787016558E+01 0.13979880398E+01 0.17369199614E+01
 0.22244184031E+01 0.28891389754E+01 0.37493490473E+01 0.48012667829E+01 0.60084583909E+01
 0.72943374965E+01 0.85407335918E+01 0.95981068435E+01 0.10312437393E+02 0.10565431851E+02
 0.10312434631E+02 0.95981176159E+01 0.85407633077E+01 0.72943653909E+01 0.60084569695E+01
 0.48012323674E+01 0.37493070631E+01 0.28891198865E+01 0.22244314581E+01 0.17369491114E+01
 0.13980098958E+01 0.11787064223E+01 0.96168901431E+00 0.96169350597E+00 0.10287118777E+01
 0.11695463102E+01 0.13979908229E+01 0.17340388950E+01 0.22005234987E+01 0.28163737062E+01
 0.35873903672E+01 0.44968160282E+01 0.54981147427E+01 0.65121663988E+01 0.74318086660E+01
 0.81370987464E+01 0.85214535986E+01 0.85214499857E+01 0.81370980356E+01 0.74318246370E+01
 0.65121919489E+01 0.54981262583E+01 0.44968006160E+01 0.35873599919E+01 0.28163520790E+01
 0.22005245508E+01 0.17340575594E+01 0.13980098958E+01 0.11695520832E+01 0.10287060002E+01
 0.91608370131E+00 0.94364053748E+00 0.10287100995E+01 0.11787026780E+01 0.14060945694E+01
 0.17271349560E+01 0.21580612789E+01 0.27086982800E+01 0.33747216277E+01 0.41307543033E+01
 0.49265208661E+01 0.56881336299E+01 0.63265134184E+01 0.67537156472E+01 0.69042280828E+01
 0.67537136108E+01 0.63265294692E+01 0.56881707847E+01 0.49265507949E+01 0.41307501554E+01
 0.33746904254E+01 0.27086698856E+01 0.21580546878E+01 0.17271452835E+01 0.14061064975E+01
 0.11787064223E+01 0.10287060002E+01 0.94363534479E+00 0.99946772437E+00 0.10563468223E+01
 0.11557040368E+01 0.13043071744E+01 0.15107958874E+01 0.17836164480E+01 0.21274587066E+01
 0.25386703245E+01 0.30009501233E+01 0.34831022944E+01 0.39404359988E+01 0.43205967763E+01
 0.45733437121E+01 0.46620752063E+01 0.45733517991E+01 0.43206089005E+01 0.39404390471E+01
 0.34830854629E+01 0.30009244036E+01 0.25386617799E+01 0.21274769694E+01 0.17836421996E+01
 0.15108054626E+01 0.13042988031E+01 0.11556929818E+01 0.10563435417E+01 0.99946944951E+00
 0.98096056829E+00 0.10563468223E+01 0.11136453746E+01 0.12046245030E+01 0.13349620186E+01
 0.15109846154E+01 0.17376557128E+01 0.20155499919E+01 0.23374187347E+01 0.26856188579E+01
 0.30318574903E+01 0.33401384415E+01 0.35727620618E+01 0.36981213779E+01 0.36981250218E+01
 0.35727671861E+01 0.33401325325E+01 0.30318349914E+01 0.26855925974E+01 0.23374112834E+01
 0.20155689097E+01 0.17376834403E+01 0.15109983106E+01 0.13349575854E+01 0.12046151098E+01
 0.11136422166E+01 0.10563493058E+01 0.10287134958E+01 0.10287116285E+01 0.11557040368E+01
 0.12046245030E+01 0.12789778729E+01 0.13837487984E+01 0.15236235250E+01 0.17011207747E+01