    2    2   15    1
  0.2001288E+02  0.3839590E-09  0.3839590E-09  0.3839590E-09  0.5000000E-15
  1.000000000000000E-004
  CAR 
 unknown system                          
      8    182      8
 
  0.4166667E-01  0.4166667E-01  0.4166667E-01  0.1157407E-02
    1       -6.108100   1.000000
    2        5.596548   0.999952
    3        5.815212   0.990717
    4        5.815212   0.990717
    5        8.476382   0.000000
    6        8.482616   0.000000
    7        8.482616   0.000000
    8        9.372818   0.000000
 
  0.1250000E+00  0.4166667E-01  0.4166667E-01  0.3472222E-02
    1       -5.986943   1.000000
    2        4.704222   1.000000
    3        5.387815   1.000000
    4        5.760554   0.996934
    5        8.559239   0.000000
    6        8.600893   0.000000
    7        8.803678   0.000000
    8       10.192011   0.000000
 
  0.2083333E+00  0.4166667E-01  0.4166667E-01  0.3472222E-02
    1       -5.687696   1.000000
    2        3.189830   1.000000
    3        5.016233   1.000000
    4        5.488721   0.999998
    5        8.302704   0.000000
    6        8.993893   0.000000
    7        9.299348   0.000000
    8       11.520396   0.000000
 
  0.2916667E+00  0.4166667E-01  0.4166667E-01  0.3472222E-02
    1       -5.222888   1.000000
    2        1.666933   1.000000
    3        4.718779   1.000000
    4        5.169103   1.000000
    5        7.993476   0.000000
    6        9.285359   0.000000
    7        9.543647   0.000000
    8       12.644564   0.000000
 
  0.3750000E+00  0.4166667E-01  0.4166667E-01  0.3472222E-02
    1       -4.628368   1.000000
    2        0.297127   1.000000
    3        4.522808   1.000000
    4        4.894060   1.000000
    5        7.748383   0.000000
    6        9.323403   0.000000
    7        9.459578   0.000000
    8       13.526125   0.000000
 
  0.4583333E+00  0.4166667E-01  0.4166667E-01  0.3472222E-02
    1       -4.021287   1.000000
    2       -0.762649   1.000000
    3        4.441506   1.000000
    4        4.697402   1.000000
    5        7.602456   0.000000
    6        9.280764   0.000000
    7        9.285715   0.000000
    8       13.707514   0.000000
 
 -0.4583333E+00  0.4166667E-01  0.4166667E-01  0.3472222E-02
    1       -3.787954   1.000000
    2       -1.110088   1.000000
    3        4.470790   1.000000
    4        4.595343   1.000000
    5        7.566318   0.000000
    6        9.180098   0.000000
    7        9.317462   0.000000
    8       13.672906   0.000000
 
 -0.3750000E+00  0.4166667E-01  0.4166667E-01  0.3472222E-02
    1       -4.209546   1.000000
    2       -0.461284   1.000000
    3        4.598875   1.000000
    4        4.603976   1.000000
    5        7.641872   0.000000
    6        9.189480   0.000000
    7        9.447716   0.000000
    8       13.620809   0.000000
 
 -0.2916667E+00  0.4166667E-01  0.4166667E-01  0.3472222E-02
    1       -4.836563   1.000000
    2        0.728992   1.000000
    3        4.713269   1.000000
    4        4.832140   1.000000
    5        7.825485   0.000000
    6        9.239648   0.000000
    7        9.614513   0.000000
    8       12.871118   0.000000
 
 -0.2083333E+00  0.4166667E-01  0.4166667E-01  0.3472222E-02
    1       -5.394711   1.000000
    2        2.163249   1.000000
    3        4.934118   1.000000
    4        5.133444   1.000000
    5        8.093789   0.000000
    6        9.135773   0.000000
    7        9.611506   0.000000
    8       12.073212   0.000000
 
 -0.1250000E+00  0.4166667E-01  0.4166667E-01  0.3472222E-02
    1       -5.806590   1.000000
    2        3.714189   1.000000
    3        5.244888   1.000000
    4        5.461976   0.999999
    5        8.373744   0.000000
    6        8.797316   0.000000
    7        9.272991   0.000000
    8       11.041647   0.000000
 
 -0.4166667E-01  0.4166667E-01  0.4166667E-01  0.3472222E-02
    1       -6.047406   1.000000
    2        5.174340   1.000000
    3        5.585818   0.999965
    4        5.691545   0.999378
    5        8.343619   0.000000
    6        8.688257   0.000000
    7        8.783068   0.000000
    8        9.759216   0.000000
 
  0.1250000E+00  0.1250000E+00  0.4166667E-01  0.3472222E-02
    1       -5.926148   1.000000
    2        4.624389   1.000000
    3        5.236431   1.000000
    4        5.343483   1.000000
    5        8.102480   0.000000
    6        9.124254   0.000000
    7        9.276880   0.000000
    8       10.252114   0.000000
 
  0.2083333E+00  0.1250000E+00  0.4166667E-01  0.6944444E-02
    1       -5.685789   1.000000
    2        3.579267   1.000000
    3        4.642049   1.000000
    4        5.197779   1.000000
    5        8.118044   0.000000
    6        9.316392   0.000000
    7        9.787570   0.000000
    8       10.824537   0.000000
 
  0.2916667E+00  0.1250000E+00  0.4166667E-01  0.6944444E-02
    1       -5.274661   1.000000
    2        2.147931   1.000000
    3        4.258285   1.000000
    4        4.903616   1.000000
    5        8.323832   0.000000
    6        9.266423   0.000000
    7       10.171649   0.000000
    8       11.019502   0.000000
 
  0.3750000E+00  0.1250000E+00  0.4166667E-01  0.6944444E-02
    1       -4.717331   1.000000
    2        0.760641   1.000000
    3        3.996515   1.000000
    4        4.595797   1.000000
    5        8.277109   0.000000
    6        9.257005   0.000000
    7       10.170759   0.000000
    8       11.623789   0.000000
 
  0.4583333E+00  0.1250000E+00  0.4166667E-01  0.6944444E-02
    1       -4.089796   1.000000
    2       -0.408766   1.000000
    3        3.817223   1.000000
    4        4.399166   1.000000
    5        8.169291   0.000000
    6        9.165440   0.000000
    7        9.995966   0.000000
    8       12.764840   0.000000
 
 -0.4583333E+00  0.1250000E+00  0.4166667E-01  0.6944444E-02
    1       -3.666692   1.000000
    2       -1.051480   1.000000
    3        3.693289   1.000000
    4        4.374041   1.000000
    5        8.135781   0.000000
    6        9.114097   0.000000
    7        9.856886   0.000000
    8       13.889013   0.000000
 
 -0.3750000E+00  0.1250000E+00  0.4166667E-01  0.6944444E-02
    1       -3.902581   1.000000
    2       -0.704188   1.000000
    3        3.643296   1.000000
    4        4.510913   1.000000
    5        8.199982   0.000000
    6        9.154955   0.000000
    7        9.835334   0.000000
    8       13.595714   0.000000
 
 -0.2916667E+00  0.1250000E+00  0.4166667E-01  0.6944444E-02
    1       -4.510731   1.000000
    2        0.341623   1.000000
    3        3.703031   1.000000
    4        4.770053   1.000000
    5        8.354318   0.000000
    6        9.241680   0.000000
    7        9.915936   0.000000
    8       12.430573   0.000000
 
 -0.2083333E+00  0.1250000E+00  0.4166667E-01  0.6944444E-02
    1       -5.104420   1.000000
    2        1.670779   1.000000
    3        3.900546   1.000000
    4        5.100648   1.000000
    5        8.564218   0.000000
    6        9.192267   0.000000
    7        9.939422   0.000000
    8       11.573719   0.000000
 
 -0.1250000E+00  0.1250000E+00  0.4166667E-01  0.6944444E-02
    1       -5.567866   1.000000
    2        3.074180   1.000000
    3        4.286084   1.000000
    4        5.421583   1.000000
    5        8.616397   0.000000
    6        9.018364   0.000000
    7        9.610141   0.000000
    8       11.240908   0.000000
 
 -0.4166667E-01  0.1250000E+00  0.4166667E-01  0.6944444E-02
    1       -5.866217   1.000000
    2        4.157359   1.000000
    3        5.036227   1.000000
    4        5.577664   0.999973
    5        8.391875   0.000000
    6        8.865547   0.000000
    7        9.197630   0.000000
    8       10.695363   0.000000
 
  0.2083333E+00  0.2083333E+00  0.4166667E-01  0.3472222E-02
    1       -5.504289   1.000000
    2        3.327518   1.000000
    3        4.472465   1.000000
    4        4.488070   1.000000
    5        7.502951   0.000000
    6        9.931775   0.000000
    7       10.508513   0.000000
    8       10.541824   0.000000
 
  0.2916667E+00  0.2083333E+00  0.4166667E-01  0.6944444E-02
    1       -5.149122   1.000000
    2        2.359142   1.000000
    3        3.882566   1.000000
    4        4.305285   1.000000
    5        7.539556   0.000000
    6        9.555785   0.000000
    7       10.717262   0.000000
    8       11.156493   0.000000
 
  0.3750000E+00  0.2083333E+00  0.4166667E-01  0.6944444E-02
    1       -4.637221   1.000000
    2        1.144379   1.000000
    3        3.427092   1.000000
    4        4.037344   1.000000
    5        7.801719   0.000000
    6        9.776992   0.000000
    7       10.518391   0.000000
    8       11.359697   0.000000
 
  0.4583333E+00  0.2083333E+00  0.4166667E-01  0.6944444E-02
    1       -4.017682   1.000000
    2       -0.016253   1.000000
    3        3.032869   1.000000
    4        3.897433   1.000000
    5        7.875204   0.000000
    6       10.247212   0.000000
    7       10.783397   0.000000
    8       11.228632   0.000000
 
 -0.4583333E+00  0.2083333E+00  0.4166667E-01  0.6944444E-02
    1       -3.470044   1.000000
    2       -0.846904   1.000000
    3        2.721363   1.000000
    4        3.933829   1.000000
    5        7.950613   0.000000
    6       10.020721   0.000000
    7       11.033776   0.000000
    8       12.226940   0.000000
 
 -0.3750000E+00  0.2083333E+00  0.4166667E-01  0.6944444E-02
    1       -3.480661   1.000000
    2       -0.828247   1.000000
    3        2.537821   1.000000
    4        4.126150   1.000000
    5        8.151151   0.000000
    6        9.873686   0.000000
    7       10.901032   0.000000
    8       13.582036   0.000000
 
 -0.2916667E+00  0.2083333E+00  0.4166667E-01  0.6944444E-02
    1       -4.034387   1.000000
    2        0.015452   1.000000
    3        2.526254   1.000000
    4        4.440248   1.000000
    5        8.467104   0.000000
    6        9.786346   0.000000
    7       10.818513   0.000000
    8       12.206385   0.000000
 
 -0.2083333E+00  0.2083333E+00  0.4166667E-01  0.6944444E-02
    1       -4.651144   1.000000
    2        1.119160   1.000000
    3        2.772830   1.000000
    4        4.822227   1.000000
    5        8.830720   0.000000
    6        9.558354   0.000000
    7       10.636981   0.000000
    8       11.269745   0.000000
 
 -0.1250000E+00  0.2083333E+00  0.4166667E-01  0.6944444E-02
    1       -5.158907   1.000000
    2        2.048306   1.000000
    3        3.502584   1.000000
    4        5.167678   1.000000
    5        8.921310   0.000000
    6        9.131245   0.000000
    7       10.079899   0.000000
    8       11.192976   0.000000
 
 -0.4166667E-01  0.2083333E+00  0.4166667E-01  0.6944444E-02
    1       -5.510004   1.000000
    2        2.662847   1.000000
    3        4.651797   1.000000
    4        5.295106   1.000000
    5        8.395280   0.000000
    6        8.995077   0.000000
    7        9.666761   0.000000
    8       11.552275   0.000000
 
  0.2916667E+00  0.2916667E+00  0.4166667E-01  0.3472222E-02
    1       -4.849601   1.000000
    2        1.899178   1.000000
    3        3.757872   1.000000
    4        3.811134   1.000000
    5        6.962611   0.000000
    6        8.756325   0.000000
    7       11.891018   0.000000
    8       11.962974   0.000000
 
  0.3750000E+00  0.2916667E+00  0.4166667E-01  0.6944444E-02
    1       -4.387557   1.000000
    2        1.048705   1.000000
    3        3.260271   1.000000
    4        3.580384   1.000000
    5        7.079852   0.000000
    6        8.437631   0.000000
    7       12.040019   0.000000
    8       12.653947   0.000000
 
  0.4583333E+00  0.2916667E+00  0.4166667E-01  0.6944444E-02
    1       -3.794389   1.000000
    2        0.105525   1.000000
    3        2.624103   1.000000
    4        3.450442   1.000000
    5        7.320958   0.000000
    6        8.980491   0.000000
    7       11.816915   0.000000
    8       12.736631   0.000000
 
 -0.4583333E+00  0.2916667E+00  0.4166667E-01  0.6944444E-02
    1       -3.182434   1.000000
    2       -0.722327   1.000000
    3        2.073304   1.000000
    4        3.490899   1.000000
    5        7.434695   0.000000
    6       10.246270   0.000000
    7       11.548864   0.000000
    8       12.567063   0.000000
 
 -0.3750000E+00  0.2916667E+00  0.4166667E-01  0.6944444E-02
    1       -2.976068   1.000000
    2       -0.965684   1.000000
    3        1.732408   1.000000
    4        3.687240   1.000000
    5        7.654630   0.000000
    6       11.194623   0.000000
    7       11.926176   0.000000
    8       12.405517   0.000000
 
 -0.2916667E+00  0.2916667E+00  0.4166667E-01  0.6944444E-02
    1       -3.444799   1.000000
    2       -0.389815   1.000000
    3        1.694688   1.000000
    4        4.013487   1.000000
    5        8.017166   0.000000
    6       10.953305   0.000000
    7       12.028919   0.000000
    8       12.252372   0.000000
 
 -0.2083333E+00  0.2916667E+00  0.4166667E-01  0.6944444E-02
    1       -4.066048   1.000000
    2        0.303022   1.000000
    3        2.152554   1.000000
    4        4.422217   1.000000
    5        8.463827   0.000000
    6       10.194565   0.000000
    7       11.296815   0.000000
    8       11.641447   0.000000
 
 -0.1250000E+00  0.2916667E+00  0.4166667E-01  0.6944444E-02
    1       -4.603593   1.000000
    2        0.779188   1.000000
    3        3.169898   1.000000
    4        4.806532   1.000000
    5        8.687858   0.000000
    6        9.369095   0.000000
    7       10.282082   0.000000
    8       11.763165   0.000000
 
 -0.4166667E-01  0.2916667E+00  0.4166667E-01  0.6944444E-02
    1       -4.996328   1.000000
    2        1.196998   1.000000
    3        4.381847   1.000000
    4        4.971456   1.000000
    5        8.151459   0.000000
    6        9.198310   0.000000
    7        9.780979   0.000000
    8       12.165750   0.000000
 
  0.3750000E+00  0.3750000E+00  0.4166667E-01  0.3472222E-02
    1       -3.974735   1.000000
    2        0.440145   1.000000
    3        3.239172   1.000000
    4        3.330807   1.000000
    5        6.613840   0.000496
    6        7.697166   0.000000
    7       13.433190   0.000000
    8       13.465582   0.000000
 
  0.4583333E+00  0.3750000E+00  0.4166667E-01  0.6944444E-02
    1       -3.418537   1.000000
    2       -0.311182   1.000000
    3        2.836145   1.000000
    4        3.128603   1.000000
    5        6.826402   0.000001
    6        7.602143   0.000000
    7       13.472026   0.000000
    8       14.221833   0.000000
 
 -0.4583333E+00  0.3750000E+00  0.4166667E-01  0.6944444E-02
    1       -2.785715   1.000000
    2       -1.019358   1.000000
    3        2.118072   1.000000
    4        3.145261   1.000000
    5        7.017592   0.000000
    6        8.531564   0.000000
    7       13.208715   0.000000
    8       14.234976   0.000000
 
 -0.3750000E+00  0.3750000E+00  0.4166667E-01  0.6944444E-02
    1       -2.436668   1.000000
    2       -1.350044   1.000000
    3        1.568527   1.000000
    4        3.321765   1.000000
    5        7.227266   0.000000
    6       10.031856   0.000000
    7       12.870823   0.000000
    8       13.718919   0.000000
 
 -0.2916667E+00  0.3750000E+00  0.4166667E-01  0.6944444E-02
    1       -2.862851   1.000000
    2       -0.947409   1.000000
    3        1.470467   1.000000
    4        3.636900   1.000000
    5        7.587727   0.000000
    6       11.586388   0.000000
    7       12.074257   0.000000
    8       12.842133   0.000000
 
 -0.2083333E+00  0.3750000E+00  0.4166667E-01  0.6944444E-02
    1       -3.452850   1.000000
    2       -0.586563   1.000000
    3        2.025143   1.000000
    4        4.051560   1.000000
    5        8.065087   0.000000
    6       10.436484   0.000000
    7       11.519355   0.000000
    8       12.838923   0.000000
 
 -0.1250000E+00  0.3750000E+00  0.4166667E-01  0.6944444E-02
    1       -3.976141   1.000000
    2       -0.358565   1.000000
    3        3.066927   1.000000
    4        4.471972   1.000000
    5        8.421035   0.000000
    6        9.369827   0.000000
    7       10.290820   0.000000
    8       12.920988   0.000000
 
 -0.4166667E-01  0.3750000E+00  0.4166667E-01  0.6944444E-02
    1       -4.376756   1.000000
    2       -0.084944   1.000000
    3        4.223383   1.000000
    4        4.705048   1.000000
    5        7.948838   0.000000
    6        9.187917   0.000000
    7        9.642703   0.000000
    8       13.140867   0.000000
 
  0.4583333E+00  0.4583333E+00  0.4166667E-01  0.3472222E-02
    1       -2.899210   1.000000
    2       -0.978182   1.000000
    3        2.948711   1.000000
    4        3.057747   1.000000
    5        6.516994   0.004551
    6        6.980074   0.000000
    7       14.997073   0.000000
    8       15.016189   0.000000
 
 -0.4583333E+00  0.4583333E+00  0.4166667E-01  0.6944444E-02
    1       -2.271636   1.000000
    2       -1.639194   1.000000
    3        2.648799   1.000000
    4        2.939960   1.000000
    5        6.777281   0.000004
    6        7.172566   0.000000
    7       14.956434   0.000000
    8       15.507332   0.000000
 
 -0.3750000E+00  0.4583333E+00  0.4166667E-01  0.6944444E-02
    1       -2.262600   1.000000
    2       -1.569187   1.000000
    3        2.015490   1.000000
    4        3.085634   1.000000
    5        6.956493   0.000000
    6        8.440880   0.000000
    7       13.915504   0.000000
    8       14.653128   0.000000
 
 -0.2916667E+00  0.4583333E+00  0.4166667E-01  0.6944444E-02
    1       -2.762317   1.000000
    2       -1.068191   1.000000
    3        1.743344   1.000000
    4        3.377865   1.000000
    5        7.297045   0.000000
    6       10.105143   0.000000
    7       12.214634   0.000000
    8       13.289907   0.000000
 
 -0.2083333E+00  0.4583333E+00  0.4166667E-01  0.6944444E-02
    1       -3.189065   1.000000
    2       -0.945241   1.000000
    3        2.177493   1.000000
    4        3.786052   1.000000
    5        7.781476   0.000000
    6       10.605692   0.000000
    7       11.660486   0.000000
    8       12.076871   0.000000
 
 -0.1250000E+00  0.4583333E+00  0.4166667E-01  0.6944444E-02
    1       -3.547486   1.000000
    2       -1.001245   1.000000
    3        3.121040   1.000000
    4        4.233821   1.000000
    5        8.221838   0.000000
    6        9.384809   0.000000
    7       10.331479   0.000000
    8       13.918136   0.000000
 
 -0.4166667E-01  0.4583333E+00  0.4166667E-01  0.6944444E-02
    1       -3.832125   1.000000
    2       -0.967086   1.000000
    3        4.160340   1.000000
    4        4.549421   1.000000
    5        7.841060   0.000000
    6        9.138033   0.000000
    7        9.503720   0.000000
    8       13.787554   0.000000
 
 -0.4583333E+00 -0.4583333E+00  0.4166667E-01  0.3472222E-02
    1       -2.295340   1.000000
    2       -1.652931   1.000000
    3        2.890314   1.000000
    4        3.002764   1.000000
    5        6.564367   0.001624
    6        6.764260   0.000007
    7       15.684797   0.000000
    8       15.736840   0.000000
 
 -0.3750000E+00 -0.4583333E+00  0.4166667E-01  0.6944444E-02
    1       -2.864699   1.000000
    2       -0.984646   1.000000
    3        2.711381   1.000000
    4        3.002668   1.000000
    5        6.782609   0.000004
    6        7.328046   0.000000
    7       14.217259   0.000000
    8       15.000293   0.000000
 
 -0.2916667E+00 -0.4583333E+00  0.4166667E-01  0.6944444E-02
    1       -3.306826   1.000000
    2       -0.448983   1.000000
    3        2.322628   1.000000
    4        3.265387   1.000000
    5        7.140543   0.000000
    6        8.709252   0.000000
    7       12.499060   0.000000
    8       13.481653   0.000000
 
 -0.2083333E+00 -0.4583333E+00  0.4166667E-01  0.6944444E-02
    1       -3.610664   1.000000
    2       -0.372396   1.000000
    3        2.521046   1.000000
    4        3.661593   1.000000
    5        7.630827   0.000000
    6       10.449697   0.000000
    7       10.912016   0.000000
    8       11.868602   0.000000
 
 -0.1250000E+00 -0.4583333E+00  0.4166667E-01  0.6944444E-02
    1       -3.780596   1.000000
    2       -0.665464   1.000000
    3        3.293486   1.000000
    4        4.135327   1.000000
    5        8.126586   0.000000
    6        9.496232   0.000000
    7       10.466572   0.000000
    8       12.461741   0.000000
 
 -0.3750000E+00 -0.3750000E+00  0.4166667E-01  0.3472222E-02
    1       -3.460438   1.000000
    2       -0.278161   1.000000
    3        3.065163   1.000000
    4        3.167057   1.000000
    5        6.530989   0.003393
    6        7.293681   0.000000
    7       14.223171   0.000000
    8       14.230679   0.000000
 
 -0.2916667E+00 -0.3750000E+00  0.4166667E-01  0.6944444E-02
    1       -3.927622   1.000000
    2        0.370054   1.000000
    3        3.020300   1.000000
    4        3.320003   1.000000
    5        6.923514   0.000000
    6        7.974073   0.000000
    7       12.744319   0.000000
    8       13.431116   0.000000
 
 -0.2083333E+00 -0.3750000E+00  0.4166667E-01  0.6944444E-02
    1       -4.239864   1.000000
    2        0.635304   1.000000
    3        3.004153   1.000000
    4        3.703825   1.000000
    5        7.544061   0.000000
    6        9.340902   0.000000
    7       11.151666   0.000000
    8       12.026583   0.000000
 
 -0.1250000E+00 -0.3750000E+00  0.4166667E-01  0.6944444E-02
    1       -4.389404   1.000000
    2        0.357989   1.000000
    3        3.544760   1.000000
    4        4.209223   1.000000
    5        8.126840   0.000000
    6        9.681581   0.000000
    7       10.648472   0.000000
    8       11.165562   0.000000
 
 -0.2916667E+00 -0.2916667E+00  0.4166667E-01  0.3472222E-02
    1       -4.438662   1.000000
    2        1.168665   1.000000
    3        3.470044   1.000000
    4        3.546530   1.000000
    5        6.759283   0.000008
    6        8.187791   0.000000
    7       12.653672   0.000000
    8       12.702930   0.000000
 
 -0.2083333E+00 -0.2916667E+00  0.4166667E-01  0.6944444E-02
    1       -4.795559   1.000000
    2        1.713899   1.000000
    3        3.549542   1.000000
    4        3.909850   1.000000
    5        7.286402   0.000000
    6        8.979055   0.000000
    7       11.355804   0.000000
    8       11.894953   0.000000
 
 -0.1250000E+00 -0.2916667E+00  0.4166667E-01  0.6944444E-02
    1       -4.983076   1.000000
    2        1.644404   1.000000
    3        3.850213   1.000000
    4        4.451190   1.000000
    5        8.076566   0.000000
    6        9.778735   0.000000
    7       10.424899   0.000000
    8       10.753400   0.000000
 
 -0.2083333E+00 -0.2083333E+00  0.4166667E-01  0.3472222E-02
    1       -5.205371   1.000000
    2        2.621807   1.000000
    3        4.098108   1.000000
    4        4.121603   1.000000
    5        7.214570   0.000000
    6        9.374531   0.000000
    7       11.160084   0.000000
    8       11.242785   0.000000
 
 -0.1250000E+00 -0.2083333E+00  0.4166667E-01  0.6944444E-02
    1       -5.446372   1.000000
    2        2.980368   1.000000
    3        4.250239   1.000000
    4        4.747962   1.000000
    5        7.822628   0.000000
    6        9.782126   0.000000
    7       10.448325   0.000000
    8       10.483357   0.000000
 
 -0.1250000E+00 -0.1250000E+00  0.4166667E-01  0.3472222E-02
    1       -5.744869   1.000000
    2        4.000679   1.000000
    3        4.850987   1.000000
    4        4.914477   1.000000
    5        7.808037   0.000000
    6        9.684198   0.000000
    7        9.876374   0.000000
    8       10.466312   0.000000
 
  0.1250000E+00  0.1250000E+00  0.1250000E+00  0.1157407E-02
    1       -5.926757   1.000000
    2        4.247442   1.000000
    3        5.560987   0.999984
    4        5.560987   0.999984
    5        8.360503   0.000000
    6        8.852471   0.000000
    7        8.852471   0.000000
    8       10.559918   0.000000
 
  0.2083333E+00  0.1250000E+00  0.1250000E+00  0.3472222E-02
    1       -5.746583   1.000000
    2        3.622748   1.000000
    3        4.681636   1.000000
    4        5.636769   0.999850
    5        8.713074   0.000000
    6        8.837959   0.000000
    7        9.129850   0.000000
    8       11.181130   0.000000
 
  0.2916667E+00  0.1250000E+00  0.1250000E+00  0.3472222E-02
    1       -5.391876   1.000000
    2        2.558580   1.000000
    3        3.889764   1.000000
    4        5.420417   1.000000
    5        8.848088   0.000000
    6        9.195174   0.000000
    7        9.500880   0.000000
    8       11.572189   0.000000
 
  0.3750000E+00  0.1250000E+00  0.1250000E+00  0.3472222E-02
    1       -4.879923   1.000000
    2        1.211509   1.000000
    3        3.530092   1.000000
    4        5.071257   1.000000
    5        8.583063   0.000000
    6        9.550267   0.000000
    7        9.737842   0.000000
    8       12.174737   0.000000
 
  0.4583333E+00  0.1250000E+00  0.1250000E+00  0.3472222E-02
    1       -4.260870   1.000000
    2       -0.034504   1.000000
    3        3.388453   1.000000
    4        4.726383   1.000000
    5        8.329094   0.000000
    6        9.594246   0.000000
    7        9.707544   0.000000
    8       13.256305   0.000000
 
 -0.4583333E+00  0.1250000E+00  0.1250000E+00  0.3472222E-02
    1       -3.713566   1.000000
    2       -0.909253   1.000000
    3        3.406089   1.000000
    4        4.450447   1.000000
    5        8.144027   0.000000
    6        9.435599   0.000000
    7        9.813781   0.000000
    8       14.118436   0.000000
 
 -0.3750000E+00  0.1250000E+00  0.1250000E+00  0.3472222E-02
    1       -3.710704   1.000000
    2       -0.914785   1.000000
    3        3.560689   1.000000
    4        4.278422   1.000000
    5        8.057721   0.000000
    6        9.391742   0.000000
    7        9.989821   0.000000
    8       13.266022   0.000000
 
 -0.2916667E+00  0.1250000E+00  0.1250000E+00  0.3472222E-02
    1       -4.256264   1.000000
    2       -0.045667   1.000000
    3        3.834108   1.000000
    4        4.229682   1.000000
    5        8.079530   0.000000
    6        9.460549   0.000000
    7       10.235764   0.000000
    8       11.929041   0.000000
 
 -0.2083333E+00  0.1250000E+00  0.1250000E+00  0.3472222E-02
    1       -4.875820   1.000000
    2        1.206662   1.000000
    3        4.199764   1.000000
    4        4.313260   1.000000
    5        8.134778   0.000000
    6        9.552692   0.000000
    7       10.426766   0.000000
    8       10.935837   0.000000
 
 -0.1250000E+00  0.1250000E+00  0.1250000E+00  0.3472222E-02
    1       -5.389009   1.000000
    2        2.615282   1.000000
    3        4.527201   1.000000
    4        4.603311   1.000000
    5        8.012741   0.000000
    6        9.571444   0.000000
    7       10.348133   0.000000
    8       10.644268   0.000000
 
  0.2083333E+00  0.2083333E+00  0.1250000E+00  0.3472222E-02
    1       -5.627078   1.000000
    2        3.166303   1.000000
    3        4.885671   1.000000
    4        5.096081   1.000000
    5        8.274516   0.000000
    6        9.051586   0.000000
    7        9.784695   0.000000
    8       11.107539   0.000000
 
  0.2916667E+00  0.2083333E+00  0.1250000E+00  0.6944444E-02
    1       -5.330955   1.000000
    2        2.524805   1.000000
    3        3.894495   1.000000
    4        5.021438   1.000000
    5        8.356073   0.000000
    6        9.405913   0.000000
    7       10.285331   0.000000
    8       10.735604   0.000000
 
  0.3750000E+00  0.2083333E+00  0.1250000E+00  0.6944444E-02
    1       -4.870510   1.000000
    2        1.547723   1.000000
    3        3.147036   1.000000
    4        4.743486   1.000000
    5        8.764937   0.000000
    6        9.355935   0.000000
    7       10.577965   0.000000
    8       10.861488   0.000000
 
  0.4583333E+00  0.2083333E+00  0.1250000E+00  0.6944444E-02
    1       -4.278988   1.000000
    2        0.374731   1.000000
    3        2.830140   1.000000
    4        4.385803   1.000000
    5        8.868479   0.000000
    6        9.180747   0.000000
    7       10.967534   0.000000
    8       11.353869   0.000000
 
 -0.4583333E+00  0.2083333E+00  0.1250000E+00  0.6944444E-02
    1       -3.668586   1.000000
    2       -0.622158   1.000000
    3        2.739946   1.000000
    4        4.096068   1.000000
    5        8.675322   0.000000
    6        9.127075   0.000000
    7       11.021384   0.000000
    8       12.602339   0.000000
 
 -0.3750000E+00  0.2083333E+00  0.1250000E+00  0.6944444E-02
    1       -3.426858   1.000000
    2       -0.966686   1.000000
    3        2.783637   1.000000
    4        3.954633   1.000000
    5        8.477769   0.000000
    6        9.238324   0.000000
    7       11.048800   0.000000
    8       13.160516   0.000000
 
 -0.2916667E+00  0.2083333E+00  0.1250000E+00  0.6944444E-02
    1       -3.853577   1.000000
    2       -0.343218   1.000000
    3        2.917875   1.000000
    4        4.003946   1.000000
    5        8.374323   0.000000
    6        9.471923   0.000000
    7       11.124280   0.000000
    8       11.664907   0.000000
 
 -0.2083333E+00  0.2083333E+00  0.1250000E+00  0.6944444E-02
    1       -4.481682   1.000000
    2        0.758540   1.000000
    3        3.143420   1.000000
    4        4.233360   1.000000
    5        8.316957   0.000000
    6        9.764951   0.000000
    7       10.470452   0.000000
    8       11.223522   0.000000
 
 -0.1250000E+00  0.2083333E+00  0.1250000E+00  0.6944444E-02
    1       -5.037130   1.000000
    2        1.972482   1.000000
    3        3.532651   1.000000
    4        4.548934   1.000000
    5        8.088223   0.000000
    6        9.773668   0.000000
    7       10.248575   0.000000
    8       11.026031   0.000000
 