<?xml version="1.0" encoding="ISO-8859-1"?>
<modeling>
 <generator>
  <i name="program" type="string">vasp </i>
  <i name="version" type="string">5.4.4.18Apr17-6-g9f103f2a35  </i>
  <i name="subversion" type="string">(build Dec 09 2018 21:25:21) complex            parallel </i>
  <i name="platform" type="string">IFC18.0.1.163_CrayMPICH7.7.0_MKL18.0.1.163 </i>
  <i name="date" type="string">2019 03 19 </i>
  <i name="time" type="string">13:28:40 </i>
 </generator>
 <incar>
  <i type="string" name="PREC">normal</i>
  <i type="int" name="IBRION">     2</i>
  <i name="EDIFF">      0.00040000</i>
  <i name="EDIFFG">     -0.01000000</i>
  <i type="int" name="NSW">    15</i>
  <i type="int" name="ISIF">     2</i>
  <i name="ENCUT">    200.00000000</i>
  <i type="int" name="NBANDS">     8</i>
  <i type="logical" name="LREAL"> F  </i>
  <i type="int" name="ISMEAR">     0</i>
  <i name="SIGMA">      0.20000000</i>
  <v type="int" name="KPOINT_BSE">    -1     0     0     0</v>
 </incar>
 <structure name="primitive_cell" >
  <crystal>
   <varray name="basis" >
    <v>       0.00000000       2.71500000       2.71500000 </v>
    <v>       2.71500000       0.00000000       2.71500000 </v>
    <v>       2.71500000       2.71500000       0.00000000 </v>
   </varray>
   <i name="volume">     40.02575175 </i>
   <varray name="rec_basis" >
    <v>      -0.18416206       0.18416206       0.18416206 </v>
    <v>       0.18416206      -0.18416206       0.18416206 </v>
    <v>       0.18416206       0.18416206      -0.18416206 </v>
   </varray>
  </crystal>
  <varray name="positions" >
   <v>      -0.50000000      -0.50000000      -0.50000000 </v>
   <v>      -0.25000000      -0.25000000      -0.25000000 </v>
  </varray>
 </structure>
 <varray name="primitive_index" >
  <v type="int" >        1 </v>
  <v type="int" >        2 </v>
 </varray>
 <kpoints>
  <generation param="Monkhorst-Pack">
   <v type="int" name="divisions">       2        2        2 </v>
   <v name="usershift">      0.00000000       0.00000000       0.00000000 </v>
   <v name="genvec1">      0.50000000       0.00000000      -0.00000000 </v>
   <v name="genvec2">      0.00000000       0.50000000       0.00000000 </v>
   <v name="genvec3">     -0.00000000      -0.00000000       0.50000000 </v>
   <v name="shift">      0.50000000       0.50000000       0.50000000 </v>
  </generation>
  <varray name="kpointlist" >
   <v>       0.25000000       0.25000000       0.25000000 </v>
   <v>      -0.25000000       0.25000000       0.25000000 </v>
  </varray>
  <varray name="weights" >
   <v>       0.25000000 </v>
   <v>       0.75000000 </v>
  </varray>
 </kpoints>
 <parameters>
  <separator name="general" >
   <i type="string" name="SYSTEM">unknown system</i>
   <i type="logical" name="LCOMPAT"> F  </i>
  </separator>
  <separator name="electronic" >
   <i type="string" name="PREC">normal</i>
   <i name="ENMAX">    200.00000000</i>
   <i name="ENAUG">    322.06900000</i>
   <i name="EDIFF">      0.00040000</i>
   <i type="int" name="IALGO">    38</i>
   <i type="int" name="IWAVPR">    11</i>
   <i type="int" name="NBANDS">     8</i>
   <i name="NELECT">      8.00000000</i>
   <i type="int" name="TURBO">     0</i>
   <i type="int" name="IRESTART">     0</i>
   <i type="int" name="NREBOOT">     0</i>
   <i type="int" name="NMIN">     0</i>
   <i name="EREF">      0.00000000</i>
   <separator name="electronic smearing" >
    <i type="int" name="ISMEAR">     0</i>
    <i name="SIGMA">      0.20000000</i>
    <i name="KSPACING">      0.50000000</i>
    <i type="logical" name="KGAMMA"> T  </i>
   </separator>
   <separator name="electronic projectors" >
    <i type="logical" name="LREAL"> F  </i>
    <v name="ROPT">      0.00000000</v>
    <i type="int" name="LMAXPAW">  -100</i>
    <i type="int" name="LMAXMIX">     2</i>
    <i type="logical" name="NLSPLINE"> F  </i>
   </separator>
   <separator name="electronic startup" >
    <i type="int" name="ISTART">     1</i>
    <i type="int" name="ICHARG">     0</i>
    <i type="int" name="INIWAV">     1</i>
   </separator>
   <separator name="electronic spin" >
    <i type="int" name="ISPIN">     1</i>
    <i type="logical" name="LNONCOLLINEAR"> F  </i>
    <v name="MAGMOM">      1.00000000      1.00000000</v>
    <i name="NUPDOWN">     -1.00000000</i>
    <i type="logical" name="LSORBIT"> F  </i>
    <v name="SAXIS">      0.00000000      0.00000000      1.00000000</v>
    <i type="logical" name="LSPIRAL"> F  </i>
    <v name="QSPIRAL">      0.00000000      0.00000000      0.00000000</v>
    <i type="logical" name="LZEROZ"> F  </i>
   </separator>
   <separator name="electronic exchange-correlation" >
    <i type="logical" name="LASPH"> F  </i>
    <i type="logical" name="LMETAGGA"> F  </i>
   </separator>
   <separator name="electronic convergence" >
    <i type="int" name="NELM">    60</i>
    <i type="int" name="NELMDL">     0</i>
    <i type="int" name="NELMIN">     2</i>
    <i name="ENINI">    200.00000000</i>
    <separator name="electronic convergence detail" >
     <i type="logical" name="LDIAG"> T  </i>
     <i type="logical" name="LSUBROT"> F  </i>
     <i name="WEIMIN">      0.00100000</i>
     <i name="EBREAK">      0.00001250</i>
     <i name="DEPER">      0.30000000</i>
     <i type="int" name="NRMM">     4</i>
     <i name="TIME">      0.40000000</i>
    </separator>
   </separator>
   <separator name="electronic mixer" >
    <i name="AMIX">      0.40000000</i>
    <i name="BMIX">      1.00000000</i>
    <i name="AMIN">      0.10000000</i>
    <i name="AMIX_MAG">      1.60000000</i>
    <i name="BMIX_MAG">      1.00000000</i>
    <separator name="electronic mixer details" >
     <i type="int" name="IMIX">     4</i>
     <i type="logical" name="MIXFIRST"> F  </i>
     <i type="int" name="MAXMIX">   -45</i>
     <i name="WC">    100.00000000</i>
     <i type="int" name="INIMIX">     1</i>
     <i type="int" name="MIXPRE">     1</i>
     <i type="int" name="MREMOVE">     5</i>
    </separator>
   </separator>
   <separator name="electronic dipolcorrection" >
    <i type="logical" name="LDIPOL"> F  </i>
    <i type="logical" name="LMONO"> F  </i>
    <i type="int" name="IDIPOL">     0</i>
    <i name="EPSILON">      1.00000000</i>
    <v name="DIPOL">   -100.00000000   -100.00000000   -100.00000000</v>
    <i name="EFIELD">      0.00000000</i>
   </separator>
  </separator>
  <separator name="grids" >
   <i type="int" name="NGX">    14</i>
   <i type="int" name="NGY">    14</i>
   <i type="int" name="NGZ">    14</i>
   <i type="int" name="NGXF">    28</i>
   <i type="int" name="NGYF">    28</i>
   <i type="int" name="NGZF">    28</i>
   <i type="logical" name="ADDGRID"> F  </i>
  </separator>
  <separator name="ionic" >
   <i type="int" name="NSW">    15</i>
   <i type="int" name="IBRION">     2</i>
   <i type="int" name="MDALGO">     0</i>
   <i type="int" name="ISIF">     2</i>
   <i name="PSTRESS">      0.00000000</i>
   <i name="EDIFFG">     -0.01000000</i>
   <i type="int" name="NFREE">     1</i>
   <i name="POTIM">      0.50000000</i>
   <i name="SMASS">     -3.00000000</i>
   <i name="SCALEE">      1.00000000</i>
  </separator>
  <separator name="ionic md" >
   <i name="TEBEG">      0.00010000</i>
   <i name="TEEND">      0.00010000</i>
   <i type="int" name="NBLOCK">     1</i>
   <i type="int" name="KBLOCK">    15</i>
   <i type="int" name="NPACO">   256</i>
   <i name="APACO">     16.00000000</i>
  </separator>
  <separator name="symmetry" >
   <i type="int" name="ISYM">     2</i>
   <i name="SYMPREC">      0.00001000</i>
  </separator>
  <separator name="dos" >
   <i type="int" name="LORBIT">     0</i>
   <v name="RWIGS">     -1.00000000</v>
   <i type="int" name="NEDOS">   301</i>
   <i name="EMIN">     10.00000000</i>
   <i name="EMAX">    -10.00000000</i>
   <i name="EFERMI">      0.00000000</i>
  </separator>
  <separator name="writing" >
   <i type="int" name="NWRITE">     2</i>
   <i type="logical" name="LWAVE"> T  </i>
   <i type="logical" name="LDOWNSAMPLE"> F  </i>
   <i type="logical" name="LCHARG"> T  </i>
   <i type="logical" name="LPARD"> F  </i>
   <i type="logical" name="LVTOT"> F  </i>
   <i type="logical" name="LVHAR"> F  </i>
   <i type="logical" name="LELF"> F  </i>
   <i type="logical" name="LOPTICS"> F  </i>
   <v name="STM">      0.00000000      0.00000000      0.00000000      0.00000000      0.00000000      0.00000000      0.00000000</v>
  </separator>
  <separator name="performance" >
   <i type="int" name="NPAR">     8</i>
   <i type="int" name="NSIM">     4</i>
   <i type="int" name="NBLK">    -1</i>
   <i type="logical" name="LPLANE"> T  </i>
   <i type="logical" name="LSCALAPACK"> T  </i>
   <i type="logical" name="LSCAAWARE"> F  </i>
   <i type="logical" name="LSCALU"> F  </i>
   <i type="logical" name="LASYNC"> F  </i>
   <i type="logical" name="LORBITALREAL"> F  </i>
  </separator>
  <separator name="miscellaneous" >
   <i type="int" name="IDIOT">     3</i>
   <i type="int" name="ISPECIAL">     0</i>
   <i type="logical" name="LMUSIC"> F  </i>
   <v name="POMASS">     28.08500000</v>
   <v name="DARWINR">      0.00000000</v>
   <v name="DARWINV">      1.00000000</v>
   <i type="logical" name="LCORR"> T  </i>
  </separator>
  <i type="logical" name="GGA_COMPAT"> T  </i>
  <i type="logical" name="LBERRY"> F  </i>
  <i type="int" name="ICORELEVEL">     0</i>
  <i type="logical" name="LDAU"> F  </i>
  <i type="int" name="I_CONSTRAINED_M">     0</i>
  <separator name="electronic exchange-correlation" >
   <i type="string" name="GGA">--</i>
   <i type="int" name="VOSKOWN">     0</i>
   <i type="logical" name="LHFCALC"> F  </i>
   <i type="string" name="PRECFOCK"></i>
   <i type="logical" name="LSYMGRAD"> F  </i>
   <i type="logical" name="LHFONE"> F  </i>
   <i type="logical" name="LRHFCALC"> F  </i>
   <i type="logical" name="LTHOMAS"> F  </i>
   <i type="logical" name="LMODELHF"> F  </i>
   <i name="ENCUT4O">     -1.00000000</i>
   <i type="int" name="EXXOEP">     0</i>
   <i type="int" name="FOURORBIT">     0</i>
   <i name="AEXX">      0.00000000</i>
   <i name="HFALPHA">      0.00000000</i>
   <i name="MCALPHA">      0.00000000</i>
   <i name="ALDAX">      1.00000000</i>
   <i name="AGGAX">      1.00000000</i>
   <i name="ALDAC">      1.00000000</i>
   <i name="AGGAC">      1.00000000</i>
   <i type="int" name="NKREDX">     1</i>
   <i type="int" name="NKREDY">     1</i>
   <i type="int" name="NKREDZ">     1</i>
   <i type="logical" name="SHIFTRED"> F  </i>
   <i type="logical" name="ODDONLY"> F  </i>
   <i type="logical" name="EVENONLY"> F  </i>
   <i type="int" name="LMAXFOCK">     0</i>
   <i type="int" name="NMAXFOCKAE">     0</i>
   <i type="logical" name="LFOCKAEDFT"> F  </i>
   <i name="HFSCREEN">      0.00000000</i>
   <i name="HFSCREENC">      0.00000000</i>
   <i type="int" name="NBANDSGWLOW">     0</i>
  </separator>
  <separator name="vdW DFT" >
   <i type="logical" name="LUSE_VDW"> F  </i>
   <i name="Zab_VDW">     -0.84910000</i>
   <i name="PARAM1">      0.12340000</i>
   <i name="PARAM2">      1.00000000</i>
   <i name="PARAM3">      0.00000000</i>
  </separator>
  <separator name="model GW" >
   <i type="int" name="MODEL_GW">     0</i>
   <i name="MODEL_EPS0">     12.00772552</i>
   <i name="MODEL_ALPHA">      1.00000000</i>
  </separator>
  <separator name="linear response parameters" >
   <i type="logical" name="LEPSILON"> F  </i>
   <i type="logical" name="LRPA"> F  </i>
   <i type="logical" name="LNABLA"> F  </i>
   <i type="logical" name="LVEL"> F  </i>
   <i type="int" name="KINTER">     0</i>
   <i name="CSHIFT">      0.10000000</i>
   <i name="OMEGAMAX">     -1.00000000</i>
   <i name="DEG_THRESHOLD">      0.00200000</i>
   <i name="RTIME">     -0.10000000</i>
   <i name="WPLASMAI">      0.00000000</i>
   <v name="DFIELD">      0.00000000      0.00000000      0.00000000</v>
   <v name="WPLASMA">      0.00000000      0.00000000      0.00000000      0.00000000      0.00000000      0.00000000      0.00000000      0.00000000      0.00000000</v>
  </separator>
  <separator name="orbital magnetization" >
   <i type="logical" name="NUCIND"> F  </i>
   <v name="MAGPOS">      0.00000000      0.00000000      0.00000000</v>
   <i type="logical" name="LNICSALL"> T  </i>
   <i type="logical" name="ORBITALMAG"> F  </i>
   <i type="logical" name="LMAGBLOCH"> F  </i>
   <i type="logical" name="LCHIMAG"> F  </i>
   <i type="logical" name="LGAUGE"> T  </i>
   <i type="int" name="MAGATOM">     0</i>
   <v name="MAGDIPOL">      0.00000000      0.00000000      0.00000000</v>
   <v name="AVECCONST">      0.00000000      0.00000000      0.00000000</v>
  </separator>
  <separator name="response functions" >
   <i type="logical" name="LADDER"> F  </i>
   <i type="logical" name="LRPAFORCE"> F  </i>
   <i type="logical" name="LFXC"> F  </i>
   <i type="logical" name="LHARTREE"> T  </i>
   <i type="int" name="IBSE">     0</i>
   <v type="int" name="KPOINT">    -1     0     0     0</v>
   <i type="logical" name="LTCTE"> F  </i>
   <i type="logical" name="LTETE"> F  </i>
   <i type="logical" name="LTRIPLET"> F  </i>
   <i type="logical" name="LFXCEPS"> F  </i>
   <i type="logical" name="LFXHEG"> F  </i>
   <i type="int" name="NATURALO">     2</i>
   <i type="logical" name="L2ORDER"> F  </i>
   <i type="logical" name="LMP2LT"> F  </i>
   <i type="logical" name="LUSEW"> F  </i>
   <i name="ENCUTGW">     -2.00000000</i>
   <i name="ENCUTGWSOFT">     -2.00000000</i>
   <i name="ENCUTLF">     -1.00000000</i>
   <i type="int" name="LMAXMP2">    -1</i>
   <i name="SCISSOR">      0.00000000</i>
   <i type="int" name="NOMEGA">     0</i>
   <i type="int" name="NOMEGAR">     0</i>
   <i type="int" name="NBANDSGW">    -1</i>
   <i type="int" name="NBANDSO">    -1</i>
   <i type="int" name="NBANDSV">    -1</i>
   <i type="int" name="NELM">     1</i>
   <i type="int" name="NELMHF">     1</i>
   <i type="int" name="DIM">     3</i>
   <i type="int" name="ANTIRES">     0</i>
   <i name="OMEGAMAX">    -30.00000000</i>
   <i name="OMEGAMIN">    -30.00000000</i>
   <i name="OMEGATL">   -200.00000000</i>
   <i type="int" name="OMEGAGRID">   140</i>
   <i name="CSHIFT">     -0.10000000</i>
   <i type="logical" name="SELFENERGY"> F  </i>
   <i type="logical" name="LSPECTRAL"> F  </i>
   <i type="logical" name="LSPECTRALGW"> F  </i>
   <i type="logical" name="LSINGLES"> F  </i>
   <i type="logical" name="LFERMIGW"> F  </i>
   <i type="logical" name="ODDONLYGW"> F  </i>
   <i type="logical" name="EVENONLYGW"> F  </i>
   <i type="int" name="NKREDLFX">     1</i>
   <i type="int" name="NKREDLFY">     1</i>
   <i type="int" name="NKREDLFZ">     1</i>
   <i type="int" name="MAXMEM">  2800</i>
   <i type="int" name="TELESCOPE">     0</i>
   <i type="int" name="TAUPAR">     1</i>
   <i type="int" name="OMEGAPAR">    -1</i>
   <i name="LAMBDA">      1.00000000</i>
  </separator>
  <separator name="External order field" >
   <i name="OFIELD_KAPPA">      0.00000000</i>
   <v name="OFIELD_K">      0.00000000      0.00000000      0.00000000</v>
   <i name="OFIELD_Q6_NEAR">      0.00000000</i>
   <i name="OFIELD_Q6_FAR">      0.00000000</i>
   <i name="OFIELD_A">      0.00000000</i>
  </separator>
 </parameters>
 <atominfo>
  <atoms>       2 </atoms>
  <types>       1 </types>
  <array name="atoms" >
   <dimension dim="1">ion</dimension>
   <field type="string">element</field>
   <field type="int">atomtype</field>
   <set>
    <rc><c>Si</c><c>   1</c></rc>
    <rc><c>Si</c><c>   1</c></rc>
   </set>
  </array>
  <array name="atomtypes" >
   <dimension dim="1">type</dimension>
   <field type="int">atomspertype</field>
   <field type="string">element</field>
   <field>mass</field>
   <field>valence</field>
   <field type="string">pseudopotential</field>
   <set>
    <rc><c>   2</c><c>Si</c><c>     28.08500000</c><c>      4.00000000</c><c> PAW_PBE Si 05Jan2001                   </c></rc>
   </set>
  </array>
 </atominfo>
 <structure name="initialpos" >
  <crystal>
   <varray name="basis" >
    <v>       0.00000000       2.71500000       2.71500000 </v>
    <v>       2.71500000       0.00000000       2.71500000 </v>
    <v>       2.71500000       2.71500000       0.00000000 </v>
   </varray>
   <i name="volume">     40.02575175 </i>
   <varray name="rec_basis" >
    <v>      -0.18416206       0.18416206       0.18416206 </v>
    <v>       0.18416206      -0.18416206       0.18416206 </v>
    <v>       0.18416206       0.18416206      -0.18416206 </v>
   </varray>
  </crystal>
  <varray name="positions" >
   <v>       0.50000000       0.50000000       0.50000000 </v>
   <v>       0.75000000       0.75000000       0.75000000 </v>
  </varray>
 </structure>
 <calculation>
  <scstep>
   <time name="dav">    0.01    0.02</time>
   <time name="total">    0.06    0.08</time>
   <energy>
    <i name="alphaZ">      3.36414203 </i>
    <i name="ewald">   -228.56352493 </i>
    <i name="hartreedc">    -15.17506089 </i>
    <i name="XCdc">    -17.90627633 </i>
    <i name="pawpsdc">     76.08432705 </i>
    <i name="pawaedc">    -41.14240829 </i>
    <i name="eentropy">     -0.00000000 </i>
    <i name="bandstr">      6.59129732 </i>
    <i name="atom">    206.11247263 </i>
    <i name="e_fr_energy">    -10.63503142 </i>
    <i name="e_wo_entrp">    -10.63503142 </i>
    <i name="e_0_energy">    -10.63503142 </i>
   </energy>
  </scstep>
  <scstep>
   <time name="dav">    0.01    0.01</time>
   <time name="total">    0.04    0.05</time>
   <energy>
    <i name="alphaZ">      3.36414203 </i>
    <i name="ewald">   -228.56352493 </i>
    <i name="hartreedc">    -15.17455663 </i>
    <i name="XCdc">    -17.90629893 </i>
    <i name="pawpsdc">     76.08207561 </i>
    <i name="pawaedc">    -41.14007823 </i>
    <i name="eentropy">     -0.00000000 </i>
    <i name="bandstr">      6.59073682 </i>
    <i name="atom">    206.11247263 </i>
    <i name="e_fr_energy">    -10.63503164 </i>
    <i name="e_wo_entrp">    -10.63503164 </i>
    <i name="e_0_energy">    -10.63503164 </i>
   </energy>
  </scstep>
  <structure>
   <crystal>
    <varray name="basis" >
     <v>       0.00000000       2.71500000       2.71500000 </v>
     <v>       2.71500000       0.00000000       2.71500000 </v>
     <v>       2.71500000       2.71500000       0.00000000 </v>
    </varray>
    <i name="volume">     40.02575175 </i>
    <varray name="rec_basis" >
     <v>      -0.18416206       0.18416206       0.18416206 </v>
     <v>       0.18416206      -0.18416206       0.18416206 </v>
     <v>       0.18416206       0.18416206      -0.18416206 </v>
    </varray>
   </crystal>
   <varray name="positions" >
    <v>       0.50000000       0.50000000       0.50000000 </v>
    <v>       0.75000000       0.75000000       0.75000000 </v>
   </varray>
  </structure>
  <varray name="forces" >
   <v>       0.00000000       0.00000000       0.00000000 </v>
   <v>      -0.00000000      -0.00000000      -0.00000000 </v>
  </varray>
  <varray name="stress" >
   <v>      22.42326976      -0.00000000       0.00000000 </v>
   <v>       0.00000000      22.42326976      -0.00000000 </v>
   <v>       0.00000000      -0.00000000      22.42326976 </v>
  </varray>
  <energy>
   <i name="e_fr_energy">    -10.63503164 </i>
   <i name="e_wo_entrp">    -10.63503164 </i>
   <i name="e_0_energy">     -0.00000000 </i>
  </energy>
  <time name="totalsc">    0.66    1.14</time>
  <eigenvalues>
   <array>
    <dimension dim="1">band</dimension>
    <dimension dim="2">kpoint</dimension>
    <dimension dim="3">spin</dimension>
    <field>eigene</field>
    <field>occ</field>
    <set>
     <set comment="spin 1">
      <set comment="kpoint 1">
       <r>   -5.3005    1.0000 </r>
       <r>    1.9419    1.0000 </r>
       <r>    5.1202    1.0000 </r>
       <r>    5.1202    1.0000 </r>
       <r>    7.9173    0.0000 </r>
       <r>    9.4012    0.0000 </r>
       <r>    9.4012    0.0000 </r>
       <r>   12.8107    0.0000 </r>
      </set>
      <set comment="kpoint 2">
       <r>   -3.3789    1.0000 </r>
       <r>   -0.5163    1.0000 </r>
       <r>    2.3309    1.0000 </r>
       <r>    3.6642    1.0000 </r>
       <r>    7.4117    0.0000 </r>
       <r>   10.3644    0.0000 </r>
       <r>   11.6574    0.0000 </r>
       <r>   11.8468    0.0000 </r>
      </set>
     </set>
    </set>
   </array>
  </eigenvalues>
  <separator name="orbital magnetization" >
   <v name="MAGDIPOLOUT">      0.00000000      0.00000000      0.00000000</v>
  </separator>
  <dos>
   <i name="efermi">      6.03998766 </i>
   <total>
    <array>
     <dimension dim="1">gridpoints</dimension>
     <dimension dim="2">spin</dimension>
     <field>energy</field>
     <field>total</field>
     <field>integrated</field>
     <set>
      <set comment="spin 1">
       <r>    -7.3005     0.0000     0.0000 </r>
       <r>    -7.2268     0.0000     0.0000 </r>
       <r>    -7.1531     0.0000     0.0000 </r>
       <r>    -7.0794     0.0000     0.0000 </r>
       <r>    -7.0057     0.0000     0.0000 </r>
       <r>    -6.9320     0.0000     0.0000 </r>
       <r>    -6.8583     0.0000     0.0000 </r>
       <r>    -6.7846     0.0000     0.0000 </r>
       <r>    -6.7109     0.0000     0.0000 </r>
       <r>    -6.6372     0.0000     0.0000 </r>
       <r>    -6.5635     0.0000     0.0000 </r>
       <r>    -6.4898     0.0000     0.0000 </r>
       <r>    -6.4161     0.0000     0.0000 </r>
       <r>    -6.3424     0.0000     0.0000 </r>
       <r>    -6.2687     0.0000     0.0000 </r>
       <r>    -6.1949     0.0000     0.0000 </r>
       <r>    -6.1212     0.0000     0.0000 </r>
       <r>    -6.0475     0.0000     0.0000 </r>
       <r>    -5.9738     0.0000     0.0000 </r>
       <r>    -5.9001     0.0001     0.0000 </r>
       <r>    -5.8264     0.0006     0.0001 </r>
       <r>    -5.7527     0.0040     0.0003 </r>
       <r>    -5.6790     0.0205     0.0019 </r>
       <r>    -5.6053     0.0804     0.0078 </r>
       <r>    -5.5316     0.2411     0.0256 </r>
       <r>    -5.4579     0.5545     0.0664 </r>
       <r>    -5.3842     0.9778     0.1385 </r>
       <r>    -5.3105     1.3218     0.2359 </r>
       <r>    -5.2368     1.3703     0.3369 </r>
       <r>    -5.1631     1.0893     0.4172 </r>
       <r>    -5.0894     0.6639     0.4661 </r>
       <r>    -5.0157     0.3103     0.4890 </r>
       <r>    -4.9420     0.1112     0.4972 </r>
       <r>    -4.8683     0.0305     0.4994 </r>
       <r>    -4.7946     0.0064     0.4999 </r>
       <r>    -4.7209     0.0010     0.5000 </r>
       <r>    -4.6472     0.0001     0.5000 </r>
       <r>    -4.5735     0.0000     0.5000 </r>
       <r>    -4.4998     0.0000     0.5000 </r>
       <r>    -4.4261     0.0000     0.5000 </r>
       <r>    -4.3523     0.0000     0.5000 </r>
       <r>    -4.2786     0.0000     0.5000 </r>
       <r>    -4.2049     0.0000     0.5000 </r>
       <r>    -4.1312     0.0000     0.5000 </r>
       <r>    -4.0575     0.0000     0.5000 </r>
       <r>    -3.9838     0.0002     0.5000 </r>
       <r>    -3.9101     0.0016     0.5001 </r>
       <r>    -3.8364     0.0106     0.5009 </r>
       <r>    -3.7627     0.0553     0.5050 </r>
       <r>    -3.6890     0.2207     0.5213 </r>
       <r>    -3.6153     0.6747     0.5710 </r>
       <r>    -3.5416     1.5814     0.6875 </r>
       <r>    -3.4679     2.8417     0.8970 </r>
       <r>    -3.3942     3.9154     1.1856 </r>
       <r>    -3.3205     4.1366     1.4905 </r>
       <r>    -3.2468     3.3512     1.7374 </r>
       <r>    -3.1731     2.0817     1.8909 </r>
       <r>    -3.0994     0.9914     1.9640 </r>
       <r>    -3.0257     0.3620     1.9906 </r>
       <r>    -2.9520     0.1013     1.9981 </r>
       <r>    -2.8783     0.0217     1.9997 </r>
       <r>    -2.8046     0.0036     2.0000 </r>
       <r>    -2.7309     0.0004     2.0000 </r>
       <r>    -2.6572     0.0000     2.0000 </r>
       <r>    -2.5835     0.0000     2.0000 </r>
       <r>    -2.5097     0.0000     2.0000 </r>
       <r>    -2.4360     0.0000     2.0000 </r>
       <r>    -2.3623     0.0000     2.0000 </r>
       <r>    -2.2886     0.0000     2.0000 </r>
       <r>    -2.2149     0.0000     2.0000 </r>
       <r>    -2.1412     0.0000     2.0000 </r>
       <r>    -2.0675     0.0000     2.0000 </r>
       <r>    -1.9938     0.0000     2.0000 </r>
       <r>    -1.9201     0.0000     2.0000 </r>
       <r>    -1.8464     0.0000     2.0000 </r>
       <r>    -1.7727     0.0000     2.0000 </r>
       <r>    -1.6990     0.0000     2.0000 </r>
       <r>    -1.6253     0.0000     2.0000 </r>
       <r>    -1.5516     0.0000     2.0000 </r>
       <r>    -1.4779     0.0000     2.0000 </r>
       <r>    -1.4042     0.0000     2.0000 </r>
       <r>    -1.3305     0.0000     2.0000 </r>
       <r>    -1.2568     0.0000     2.0000 </r>
       <r>    -1.1831     0.0000     2.0000 </r>
       <r>    -1.1094     0.0003     2.0000 </r>
       <r>    -1.0357     0.0022     2.0002 </r>
       <r>    -0.9620     0.0141     2.0012 </r>
       <r>    -0.8883     0.0704     2.0064 </r>
       <r>    -0.8146     0.2689     2.0262 </r>
       <r>    -0.7409     0.7878     2.0843 </r>
       <r>    -0.6671     1.7691     2.2147 </r>
       <r>    -0.5934     3.0461     2.4392 </r>
       <r>    -0.5197     4.0215     2.7356 </r>
       <r>    -0.4460     4.0712     3.0357 </r>
       <r>    -0.3723     3.1603     3.2686 </r>
       <r>    -0.2986     1.8810     3.4072 </r>
       <r>    -0.2249     0.8584     3.4705 </r>
       <r>    -0.1512     0.3003     3.4926 </r>
       <r>    -0.0775     0.0805     3.4986 </r>
       <r>    -0.0038     0.0165     3.4998 </r>
       <r>     0.0699     0.0026     3.5000 </r>
       <r>     0.1436     0.0003     3.5000 </r>
       <r>     0.2173     0.0000     3.5000 </r>
       <r>     0.2910     0.0000     3.5000 </r>
       <r>     0.3647     0.0000     3.5000 </r>
       <r>     0.4384     0.0000     3.5000 </r>
       <r>     0.5121     0.0000     3.5000 </r>
       <r>     0.5858     0.0000     3.5000 </r>
       <r>     0.6595     0.0000     3.5000 </r>
       <r>     0.7332     0.0000     3.5000 </r>
       <r>     0.8069     0.0000     3.5000 </r>
       <r>     0.8806     0.0000     3.5000 </r>
       <r>     0.9543     0.0000     3.5000 </r>
       <r>     1.0280     0.0000     3.5000 </r>
       <r>     1.1017     0.0000     3.5000 </r>
       <r>     1.1755     0.0000     3.5000 </r>
       <r>     1.2492     0.0000     3.5000 </r>
       <r>     1.3229     0.0000     3.5000 </r>
       <r>     1.3966     0.0004     3.5000 </r>
       <r>     1.4703     0.0025     3.5002 </r>
       <r>     1.5440     0.0137     3.5012 </r>
       <r>     1.6177     0.0576     3.5055 </r>
       <r>     1.6914     0.1853     3.5191 </r>
       <r>     1.7651     0.4576     3.5529 </r>
       <r>     1.8388     0.8686     3.6169 </r>
       <r>     1.9125     1.2791     3.7111 </r>
       <r>     1.9862     1.5118     3.8226 </r>
       <r>     2.0599     1.5997     3.9405 </r>
       <r>     2.1336     1.8713     4.0784 </r>
       <r>     2.2073     2.6188     4.2714 </r>
       <r>     2.2810     3.6303     4.5390 </r>
       <r>     2.3547     4.2106     4.8493 </r>
       <r>     2.4284     3.8343     5.1319 </r>
       <r>     2.5021     2.6933     5.3304 </r>
       <r>     2.5758     1.4527     5.4375 </r>
       <r>     2.6495     0.6010     5.4818 </r>
       <r>     2.7232     0.1906     5.4958 </r>
       <r>     2.7969     0.0463     5.4993 </r>
       <r>     2.8706     0.0086     5.4999 </r>
       <r>     2.9443     0.0012     5.5000 </r>
       <r>     3.0181     0.0002     5.5000 </r>
       <r>     3.0918     0.0005     5.5000 </r>
       <r>     3.1655     0.0038     5.5003 </r>
       <r>     3.2392     0.0227     5.5020 </r>
       <r>     3.3129     0.1050     5.5097 </r>
       <r>     3.3866     0.3727     5.5372 </r>
       <r>     3.4603     1.0139     5.6119 </r>
       <r>     3.5340     2.1143     5.7678 </r>
       <r>     3.6077     3.3805     6.0169 </r>
       <r>     3.6814     4.1445     6.3224 </r>
       <r>     3.7551     3.8962     6.6095 </r>
       <r>     3.8288     2.8086     6.8166 </r>
       <r>     3.9025     1.5524     6.9310 </r>
       <r>     3.9762     0.6578     6.9795 </r>
       <r>     4.0499     0.2137     6.9952 </r>
       <r>     4.1236     0.0532     6.9991 </r>
       <r>     4.1973     0.0102     6.9999 </r>
       <r>     4.2710     0.0015     7.0000 </r>
       <r>     4.3447     0.0002     7.0000 </r>
       <r>     4.4184     0.0000     7.0000 </r>
       <r>     4.4921     0.0001     7.0000 </r>
       <r>     4.5658     0.0005     7.0000 </r>
       <r>     4.6395     0.0040     7.0003 </r>
       <r>     4.7132     0.0226     7.0020 </r>
       <r>     4.7869     0.0980     7.0092 </r>
       <r>     4.8607     0.3257     7.0332 </r>
       <r>     4.9344     0.8299     7.0944 </r>
       <r>     5.0081     1.6212     7.2139 </r>
       <r>     5.0818     2.4284     7.3929 </r>
       <r>     5.1555     2.7892     7.5984 </r>
       <r>     5.2292     2.4565     7.7795 </r>
       <r>     5.3029     1.6589     7.9018 </r>
       <r>     5.3766     0.8590     7.9651 </r>
       <r>     5.4503     0.3410     7.9902 </r>
       <r>     5.5240     0.1038     7.9978 </r>
       <r>     5.5977     0.0242     7.9996 </r>
       <r>     5.6714     0.0043     8.0000 </r>
       <r>     5.7451     0.0006     8.0000 </r>
       <r>     5.8188     0.0001     8.0000 </r>
       <r>     5.8925     0.0000     8.0000 </r>
       <r>     5.9662     0.0000     8.0000 </r>
       <r>     6.0399     0.0000     8.0000 </r>
       <r>     6.1136     0.0000     8.0000 </r>
       <r>     6.1873     0.0000     8.0000 </r>
       <r>     6.2610     0.0000     8.0000 </r>
       <r>     6.3347     0.0000     8.0000 </r>
       <r>     6.4084     0.0000     8.0000 </r>
       <r>     6.4821     0.0000     8.0000 </r>
       <r>     6.5558     0.0000     8.0000 </r>
       <r>     6.6295     0.0000     8.0000 </r>
       <r>     6.7033     0.0000     8.0000 </r>
       <r>     6.7770     0.0001     8.0000 </r>
       <r>     6.8507     0.0007     8.0001 </r>
       <r>     6.9244     0.0051     8.0004 </r>
       <r>     6.9981     0.0293     8.0026 </r>
       <r>     7.0718     0.1302     8.0122 </r>
       <r>     7.1455     0.4433     8.0449 </r>
       <r>     7.2192     1.1570     8.1301 </r>
       <r>     7.2929     2.3149     8.3008 </r>
       <r>     7.3666     3.5515     8.5625 </r>
       <r>     7.4403     4.1793     8.8705 </r>
       <r>     7.5140     3.7799     9.1491 </r>
       <r>     7.5877     2.6581     9.3451 </r>
       <r>     7.6614     1.5536     9.4596 </r>
       <r>     7.7351     0.9937     9.5328 </r>
       <r>     7.8088     1.0076     9.6071 </r>
       <r>     7.8825     1.2723     9.7008 </r>
       <r>     7.9562     1.4022     9.8042 </r>
       <r>     8.0299     1.2130     9.8936 </r>
       <r>     8.1036     0.8077     9.9531 </r>
       <r>     8.1773     0.4126     9.9835 </r>
       <r>     8.2510     0.1616     9.9954 </r>
       <r>     8.3247     0.0485     9.9990 </r>
       <r>     8.3984     0.0112     9.9998 </r>
       <r>     8.4721     0.0020    10.0000 </r>
       <r>     8.5459     0.0003    10.0000 </r>
       <r>     8.6196     0.0000    10.0000 </r>
       <r>     8.6933     0.0000    10.0000 </r>
       <r>     8.7670     0.0000    10.0000 </r>
       <r>     8.8407     0.0005    10.0000 </r>
       <r>     8.9144     0.0034    10.0003 </r>
       <r>     8.9881     0.0197    10.0017 </r>
       <r>     9.0618     0.0875    10.0082 </r>
       <r>     9.1355     0.2974    10.0301 </r>
       <r>     9.2092     0.7751    10.0872 </r>
       <r>     9.2829     1.5483    10.2014 </r>
       <r>     9.3566     2.3715    10.3761 </r>
       <r>     9.4303     2.7852    10.5814 </r>
       <r>     9.5040     2.5083    10.7663 </r>
       <r>     9.5777     1.7321    10.8940 </r>
       <r>     9.6514     0.9171    10.9616 </r>
       <r>     9.7251     0.3723    10.9890 </r>
       <r>     9.7988     0.1164    10.9976 </r>
       <r>     9.8725     0.0321    10.9999 </r>
       <r>     9.9462     0.0315    11.0023 </r>
       <r>    10.0199     0.1202    11.0111 </r>
       <r>    10.0936     0.4139    11.0416 </r>
       <r>    10.1673     1.0981    11.1226 </r>
       <r>    10.2410     2.2339    11.2872 </r>
       <r>    10.3147     3.4843    11.5440 </r>
       <r>    10.3885     4.1672    11.8512 </r>
       <r>    10.4622     3.8217    12.1328 </r>
       <r>    10.5359     2.6875    12.3309 </r>
       <r>    10.6096     1.4491    12.4377 </r>
       <r>    10.6833     0.5990    12.4819 </r>
       <r>    10.7570     0.1898    12.4959 </r>
       <r>    10.8307     0.0461    12.4993 </r>
       <r>    10.9044     0.0086    12.4999 </r>
       <r>    10.9781     0.0012    12.5000 </r>
       <r>    11.0518     0.0003    12.5000 </r>
       <r>    11.1255     0.0015    12.5001 </r>
       <r>    11.1992     0.0105    12.5009 </r>
       <r>    11.2729     0.0550    12.5050 </r>
       <r>    11.3466     0.2216    12.5213 </r>
       <r>    11.4203     0.6902    12.5722 </r>
       <r>    11.4940     1.6725    12.6954 </r>
       <r>    11.5677     3.1936    12.9308 </r>
       <r>    11.6414     4.9048    13.2923 </r>
       <r>    11.7151     6.2290    13.7514 </r>
       <r>    11.7888     6.7205    14.2467 </r>
       <r>    11.8625     6.2327    14.7061 </r>
       <r>    11.9362     4.9109    15.0681 </r>
       <r>    12.0099     3.2001    15.3039 </r>
       <r>    12.0836     1.6773    15.4275 </r>
       <r>    12.1573     0.6929    15.4786 </r>
       <r>    12.2311     0.2228    15.4950 </r>
       <r>    12.3048     0.0563    15.4992 </r>
       <r>    12.3785     0.0170    15.5004 </r>
       <r>    12.4522     0.0321    15.5028 </r>
       <r>    12.5259     0.1113    15.5110 </r>
       <r>    12.5996     0.3103    15.5339 </r>
       <r>    12.6733     0.6639    15.5828 </r>
       <r>    12.7470     1.0893    15.6631 </r>
       <r>    12.8207     1.3703    15.7641 </r>
       <r>    12.8944     1.3218    15.8615 </r>
       <r>    12.9681     0.9778    15.9336 </r>
       <r>    13.0418     0.5545    15.9744 </r>
       <r>    13.1155     0.2411    15.9922 </r>
       <r>    13.1892     0.0804    15.9981 </r>
       <r>    13.2629     0.0205    15.9997 </r>
       <r>    13.3366     0.0040    15.9999 </r>
       <r>    13.4103     0.0006    16.0000 </r>
       <r>    13.4840     0.0001    16.0000 </r>
       <r>    13.5577     0.0000    16.0000 </r>
       <r>    13.6314     0.0000    16.0000 </r>
       <r>    13.7051     0.0000    16.0000 </r>
       <r>    13.7788     0.0000    16.0000 </r>
       <r>    13.8525     0.0000    16.0000 </r>
       <r>    13.9262     0.0000    16.0000 </r>
       <r>    13.9999     0.0000    16.0000 </r>
       <r>    14.0737     0.0000    16.0000 </r>
       <r>    14.1474     0.0000    16.0000 </r>
       <r>    14.2211     0.0000    16.0000 </r>
       <r>    14.2948     0.0000    16.0000 </r>
       <r>    14.3685     0.0000    16.0000 </r>
       <r>    14.4422     0.0000    16.0000 </r>
       <r>    14.5159     0.0000    16.0000 </r>
       <r>    14.5896     0.0000    16.0000 </r>
       <r>    14.6633     0.0000    16.0000 </r>
       <r>    14.7370     0.0000    16.0000 </r>
       <r>    14.8107     0.0000    16.0000 </r>
      </set>
     </set>
    </array>
   </total>
  </dos>
 </calculation>
 <structure name="finalpos" >
  <crystal>
   <varray name="basis" >
    <v>       0.00000000       2.71500000       2.71500000 </v>
    <v>       2.71500000       0.00000000       2.71500000 </v>
    <v>       2.71500000       2.71500000       0.00000000 </v>
   </varray>
   <i name="volume">     40.02575175 </i>
   <varray name="rec_basis" >
    <v>      -0.18416206       0.18416206       0.18416206 </v>
    <v>       0.18416206      -0.18416206       0.18416206 </v>
    <v>       0.18416206       0.18416206      -0.18416206 </v>
   </varray>
  </crystal>
  <varray name="positions" >
   <v>       0.50000000       0.50000000       0.50000000 </v>
   <v>       0.75000000       0.75000000       0.75000000 </v>
  </varray>
 </structure>
</modeling>
