unknown system                          
   1.00000000000000     
    -2.446204    2.446204    1.280206
     2.446204   -2.446204    1.280206
     2.446204    2.446204   -1.280206
   Si
     2
Direct
  0.250000  0.750000  0.500000
  0.000000  0.000000  0.000000
 
   24   24   24
 -5.5677     -3.5505      1.4737      7.0701      10.871      11.851      10.606      8.5831      6.7096      5.2585    
  4.2872      3.7475      3.5764      3.7476      4.2872      5.2585      6.7096      8.5831      10.606      11.850    
  10.871      7.0702      1.4735     -3.5508     -3.5508     -4.5797     -1.7905      3.3846      8.4638      11.399    
  11.619      10.021      8.0051      6.2417      4.9289      4.0859      3.6541      3.5764      3.8395      4.4808    
  5.5652      7.1251      9.0649      11.034      11.933      10.425      6.2507     0.77535      1.4735     -1.7907    
 -1.8554      1.2985      6.0175      10.026      11.776      11.177      9.3234      7.3756      5.7580      4.6011    
  3.8914      3.5655      3.5764      3.9233      4.6517      5.8236      7.4527      9.4111      11.290      11.947    
  10.252      6.2507      7.0702      3.3845      1.2984      1.9605      4.9895      8.7321      11.329      11.817    
  10.523      8.5709      6.7405      5.2931      4.2973      3.7159      3.4874      3.5763      3.9927      4.7859    
  6.0108      7.6626      9.5920      11.375      11.947      10.425      10.871      8.4639      6.0174      4.9895    
  6.0174      8.4829      10.938      12.063      11.457      9.7310      7.8162      6.1429      4.8761      4.0352    
  3.5697      3.4246      3.5762      4.0423      4.8716      6.1091      7.7349      9.5920      11.290      11.933    
  11.850      11.399      10.026      8.7321      8.4829      9.5104      11.138      12.263      12.126      10.775    
  8.9135      7.1122      5.6202      4.5302      3.8282      3.4602      3.3806      3.5760      4.0681      4.9011    
  6.1091      7.6626      9.4111      11.034      10.606      11.619      11.776      11.329      10.938      11.138    
  11.899      12.634      12.642      11.640      9.9618      8.1493      6.5085      5.2027      4.2723      3.6857    
  3.3925      3.3580      3.5760      4.0681      4.8716      6.0108      7.4527      9.0649      8.5831      10.021    
  11.177      11.817      12.063      12.263      12.634      13.025      13.021      12.289      10.887      9.1907    
  7.5065      6.0466      4.9125      4.1135      3.6131      3.3697      3.3580      3.5760      4.0423      4.7859    
  5.8236      7.1251      6.7096      8.0051      9.3235      10.523      11.457      12.126      12.642      13.021    
  13.096      12.640      11.596      10.155      8.5611      7.0434      5.7570      4.7640      4.0599      3.6131    
  3.3925      3.3806      3.5762      3.9927      4.6517      5.5652      5.2585      6.2417      7.3756      8.5710    
  9.7311      10.775      11.640      12.289      12.640      12.563      11.976      10.934      9.5898      8.1503    
  6.8013      5.6584      4.7640      4.1135      3.6857      3.4602      3.4246      3.5763      3.9233      4.4808    
  4.2872      4.9288      5.7580      6.7405      7.8163      8.9137      9.9617      10.887      11.596      11.976    
  11.925      11.405      10.475      9.2832      8.0078      6.8013      5.7570      4.9125      4.2723      3.8282    
  3.5697      3.4874      3.5764      3.8395      3.7476      4.0860      4.6011      5.2930      6.1429      7.1124    
  8.1494      9.1907      10.155      10.934      11.405      11.466      11.083      10.312      9.2832      8.1503    
  7.0434      6.0466      5.2027      4.5302      4.0352      3.7159      3.5655      3.5764      3.5764      3.6542    
  3.8915      4.2973      4.8760      5.6202      6.5086      7.5066      8.5611      9.5897      10.475      11.083    
  11.300      11.083      10.475      9.5898      8.5611      7.5065      6.5085      5.6202      4.8761      4.2973    
  3.8914      3.6541      3.7475      3.5764      3.5656      3.7161      4.0353      4.5302      5.2027      6.0466    
  7.0435      8.1503      9.2831      10.312      11.083      11.466      11.405      10.934      10.155      9.1907    
  8.1493      7.1122      6.1429      5.2931      4.6011      4.0859      4.2872      3.8395      3.5764      3.4875    
  3.5699      3.8284      4.2723      4.9124      5.7571      6.8014      8.0078      9.2831      10.475      11.405    
  11.925      11.976      11.596      10.887      9.9618      8.9135      7.8162      6.7405      5.7580      4.9289    
  5.2585      4.4809      3.9234      3.5763      3.4247      3.4604      3.6858      4.1135      4.7639      5.6585    
  6.8014      8.1503      9.5897      10.934      11.976      12.563      12.640      12.289      11.640      10.775    
  9.7310      8.5709      7.3756      6.2417      6.7096      5.5653      4.6519      3.9929      3.5762      3.3807    
  3.3928      3.6132      4.0599      4.7639      5.7571      7.0435      8.5611      10.155      11.596      12.640    
  13.096      13.021      12.642      12.126      11.457      10.523      9.3234      8.0051      8.5831      7.1251    
  5.8238      4.7862      4.0425      3.5760      3.3581      3.3699      3.6132      4.1135      4.9124      6.0466    
  7.5066      9.1907      10.887      12.289      13.021      13.025      12.634      12.263      12.063      11.817    
  11.177      10.021      10.606      9.0649      7.4527      6.0109      4.8719      4.0684      3.5760      3.3581    
  3.3928      3.6858      4.2723      5.2027      6.5086      8.1494      9.9617      11.640      12.642      12.634    
  11.899      11.138      10.938      11.329      11.776      11.619      11.851      11.034      9.4111      7.6626    
  6.1093      4.9014      4.0684      3.5760      3.3807      3.4604      3.8284      4.5302      5.6202      7.1124    
  8.9137      10.775      12.126      12.263      11.138      9.5104      8.4829      8.7321      10.026      11.399    
  10.871      11.933      11.291      9.5921      7.7349      6.1093      4.8719      4.0425      3.5762      3.4247    
  3.5699      4.0353      4.8760      6.1429      7.8163      9.7311      11.457      12.063      10.938      8.4829    
  6.0174      4.9895      6.0175      8.4638      7.0701      10.425      11.947      11.375      9.5921      7.6626    
  6.0109      4.7862      3.9929      3.5763      3.4875      3.7161      4.2973      5.2930      6.7405      8.5710    
  10.523      11.817      11.329      8.7321      4.9895      1.9605      1.2985      3.3846      1.4737      6.2507    
  10.252      11.947      11.291      9.4111      7.4527      5.8238      4.6519      3.9234      3.5764      3.5656    
  3.8915      4.6011      5.7580      7.3756      9.3235      11.177      11.776      10.026      6.0174      1.2984    
 -1.8554     -1.7905     -3.5505     0.77550      6.2507      10.425      11.933      11.034      9.0649      7.1251    
  5.5653      4.4809      3.8395      3.5764      3.6542      4.0860      4.9288      6.2417      8.0051      10.021    
  11.619      11.399      8.4639      3.3845     -1.7907     -4.5797     -3.5503     -2.1192      2.1946      7.2392    
  10.771      11.708      10.506      8.5059      6.6289      5.1557      4.1520      3.5742      3.3581      3.4717    
  3.9342      4.8046      6.1377      7.9030      9.8887      11.386      11.040      8.1040      3.2855     -1.3657    
 -2.1194     -3.5503     -1.3655      3.2857      8.1040      11.040      11.386      9.8888      7.9030      6.1377    
  4.8047      3.9342      3.4717      3.3581      3.5742      4.1519      5.1556      6.6288      8.5058      10.506    
  11.708      10.771      7.2393      2.1945      2.3412     -1.2054     -1.7903     0.85703      5.3049      9.3400    
  11.304      10.928      9.1836      7.2657      5.6456      4.4712      3.7408      3.3939      3.3806      3.6951    
  4.3796      5.4992      7.0823      9.0293      10.997      11.950      10.683      7.0413      7.6040      3.7052    
  1.1548      1.2986      3.9933      7.7158      10.556      11.372      10.312      8.4436      6.6368      5.1851    
  4.1762      3.5831      3.3454      3.4245      3.8268      4.6011      5.8086      7.4604      9.4302      11.338    
  12.154      10.881      11.337      8.7837      5.9401      4.3892      4.9896      7.3081      9.9294      11.403    
  11.127      9.5746      7.7143      6.0549      4.7831      3.9358      3.4695      3.3289      3.4872      3.9604    
  4.7994      6.0576      7.7292      9.6719      11.511      12.324      12.409      11.902      10.246      8.4862    
  7.7539      8.4829      10.109      11.486      11.684      10.577      8.8067      7.0389      5.5524      4.4603    
  3.7614      3.4055      3.3454      3.5652      4.0868      4.9587      6.2237      7.8626      9.7298      11.493    
  11.268      12.329      12.357      11.582      10.748      10.558      11.137      11.942      12.181      11.413    
  9.8518      8.0837      6.4588      5.1560      4.2312      3.6603      3.3936      3.3940      3.6538      4.1968    
  5.0654      6.2914      7.8469      9.5953      9.2779      10.833      12.009      12.502      12.443      12.275    
  12.356      12.634      12.690      12.096      10.788      9.1282      7.4633      6.0111      4.8857      4.1053    
  3.6358      3.4339      3.4718      3.7473      4.2822      5.1107      6.2543      7.6829      7.3859      8.8044    
  10.215      11.425      12.230      12.651      12.882      13.044      13.021      12.562      11.534      10.095    
  8.5101      7.0004      5.7260      4.7557      4.0877      3.6886      3.5240      3.5744      3.8394      4.3364    
  5.0907      6.1164      5.8910      6.9837      8.2156      9.4721      10.628      11.572      12.246      12.675    
  12.842      12.640      11.971      10.880      9.5168      8.0764      6.7402      5.6252      4.7740      4.1797    
  3.8163      3.6594      3.6954      3.9235      4.3550      5.0076      4.8693      5.5990      6.5121      7.5609    
  8.6654      9.7343      10.686      11.456      11.977      12.176      11.976      11.353      10.367      9.1547    
  7.8873      6.7124      5.7198      4.9426      4.3787      4.0137      3.8330      3.8272      3.9931      4.3366    
  4.2826      4.6877      5.2656      6.0103      6.8923      7.8585      8.8433      9.7774      10.587      11.188    
  11.486      11.405      10.927      10.110      9.0777      7.9765      6.9284      6.0102      5.2566      4.6775    
  4.2721      4.0355      3.9609      4.0429      4.0688      4.1973      4.4777      4.9173      5.5162      6.2589    
  7.1134      8.0351      8.9677      9.8371      10.547      10.991      11.083      10.794      10.169      9.3119    
  8.3467      7.3795      6.4835      5.7028      5.0631      4.5790      4.2550      4.0872      4.1972      4.0688    
  4.0873      4.2551      4.5790      5.0631      5.7028      6.4836      7.3796      8.3467      9.3118      10.169    
  10.794      11.083      10.991      10.547      9.8371      8.9678      8.0350      7.1132      6.2588      5.5163    
  4.9173      4.4775      4.6876      4.2824      4.0428      3.9609      4.0357      4.2722      4.6774      5.2565    
  6.0102      6.9285      7.9765      9.0776      10.110      10.927      11.405      11.485      11.188      10.587    
  9.7774      8.8432      7.8583      6.8922      6.0103      5.2656      5.5990      4.8693      4.3364      3.9930    
  3.8272      3.8332      4.0138      4.3787      4.9426      5.7199      6.7125      7.8873      9.1546      10.367    
  11.354      11.976      12.176      11.977      11.456      10.686      9.7341      8.6652      7.5608      6.5121    
  6.9837      5.8910      5.0077      4.3549      3.9234      3.6954      3.6596      3.8164      4.1797      4.7739    
  5.6252      6.7403      8.0763      9.5167      10.880      11.971      12.640      12.842      12.675      12.246    
  11.572      10.628      9.4720      8.2155      8.8042      7.3858      6.1164      5.0908      4.3364      3.8393    
  3.5744      3.5242      3.6887      4.0876      4.7556      5.7261      7.0005      8.5101      10.095      11.534    
  12.562      13.021      13.043      12.882      12.651      12.230      11.425      10.215      10.832      9.2777    
  7.6827      6.2544      5.1108      4.2823      3.7473      3.4718      3.4340      3.6359      4.1052      4.8856    
  6.0111      7.4634      9.1282      10.788      12.096      12.690      12.634      12.355      12.275      12.443    
  12.502      12.009      12.329      11.268      9.5952      7.8467      6.2914      5.0657      4.1969      3.6538    
  3.3940      3.3938      3.6604      4.2311      5.1559      6.4589      8.0838      9.8518      11.413      12.181    
  11.942      11.137      10.558      10.748      11.582      12.357      11.902      12.409      11.494      9.7298    
  7.8625      6.2238      4.9590      4.0870      3.5652      3.3455      3.4057      3.7615      4.4602      5.5524    
  7.0390      8.8068      10.577      11.684      11.486      10.109      8.4828      7.7537      8.4860      10.246    
  8.7835      11.337      12.324      11.511      9.6719      7.7291      6.0578      4.7997      3.9606      3.4872    
  3.3290      3.4697      3.9359      4.7831      6.0548      7.7144      9.5746      11.127      11.403      9.9292    
  7.3079      4.9895      4.3892      5.9400      3.7052      7.6038      10.881      12.154      11.339      9.4302    
  7.4604      5.8088      4.6013      3.8269      3.4245      3.3455      3.5832      4.1762      5.1850      6.6368    
  8.4436      10.312      11.372      10.556      7.7156      3.9931      1.2986      1.1549     -1.2052      2.3413    
  7.0411      10.683      11.950      10.997      9.0294      7.0823      5.4993      4.3798      3.6952      3.3807    
  3.3940      3.7408      4.4712      5.6455      7.2657      9.1835      10.928      11.304      9.3400      5.3047    
 0.85675     -1.7903      1.4743      2.3418      5.4529      9.1511      11.621      11.969      10.583      8.5974    
  6.7495      5.2862      4.2695      3.6592      3.3925      3.4338      3.7942      4.5249      5.6824      7.2630    
  9.1212      10.839      11.374      9.9008      6.7130      3.2859      2.1949     0.77621      2.1951      5.6634    
  9.3343      11.474      11.448      9.8838      7.9402      6.2093      4.8888      4.0106      3.5239      3.3697    
  3.5238      4.0105      4.8887      6.2093      7.9401      9.8837      11.448      11.474      9.3344      5.6633    
  5.4529      2.3416      1.4744      3.2862      6.7132      9.9008      11.374      10.839      9.1214      7.2630    
  5.6824      4.5250      3.7942      3.4338      3.3925      3.6592      4.2694      5.2861      6.7495      8.5974    
  10.583      11.969      11.622      9.1513      9.4891      6.1839      3.7055      3.3852      5.3053      8.2634    
  10.587      11.191      10.136      8.3477      6.6103      5.2019      4.2156      3.6318      3.3936      3.4602    
  3.8329      4.5556      5.6907      7.2640      9.1850      11.168      12.414      11.909      12.339      10.302    
  7.6827      5.9403      6.0178      7.7160      9.8570      11.105      10.823      9.3666      7.6055      6.0188    
  4.7937      3.9763      3.5313      3.4056      3.5697      4.0354      4.8508      6.0729      7.7107      9.6520    
  11.595      12.771      12.996      12.815      11.370      9.5552      8.4862      8.7322      9.9294      11.073    
  11.250      10.247      8.5988      6.9320      5.5180      4.4767      3.8177      3.4974      3.4697      3.7159    
  4.2549      5.1343      6.4013      8.0493      9.9529      11.822      11.814      13.020      13.172      12.378    
  11.317      10.748      10.938      11.486      11.660      10.973      9.5398      7.8894      6.3608      5.1305    
  4.2638      3.7458      3.5315      3.5833      3.8914      4.4775      5.3843      6.6473      8.2464      10.054    
  9.9420      11.554      12.775      13.243      13.020      12.551      12.275      12.263      12.181      11.599    
  10.388      8.8384      7.2821      5.9218      4.8735      4.1632      3.7632      3.6321      3.7411      4.0860    
  4.6875      5.5804      6.7877      8.2813      8.1493      9.6231      11.057      12.237      12.923      13.111    
  13.030      12.882      12.641      12.095      11.086      9.7171      8.2299      6.8212      5.6409      4.7591    
  4.1787      3.8688      3.7945      3.9346      4.2873      4.8692      5.7056      6.8092      6.7097      7.8628    
  9.1265      10.369      11.444      12.221      12.643      12.777      12.675      12.288      11.534      10.437    
  9.1314      7.7815      6.5476      5.5383      4.7952      4.3111      4.0585      4.0109      4.1523      4.4810    
  5.0076      5.7486      5.7055      6.4990      7.4498      8.4985      9.5510      10.502      11.264      11.782    
  12.027      11.977      11.595      10.880      9.8844      8.7262      7.5522      6.4925      5.6276      4.9846    
  4.5568      4.3246      4.2697      4.3800      4.6521      5.0907      5.1108      5.5803      6.1973      6.9488    
  7.7957      8.6749      9.5123      10.239      10.795      11.129      11.188      10.934      10.367      9.5452    
  8.5754      7.5834      6.6746      5.9132      5.3240      4.9074      4.6548      4.5558      4.6015      4.7864    
  4.8721      5.0657      5.3842      5.8318      6.4035      7.0772      7.8142      8.5651      9.2759      9.8877    
  10.334      10.547      10.475      10.110      9.4955      8.7220      7.8928      7.0958      6.3890      5.8022    
  5.3485      5.0318      4.8508      4.7998      4.9589      4.9015      4.9590      5.1342      5.4332      5.8573    
  6.3977      7.0347      7.7392      8.4704      9.1712      9.7655      10.169      10.312      10.169      9.7655    
  9.1713      8.4704      7.7391      7.0346      6.3977      5.8574      5.4333      5.1341      5.3841      5.0655    
  4.8720      4.7998      4.8509      5.0318      5.3483      5.8022      6.3891      7.0960      7.8928      8.7219    
  9.4955      10.110      10.475      10.547      10.334      9.8878      9.2760      8.5650      7.8140      7.0772    
  6.4036      5.8319      6.1974      5.5801      5.1106      4.7862      4.6014      4.5558      4.6548      4.9074    
  5.3240      5.9133      6.6747      7.5833      8.5753      9.5452      10.367      10.934      11.188      11.129    
  10.795      10.239      9.5122      8.6747      7.7956      6.9488      7.4498      6.4990      5.7054      5.0905    
  4.6518      4.3799      4.2697      4.3247      4.5567      4.9845      5.6276      6.4926      7.5521      8.7261    
  9.8844      10.880      11.595      11.977      12.027      11.782      11.264      10.502      9.5508      8.4984    
  9.1263      7.8627      6.7097      5.7486      5.0075      4.4807      4.1522      4.0110      4.0586      4.3110    
  4.7951      5.5383      6.5477      7.7814      9.1313      10.437      11.534      12.288      12.675      12.777    
  12.643      12.221      11.444      10.369      11.057      9.6229      8.1490      6.8092      5.7056      4.8692    
  4.2871      3.9345      3.7946      3.8688      4.1786      4.7590      5.6409      6.8213      8.2298      9.7170    
  11.086      12.095      12.641      12.882      13.030      13.111      12.923      12.237      12.775      11.554    
  9.9418      8.2810      6.7877      5.5806      4.6875      4.0858      3.7410      3.6322      3.7632      4.1630    
  4.8733      5.9218      7.2821      8.8384      10.388      11.599      12.181      12.263      12.274      12.550    
  13.020      13.242      13.172      13.020      11.814      10.054      8.2461      6.6472      5.3845      4.4775    
  3.8913      3.5832      3.5316      3.7459      4.2637      5.1304      6.3608      7.8895      9.5397      10.973    
  11.660      11.486      10.937      10.748      11.317      12.377      11.370      12.815      12.997      11.822    
  9.9528      8.0491      6.4013      5.1345      4.2550      3.7159      3.4696      3.4975      3.8178      4.4766    
  5.5179      6.9320      8.5988      10.247      11.250      11.073      9.9292      8.7320      8.4860      9.5550    
  7.6826      10.302      12.339      12.771      11.595      9.6520      7.7106      6.0729      4.8510      4.0355    
  3.5697      3.4056      3.5314      3.9763      4.7936      6.0187      7.6055      9.3666      10.823      11.105    
  9.8567      7.7157      6.0177      5.9402      3.7056      6.1839      9.4889      11.909      12.414      11.168    
  9.1850      7.2639      5.6908      4.5558      3.8329      3.4602      3.3936      3.6318      4.2156      5.2019    
  6.6102      8.3477      10.136      11.191      10.587      8.2631      5.3050      3.3851      7.0708      7.6043    
  9.4889      11.621      12.764      12.350      10.761      8.8475      7.0814      5.6659      4.6549      4.0137    
  3.6858      3.6359      3.8687      4.4253      5.3578      6.6817      8.3118      10.018      11.236      11.220    
  9.9008      8.1044      7.2396      6.2515      7.0417      9.1512      11.304      12.273      11.651      9.9812    
  8.1200      6.4678      5.1934      4.3246      3.8163      3.6132      3.6886      4.0585      4.7724      5.8815    
  7.3817      9.1453      10.862      11.777      11.208      9.3343      9.1511      7.0415      6.2515      7.2399    
  9.3344      11.208      11.777      10.862      9.1454      7.3817      5.8815      4.7724      4.0585      3.6886    
  3.6132      3.8163      4.3246      5.1933      6.4679      8.1200      9.9811      11.651      12.273      11.304    
  11.621      9.4889      7.6041      7.0708      8.1046      9.9010      11.220      11.236      10.018      8.3119    
  6.6817      5.3579      4.4253      3.8687      3.6359      3.6858      4.0137      4.6548      5.6659      7.0815    
  8.8476      10.761      12.350      12.764      13.247      12.164      10.302      8.7837      8.4643      9.3405    
  10.587      11.178      10.606      9.1634      7.5283      6.0589      4.9232      4.1677      3.7631      3.6604    
  3.8284      4.2722      5.0320      6.1610      7.6787      9.5069      11.419      12.922      13.313      13.660    
  12.814      11.370      10.246      10.026      10.557      11.105      10.943      9.8825      8.3544      6.8320    
  5.5416      4.5958      4.0095      3.7459      3.7616      4.0353      4.5790      5.4335      6.6432      8.2106    
  10.038      11.891      12.123      13.459      13.896      13.372      12.377      11.582      11.329      11.403    
  11.250      10.464      9.1196      7.6281      6.2522      5.1501      4.3873      3.9563      3.8179      3.9361    
  4.2974      4.9173      5.8322      7.0740      8.6286      10.387      10.514      12.080      13.308      13.839    
  13.629      13.020      12.442      12.063      11.684      10.973      9.8070      8.4053      7.0170      5.8125    
  4.8984      4.3044      4.0096      3.9766      4.1765      4.6012      5.2655      6.1976      7.4153      8.8911    
  8.9700      10.402      11.760      12.840      13.421      13.446      13.111      12.650      12.126      11.413    
  10.388      9.1224      7.7927      6.5535      5.5328      4.7962      4.3501      4.1677      4.2159      4.4716    
  4.9290      5.5989      6.4991      7.6347      7.7103      8.8561      10.060      11.189      12.094      12.654    
  12.812      12.643      12.246      11.640      10.788      9.7171      8.5238      7.3313      6.2688      5.4291    
  4.8496      4.5241      4.4253      4.5253      4.8051      5.2586      5.8908      6.7095      6.8088      7.6344    
  8.5608      9.5219      10.422      11.156      11.645      11.852      11.782      11.456      10.886      10.095    
  9.1314      8.0844      7.0687      6.1895      5.5133      5.0611      4.8221      4.7724      4.8891      5.1560    
  5.5654      6.1162      6.2541      6.7872      7.4148      8.1139      8.8405      9.5320      10.120      10.548    
  10.779      10.795      10.587      10.155      9.5167      8.7262      7.8690      7.0439      6.3349      5.7917    
  5.4280      5.2346      5.1932      5.2862      5.4996      5.8239      6.0110      6.2912      6.6467      7.0733    
  7.5592      8.0802      8.6007      9.0800      9.4780      9.7584      9.8879      9.8372      9.5897      9.1547    
  8.5755      7.9238      7.2806      6.7131      6.2618      5.9402      5.7450      5.6657      5.6906      5.8089    
  6.0576      6.1093      6.2237      6.4009      6.6425      6.9471      7.3062      7.7050      8.1225      8.5313    
  8.8957      9.1714      9.3119      9.2831      9.0777      8.7220      8.2695      7.7831      7.3176      6.9095    
  6.5774      6.3277      6.1605      6.0725      6.4008      6.2235      6.1092      6.0577      6.0726      6.1604    
  6.3275      6.5773      6.9096      7.3177      7.7831      8.2694      8.7220      9.0778      9.2831      9.3118    
  9.1713      8.8959      8.5314      8.1224      7.7049      7.3063      6.9473      6.6427      7.0734      6.6466    
  6.2910      6.0108      5.8088      5.6907      5.6656      5.7448      5.9401      6.2619      6.7132      7.2806    
  7.9237      8.5754      9.1547      9.5897      9.8371      9.8879      9.7586      9.4781      9.0799      8.6006    
  8.0802      7.5594      8.1140      7.4148      6.7871      6.2539      5.8236      5.4994      5.2862      5.1932    
  5.2344      5.4279      5.7917      6.3350      7.0438      7.8688      8.7262      9.5167      10.155      10.587    
  10.795      10.780      10.548      10.120      9.5319      8.8405      9.5218      8.5607      7.6344      6.8088    
  6.1159      5.5650      5.1558      4.8891      4.7724      4.8219      5.0610      5.5133      6.1896      7.0687    
  8.0843      9.1314      10.095      10.886      11.455      11.782      11.853      11.645      11.156      10.422    
  11.189      10.060      8.8560      7.7103      6.7095      5.8906      5.2583      4.8048      4.5253      4.4254    
  4.5239      4.8495      5.4291      6.2689      7.3312      8.5237      9.7171      10.788      11.640      12.246    
  12.643      12.813      12.654      12.094      12.840      11.760      10.402      8.9698      7.6346      6.4991    
  5.5987      4.9286      4.4713      4.2159      4.1678      4.3500      4.7961      5.5328      6.5536      7.7926    
  9.1223      10.388      11.413      12.126      12.650      13.111      13.446      13.421      13.839      13.308    
  12.080      10.514      8.8908      7.4152      6.1976      5.2654      4.6009      4.1763      3.9766      4.0096    
  4.3043      4.8983      5.8126      7.0170      8.4053      9.8069      10.973      11.684      12.063      12.442    
  13.020      13.629      13.372      13.896      13.459      12.123      10.387      8.6283      7.0739      5.8322    
  4.9173      4.2971      3.9359      3.8179      3.9563      4.3872      5.1500      6.2522      7.6281      9.1196    
  10.464      11.250      11.403      11.329      11.582      12.377      11.370      12.814      13.660      13.313    
  11.891      10.038      8.2103      6.6431      5.4336      4.5790      4.0351      3.7616      3.7460      4.0095    
  4.5957      5.5415      6.8320      8.3544      9.8824      10.943      11.105      10.556      10.026      10.246    
  8.7838      10.301      12.163      13.247      12.922      11.419      9.5068      7.6784      6.1609      5.0321    
  4.2722      3.8283      3.6604      3.7632      4.1677      4.9231      6.0588      7.5283      9.1634      10.606    
  11.178      10.587      9.3403      8.4643      10.871      11.337      12.338      13.246      13.374      12.484    
  10.938      9.2279      7.6370      6.3278      5.3486      4.6775      4.2724      4.1054      4.1788      4.5241    
  5.1853      6.1863      7.4870      8.9494      10.340      11.236      11.374      11.040      10.771      10.425    
  10.881      11.908      12.763      12.746      11.709      10.106      8.4251      6.9261      5.7451      4.9076    
  4.3788      4.1136      4.0879      4.3112      4.8221      5.6660      6.8549      8.3183      9.8735      11.199    
  11.777      11.474      11.621      10.683      10.252      10.683      11.621      12.273      12.010      10.815    
  9.2101      7.6155      6.2558      5.2347      4.5569      4.1799      4.0601      4.1799      4.5569      5.2347    
  6.2558      7.6156      9.2100      10.815      12.010      12.273      12.764      11.908      10.881      10.425    
  10.771      11.474      11.777      11.199      9.8735      8.3183      6.8549      5.6660      4.8222      4.3112    
  4.0878      4.1137      4.3789      4.9076      5.7451      6.9263      8.4253      10.106      11.709      12.747    
  13.374      13.247      12.338      11.337      10.871      11.040      11.374      11.236      10.339      8.9494    
  7.4870      6.1863      5.1853      4.5241      4.1788      4.1054      4.2725      4.6775      5.3486      6.3279    
  7.6372      9.2281      10.938      12.484      13.068      13.834      13.660      12.814      11.902      11.399    
  11.304      11.191      10.606      9.4665      8.0920      6.7579      5.6395      4.8320      4.3501      4.1632    
  4.2313      4.5303      5.0631      5.8575      6.9475      8.3379      9.9582      11.629      12.108      13.393    