    2    2   15    1
  0.2001288E+02  0.3839590E-09  0.3839590E-09  0.3839590E-09  0.5000000E-15
  1.000000000000000E-004
  CAR 
 unknown system                          
      8    182      8
 
  0.4166667E-01  0.4166667E-01  0.4166667E-01  0.1157407E-02
    1       -6.109058   1.000000
    2        5.573032   0.999945
    3        5.790153   0.990107
    4        5.790153   0.990107
    5        8.447872   0.000000
    6        8.453300   0.000000
    7        8.453300   0.000000
    8        9.370549   0.000000
 
  0.1250000E+00  0.4166667E-01  0.4166667E-01  0.3472222E-02
    1       -5.987818   1.000000
    2        4.687010   1.000000
    3        5.367890   1.000000
    4        5.738132   0.996515
    5        8.532045   0.000000
    6        8.571201   0.000000
    7        8.774036   0.000000
    8       10.181828   0.000000
 
  0.2083333E+00  0.4166667E-01  0.4166667E-01  0.3472222E-02
    1       -5.688539   1.000000
    2        3.179411   1.000000
    3        4.998793   1.000000
    4        5.468967   0.999998
    5        8.274805   0.000000
    6        8.960954   0.000000
    7        9.263888   0.000000
    8       11.499809   0.000000
 
  0.2916667E+00  0.4166667E-01  0.4166667E-01  0.3472222E-02
    1       -5.224014   1.000000
    2        1.660344   1.000000
    3        4.703244   1.000000
    4        5.152629   1.000000
    5        7.966976   0.000000
    6        9.244853   0.000000
    7        9.499582   0.000000
    8       12.600701   0.000000
 
  0.3750000E+00  0.4166667E-01  0.4166667E-01  0.3472222E-02
    1       -4.629719   1.000000
    2        0.292378   1.000000
    3        4.510926   1.000000
    4        4.879613   1.000000
    5        7.721683   0.000000
    6        9.275200   0.000000
    7        9.410873   0.000000
    8       13.484795   0.000000
 
  0.4583333E+00  0.4166667E-01  0.4166667E-01  0.3472222E-02
    1       -4.023286   1.000000
    2       -0.765761   1.000000
    3        4.430544   1.000000
    4        4.685091   1.000000
    5        7.575447   0.000000
    6        9.232078   0.000000
    7        9.234975   0.000000
    8       13.678818   0.000000
 
 -0.4583333E+00  0.4166667E-01  0.4166667E-01  0.3472222E-02
    1       -3.790112   1.000000
    2       -1.112834   1.000000
    3        4.459878   1.000000
    4        4.584510   1.000000
    5        7.539601   0.000000
    6        9.132105   0.000000
    7        9.263778   0.000000
    8       13.644214   0.000000
 
 -0.3750000E+00  0.4166667E-01  0.4166667E-01  0.3472222E-02
    1       -4.211019   1.000000
    2       -0.464691   1.000000
    3        4.587195   1.000000
    4        4.592073   1.000000
    5        7.615626   0.000000
    6        9.140265   0.000000
    7        9.399008   0.000000
    8       13.581999   0.000000
 
 -0.2916667E+00  0.4166667E-01  0.4166667E-01  0.3472222E-02
    1       -4.837865   1.000000
    2        0.723687   1.000000
    3        4.698776   1.000000
    4        4.817094   1.000000
    5        7.798333   0.000000
    6        9.193096   0.000000
    7        9.565001   0.000000
    8       12.791101   0.000000
 
 -0.2083333E+00  0.4166667E-01  0.4166667E-01  0.3472222E-02
    1       -5.395683   1.000000
    2        2.155900   1.000000
    3        4.917782   1.000000
    4        5.116421   1.000000
    5        8.067252   0.000000
    6        9.098535   0.000000
    7        9.567829   0.000000
    8       12.017413   0.000000
 
 -0.1250000E+00  0.4166667E-01  0.4166667E-01  0.3472222E-02
    1       -5.807489   1.000000
    2        3.700251   1.000000
    3        5.225904   1.000000
    4        5.442152   0.999999
    5        8.344461   0.000000
    6        8.767718   0.000000
    7        9.238378   0.000000
    8       11.024005   0.000000
 
 -0.4166667E-01  0.4166667E-01  0.4166667E-01  0.3472222E-02
    1       -6.048309   1.000000
    2        5.154100   1.000000
    3        5.564275   0.999957
    4        5.668682   0.999287
    5        8.314728   0.000000
    6        8.660104   0.000000
    7        8.752288   0.000000
    8        9.753434   0.000000
 
  0.1250000E+00  0.1250000E+00  0.4166667E-01  0.3472222E-02
    1       -5.927063   1.000000
    2        4.606582   1.000000
    3        5.217186   1.000000
    4        5.323323   1.000000
    5        8.073554   0.000000
    6        9.094652   0.000000
    7        9.243003   0.000000
    8       10.241456   0.000000
 
  0.2083333E+00  0.1250000E+00  0.4166667E-01  0.6944444E-02
    1       -5.686669   1.000000
    2        3.566665   1.000000
    3        4.625819   1.000000
    4        5.179314   1.000000
    5        8.086973   0.000000
    6        9.287024   0.000000
    7        9.748209   0.000000
    8       10.784552   0.000000
 
  0.2916667E+00  0.1250000E+00  0.4166667E-01  0.6944444E-02
    1       -5.275650   1.000000
    2        2.140566   1.000000
    3        4.244838   1.000000
    4        4.887144   1.000000
    5        8.289748   0.000000
    6        9.236204   0.000000
    7       10.125217   0.000000
    8       10.956165   0.000000
 
  0.3750000E+00  0.1250000E+00  0.4166667E-01  0.6944444E-02
    1       -4.718590   1.000000
    2        0.755428   1.000000
    3        3.985854   1.000000
    4        4.582162   1.000000
    5        8.244270   0.000000
    6        9.218292   0.000000
    7       10.119335   0.000000
    8       11.558434   0.000000
 
  0.4583333E+00  0.1250000E+00  0.4166667E-01  0.6944444E-02
    1       -4.091440   1.000000
    2       -0.412232   1.000000
    3        3.806890   1.000000
    4        4.388090   1.000000
    5        8.137176   0.000000
    6        9.118429   0.000000
    7        9.941793   0.000000
    8       12.696790   0.000000
 
 -0.4583333E+00  0.1250000E+00  0.4166667E-01  0.6944444E-02
    1       -3.668854   1.000000
    2       -1.054356   1.000000
    3        3.683143   1.000000
    4        4.363414   1.000000
    5        8.104447   0.000000
    6        9.063365   0.000000
    7        9.801626   0.000000
    8       13.844373   0.000000
 
 -0.3750000E+00  0.1250000E+00  0.4166667E-01  0.6944444E-02
    1       -3.904482   1.000000
    2       -0.707385   1.000000
    3        3.633340   1.000000
    4        4.499426   1.000000
    5        8.169770   0.000000
    6        9.104244   0.000000
    7        9.781562   0.000000
    8       13.533708   0.000000
 
 -0.2916667E+00  0.1250000E+00  0.4166667E-01  0.6944444E-02
    1       -4.512080   1.000000
    2        0.336845   1.000000
    3        3.692654   1.000000
    4        4.756231   1.000000
    5        8.324645   0.000000
    6        9.194160   0.000000
    7        9.864238   0.000000
    8       12.357637   0.000000
 
 -0.2083333E+00  0.1250000E+00  0.4166667E-01  0.6944444E-02
    1       -5.105477   1.000000
    2        1.664249   1.000000
    3        3.889358   1.000000
    4        5.084493   1.000000
    5        8.533905   0.000000
    6        9.155612   0.000000
    7        9.892875   0.000000
    8       11.511350   0.000000
 
 -0.1250000E+00  0.1250000E+00  0.4166667E-01  0.6944444E-02
    1       -5.568778   1.000000
    2        3.063662   1.000000
    3        4.271280   1.000000
    4        5.402397   1.000000
    5        8.582329   0.000000
    6        8.990052   0.000000
    7        9.570365   0.000000
    8       11.195662   0.000000
 
 -0.4166667E-01  0.1250000E+00  0.4166667E-01  0.6944444E-02
    1       -5.867115   1.000000
    2        4.142128   1.000000
    3        5.017776   1.000000
    4        5.556825   0.999966
    5        8.361653   0.000000
    6        8.839777   0.000000
    7        9.164055   0.000000
    8       10.679500   0.000000
 
  0.2083333E+00  0.2083333E+00  0.4166667E-01  0.3472222E-02
    1       -5.505224   1.000000
    2        3.314396   1.000000
    3        4.457818   1.000000
    4        4.473357   1.000000
    5        7.472754   0.000000
    6        9.890244   0.000000
    7       10.459210   0.000000
    8       10.494430   0.000000
 
  0.2916667E+00  0.2083333E+00  0.4166667E-01  0.6944444E-02
    1       -5.150139   1.000000
    2        2.350436   1.000000
    3        3.870955   1.000000
    4        4.292479   1.000000
    5        7.507080   0.000000
    6        9.511932   0.000000
    7       10.667857   0.000000
    8       11.102967   0.000000
 
  0.3750000E+00  0.2083333E+00  0.4166667E-01  0.6944444E-02
    1       -4.638421   1.000000
    2        1.138730   1.000000
    3        3.417245   1.000000
    4        4.026374   1.000000
    5        7.766803   0.000000
    6        9.731159   0.000000
    7       10.468739   0.000000
    8       11.300316   0.000000
 
  0.4583333E+00  0.2083333E+00  0.4166667E-01  0.6944444E-02
    1       -4.019288   1.000000
    2       -0.020422   1.000000
    3        3.024107   1.000000
    4        3.887445   1.000000
    5        7.836790   0.000000
    6       10.199322   0.000000
    7       10.732190   0.000000
    8       11.166055   0.000000
 
 -0.4583333E+00  0.2083333E+00  0.4166667E-01  0.6944444E-02
    1       -3.472031   1.000000
    2       -0.849889   1.000000
    3        2.713247   1.000000
    4        3.924126   1.000000
    5        7.913917   0.000000
    6        9.972376   0.000000
    7       10.974660   0.000000
    8       12.163988   0.000000
 
 -0.3750000E+00  0.2083333E+00  0.4166667E-01  0.6944444E-02
    1       -3.482636   1.000000
    2       -0.831328   1.000000
    3        2.530134   1.000000
    4        4.115236   1.000000
    5        8.113076   0.000000
    6        9.824873   0.000000
    7       10.844664   0.000000
    8       13.495565   0.000000
 
 -0.2916667E+00  0.2083333E+00  0.4166667E-01  0.6944444E-02
    1       -4.036002   1.000000
    2        0.011031   1.000000
    3        2.518796   1.000000
    4        4.427598   1.000000
    5        8.431034   0.000000
    6        9.738489   0.000000
    7       10.766542   0.000000
    8       12.135747   0.000000
 
 -0.2083333E+00  0.2083333E+00  0.4166667E-01  0.6944444E-02
    1       -4.652322   1.000000
    2        1.113456   1.000000
    3        2.765084   1.000000
    4        4.807902   1.000000
    5        8.795905   0.000000
    6        9.516345   0.000000
    7       10.587081   0.000000
    8       11.211724   0.000000
 
 -0.1250000E+00  0.2083333E+00  0.4166667E-01  0.6944444E-02
    1       -5.159895   1.000000
    2        2.041122   1.000000
    3        3.492321   1.000000
    4        5.151082   1.000000
    5        8.888513   0.000000
    6        9.095754   0.000000
    7       10.033124   0.000000
    8       11.137131   0.000000
 
 -0.4166667E-01  0.2083333E+00  0.4166667E-01  0.6944444E-02
    1       -5.510923   1.000000
    2        2.654479   1.000000
    3        4.635875   1.000000
    4        5.276635   1.000000
    5        8.365318   0.000000
    6        8.963135   0.000000
    7        9.625374   0.000000
    8       11.502353   0.000000
 
  0.2916667E+00  0.2916667E+00  0.4166667E-01  0.3472222E-02
    1       -4.850698   1.000000
    2        1.890893   1.000000
    3        3.747650   1.000000
    4        3.801083   1.000000
    5        6.931204   0.000000
    6        8.709811   0.000000
    7       11.831752   0.000000
    8       11.901576   0.000000
 
  0.3750000E+00  0.2916667E+00  0.4166667E-01  0.6944444E-02
    1       -4.388738   1.000000
    2        1.042895   1.000000
    3        3.252243   1.000000
    4        3.571664   1.000000
    5        7.046480   0.000000
    6        8.392879   0.000000
    7       11.978641   0.000000
    8       12.584119   0.000000
 
  0.4583333E+00  0.2916667E+00  0.4166667E-01  0.6944444E-02
    1       -3.796105   1.000000
    2        0.101098   1.000000
    3        2.616703   1.000000
    4        3.442054   1.000000
    5        7.282978   0.000000
    6        8.931265   0.000000
    7       11.758028   0.000000
    8       12.667363   0.000000
 
 -0.4583333E+00  0.2916667E+00  0.4166667E-01  0.6944444E-02
    1       -3.184354   1.000000
    2       -0.725573   1.000000
    3        2.066756   1.000000
    4        3.482344   1.000000
    5        7.397205   0.000000
    6       10.187784   0.000000
    7       11.494342   0.000000
    8       12.501530   0.000000
 
 -0.3750000E+00  0.2916667E+00  0.4166667E-01  0.6944444E-02
    1       -2.978038   1.000000
    2       -0.968960   1.000000
    3        1.726151   1.000000
    4        3.677690   1.000000
    5        7.616205   0.000000
    6       11.128064   0.000000
    7       11.858875   0.000000
    8       12.358387   0.000000
 
 -0.2916667E+00  0.2916667E+00  0.4166667E-01  0.6944444E-02
    1       -3.446678   1.000000
    2       -0.393605   1.000000
    3        1.688963   1.000000
    4        4.002926   1.000000
    5        7.978591   0.000000
    6       10.897985   0.000000
    7       11.975647   0.000000
    8       12.171591   0.000000
 
 -0.2083333E+00  0.2916667E+00  0.4166667E-01  0.6944444E-02
    1       -4.067680   1.000000
    2        0.298183   1.000000
    3        2.145974   1.000000
    4        4.409507   1.000000
    5        8.425349   0.000000
    6       10.147063   0.000000
    7       11.240883   0.000000
    8       11.575899   0.000000
 
 -0.1250000E+00  0.2916667E+00  0.4166667E-01  0.6944444E-02
    1       -4.604919   1.000000
    2        0.773727   1.000000
    3        3.160307   1.000000
    4        4.792292   1.000000
    5        8.654921   0.000000
    6        9.322542   0.000000
    7       10.231429   0.000000
    8       11.695594   0.000000
 
 -0.4166667E-01  0.2916667E+00  0.4166667E-01  0.6944444E-02
    1       -4.997504   1.000000
    2        1.191142   1.000000
    3        4.368712   1.000000
    4        4.955866   1.000000
    5        8.123574   0.000000
    6        9.156901   0.000000
    7        9.734244   0.000000
    8       12.093786   0.000000
 
  0.3750000E+00  0.3750000E+00  0.4166667E-01  0.3472222E-02
    1       -3.976021   1.000000
    2        0.434745   1.000000
    3        3.232389   1.000000
    4        3.323716   1.000000
    5        6.580955   0.000554
    6        7.654138   0.000000
    7       13.357855   0.000000
    8       13.382810   0.000000
 
  0.4583333E+00  0.3750000E+00  0.4166667E-01  0.6944444E-02
    1       -3.420185   1.000000
    2       -0.315506   1.000000
    3        2.829807   1.000000
    4        3.122295   1.000000
    5        6.791405   0.000001
    6        7.560471   0.000000
    7       13.398410   0.000000
    8       14.138868   0.000000
 
 -0.4583333E+00  0.3750000E+00  0.4166667E-01  0.6944444E-02
    1       -2.787653   1.000000
    2       -1.022543   1.000000
    3        2.112405   1.000000
    4        3.138909   1.000000
    5        6.982341   0.000000
    6        8.484976   0.000000
    7       13.138870   0.000000
    8       14.159948   0.000000
 
 -0.3750000E+00  0.3750000E+00  0.4166667E-01  0.6944444E-02
    1       -2.438754   1.000000
    2       -1.352825   1.000000
    3        1.563408   1.000000
    4        3.314347   1.000000
    5        7.190140   0.000000
    6        9.978399   0.000000
    7       12.804972   0.000000
    8       13.666299   0.000000
 
 -0.2916667E+00  0.3750000E+00  0.4166667E-01  0.6944444E-02
    1       -2.864744   1.000000
    2       -0.950471   1.000000
    3        1.465434   1.000000
    4        3.628362   1.000000
    5        7.550951   0.000000
    6       11.508686   0.000000
    7       12.026089   0.000000
    8       12.792080   0.000000
 
 -0.2083333E+00  0.3750000E+00  0.4166667E-01  0.6944444E-02
    1       -3.454668   1.000000
    2       -0.590016   1.000000
    3        2.018411   1.000000
    4        4.040904   1.000000
    5        8.027965   0.000000
    6       10.384776   0.000000
    7       11.460128   0.000000
    8       12.758832   0.000000
 
 -0.1250000E+00  0.3750000E+00  0.4166667E-01  0.6944444E-02
    1       -3.977839   1.000000
    2       -0.362137   1.000000
    3        3.057758   1.000000
    4        4.459947   1.000000
    5        8.387411   0.000000
    6        9.320409   0.000000
    7       10.237331   0.000000
    8       12.847611   0.000000
 
 -0.4166667E-01  0.3750000E+00  0.4166667E-01  0.6944444E-02
    1       -4.378187   1.000000
    2       -0.089213   1.000000
    3        4.212375   1.000000
    4        4.691759   1.000000
    5        7.920711   0.000000
    6        9.140197   0.000000
    7        9.590297   0.000000
    8       13.071061   0.000000
 
  0.4583333E+00  0.4583333E+00  0.4166667E-01  0.3472222E-02
    1       -2.901089   1.000000
    2       -0.981808   1.000000
    3        2.943176   1.000000
    4        3.052542   1.000000
    5        6.483975   0.005002
    6        6.942489   0.000000
    7       14.909600   0.000000
    8       14.932738   0.000000
 
 -0.4583333E+00  0.4583333E+00  0.4166667E-01  0.6944444E-02
    1       -2.273953   1.000000
    2       -1.641859   1.000000
    3        2.642790   1.000000
    4        2.934620   1.000000
    5        6.744556   0.000005
    6        7.133390   0.000000
    7       14.877065   0.000000
    8       15.455583   0.000000
 
 -0.3750000E+00  0.4583333E+00  0.4166667E-01  0.6944444E-02
    1       -2.264823   1.000000
    2       -1.571893   1.000000
    3        2.010284   1.000000
    4        3.079378   1.000000
    5        6.919563   0.000000
    6        8.397264   0.000000
    7       13.840875   0.000000
    8       14.597036   0.000000
 
 -0.2916667E+00  0.4583333E+00  0.4166667E-01  0.6944444E-02
    1       -2.764374   1.000000
    2       -1.071233   1.000000
    3        1.737491   1.000000
    4        3.370160   1.000000
    5        7.259982   0.000000
    6       10.048307   0.000000
    7       12.155151   0.000000
    8       13.223332   0.000000
 
 -0.2083333E+00  0.4583333E+00  0.4166667E-01  0.6944444E-02
    1       -3.191106   1.000000
    2       -0.948310   1.000000
    3        2.170272   1.000000
    4        3.776156   1.000000
    5        7.741959   0.000000
    6       10.550649   0.000000
    7       11.589910   0.000000
    8       12.026443   0.000000
 
 -0.1250000E+00  0.4583333E+00  0.4166667E-01  0.6944444E-02
    1       -3.549648   1.000000
    2       -1.004199   1.000000
    3        3.111473   1.000000
    4        4.223213   1.000000
    5        8.185414   0.000000
    6        9.336048   0.000000
    7       10.275368   0.000000
    8       13.858978   0.000000
 
 -0.4166667E-01  0.4583333E+00  0.4166667E-01  0.6944444E-02
    1       -3.834235   1.000000
    2       -0.969985   1.000000
    3        4.149693   1.000000
    4        4.538354   1.000000
    5        7.812862   0.000000
    6        9.088009   0.000000
    7        9.450848   0.000000
    8       13.753771   0.000000
 
 -0.4583333E+00 -0.4583333E+00  0.4166667E-01  0.3472222E-02
    1       -2.297488   1.000000
    2       -1.655414   1.000000
    3        2.885131   1.000000
    4        2.997866   1.000000
    5        6.532097   0.001773
    6        6.731411   0.000008
    7       15.617188   0.000000
    8       15.673182   0.000000
 
 -0.3750000E+00 -0.4583333E+00  0.4166667E-01  0.6944444E-02
    1       -2.866631   1.000000
    2       -0.988236   1.000000
    3        2.705462   1.000000
    4        2.996857   1.000000
    5        6.747836   0.000004
    6        7.288349   0.000000
    7       14.135815   0.000000
    8       14.919899   0.000000
 
 -0.2916667E+00 -0.4583333E+00  0.4166667E-01  0.6944444E-02
    1       -3.308592   1.000000
    2       -0.452735   1.000000
    3        2.316269   1.000000
    4        3.258913   1.000000
    5        7.105236   0.000000
    6        8.662264   0.000000
    7       12.437816   0.000000
    8       13.408240   0.000000
 
 -0.2083333E+00 -0.4583333E+00  0.4166667E-01  0.6944444E-02
    1       -3.612463   1.000000
    2       -0.375864   1.000000
    3        2.513262   1.000000
    4        3.652865   1.000000
    5        7.594253   0.000000
    6       10.387025   0.000000
    7       10.870237   0.000000
    8       11.804191   0.000000
 
 -0.1250000E+00 -0.4583333E+00  0.4166667E-01  0.6944444E-02
    1       -3.782495   1.000000
    2       -0.668691   1.000000
    3        3.283890   1.000000
    4        4.125010   1.000000
    5        8.090505   0.000000
    6        9.449957   0.000000
    7       10.409190   0.000000
    8       12.395162   0.000000
 
 -0.3750000E+00 -0.3750000E+00  0.4166667E-01  0.3472222E-02
    1       -3.462001   1.000000
    2       -0.282542   1.000000
    3        3.059076   1.000000
    4        3.161449   1.000000
    5        6.498472   0.003701
    6        7.253077   0.000000
    7       14.142399   0.000000
    8       14.143403   0.000000
 
 -0.2916667E+00 -0.3750000E+00  0.4166667E-01  0.6944444E-02
    1       -3.928874   1.000000
    2        0.365189   1.000000
    3        3.013455   1.000000
    4        3.313007   1.000000
    5        6.890627   0.000000
    6        7.931268   0.000000
    7       12.679277   0.000000
    8       13.355009   0.000000
 
 -0.2083333E+00 -0.3750000E+00  0.4166667E-01  0.6944444E-02
    1       -4.241155   1.000000
    2        0.630333   1.000000
    3        2.995796   1.000000
    4        3.694477   1.000000
    5        7.507532   0.000000
    6        9.292995   0.000000
    7       11.097653   0.000000
    8       11.960628   0.000000
 
 -0.1250000E+00 -0.3750000E+00  0.4166667E-01  0.6944444E-02
    1       -4.390743   1.000000
    2        0.353294   1.000000
    3        3.534921   1.000000
    4        4.198063   1.000000
    5        8.089311   0.000000
    6        9.639969   0.000000
    7       10.593298   0.000000
    8       11.102741   0.000000
 
 -0.2916667E+00 -0.2916667E+00  0.4166667E-01  0.3472222E-02
    1       -4.439851   1.000000
    2        1.162090   1.000000
    3        3.462287   1.000000
    4        3.537759   1.000000
    5        6.727224   0.000009
    6        8.142531   0.000000
    7       12.585512   0.000000
    8       12.634659   0.000000
 
 -0.2083333E+00 -0.2916667E+00  0.4166667E-01  0.6944444E-02
    1       -4.796644   1.000000
    2        1.707172   1.000000
    3        3.540332   1.000000
    4        3.899733   1.000000
    5        7.254643   0.000000
    6        8.933733   0.000000
    7       11.299253   0.000000
    8       11.831778   0.000000
 
 -0.1250000E+00 -0.2916667E+00  0.4166667E-01  0.6944444E-02
    1       -4.984136   1.000000
    2        1.637967   1.000000
    3        3.839229   1.000000
    4        4.438161   1.000000
    5        8.042000   0.000000
    6        9.749770   0.000000
    7       10.365236   0.000000
    8       10.698348   0.000000
 
 -0.2083333E+00 -0.2083333E+00  0.4166667E-01  0.3472222E-02
    1       -5.206411   1.000000
    2        2.611916   1.000000
    3        4.086231   1.000000
    4        4.109878   1.000000
    5        7.183901   0.000000
    6        9.329408   0.000000
    7       11.104424   0.000000
    8       11.186088   0.000000
 
 -0.1250000E+00 -0.2083333E+00  0.4166667E-01  0.6944444E-02
    1       -5.447314   1.000000
    2        2.969747   1.000000
    3        4.236522   1.000000
    4        4.732141   1.000000
    5        7.791113   0.000000
    6        9.752505   0.000000
    7       10.401082   0.000000
    8       10.424861   0.000000
 
 -0.1250000E+00 -0.1250000E+00  0.4166667E-01  0.3472222E-02
    1       -5.745788   1.000000
    2        3.985001   1.000000
    3        4.833887   1.000000
    4        4.896887   1.000000
    5        7.778856   0.000000
    6        9.653050   0.000000
    7        9.838872   0.000000
    8       10.435576   0.000000
 
  0.1250000E+00  0.1250000E+00  0.1250000E+00  0.1157407E-02
    1       -5.927624   1.000000
    2        4.232060   1.000000
    3        5.540571   0.999979
    4        5.540571   0.999979
    5        8.335944   0.000000
    6        8.821129   0.000000
    7        8.821129   0.000000
    8       10.548615   0.000000
 
  0.2083333E+00  0.1250000E+00  0.1250000E+00  0.3472222E-02
    1       -5.747491   1.000000
    2        3.609167   1.000000
    3        4.664898   1.000000
    4        5.616028   0.999816
    5        8.685337   0.000000
    6        8.806956   0.000000
    7        9.094474   0.000000
    8       11.160446   0.000000
 
  0.2916667E+00  0.1250000E+00  0.1250000E+00  0.3472222E-02
    1       -5.392824   1.000000
    2        2.549557   1.000000
    3        3.877878   1.000000
    4        5.401653   1.000000
    5        8.818373   0.000000
    6        9.162085   0.000000
    7        9.453272   0.000000
    8       11.535409   0.000000
 
  0.3750000E+00  0.1250000E+00  0.1250000E+00  0.3472222E-02
    1       -4.881078   1.000000
    2        1.205578   1.000000
    3        3.519904   1.000000
    4        5.056092   1.000000
    5        8.552934   0.000000
    6        9.510991   0.000000
    7        9.687413   0.000000
    8       12.132248   0.000000
 
  0.4583333E+00  0.1250000E+00  0.1250000E+00  0.3472222E-02
    1       -4.262507   1.000000
    2       -0.038875   1.000000
    3        3.378657   1.000000
    4        4.712983   1.000000
    5        8.297333   0.000000
    6        9.542634   0.000000
    7        9.655977   0.000000
    8       13.208661   0.000000
 
 -0.4583333E+00  0.1250000E+00  0.1250000E+00  0.3472222E-02
    1       -3.715662   1.000000
    2       -0.912221   1.000000
    3        3.396236   1.000000
    4        4.439109   1.000000
    5        8.111272   0.000000
    6        9.388289   0.000000
    7        9.757480   0.000000
    8       14.085066   0.000000
 
 -0.3750000E+00  0.1250000E+00  0.1250000E+00  0.3472222E-02
    1       -3.712674   1.000000
    2       -0.917751   1.000000
    3        3.550940   1.000000
    4        4.268411   1.000000
    5        8.026074   0.000000
    6        9.346913   0.000000
    7        9.933099   0.000000
    8       13.202777   0.000000
 
 -0.2916667E+00  0.1250000E+00  0.1250000E+00  0.3472222E-02
    1       -4.257675   1.000000
    2       -0.049894   1.000000
    3        3.823666   1.000000
    4        4.219562   1.000000
    5        8.046072   0.000000
    6        9.418382   0.000000
    7       10.178592   0.000000
    8       11.865553   0.000000
 
 -0.2083333E+00  0.1250000E+00  0.1250000E+00  0.3472222E-02
    1       -4.876994   1.000000
    2        1.200922   1.000000
    3        4.187578   1.000000
    4        4.301177   1.000000
    5        8.099575   0.000000
    6        9.519391   0.000000
    7       10.379535   0.000000
    8       10.873470   0.000000
 
 -0.1250000E+00  0.1250000E+00  0.1250000E+00  0.3472222E-02
    1       -5.389930   1.000000
    2        2.607152   1.000000
    3        4.511791   1.000000
    4        4.587993   1.000000
    5        7.979436   0.000000
    6        9.543521   0.000000
    7       10.301257   0.000000
    8       10.582309   0.000000
 
  0.2083333E+00  0.2083333E+00  0.1250000E+00  0.3472222E-02
    1       -5.627954   1.000000
    2        3.154933   1.000000
    3        4.868715   1.000000
    4        5.078198   1.000000
    5        8.241363   0.000000
    6        9.023508   0.000000
    7        9.746255   0.000000
    8       11.061690   0.000000
 
  0.2916667E+00  0.2083333E+00  0.1250000E+00  0.6944444E-02
    1       -5.331912   1.000000
    2        2.516223   1.000000
    3        3.883015   1.000000
    4        5.004944   1.000000
    5        8.322050   0.000000
    6        9.376810   0.000000
    7       10.239818   0.000000
    8       10.676779   0.000000
 
  0.3750000E+00  0.2083333E+00  0.1250000E+00  0.6944444E-02
    1       -4.871590   1.000000
    2        1.541262   1.000000
    3        3.137897   1.000000
    4        4.729015   1.000000
    5        8.727656   0.000000
    6        9.321599   0.000000
    7       10.520707   0.000000
    8       10.808344   0.000000
 
  0.4583333E+00  0.2083333E+00  0.1250000E+00  0.6944444E-02
    1       -4.280530   1.000000
    2        0.369934   1.000000
    3        2.822261   1.000000
    4        4.373269   1.000000
    5        8.832259   0.000000
    6        9.135978   0.000000
    7       10.922465   0.000000
    8       11.281124   0.000000
 
 -0.4583333E+00  0.2083333E+00  0.1250000E+00  0.6944444E-02
    1       -3.670506   1.000000
    2       -0.625524   1.000000
    3        2.731285   1.000000
    4        4.085084   1.000000
    5        8.639564   0.000000
    6        9.077479   0.000000
    7       10.965271   0.000000
    8       12.529645   0.000000
 
 -0.3750000E+00  0.2083333E+00  0.1250000E+00  0.6944444E-02
    1       -3.428936   1.000000
    2       -0.969724   1.000000
    3        2.774819   1.000000
    4        3.943995   1.000000
    5        8.437227   0.000000
    6        9.189750   0.000000
    7       10.989833   0.000000
    8       13.088530   0.000000
 
 -0.2916667E+00  0.2083333E+00  0.1250000E+00  0.6944444E-02
    1       -3.855383   1.000000
    2       -0.346834   1.000000
    3        2.908908   1.000000
    4        3.993229   1.000000
    5        8.333623   0.000000
    6        9.425859   0.000000
    7       11.068574   0.000000
    8       11.600014   0.000000
 
 -0.2083333E+00  0.2083333E+00  0.1250000E+00  0.6944444E-02
    1       -4.482997   1.000000
    2        0.753198   1.000000
    3        3.134087   1.000000
    4        4.221371   1.000000
    5        8.278546   0.000000
    6        9.724090   0.000000
    7       10.415039   0.000000
    8       11.162216   0.000000
 
 -0.1250000E+00  0.2083333E+00  0.1250000E+00  0.6944444E-02
    1       -5.038144   1.000000
    2        1.965405   1.000000
    3        3.522566   1.000000
    4        4.534511   1.000000
    5        8.052815   0.000000
    6        9.742720   0.000000
    7       10.186748   0.000000
    8       10.971569   0.000000
 