unknown system                          
   1.00000000000000     
     0.000000    2.597584    2.597584
     2.597584    0.000000    2.597584
     2.597584    2.597584    0.000000
   Si
     2
Direct
  0.000000  0.000000  0.000000
  0.250000  0.250000  0.250000
 
   36   36   36
 -6.9253     -5.7658     -2.5681      1.9190      6.7204      10.924      13.909      15.443      15.655      14.924    
  13.725      12.410      11.117      9.9407      8.9438      8.1598      7.6013      7.2687      7.1584      7.2687    
  7.6013      8.1598      8.9438      9.9407      11.117      12.410      13.725      14.924      15.655      15.442    
  13.908      10.924      6.7203      1.9190     -2.5680     -5.7657     -5.7658     -3.4233     0.67793      5.5773    
  10.254      13.914      16.151      16.953      16.613      15.581      14.297      12.968      11.699      10.571    
  9.6365      8.9243      8.4474      8.2090      8.2091      8.4474      8.9243      9.6365      10.571      11.699    
  12.968      14.297      15.581      16.612      16.953      16.151      13.914      10.254      5.5772     0.67796    
 -3.4232     -5.7658     -2.5681     0.67793      5.1660      9.8693      13.879      16.628      17.953      18.033    
  17.258      16.077      14.778      13.477      12.262      11.203      10.344      9.7169      9.3356      9.2078    
  9.3356      9.7169      10.344      11.203      12.262      13.477      14.778      16.077      17.258      18.033    
  17.953      16.627      13.879      9.8692      5.1660     0.67797     -2.5681     -3.7543      1.9190      5.5773    
  9.8693      13.861      16.870      18.588      19.065      18.601      17.604      16.409      15.148      13.911    
  12.774      11.797      11.026      10.495      10.223      10.223      10.495      11.026      11.797      12.774    
  13.911      15.148      16.409      17.604      18.601      19.065      18.588      16.870      13.861      9.8693    
  5.5773      1.9191     -.19345     -.19347      6.7204      10.254      13.879      16.870      18.806      19.610    
  19.472      18.729      17.715      16.574      15.392      14.245      13.197      12.310      11.633      11.209    
  11.064      11.209      11.633      12.310      13.197      14.245      15.392      16.574      17.715      18.729    
  19.472      19.610      18.806      16.870      13.879      10.254      6.7204      4.1302      3.1775      4.1303    
  10.924      13.914      16.628      18.588      19.610      19.773      19.328      18.561      17.619      16.574    
  15.495      14.445      13.490      12.693      12.117      11.814      11.814      12.117      12.693      13.490    
  14.445      15.495      16.574      17.619      18.561      19.328      19.774      19.610      18.588      16.628    
  13.914      10.924      8.3359      6.8287      6.8288      8.3361      13.909      16.151      17.953      19.065    
  19.472      19.328      18.855      18.172      17.338      16.409      15.437      14.481      13.611      12.901    
  12.430      12.265      12.430      12.901      13.612      14.482      15.437      16.409      17.338      18.172    
  18.855      19.328      19.472      19.065      17.953      16.151      13.909      11.688      10.044      9.4375    
  10.045      11.688      15.443      16.953      18.033      18.601      18.729      18.561      18.172      17.603    
  16.893      16.077      15.201      14.322      13.512      12.876      12.523      12.523      12.876      13.512    
  14.322      15.201      16.077      16.893      17.603      18.172      18.561      18.729      18.601      18.033    
  16.953      15.442      13.761      12.295      11.438      11.439      12.296      13.761      15.655      16.613    
  17.258      17.604      17.715      17.619      17.338      16.893      16.298      15.581      14.771      13.924    
  13.156      12.612      12.414      12.612      13.156      13.925      14.771      15.581      16.298      16.893    
  17.338      17.619      17.715      17.604      17.258      16.612      15.655      14.494      13.353      12.511    
  12.200      12.511      13.353      14.494      14.924      15.581      16.077      16.409      16.574      16.574    
  16.409      16.077      15.581      14.924      14.131      13.302      12.600      12.194      12.195      12.600    
  13.302      14.131      14.924      15.581      16.077      16.409      16.574      16.574      16.409      16.077    
  15.581      14.924      14.131      13.302      12.600      12.195      12.194      12.600      13.302      14.131    
  13.725      14.297      14.778      15.148      15.392      15.495      15.437      15.201      14.771      14.131    
  13.346      12.568      11.989      11.775      11.990      12.568      13.346      14.131      14.771      15.201    
  15.437      15.495      15.393      15.148      14.778      14.297      13.725      13.098      12.466      11.903    
  11.507      11.364      11.507      11.903      12.466      13.098      12.410      12.968      13.477      13.911    
  14.245      14.445      14.481      14.322      13.924      13.302      12.568      11.907      11.515      11.515    
  11.907      12.568      13.302      13.924      14.322      14.481      14.445      14.245      13.911      13.477    
  12.968      12.410      11.832      11.269      10.771      10.394      10.189      10.189      10.394      10.771    
  11.269      11.832      11.117      11.699      12.262      12.774      13.197      13.490      13.611      13.512    
  13.156      12.600      11.989      11.515      11.336      11.515      11.990      12.600      13.156      13.512    
  13.611      13.490      13.197      12.774      12.262      11.699      11.117      10.543      10.004      9.5298    
  9.1548      8.9123      8.8283      8.9124      9.1548      9.5298      10.004      10.543      9.9407      10.571    
  11.203      11.797      12.310      12.693      12.901      12.876      12.612      12.194      11.775      11.515    
  11.515      11.775      12.195      12.612      12.876      12.901      12.693      12.310      11.797      11.203    
  10.571      9.9407      9.3398      8.7919      8.3173      7.9357      7.6666      7.5269      7.5270      7.6666    
  7.9357      8.3174      8.7920      9.3398      8.9438      9.6365      10.344      11.026      11.633      12.117    
  12.430      12.523      12.414      12.195      11.990      11.907      11.990      12.195      12.414      12.523    
  12.430      12.117      11.633      11.026      10.344      9.6365      8.9438      8.2974      7.7191      7.2238    
  6.8230      6.5269      6.3446      6.2830      6.3446      6.5270      6.8231      7.2238      7.7191      8.2974    
  8.1598      8.9243      9.7169      10.495      11.209      11.814      12.265      12.523      12.612      12.600    
  12.568      12.568      12.600      12.612      12.523      12.265      11.814      11.209      10.495      9.7168    
  8.9242      8.1598      7.4558      6.8333      6.3038      5.8737      5.5467      5.3261      5.2149      5.2149    
  5.3262      5.5468      5.8738      6.3038      6.8332      7.4558      7.6013      8.4474      9.3356      10.223    
  11.064      11.814      12.430      12.876      13.156      13.302      13.346      13.302      13.156      12.876    
  12.430      11.814      11.064      10.223      9.3356      8.4474      7.6012      6.8296      6.1526      5.5795    
  5.1126      4.7509      4.4930      4.3382      4.2866      4.3382      4.4930      4.7509      5.1126      5.5795    
  6.1525      6.8296      7.2687      8.2090      9.2078      10.223      11.209      12.117      12.901      13.512    
  13.925      14.131      14.131      13.924      13.512      12.901      12.117      11.209      10.223      9.2079    
  8.2091      7.2687      6.4182      5.6766      5.0511      4.5407      4.1403      3.8445      3.6492      3.5520    
  3.5520      3.6492      3.8445      4.1402      4.5406      5.0511      5.6766      6.4182      7.1584      8.2091    
  9.3356      10.495      11.633      12.693      13.612      14.322      14.771      14.924      14.771      14.322    
  13.611      12.693      11.633      10.495      9.3356      8.2091      7.1584      6.2151      5.3968      4.7087    
  4.1469      3.7027      3.3668      3.1318      2.9925      2.9464      2.9925      3.1317      3.3668      3.7026    
  4.1469      4.7088      5.3969      6.2151      7.2687      8.4474      9.7169      11.026      12.310      13.490    
  14.482      15.201      15.581      15.581      15.201      14.481      13.490      12.310      11.026      9.7168    
  8.4474      7.2687      6.2151      5.3047      4.5411      3.9175      3.4221      3.0418      2.7657      2.5856    
  2.4967      2.4967      2.5856      2.7657      3.0418      3.4221      3.9176      4.5411      5.3048      6.2151    
  7.6013      8.9243      10.344      11.797      13.197      14.445      15.437      16.077      16.298      16.077    
  15.437      14.445      13.197      11.797      10.344      8.9242      7.6012      6.4182      5.3968      4.5411    
  3.8423      3.2854      2.8538      2.5326      2.3107      2.1803      2.1373      2.1803      2.3106      2.5326    
  2.8538      3.2855      3.8424      4.5411      5.3969      6.4182      8.1598      9.6365      11.203      12.774    
  14.245      15.495      16.409      16.893      16.893      16.409      15.495      14.245      12.774      11.203    
  9.6365      8.1598      6.8296      5.6766      4.7087      3.9175      3.2854      2.7922      2.4194      2.1520    
  1.9793      1.8946      1.8946      1.9793      2.1520      2.4194      2.7923      3.2855      3.9175      4.7088    
  5.6766      6.8296      8.9438      10.571      12.262      13.911      15.392      16.574      17.338      17.603    
  17.338      16.574      15.393      13.911      12.262      10.571      8.9438      7.4558      6.1526      5.0511    
  4.1469      3.4221      2.8538      2.4194      2.1001      1.8817      1.7545      1.7127      1.7545      1.8818    
  2.1002      2.4194      2.8538      3.4221      4.1469      5.0511      6.1525      7.4558      9.9407      11.699    
  13.477      15.148      16.574      17.619      18.172      18.172      17.619      16.574      15.148      13.477    
  11.699      9.9407      8.2974      6.8333      5.5795      4.5407      3.7027      3.0418      2.5326      2.1520    
  1.8817      1.7087      1.6243      1.6243      1.7087      1.8818      2.1520      2.5326      3.0418      3.7026    
  4.5406      5.5795      6.8332      8.2974      11.117      12.968      14.778      16.409      17.715      18.561    
  18.855      18.561      17.715      16.409      14.778      12.968      11.117      9.3398      7.7191      6.3038    
  5.1126      4.1403      3.3668      2.7657      2.3107      1.9793      1.7545      1.6243      1.5817      1.6243    
  1.7545      1.9793      2.3106      2.7657      3.3668      4.1403      5.1126      6.3038      7.7191      9.3398    
  12.410      14.297      16.077      17.604      18.729      19.328      19.328      18.729      17.604      16.077    
  14.297      12.410      10.543      8.7919      7.2238      5.8737      4.7509      3.8445      3.1318      2.5856    
  2.1803      1.8946      1.7127      1.6243      1.6243      1.7127      1.8946      2.1803      2.5856      3.1317    
  3.8445      4.7509      5.8738      7.2238      8.7920      10.543      13.725      15.581      17.258      18.601    
  19.472      19.774      19.472      18.601      17.258      15.581      13.725      11.832      10.004      8.3173    
  6.8230      5.5467      4.4930      3.6492      2.9925      2.4967      2.1373      1.8946      1.7545      1.7087    
  1.7545      1.8946      2.1373      2.4967      2.9925      3.6492      4.4930      5.5468      6.8231      8.3174    
  10.004      11.832      14.924      16.612      18.033      19.065      19.610      19.610      19.065      18.033    
  16.612      14.924      13.098      11.269      9.5298      7.9357      6.5269      5.3261      4.3382      3.5520    
  2.9464      2.4967      2.1803      1.9793      1.8818      1.8818      1.9793      2.1803      2.4967      2.9464    
  3.5520      4.3383      5.3262      6.5269      7.9357      9.5298      11.269      13.098      15.655      16.953    
  17.953      18.588      18.806      18.588      17.953      16.953      15.655      14.131      12.466      10.771    
  9.1548      7.6666      6.3446      5.2149      4.2866      3.5520      2.9925      2.5856      2.3106      2.1520    
  2.1002      2.1520      2.3106      2.5856      2.9925      3.5520      4.2866      5.2150      6.3446      7.6666    
  9.1548      10.771      12.466      14.131      15.442      16.151      16.627      16.870      16.870      16.628    
  16.151      15.442      14.494      13.302      11.903      10.394      8.9123      7.5269      6.2830      5.2149    
  4.3382      3.6492      3.1317      2.7657      2.5326      2.4194      2.4194      2.5326      2.7657      3.1317    
  3.6492      4.3383      5.2150      6.2830      7.5269      8.9123      10.394      11.903      13.302      14.494    
  13.908      13.914      13.879      13.861      13.879      13.914      13.909      13.761      13.353      12.600    
  11.507      10.189      8.8283      7.5270      6.3446      5.3262      4.4930      3.8445      3.3668      3.0418    
  2.8538      2.7923      2.8538      3.0418      3.3668      3.8445      4.4930      5.3262      6.3446      7.5269    
  8.8282      10.189      11.507      12.600      13.353      13.761      10.924      10.254      9.8692      9.8693    
  10.254      10.924      11.688      12.295      12.511      12.195      11.364      10.189      8.9124      7.6666    
  6.5270      5.5468      4.7509      4.1402      3.7026      3.4221      3.2855      3.2855      3.4221      3.7026    
  4.1403      4.7509      5.5468      6.5269      7.6666      8.9123      10.189      11.364      12.195      12.511    
  12.295      11.688      6.7203      5.5772      5.1660      5.5773      6.7204      8.3359      10.044      11.438    
  12.200      12.194      11.507      10.394      9.1548      7.9357      6.8231      5.8738      5.1126      4.5406    
  4.1469      3.9176      3.8424      3.9175      4.1469      4.5406      5.1126      5.8738      6.8231      7.9357    
  9.1548      10.394      11.507      12.195      12.200      11.439      10.044      8.3358      1.9190     0.67796    
 0.67797      1.9191      4.1302      6.8287      9.4375      11.439      12.511      12.600      11.903      10.771    
  9.5298      8.3174      7.2238      6.3038      5.5795      5.0511      4.7088      4.5411      4.5411      4.7088    
  5.0511      5.5795      6.3038      7.2238      8.3174      9.5298      10.771      11.903      12.600      12.511    
  11.439      9.4375      6.8287      4.1302     -2.5680     -3.4232     -2.5681     -.19345      3.1775      6.8288    
  10.045      12.296      13.353      13.302      12.466      11.269      10.004      8.7920      7.7191      6.8332    
  6.1525      5.6766      5.3969      5.3048      5.3969      5.6766      6.1525      6.8332      7.7191      8.7920    
  10.004      11.269      12.466      13.302      13.353      12.295      10.044      6.8287      3.1775     -.19341    
 -5.7657     -5.7658     -3.7543     -.19347      4.1303      8.3361      11.688      13.761      14.494      14.131    
  13.098      11.832      10.543      9.3398      8.2974      7.4558      6.8296      6.4182      6.2151      6.2151    
  6.4182      6.8296      7.4558      8.2974      9.3398      10.543      11.832      13.098      14.131      14.494    
  13.761      11.688      8.3358      4.1302     -.19341     -3.7541     -5.7658     -3.4233     0.67793      5.5773    
  10.254      13.914      16.151      16.953      16.613      15.581      14.297      12.968      11.699      10.571    
  9.6365      8.9243      8.4474      8.2090      8.2091      8.4474      8.9243      9.6365      10.571      11.699    
  12.968      14.297      15.581      16.612      16.953      16.151      13.914      10.254      5.5772     0.67796    
 -3.4232     -5.7658     -3.4233     -.35162E-01  4.6514      9.5683      13.772      16.673      18.102      18.241    
  17.485      16.298      14.986      13.669      12.438      11.361      10.489      9.8498      9.4615      9.3313    
  9.4615      9.8498      10.489      11.361      12.438      13.669      14.986      16.299      17.485      18.241    
  18.102      16.673      13.772      9.5682      4.6513     -.35168E-01 -3.4233     -4.6612     0.67793      4.6514    
  9.3194      13.676      16.987      18.921      19.527      19.115      18.114      16.893      15.598      14.325    
  13.150      12.138      11.337      10.784      10.502      10.502      10.784      11.337      12.138      13.150    
  14.325      15.598      16.893      18.114      19.115      19.527      18.921      16.987      13.676      9.3194    
  4.6514     0.67793     -1.6155     -1.6155      5.5773      9.5683      13.676      17.092      19.350      20.356    
  20.312      19.578      18.527      17.338      16.101      14.893      13.787      12.845      12.125      11.673    
  11.518      11.673      12.125      12.845      13.787      14.893      16.101      17.338      18.527      19.578    
  20.312      20.357      19.350      17.093      13.676      9.5683      5.5773      2.6556      1.5813      2.6556    
  10.254      13.772      16.987      19.350      20.643      20.947      20.532      19.729      18.731      17.619    
  16.461      15.329      14.291      13.422      12.791      12.457      12.457      12.791      13.422      14.291    
  15.329      16.461      17.618      18.731      19.729      20.532      20.947      20.644      19.350      16.987    
  13.772      10.254      7.2186      5.4529      5.4529      7.2187      13.914      16.673      18.921      20.356    
  20.947      20.863      20.367      19.634      18.731      17.715      16.642      15.579      14.599      13.788    
  13.246      13.055      13.246      13.788      14.599      15.579      16.642      17.715      18.731      19.634    
  20.367      20.863      20.947      20.356      18.921      16.673      13.914      11.199      9.1961      8.4569    
  9.1962      11.199      16.151      18.102      19.527      20.312      20.532      20.367      19.947      19.321    
  18.527      17.604      16.600      15.568      14.598      13.828      13.399      13.399      13.829      14.598    
  15.568      16.600      17.604      18.527      19.320      19.947      20.367      20.532      20.312      19.527    
  18.102      16.151      14.001      12.138      11.051      11.051      12.138      14.002      16.953      18.241    
  19.115      19.578      19.729      19.634      19.321      18.808      18.114      17.258      16.256      15.185    
  14.203      13.503      13.249      13.503      14.203      15.185      16.256      17.258      18.114      18.808    
  19.321      19.634      19.729      19.578      19.115      18.241      16.953      15.405      13.892      12.779    
  12.368      12.779      13.892      15.405      16.613      17.485      18.114      18.527      18.731      18.731    
  18.527      18.114      17.485      16.613      15.538      14.408      13.450      12.897      12.897      13.450    
  14.408      15.538      16.613      17.485      18.114      18.527      18.731      18.731      18.527      18.114    
  17.485      16.613      15.538      14.408      13.450      12.897      12.897      13.450      14.408      15.538    
  15.581      16.298      16.893      17.338      17.619      17.715      17.604      17.258      16.613      15.655    
  14.494      13.353      12.511      12.200      12.511      13.353      14.494      15.655      16.612      17.258    
  17.604      17.715      17.619      17.338      16.893      16.298      15.581      14.771      13.925      13.156    
  12.612      12.414      12.612      13.156      13.924      14.771      14.297      14.986      15.598      16.101    
  16.461      16.642      16.600      16.256      15.538      14.494      13.308      12.264      11.649      11.649    
  12.264      13.308      14.494      15.538      16.255      16.600      16.642      16.461      16.101      15.599    
  14.986      14.297      13.568      12.848      12.203      11.704      11.430      11.430      11.704      12.203    
  12.848      13.567      12.968      13.669      14.325      14.893      15.329      15.579      15.568      15.185    
  14.408      13.353      12.264      11.441      11.135      11.441      12.264      13.353      14.408      15.185    
  15.567      15.579      15.329      14.893      14.325      13.669      12.968      12.258      11.580      10.975    
  10.492      10.178      10.069      10.178      10.492      10.975      11.580      12.258      11.699      12.438    
  13.150      13.787      14.291      14.599      14.598      14.203      13.450      12.511      11.649      11.135    
  11.135      11.649      12.511      13.450      14.203      14.598      14.599      14.291      13.787      13.150    
  12.438      11.699      10.976      10.302      9.7099      9.2282      8.8862      8.7081      8.7082      8.8863    
  9.2282      9.7099      10.302      10.976      10.571      11.361      12.138      12.845      13.422      13.788    
  13.828      13.503      12.897      12.200      11.649      11.441      11.649      12.200      12.897      13.503    
  13.828      13.788      13.422      12.845      12.137      11.361      10.571      9.8124      9.1184      8.5146    
  8.0209      7.6537      7.4268      7.3500      7.4268      7.6537      8.0209      8.5146      9.1184      9.8124    
  9.6365      10.489      11.337      12.125      12.791      13.246      13.399      13.249      12.897      12.511    
  12.264      12.264      12.511      12.897      13.249      13.399      13.246      12.791      12.125      11.337    
  10.489      9.6365      8.8280      8.0969      7.4654      6.9473      6.5512      6.2833      6.1481      6.1482    
  6.2834      6.5513      6.9474      7.4655      8.0969      8.8280      8.9243      9.8498      10.784      11.673    
  12.457      13.055      13.399      13.503      13.450      13.353      13.308      13.353      13.450      13.503    
  13.399      13.055      12.457      11.673      10.784      9.8497      8.9242      8.0548      7.2748      6.6042    
  6.0526      5.6231      5.3165      5.1324      5.0711      5.1325      5.3165      5.6232      6.0526      6.6042    
  7.2747      8.0548      8.4474      9.4615      10.502      11.518      12.457      13.246      13.829      14.203    
  14.408      14.494      14.494      14.408      14.203      13.828      13.246      12.457      11.518      10.502    
  9.4615      8.4474      7.5044      6.6644      5.9450      5.3524      4.8854      4.5400      4.3120      4.1987    
  4.1987      4.3120      4.5400      4.8853      5.3523      5.9450      6.6644      7.5044      8.2090      9.3313    
  10.502      11.673      12.791      13.788      14.598      15.185      15.538      15.655      15.538      15.185    
  14.598      13.788      12.791      11.673      10.502      9.3314      8.2091      7.1768      6.2638      5.4851    
  4.8436      4.3340      3.9483      3.6785      3.5189      3.4661      3.5189      3.6785      3.9482      4.3339    
  4.8435      5.4851      6.2639      7.1768      8.2091      9.4615      10.784      12.125      13.422      14.599    
  15.568      16.256      16.613      16.612      16.255      15.567      14.599      13.422      12.125      10.784    
  9.4615      8.2091      7.0683      6.0663      5.2152      4.5145      3.9555      3.5259      3.2140      3.0109    
  2.9107      2.9107      3.0108      3.2140      3.5258      3.9555      4.5146      5.2152      6.0663      7.0683    
  8.4474      9.8498      11.337      12.845      14.291      15.579      16.600      17.258      17.485      17.258    
  16.600      15.579      14.291      12.845      11.337      9.8497      8.4474      7.1768      6.0663      5.1264    
  4.3536      3.7354      3.2557      2.8988      2.6523      2.5077      2.4599      2.5076      2.6523      2.8988    
  3.2557      3.7355      4.3536      5.1264      6.0663      7.1769      8.9243      10.489      12.138      13.787    
  15.329      16.642      17.604      18.114      18.114      17.604      16.642      15.329      13.787      12.137    
  10.489      8.9242      7.5044      6.2638      5.2152      4.3536      3.6633      3.1242      2.7165      2.4242    
  2.2355      2.1429      2.1429      2.2355      2.4242      2.7166      3.1242      3.6634      4.3536      5.2152    
  6.2639      7.5044      9.6365      11.361      13.150      14.893      16.461      17.715      18.527      18.808    
  18.527      17.715      16.461      14.893      13.150      11.361      9.6365      8.0548      6.6644      5.4851    
  4.5145      3.7354      3.1242      2.6570      2.3135      2.0784      1.9414      1.8963      1.9414      2.0785    
  2.3135      2.6570      3.1242      3.7355      4.5146      5.4851      6.6643      8.0548      10.571      12.438    
  14.325      16.101      17.618      18.731      19.320      19.321      18.731      17.619      16.101      14.325    
  12.438      10.571      8.8280      7.2748      5.9450      4.8436      3.9555      3.2557      2.7165      2.3135    
  2.0271      1.8435      1.7539      1.7539      1.8436      2.0272      2.3135      2.7166      3.2557      3.9555    
  4.8435      5.9449      7.2747      8.8280      11.699      13.669      15.598      17.338      18.731      19.634    
  19.947      19.634      18.731      17.338      15.599      13.669      11.699      9.8124      8.0969      6.6042    
  5.3524      4.3340      3.5259      2.8988      2.4242      2.0784      1.8435      1.7073      1.6627      1.7073    
  1.8436      2.0785      2.4242      2.8988      3.5259      4.3339      5.3523      6.6041      8.0969      9.8124    
  12.968      14.986      16.893      18.527      19.729      20.367      20.367      19.729      18.527      16.893    
  14.986      12.968      10.976      9.1184      7.4654      6.0526      4.8854      3.9483      3.2140      2.6523    
  2.2355      1.9414      1.7539      1.6627      1.6627      1.7539      1.9414      2.2355      2.6523      3.2140    
  3.9482      4.8854      6.0526      7.4655      9.1184      10.976      14.297      16.299      18.114      19.578    
  20.532      20.863      20.532      19.578      18.114      16.298      14.297      12.258      10.302      8.5146    
  6.9473      5.6231      4.5400      3.6785      3.0109      2.5077      2.1429      1.8963      1.7539      1.7073    
  1.7539      1.8963      2.1429      2.5076      3.0109      3.6785      4.5400      5.6232      6.9474      8.5146    
  10.302      12.258      15.581      17.485      19.115      20.312      20.947      20.947      20.312      19.115    
  17.485      15.581      13.568      11.580      9.7099      8.0209      6.5512      5.3165      4.3120      3.5189    
  2.9107      2.4599      2.1429      1.9414      1.8436      1.8436      1.9414      2.1429      2.4599      2.9107    
  3.5189      4.3121      5.3165      6.5513      8.0209      9.7099      11.580      13.568      16.612      18.241    
  19.527      20.357      20.644      20.356      19.527      18.241      16.613      14.771      12.848      10.975    
  9.2282      7.6537      6.2833      5.1324      4.1987      3.4661      2.9107      2.5076      2.2355      2.0785    
  2.0272      2.0785      2.2355      2.5076      2.9107      3.4661      4.1988      5.1325      6.2834      7.6537    
  9.2282      10.975      12.848      14.771      16.953      18.102      18.921      19.350      19.350      18.921    
  18.102      16.953      15.538      13.925      12.203      10.492      8.8862      7.4268      6.1481      5.0711    
  4.1987      3.5189      3.0108      2.6523      2.4242      2.3135      2.3135      2.4242      2.6523      3.0109    
  3.5189      4.1988      5.0711      6.1482      7.4268      8.8862      10.492      12.203      13.924      15.538    
  16.151      16.673      16.987      17.093      16.987      16.673      16.151      15.405      14.408      13.156    
  11.704      10.178      8.7081      7.3500      6.1482      5.1325      4.3120      3.6785      3.2140      2.8988    
  2.7166      2.6570      2.7166      2.8988      3.2140      3.6785      4.3121      5.1325      6.1482      7.3499    
  8.7081      10.178      11.704      13.156      14.408      15.404      13.914      13.772      13.676      13.676    
  13.772      13.914      14.001      13.892      13.450      12.612      11.430      10.069      8.7082      7.4268    
  6.2834      5.3165      4.5400      3.9482      3.5258      3.2557      3.1242      3.1242      3.2557      3.5259    
  3.9482      4.5400      5.3165      6.2834      7.4268      8.7081      10.069      11.430      12.612      13.450    
  13.892      14.001      10.254      9.5682      9.3194      9.5683      10.254      11.199      12.138      12.779    
  12.897      12.414      11.430      10.178      8.8863      7.6537      6.5513      5.6232      4.8853      4.3339    
  3.9555      3.7355      3.6634      3.7355      3.9555      4.3339      4.8854      5.6232      6.5513      7.6537    
  8.8862      10.178      11.430      12.415      12.897      12.779      12.138      11.199      5.5772      4.6513    