   2   2   0   0
  0.1752705E+02  0.3673539E-09  0.3673539E-09  0.3673539E-09  0.5000000E-15
  1.000000000000000E-004
  CAR 
 unknown system                          
     19.67534115     -7.61509218  301      7.41200261      1.00000000
     -7.615  0.0000E+00  0.0000E+00
     -7.524  0.0000E+00  0.0000E+00
     -7.433  0.0000E+00  0.0000E+00
     -7.342  0.0000E+00  0.0000E+00
     -7.251  0.0000E+00  0.0000E+00
     -7.160  0.0000E+00  0.0000E+00
     -7.069  0.0000E+00  0.0000E+00
     -6.978  0.0000E+00  0.0000E+00
     -6.887  0.0000E+00  0.0000E+00
     -6.796  0.3178E-18  0.2891E-19
     -6.705  0.3591E-16  0.3296E-17
     -6.614  0.4516E-14  0.4141E-15
     -6.523  0.3779E-12  0.3479E-13
     -6.433  0.2106E-10  0.1951E-11
     -6.342  0.7832E-09  0.7319E-10
     -6.251  0.1947E-07  0.1844E-08
     -6.160  0.3246E-06  0.3137E-07
     -6.069  0.3652E-05  0.3635E-06
     -5.978  0.2798E-04  0.2909E-05
     -5.887  0.1485E-03  0.1642E-04
     -5.796  0.5603E-03  0.6739E-04
     -5.705  0.1558E-02  0.2091E-03
     -5.614  0.3325E-02  0.5115E-03
     -5.523  0.5661E-02  0.1026E-02
     -5.432  0.7995E-02  0.1754E-02
     -5.341  0.9908E-02  0.2655E-02
     -5.250  0.1159E-01  0.3710E-02
     -5.159  0.1345E-01  0.4933E-02
     -5.068  0.1524E-01  0.6319E-02
     -4.977  0.1619E-01  0.7793E-02
     -4.886  0.1632E-01  0.9277E-02
     -4.795  0.1705E-01  0.1083E-01
     -4.704  0.1942E-01  0.1260E-01
     -4.613  0.2214E-01  0.1461E-01
     -4.522  0.2297E-01  0.1670E-01
     -4.431  0.2193E-01  0.1869E-01
     -4.340  0.2149E-01  0.2065E-01
     -4.249  0.2309E-01  0.2275E-01
     -4.158  0.2542E-01  0.2506E-01
     -4.067  0.2707E-01  0.2752E-01
     -3.976  0.2843E-01  0.3011E-01
     -3.885  0.3011E-01  0.3285E-01
     -3.794  0.3139E-01  0.3570E-01
     -3.703  0.3131E-01  0.3855E-01
     -3.612  0.2994E-01  0.4128E-01
     -3.522  0.2883E-01  0.4390E-01
     -3.431  0.3077E-01  0.4670E-01
     -3.340  0.3674E-01  0.5004E-01
     -3.249  0.4316E-01  0.5397E-01
     -3.158  0.4587E-01  0.5814E-01
     -3.067  0.4538E-01  0.6227E-01
     -2.976  0.4469E-01  0.6633E-01
     -2.885  0.4515E-01  0.7044E-01
     -2.794  0.4656E-01  0.7467E-01
     -2.703  0.4739E-01  0.7899E-01
     -2.612  0.4537E-01  0.8311E-01
     -2.521  0.4155E-01  0.8689E-01
     -2.430  0.4092E-01  0.9061E-01
     -2.339  0.4531E-01  0.9474E-01
     -2.248  0.4989E-01  0.9928E-01
     -2.157  0.4870E-01  0.1037E+00
     -2.066  0.4117E-01  0.1075E+00
     -1.975  0.3177E-01  0.1103E+00
     -1.884  0.2457E-01  0.1126E+00
     -1.793  0.2095E-01  0.1145E+00
     -1.702  0.2147E-01  0.1164E+00
     -1.611  0.2616E-01  0.1188E+00
     -1.520  0.3276E-01  0.1218E+00
     -1.429  0.3656E-01  0.1251E+00
     -1.338  0.3423E-01  0.1282E+00
     -1.247  0.2661E-01  0.1307E+00
     -1.156  0.1691E-01  0.1322E+00
     -1.065  0.8414E-02  0.1330E+00
     -0.974  0.3120E-02  0.1332E+00
     -0.883  0.8830E-03  0.1333E+00
     -0.792  0.6026E-03  0.1334E+00
     -0.702  0.2372E-02  0.1336E+00
     -0.611  0.8479E-02  0.1344E+00
     -0.520  0.2130E-01  0.1363E+00
     -0.429  0.3806E-01  0.1398E+00
     -0.338  0.5039E-01  0.1443E+00
     -0.247  0.5409E-01  0.1493E+00
     -0.156  0.5477E-01  0.1543E+00
     -0.065  0.5827E-01  0.1596E+00
      0.026  0.6235E-01  0.1652E+00
      0.117  0.6316E-01  0.1710E+00
      0.208  0.6130E-01  0.1765E+00
      0.299  0.5729E-01  0.1818E+00
      0.390  0.5118E-01  0.1864E+00
      0.481  0.4667E-01  0.1907E+00
      0.572  0.4722E-01  0.1950E+00
      0.663  0.5019E-01  0.1995E+00
      0.754  0.4836E-01  0.2039E+00
      0.845  0.3774E-01  0.2074E+00
      0.936  0.2350E-01  0.2095E+00
      1.027  0.1544E-01  0.2109E+00
      1.118  0.1862E-01  0.2126E+00
      1.209  0.2899E-01  0.2152E+00
      1.300  0.3631E-01  0.2185E+00
      1.391  0.3350E-01  0.2216E+00
      1.482  0.2403E-01  0.2238E+00
      1.573  0.1651E-01  0.2253E+00
      1.664  0.1461E-01  0.2266E+00
      1.755  0.1748E-01  0.2282E+00
      1.846  0.2402E-01  0.2304E+00
      1.937  0.3055E-01  0.2331E+00
      2.028  0.3086E-01  0.2360E+00
      2.118  0.2499E-01  0.2382E+00
      2.209  0.2134E-01  0.2402E+00
      2.300  0.2622E-01  0.2426E+00
      2.391  0.3714E-01  0.2459E+00
      2.482  0.4877E-01  0.2504E+00
      2.573  0.5944E-01  0.2558E+00
      2.664  0.6864E-01  0.2620E+00
      2.755  0.7358E-01  0.2687E+00
      2.846  0.7177E-01  0.2752E+00
      2.937  0.6422E-01  0.2811E+00
      3.028  0.5590E-01  0.2862E+00
      3.119  0.5246E-01  0.2909E+00
      3.210  0.5514E-01  0.2960E+00
      3.301  0.6050E-01  0.3015E+00
      3.392  0.6541E-01  0.3074E+00
      3.483  0.6822E-01  0.3136E+00
      3.574  0.6772E-01  0.3198E+00
      3.665  0.6619E-01  0.3258E+00
      3.756  0.6799E-01  0.3320E+00
      3.847  0.7302E-01  0.3386E+00
      3.938  0.7726E-01  0.3457E+00
      4.029  0.7897E-01  0.3528E+00
      4.120  0.8072E-01  0.3602E+00
      4.211  0.8574E-01  0.3680E+00
      4.302  0.9244E-01  0.3764E+00
      4.393  0.9459E-01  0.3850E+00
      4.484  0.8885E-01  0.3931E+00
      4.575  0.7861E-01  0.4002E+00
      4.666  0.7135E-01  0.4067E+00
      4.757  0.7311E-01  0.4134E+00
      4.848  0.8211E-01  0.4208E+00
      4.939  0.8932E-01  0.4290E+00
      5.029  0.8737E-01  0.4369E+00
      5.120  0.7703E-01  0.4439E+00
      5.211  0.6551E-01  0.4499E+00
      5.302  0.6117E-01  0.4554E+00
      5.393  0.6684E-01  0.4615E+00
      5.484  0.7660E-01  0.4685E+00
      5.575  0.8099E-01  0.4759E+00
      5.666  0.7517E-01  0.4827E+00
      5.757  0.6322E-01  0.4884E+00
      5.848  0.5372E-01  0.4933E+00
      5.939  0.5111E-01  0.4980E+00
      6.030  0.5376E-01  0.5029E+00
      6.121  0.5614E-01  0.5080E+00
      6.212  0.5155E-01  0.5127E+00
      6.303  0.3918E-01  0.5162E+00
      6.394  0.2665E-01  0.5187E+00
      6.485  0.2151E-01  0.5206E+00
      6.576  0.2358E-01  0.5228E+00
      6.667  0.2646E-01  0.5252E+00
      6.758  0.2464E-01  0.5274E+00
      6.849  0.1889E-01  0.5291E+00
      6.940  0.1364E-01  0.5304E+00
      7.031  0.1080E-01  0.5313E+00
      7.122  0.8973E-02  0.5322E+00
      7.213  0.6635E-02  0.5328E+00
      7.304  0.3924E-02  0.5331E+00
      7.395  0.1990E-02  0.5333E+00
      7.486  0.1799E-02  0.5335E+00
      7.577  0.3736E-02  0.5338E+00
      7.668  0.7214E-02  0.5345E+00
      7.759  0.1054E-01  0.5354E+00
      7.849  0.1272E-01  0.5366E+00
      7.940  0.1495E-01  0.5379E+00
      8.031  0.1885E-01  0.5397E+00
      8.122  0.2437E-01  0.5419E+00
      8.213  0.2944E-01  0.5446E+00
      8.304  0.3170E-01  0.5474E+00
      8.395  0.3196E-01  0.5503E+00
      8.486  0.3385E-01  0.5534E+00
      8.577  0.3793E-01  0.5569E+00
      8.668  0.4018E-01  0.5605E+00
      8.759  0.3849E-01  0.5640E+00
      8.850  0.3633E-01  0.5673E+00
      8.941  0.3828E-01  0.5708E+00
      9.032  0.4455E-01  0.5749E+00
      9.123  0.5225E-01  0.5796E+00
      9.214  0.6018E-01  0.5851E+00
      9.305  0.6787E-01  0.5913E+00
      9.396  0.7283E-01  0.5979E+00
      9.487  0.7436E-01  0.6047E+00
      9.578  0.7602E-01  0.6116E+00
      9.669  0.7991E-01  0.6188E+00
      9.760  0.8370E-01  0.6265E+00
      9.851  0.8623E-01  0.6343E+00
      9.942  0.8921E-01  0.6424E+00
     10.033  0.9140E-01  0.6507E+00
     10.124  0.8934E-01  0.6589E+00
     10.215  0.8404E-01  0.6665E+00
     10.306  0.8113E-01  0.6739E+00
     10.397  0.8559E-01  0.6817E+00
     10.488  0.9773E-01  0.6906E+00
     10.579  0.1133E+00  0.7009E+00
     10.669  0.1249E+00  0.7122E+00
     10.760  0.1243E+00  0.7235E+00
     10.851  0.1096E+00  0.7335E+00
     10.942  0.9047E-01  0.7417E+00
     11.033  0.7890E-01  0.7489E+00
     11.124  0.7831E-01  0.7560E+00
     11.215  0.8448E-01  0.7637E+00
     11.306  0.9260E-01  0.7721E+00
     11.397  0.9943E-01  0.7812E+00
     11.488  0.1022E+00  0.7905E+00
     11.579  0.9918E-01  0.7995E+00
     11.670  0.9002E-01  0.8077E+00
     11.761  0.7558E-01  0.8146E+00
     11.852  0.5921E-01  0.8200E+00
     11.943  0.4684E-01  0.8242E+00
     12.034  0.4438E-01  0.8283E+00
     12.125  0.5395E-01  0.8332E+00
     12.216  0.7017E-01  0.8395E+00
     12.307  0.8261E-01  0.8471E+00
     12.398  0.8761E-01  0.8550E+00
     12.489  0.9067E-01  0.8633E+00
     12.580  0.9382E-01  0.8718E+00
     12.671  0.9210E-01  0.8802E+00
     12.762  0.8117E-01  0.8876E+00
     12.853  0.6327E-01  0.8933E+00
     12.944  0.4790E-01  0.8977E+00
     13.035  0.4387E-01  0.9017E+00
     13.126  0.5202E-01  0.9064E+00
     13.217  0.6618E-01  0.9124E+00
     13.308  0.7654E-01  0.9194E+00
     13.399  0.7658E-01  0.9264E+00
     13.490  0.6996E-01  0.9327E+00
     13.580  0.6667E-01  0.9388E+00
     13.671  0.7171E-01  0.9453E+00
     13.762  0.7907E-01  0.9525E+00
     13.853  0.7908E-01  0.9597E+00
     13.944  0.7027E-01  0.9661E+00
     14.035  0.5895E-01  0.9715E+00
     14.126  0.5099E-01  0.9761E+00
     14.217  0.4726E-01  0.9804E+00
     14.308  0.4362E-01  0.9844E+00
     14.399  0.3675E-01  0.9877E+00
     14.490  0.2970E-01  0.9904E+00
     14.581  0.2848E-01  0.9930E+00
     14.672  0.3598E-01  0.9963E+00
     14.763  0.5097E-01  0.1001E+01
     14.854  0.6812E-01  0.1007E+01
     14.945  0.7807E-01  0.1014E+01
     15.036  0.7314E-01  0.1021E+01
     15.127  0.5647E-01  0.1026E+01
     15.218  0.4019E-01  0.1030E+01
     15.309  0.3274E-01  0.1033E+01
     15.400  0.3241E-01  0.1036E+01
     15.491  0.3201E-01  0.1038E+01
     15.582  0.2692E-01  0.1041E+01
     15.673  0.1936E-01  0.1043E+01
     15.764  0.1464E-01  0.1044E+01
     15.855  0.1474E-01  0.1045E+01
     15.946  0.1698E-01  0.1047E+01
     16.037  0.1881E-01  0.1049E+01
     16.128  0.2164E-01  0.1051E+01
     16.219  0.2696E-01  0.1053E+01
     16.310  0.3025E-01  0.1056E+01
     16.400  0.2584E-01  0.1058E+01
     16.491  0.1574E-01  0.1060E+01
     16.582  0.6718E-02  0.1060E+01
     16.673  0.1997E-02  0.1060E+01
     16.764  0.4257E-03  0.1060E+01
     16.855  0.1711E-03  0.1060E+01
     16.946  0.6012E-03  0.1060E+01
     17.037  0.2116E-02  0.1061E+01
     17.128  0.5074E-02  0.1061E+01
     17.219  0.8339E-02  0.1062E+01
     17.310  0.9814E-02  0.1063E+01
     17.401  0.9224E-02  0.1064E+01
     17.492  0.8267E-02  0.1064E+01
     17.583  0.7774E-02  0.1065E+01
     17.674  0.7035E-02  0.1066E+01
     17.765  0.5375E-02  0.1066E+01
     17.856  0.3152E-02  0.1067E+01
     17.947  0.1332E-02  0.1067E+01
     18.038  0.3913E-03  0.1067E+01
     18.129  0.7827E-04  0.1067E+01
     18.220  0.1056E-04  0.1067E+01
     18.311  0.9552E-06  0.1067E+01
     18.402  0.5782E-07  0.1067E+01
     18.493  0.2337E-08  0.1067E+01
     18.584  0.6302E-10  0.1067E+01
     18.675  0.1132E-11  0.1067E+01
     18.766  0.1354E-13  0.1067E+01
     18.857  0.1087E-15  0.1067E+01
     18.948  0.0000E+00  0.1067E+01
     19.039  0.0000E+00  0.1067E+01
     19.130  0.0000E+00  0.1067E+01
     19.221  0.0000E+00  0.1067E+01
     19.311  0.0000E+00  0.1067E+01
     19.402  0.0000E+00  0.1067E+01
     19.493  0.0000E+00  0.1067E+01
     19.584  0.0000E+00  0.1067E+01
     19.675  0.0000E+00  0.1067E+01
