 vasp.5.4.4.18Apr17-6-g9f103f2a35 (build Dec 09 2018 21:25:21) complex          
  
 executed on IFC18.0.1.163_CrayMP date 2019.04.01  15:57:44
 running on    8 total cores
 distrk:  each k-point on    8 cores,    1 groups
 distr:  one band on NCORES_PER_BAND=   1 cores,    8 groups


--------------------------------------------------------------------------------------------------------


 INCAR:
 POTCAR:   PAW_PBE Si 05Jan2001                   

 ----------------------------------------------------------------------------- 
|                                                                             |
|           W    W    AA    RRRRR   N    N  II  N    N   GGGG   !!!           |
|           W    W   A  A   R    R  NN   N  II  NN   N  G    G  !!!           |
|           W    W  A    A  R    R  N N  N  II  N N  N  G       !!!           |
|           W WW W  AAAAAA  RRRRR   N  N N  II  N  N N  G  GGG   !            |
|           WW  WW  A    A  R   R   N   NN  II  N   NN  G    G                |
|           W    W  A    A  R    R  N    N  II  N    N   GGGG   !!!           |
|                                                                             |
|      For optimal performance we recommend to set                            |
|        NCORE= 4 - approx SQRT( number of cores)                             |
|      NCORE specifies how many cores store one orbital (NPAR=cpu/NCORE).     |
|      This setting can  greatly improve the performance of VASP for DFT.     |
|      The default,   NCORE=1            might be grossly inefficient         |
|      on modern multi-core architectures or massively parallel machines.     |
|      Do your own testing !!!!                                               |
|      Unfortunately you need to use the default for GW and RPA calculations. |
|      (for HF NCORE is supported but not extensively tested yet)             |
|                                                                             |
 ----------------------------------------------------------------------------- 

 POTCAR:   PAW_PBE Si 05Jan2001                   
   VRHFIN =Si: s2p2                                                             
   LEXCH  = PE                                                                  
   EATOM  =   103.0669 eV,    7.5752 Ry                                         
                                                                                
   TITEL  = PAW_PBE Si 05Jan2001                                                
   LULTRA =        F    use ultrasoft PP ?                                      
   IUNSCR =        1    unscreen: 0-lin 1-nonlin 2-no                           
   RPACOR =    1.500    partial core radius                                     
   POMASS =   28.085; ZVAL   =    4.000    mass and valenz                      
   RCORE  =    1.900    outmost cutoff radius                                   
   RWIGS  =    2.480; RWIGS  =    1.312    wigner-seitz radius (au A)           
   ENMAX  =  245.345; ENMIN  =  184.009 eV                                      
   ICORE  =        2    local potential                                         
   LCOR   =        T    correct aug charges                                     
   LPAW   =        T    paw PP                                                  
   EAUG   =  322.069                                                            
   DEXC   =    -.007                                                            
   RMAX   =    2.944    core radius for proj-oper                               
   RAUG   =    1.300    factor for augmentation sphere                          
   RDEP   =    1.993    radius for radial grids                                 
   QCUT   =   -4.246; QGAM   =    8.493    optimization parameters              
                                                                                
   Description                                                                  
     l     E      TYP  RCUT    TYP  RCUT                                        
     0   .000     23  1.900                                                     
     0   .000     23  1.900                                                     
     1   .000     23  1.900                                                     
     1   .000     23  1.900                                                     
     2   .000      7  1.900                                                     
  local pseudopotential read in
  partial core-charges read in
  atomic valenz-charges read in
  non local Contribution for L=           0  read in
    real space projection operators read in
  non local Contribution for L=           0  read in
    real space projection operators read in
  non local Contribution for L=           1  read in
    real space projection operators read in
  non local Contribution for L=           1  read in
    real space projection operators read in
    PAW grid and wavefunctions read in
 
   number of l-projection  operators is LMAX  =           4
   number of lm-projection operators is LMMAX =           8
 
 PAW_PBE Si 05Jan2001                   :
 energy of atom  1       EATOM= -103.0669
 kinetic energy error for atom=    0.0013 (will be added to EATOM!!)
 
 
 POSCAR: Si2                                     
  positions in direct lattice
  No initial velocities read in
 exchange correlation table for  LEXCH =        8
   RHO(1)=    0.500       N(1)  =     2000
   RHO(2)=  100.500       N(2)  =     4000
 


--------------------------------------------------------------------------------------------------------


 ion  position               nearest neighbor table
   1  0.000  0.000  0.000-   2 2.25   2 2.25   2 2.25   2 2.25
   2  0.250  0.250  0.250-   1 2.25   1 2.25   1 2.25   1 2.25
 
  LATTYP: Found a face centered cubic cell.
 ALAT       =     5.1951680000
  
  Lattice vectors:
  
 A1 = (   0.0000000000,   2.5975840000,   2.5975840000)
 A2 = (   2.5975840000,   0.0000000000,   2.5975840000)
 A3 = (   2.5975840000,   2.5975840000,   0.0000000000)


Analysis of symmetry for initial positions (statically):
=====================================================================
 Subroutine PRICEL returns:
 Original cell was already a primitive cell.
 

 Routine SETGRP: Setting up the symmetry group for a 
 face centered cubic supercell.


 Subroutine GETGRP returns: Found 48 space group operations
 (whereof 24 operations were pure point group operations)
 out of a pool of 48 trial point group operations.


The static configuration has the point symmetry T_d .
 The point group associated with its full space group is O_h .


Analysis of symmetry for dynamics (positions and initial velocities):
=====================================================================
 Subroutine PRICEL returns:
 Original cell was already a primitive cell.
 

 Routine SETGRP: Setting up the symmetry group for a 
 face centered cubic supercell.


 Subroutine GETGRP returns: Found 48 space group operations
 (whereof 24 operations were pure point group operations)
 out of a pool of 48 trial point group operations.


The dynamic configuration has the point symmetry T_d .
 The point group associated with its full space group is O_h .


 Subroutine INISYM returns: Found 48 space group operations
 (whereof 24 operations are pure point group operations),
 and found     1 'primitive' translations

 
 
 KPOINTS: Automatic kpoint scheme                 

Automatic generation of k-mesh.
Space group operators:
 irot       det(A)        alpha          n_x          n_y          n_z        tau_x        tau_y        tau_z
    1     1.000000     0.000001     1.000000     0.000000     0.000000     0.000000     0.000000     0.000000
    2     1.000000   120.000000    -0.577350    -0.577350    -0.577350     0.000000     0.000000     0.000000
    3     1.000000   120.000000     0.577350     0.577350     0.577350     0.000000     0.000000     0.000000
    4    -1.000000    90.000000    -0.000000    -0.000000    -1.000000     0.000000     0.000000     0.000000
    5    -1.000000   180.000000     0.000000     0.707107     0.707107     0.000000     0.000000     0.000000
    6    -1.000000    90.000000    -0.000000     1.000000    -0.000000     0.000000     0.000000     0.000000
    7     1.000000   180.000000    -0.000000    -0.000000     1.000000     0.000000     0.000000     0.000000
    8     1.000000   120.000000    -0.577350     0.577350     0.577350     0.000000     0.000000     0.000000
    9     1.000000   120.000000    -0.577350     0.577350    -0.577350     0.000000     0.000000     0.000000
   10    -1.000000    90.000000     0.000000     0.000000     1.000000     0.000000     0.000000     0.000000
   11    -1.000000    90.000000    -1.000000     0.000000    -0.000000     0.000000     0.000000     0.000000
   12    -1.000000   180.000000     0.707107     0.000000     0.707107     0.000000     0.000000     0.000000
   13     1.000000   120.000000     0.577350    -0.577350     0.577350     0.000000     0.000000     0.000000
   14     1.000000   120.000000    -0.577350    -0.577350     0.577350     0.000000     0.000000     0.000000
   15     1.000000   180.000000     1.000000     0.000000     0.000000     0.000000     0.000000     0.000000
   16    -1.000000    90.000000     0.000000    -1.000000     0.000000     0.000000     0.000000     0.000000
   17    -1.000000   180.000000     0.707107     0.707107    -0.000000     0.000000     0.000000     0.000000
   18    -1.000000    90.000000     1.000000     0.000000     0.000000     0.000000     0.000000     0.000000
   19     1.000000   120.000000     0.577350    -0.577350    -0.577350     0.000000     0.000000     0.000000
   20     1.000000   180.000000     0.000000    -1.000000    -0.000000     0.000000     0.000000     0.000000
   21     1.000000   120.000000     0.577350     0.577350    -0.577350     0.000000     0.000000     0.000000
   22    -1.000000   180.000000    -0.000000    -0.707107     0.707107     0.000000     0.000000     0.000000
   23    -1.000000   180.000000     0.707107    -0.707107    -0.000000     0.000000     0.000000     0.000000
   24    -1.000000   180.000000    -0.707107     0.000000     0.707107     0.000000     0.000000     0.000000
   25    -1.000000     0.000001     1.000000     0.000000     0.000000     0.250000     0.250000     0.250000
   26    -1.000000   120.000000    -0.577350    -0.577350    -0.577350     0.250000     0.250000     0.250000
   27    -1.000000   120.000000     0.577350     0.577350     0.577350     0.250000     0.250000     0.250000
   28     1.000000    90.000000    -0.000000    -0.000000    -1.000000     0.250000     0.250000     0.250000
   29     1.000000   180.000000     0.000000     0.707107     0.707107     0.250000     0.250000     0.250000
   30     1.000000    90.000000    -0.000000     1.000000    -0.000000     0.250000     0.250000     0.250000
   31    -1.000000   180.000000    -0.000000    -0.000000     1.000000     0.250000     0.250000     0.250000
   32    -1.000000   120.000000    -0.577350     0.577350     0.577350     0.250000     0.250000     0.250000
   33    -1.000000   120.000000    -0.577350     0.577350    -0.577350     0.250000     0.250000     0.250000
   34     1.000000    90.000000     0.000000     0.000000     1.000000     0.250000     0.250000     0.250000
   35     1.000000    90.000000    -1.000000     0.000000    -0.000000     0.250000     0.250000     0.250000
   36     1.000000   180.000000     0.707107     0.000000     0.707107     0.250000     0.250000     0.250000
   37    -1.000000   120.000000     0.577350    -0.577350     0.577350     0.250000     0.250000     0.250000
   38    -1.000000   120.000000    -0.577350    -0.577350     0.577350     0.250000     0.250000     0.250000
   39    -1.000000   180.000000     1.000000     0.000000     0.000000     0.250000     0.250000     0.250000
   40     1.000000    90.000000     0.000000    -1.000000     0.000000     0.250000     0.250000     0.250000
   41     1.000000   180.000000     0.707107     0.707107    -0.000000     0.250000     0.250000     0.250000
   42     1.000000    90.000000     1.000000     0.000000     0.000000     0.250000     0.250000     0.250000
   43    -1.000000   120.000000     0.577350    -0.577350    -0.577350     0.250000     0.250000     0.250000
   44    -1.000000   180.000000     0.000000    -1.000000    -0.000000     0.250000     0.250000     0.250000
   45    -1.000000   120.000000     0.577350     0.577350    -0.577350     0.250000     0.250000     0.250000
   46     1.000000   180.000000    -0.000000    -0.707107     0.707107     0.250000     0.250000     0.250000
   47     1.000000   180.000000     0.707107    -0.707107    -0.000000     0.250000     0.250000     0.250000
   48     1.000000   180.000000    -0.707107     0.000000     0.707107     0.250000     0.250000     0.250000
 
 Subroutine IBZKPT returns following result:
 ===========================================
 
 Found     60 irreducible k-points:
 
 Following reciprocal coordinates:
            Coordinates               Weight
  0.062500  0.062500  0.062500     96.000000
  0.187500  0.062500  0.062500    288.000000
  0.312500  0.062500  0.062500    288.000000
  0.437500  0.062500  0.062500    288.000000
 -0.437500  0.062500  0.062500    288.000000
 -0.312500  0.062500  0.062500    288.000000
 -0.187500  0.062500  0.062500    288.000000
 -0.062500  0.062500  0.062500    288.000000
  0.187500  0.187500  0.062500    288.000000
  0.312500  0.187500  0.062500    576.000000
  0.437500  0.187500  0.062500    576.000000
 -0.437500  0.187500  0.062500    576.000000
 -0.312500  0.187500  0.062500    576.000000
 -0.187500  0.187500  0.062500    576.000000
 -0.062500  0.187500  0.062500    576.000000
  0.312500  0.312500  0.062500    288.000000
  0.437500  0.312500  0.062500    576.000000
 -0.437500  0.312500  0.062500    576.000000
 -0.312500  0.312500  0.062500    576.000000
 -0.187500  0.312500  0.062500    576.000000
 -0.062500  0.312500  0.062500    576.000000
  0.437500  0.437500  0.062500    288.000000
 -0.437500  0.437500  0.062500    576.000000
 -0.312500  0.437500  0.062500    576.000000
 -0.187500  0.437500  0.062500    576.000000
 -0.062500  0.437500  0.062500    576.000000
 -0.437500 -0.437500  0.062500    288.000000
 -0.312500 -0.437500  0.062500    576.000000
 -0.187500 -0.437500  0.062500    576.000000
 -0.312500 -0.312500  0.062500    288.000000
 -0.187500 -0.312500  0.062500    576.000000
 -0.187500 -0.187500  0.062500    288.000000
  0.187500  0.187500  0.187500     96.000000
  0.312500  0.187500  0.187500    288.000000
  0.437500  0.187500  0.187500    288.000000
 -0.437500  0.187500  0.187500    288.000000
 -0.312500  0.187500  0.187500    288.000000
 -0.187500  0.187500  0.187500    288.000000
  0.312500  0.312500  0.187500    288.000000
  0.437500  0.312500  0.187500    576.000000
 -0.437500  0.312500  0.187500    576.000000
 -0.312500  0.312500  0.187500    576.000000
 -0.187500  0.312500  0.187500    576.000000
  0.437500  0.437500  0.187500    288.000000
 -0.437500  0.437500  0.187500    576.000000
 -0.312500  0.437500  0.187500    576.000000
 -0.187500  0.437500  0.187500    576.000000
 -0.437500 -0.437500  0.187500    288.000000
 -0.312500 -0.437500  0.187500    576.000000
 -0.312500 -0.312500  0.187500    288.000000
  0.312500  0.312500  0.312500     96.000000
  0.437500  0.312500  0.312500    288.000000
 -0.437500  0.312500  0.312500    288.000000
 -0.312500  0.312500  0.312500    288.000000
  0.437500  0.437500  0.312500    288.000000
 -0.437500  0.437500  0.312500    576.000000
 -0.312500  0.437500  0.312500    576.000000
 -0.437500 -0.437500  0.312500    288.000000
  0.437500  0.437500  0.437500     96.000000
 -0.437500  0.437500  0.437500    288.000000
 
 Following cartesian coordinates:
            Coordinates               Weight
  0.012030  0.012030  0.012030     96.000000
 -0.012030  0.036091  0.036091    288.000000
 -0.036091  0.060152  0.060152    288.000000
 -0.060152  0.084213  0.084213    288.000000
  0.108274 -0.084213 -0.084213    288.000000
  0.084213 -0.060152 -0.060152    288.000000
  0.060152 -0.036091 -0.036091    288.000000
  0.036091 -0.012030 -0.012030    288.000000
  0.012030  0.012030  0.060152    288.000000
 -0.012030  0.036091  0.084213    576.000000
 -0.036091  0.060152  0.108274    576.000000
  0.132335 -0.108274 -0.060152    576.000000
  0.108274 -0.084213 -0.036091    576.000000
  0.084213 -0.060152 -0.012030    576.000000
  0.060152 -0.036091  0.012030    576.000000
  0.012030  0.012030  0.108274    288.000000
 -0.012030  0.036091  0.132335    576.000000
  0.156395 -0.132335 -0.036091    576.000000
  0.132335 -0.108274 -0.012030    576.000000
  0.108274 -0.084213  0.012030    576.000000
  0.084213 -0.060152  0.036091    576.000000
  0.012030  0.012030  0.156395    288.000000
  0.180456 -0.156395 -0.012030    576.000000
  0.156395 -0.132335  0.012030    576.000000
  0.132335 -0.108274  0.036091    576.000000
  0.108274 -0.084213  0.060152    576.000000
  0.012030  0.012030 -0.180456    288.000000
 -0.012030  0.036091 -0.156395    576.000000
 -0.036091  0.060152 -0.132335    576.000000
  0.012030  0.012030 -0.132335    288.000000
 -0.012030  0.036091 -0.108274    576.000000
  0.012030  0.012030 -0.084213    288.000000
  0.036091  0.036091  0.036091     96.000000
  0.012030  0.060152  0.060152    288.000000
 -0.012030  0.084213  0.084213    288.000000
  0.156395 -0.084213 -0.084213    288.000000
  0.132335 -0.060152 -0.060152    288.000000
  0.108274 -0.036091 -0.036091    288.000000
  0.036091  0.036091  0.084213    288.000000
  0.012030  0.060152  0.108274    576.000000
  0.180456 -0.108274 -0.060152    576.000000
  0.156395 -0.084213 -0.036091    576.000000
  0.132335 -0.060152 -0.012030    576.000000
  0.036091  0.036091  0.132335    288.000000
  0.204517 -0.132335 -0.036091    576.000000
  0.180456 -0.108274 -0.012030    576.000000
  0.156395 -0.084213  0.012030    576.000000
  0.036091  0.036091 -0.204517    288.000000
  0.012030  0.060152 -0.180456    576.000000
  0.036091  0.036091 -0.156395    288.000000
  0.060152  0.060152  0.060152     96.000000
  0.036091  0.084213  0.084213    288.000000
  0.204517 -0.084213 -0.084213    288.000000
  0.180456 -0.060152 -0.060152    288.000000
  0.060152  0.060152  0.108274    288.000000
  0.228578 -0.108274 -0.060152    576.000000
  0.204517 -0.084213 -0.036091    576.000000
  0.060152  0.060152 -0.228578    288.000000
  0.084213  0.084213  0.084213     96.000000
  0.252639 -0.084213 -0.084213    288.000000
 


--------------------------------------------------------------------------------------------------------




 Dimension of arrays:
   k-points           NKPTS =     60   k-points in BZ     NKDIM =     60   number of bands    NBANDS=      8
   number of dos      NEDOS =    301   number of ions     NIONS =      2
   non local maximal  LDIM  =      4   non local SUM 2l+1 LMDIM =      8
   total plane-waves  NPLWV =   5832
   max r-space proj   IRMAX =      1   max aug-charges    IRDMAX=   5761
   dimension x,y,z NGX =    18 NGY =   18 NGZ =   18
   dimension x,y,z NGXF=    36 NGYF=   36 NGZF=   36
   support grid    NGXF=    36 NGYF=   36 NGZF=   36
   ions per type =               2
   NGX,Y,Z   is equivalent  to a cutoff of   8.15,  8.15,  8.15 a.u.
   NGXF,Y,Z  is equivalent  to a cutoff of  16.29, 16.29, 16.29 a.u.

 SYSTEM =  unknown system                          
 POSCAR =  Si2                                     

 Startparameter for this run:
   NWRITE =      2    write-flag & timer
   PREC   = normal    normal or accurate (medium, high low for compatibility)
   ISTART =      0    job   : 0-new  1-cont  2-samecut
   ICHARG =      2    charge: 1-file 2-atom 10-const
   ISPIN  =      1    spin polarized calculation?
   LNONCOLLINEAR =      F non collinear calculations
   LSORBIT =      F    spin-orbit coupling
   INIWAV =      1    electr: 0-lowe 1-rand  2-diag
   LASPH  =      F    aspherical Exc in radial PAW
   METAGGA=      F    non-selfconsistent MetaGGA calc.

 Electronic Relaxation 1
   ENCUT  =  350.0 eV  25.72 Ry    5.07 a.u.   5.60  5.60  5.60*2*pi/ulx,y,z
   ENINI  =  350.0     initial cutoff
   ENAUG  =  322.1 eV  augmentation charge cutoff
   NELM   =     60;   NELMIN=  2; NELMDL= -5     # of ELM steps 
   EDIFF  = 0.4E-03   stopping-criterion for ELM
   LREAL  =      F    real-space projection
   NLSPLINE    = F    spline interpolate recip. space projectors
   LCOMPAT=      F    compatible to vasp.4.4
   GGA_COMPAT  = T    GGA compatible to vasp.4.4-vasp.4.6
   LMAXPAW     = -100 max onsite density
   LMAXMIX     =    2 max onsite mixed and CHGCAR
   VOSKOWN=      0    Vosko Wilk Nusair interpolation
   ROPT   =    0.00000
 Ionic relaxation
   EDIFFG = -.1E-01   stopping-criterion for IOM
   NSW    =     15    number of steps for IOM
   NBLOCK =      1;   KBLOCK =     15    inner block; outer block 
   IBRION =      2    ionic relax: 0-MD 1-quasi-New 2-CG
   NFREE  =      1    steps in history (QN), initial steepest desc. (CG)
   ISIF   =      2    stress and relaxation
   IWAVPR =     11    prediction:  0-non 1-charg 2-wave 3-comb
   ISYM   =      2    0-nonsym 1-usesym 2-fastsym
   LCORR  =      T    Harris-Foulkes like correction to forces

   POTIM  = 0.5000    time-step for ionic-motion
   TEIN   =    0.0    initial temperature
   TEBEG  =    0.0;   TEEND  =   0.0 temperature during run
   SMASS  =  -3.00    Nose mass-parameter (am)
   estimated Nose-frequenzy (Omega)   =  0.10E-29 period in steps =****** mass=  -0.308E-27a.u.
   SCALEE = 1.0000    scale energy and forces
   NPACO  =    256;   APACO  = 16.0  distance and # of slots for P.C.
   PSTRESS=    0.0 pullay stress

  Mass of Ions in am
   POMASS =  28.09
  Ionic Valenz
   ZVAL   =   4.00
  Atomic Wigner-Seitz radii
   RWIGS  =  -1.00
  virtual crystal weights 
   VCA    =   1.00
   NELECT =       8.0000    total number of electrons
   NUPDOWN=      -1.0000    fix difference up-down

 DOS related values:
   EMIN   =  10.00;   EMAX   =-10.00  energy-range for DOS
   EFERMI =   0.00
   ISMEAR =     0;   SIGMA  =   0.20  broadening in eV -4-tet -1-fermi 0-gaus

 Electronic relaxation 2 (details)
   IALGO  =     38    algorithm
   LDIAG  =      T    sub-space diagonalisation (order eigenvalues)
   LSUBROT=      F    optimize rotation matrix (better conditioning)
   TURBO    =      0    0=normal 1=particle mesh
   IRESTART =      0    0=no restart 2=restart with 2 vectors
   NREBOOT  =      0    no. of reboots
   NMIN     =      0    reboot dimension
   EREF     =   0.00    reference energy to select bands
   IMIX   =      4    mixing-type and parameters
     AMIX     =   0.40;   BMIX     =  1.00
     AMIX_MAG =   1.60;   BMIX_MAG =  1.00
     AMIN     =   0.10
     WC   =   100.;   INIMIX=   1;  MIXPRE=   1;  MAXMIX= -45

 Intra band minimization:
   WEIMIN = 0.0010     energy-eigenvalue tresh-hold
   EBREAK =  0.13E-04  absolut break condition
   DEPER  =   0.30     relativ break condition  

   TIME   =   0.40     timestep for ELM

  volume/ion in A,a.u.               =      17.53       118.28
  Fermi-wavevector in a.u.,A,eV,Ry     =   1.000442  1.890561 13.617855  1.000884
  Thomas-Fermi vector in A             =   2.132799
 
 Write flags
   LWAVE        =      T    write WAVECAR
   LDOWNSAMPLE  =      F    k-point downsampling of WAVECAR
   LCHARG       =      T    write CHGCAR
   LVTOT        =      F    write LOCPOT, total local potential
   LVHAR        =      F    write LOCPOT, Hartree potential only
   LELF         =      F    write electronic localiz. function (ELF)
   LORBIT       =      0    0 simple, 1 ext, 2 COOP (PROOUT), +10 PAW based schemes


 Dipole corrections
   LMONO  =      F    monopole corrections only (constant potential shift)
   LDIPOL =      F    correct potential (dipole corrections)
   IDIPOL =      0    1-x, 2-y, 3-z, 4-all directions 
   EPSILON=  1.0000000 bulk dielectric constant

 Exchange correlation treatment:
   GGA     =    --    GGA type
   LEXCH   =     8    internal setting for exchange type
   VOSKOWN=      0    Vosko Wilk Nusair interpolation
   LHFCALC =     F    Hartree Fock is set to
   LHFONE  =     F    Hartree Fock one center treatment
   AEXX    =    0.0000 exact exchange contribution

 Linear response parameters
   LEPSILON=     F    determine dielectric tensor
   LRPA    =     F    only Hartree local field effects (RPA)
   LNABLA  =     F    use nabla operator in PAW spheres
   LVEL    =     F    velocity operator in full k-point grid
   LINTERFAST=   F  fast interpolation
   KINTER  =     0    interpolate to denser k-point grid
   CSHIFT  =0.1000    complex shift for real part using Kramers Kronig
   OMEGAMAX=  -1.0    maximum frequency
   DEG_THRESHOLD= 0.2000000E-02 threshold for treating states as degnerate
   RTIME   =   -0.100 relaxation time in fs
  (WPLASMAI=    0.000 imaginary part of plasma frequency in eV, 0.658/RTIME)
   DFIELD  = 0.0000000 0.0000000 0.0000000 field for delta impulse in time
 
 Orbital magnetization related:
   ORBITALMAG=     F  switch on orbital magnetization
   LCHIMAG   =     F  perturbation theory with respect to B field
   DQ        =  0.001000  dq finite difference perturbation B field
   LLRAUG    =     F  two centre corrections for induced B field



--------------------------------------------------------------------------------------------------------


 conjugate gradient relaxation of ions
 charge density and potential will be updated during run
 non-spin polarized calculation
 Variant of blocked Davidson
 Davidson routine will perform the subspace rotation
 perform sub-space diagonalisation
    after iterative eigenvector-optimisation
 modified Broyden-mixing scheme, WC =      100.0
 initial mixing is a Kerker type mixing with AMIX =  0.4000 and BMIX =      1.0000
 Hartree-type preconditioning will be used
 using additional bands            4
 reciprocal scheme for non local part
 use partial core corrections
 calculate Harris-corrections to forces 
   (improved forces if not selfconsistent)
 use gradient corrections 
 use of overlap-Matrix (Vanderbilt PP)
 Gauss-broadening in eV      SIGMA  =   0.20


--------------------------------------------------------------------------------------------------------


  energy-cutoff  :      350.00
  volume of cell :       35.05
      direct lattice vectors                 reciprocal lattice vectors
     0.000000000  2.597584000  2.597584000    -0.192486557  0.192486557  0.192486557
     2.597584000  0.000000000  2.597584000     0.192486557 -0.192486557  0.192486557
     2.597584000  2.597584000  0.000000000     0.192486557  0.192486557 -0.192486557

  length of vectors
     3.673538522  3.673538522  3.673538522     0.333396496  0.333396496  0.333396496


 
 k-points in units of 2pi/SCALE and weight: Automatic kpoint scheme                 
   0.01203041  0.01203041  0.01203041       0.004
  -0.01203041  0.03609123  0.03609123       0.012
  -0.03609123  0.06015205  0.06015205       0.012
  -0.06015205  0.08421287  0.08421287       0.012
   0.10827369 -0.08421287 -0.08421287       0.012
   0.08421287 -0.06015205 -0.06015205       0.012
   0.06015205 -0.03609123 -0.03609123       0.012
   0.03609123 -0.01203041 -0.01203041       0.012
   0.01203041  0.01203041  0.06015205       0.012
  -0.01203041  0.03609123  0.08421287       0.023
  -0.03609123  0.06015205  0.10827369       0.023
   0.13233451 -0.10827369 -0.06015205       0.023
   0.10827369 -0.08421287 -0.03609123       0.023
   0.08421287 -0.06015205 -0.01203041       0.023
   0.06015205 -0.03609123  0.01203041       0.023
   0.01203041  0.01203041  0.10827369       0.012
  -0.01203041  0.03609123  0.13233451       0.023
   0.15639533 -0.13233451 -0.03609123       0.023
   0.13233451 -0.10827369 -0.01203041       0.023
   0.10827369 -0.08421287  0.01203041       0.023
   0.08421287 -0.06015205  0.03609123       0.023
   0.01203041  0.01203041  0.15639533       0.012
   0.18045615 -0.15639533 -0.01203041       0.023
   0.15639533 -0.13233451  0.01203041       0.023
   0.13233451 -0.10827369  0.03609123       0.023
   0.10827369 -0.08421287  0.06015205       0.023
   0.01203041  0.01203041 -0.18045615       0.012
  -0.01203041  0.03609123 -0.15639533       0.023
  -0.03609123  0.06015205 -0.13233451       0.023
   0.01203041  0.01203041 -0.13233451       0.012
  -0.01203041  0.03609123 -0.10827369       0.023
   0.01203041  0.01203041 -0.08421287       0.012
   0.03609123  0.03609123  0.03609123       0.004
   0.01203041  0.06015205  0.06015205       0.012
  -0.01203041  0.08421287  0.08421287       0.012
   0.15639533 -0.08421287 -0.08421287       0.012
   0.13233451 -0.06015205 -0.06015205       0.012
   0.10827369 -0.03609123 -0.03609123       0.012
   0.03609123  0.03609123  0.08421287       0.012
   0.01203041  0.06015205  0.10827369       0.023
   0.18045615 -0.10827369 -0.06015205       0.023
   0.15639533 -0.08421287 -0.03609123       0.023
   0.13233451 -0.06015205 -0.01203041       0.023
   0.03609123  0.03609123  0.13233451       0.012
   0.20451697 -0.13233451 -0.03609123       0.023
   0.18045615 -0.10827369 -0.01203041       0.023
   0.15639533 -0.08421287  0.01203041       0.023
   0.03609123  0.03609123 -0.20451697       0.012
   0.01203041  0.06015205 -0.18045615       0.023
   0.03609123  0.03609123 -0.15639533       0.012
   0.06015205  0.06015205  0.06015205       0.004
   0.03609123  0.08421287  0.08421287       0.012
   0.20451697 -0.08421287 -0.08421287       0.012
   0.18045615 -0.06015205 -0.06015205       0.012
   0.06015205  0.06015205  0.10827369       0.012
   0.22857779 -0.10827369 -0.06015205       0.023
   0.20451697 -0.08421287 -0.03609123       0.023
   0.06015205  0.06015205 -0.22857779       0.012
   0.08421287  0.08421287  0.08421287       0.004
   0.25263861 -0.08421287 -0.08421287       0.012
 
 k-points in reciprocal lattice and weights: Automatic kpoint scheme                 
   0.06250000  0.06250000  0.06250000       0.004
   0.18750000  0.06250000  0.06250000       0.012
   0.31250000  0.06250000  0.06250000       0.012
   0.43750000  0.06250000  0.06250000       0.012
  -0.43750000  0.06250000  0.06250000       0.012
  -0.31250000  0.06250000  0.06250000       0.012
  -0.18750000  0.06250000  0.06250000       0.012
  -0.06250000  0.06250000  0.06250000       0.012
   0.18750000  0.18750000  0.06250000       0.012
   0.31250000  0.18750000  0.06250000       0.023
   0.43750000  0.18750000  0.06250000       0.023
  -0.43750000  0.18750000  0.06250000       0.023
  -0.31250000  0.18750000  0.06250000       0.023
  -0.18750000  0.18750000  0.06250000       0.023
  -0.06250000  0.18750000  0.06250000       0.023
   0.31250000  0.31250000  0.06250000       0.012
   0.43750000  0.31250000  0.06250000       0.023
  -0.43750000  0.31250000  0.06250000       0.023
  -0.31250000  0.31250000  0.06250000       0.023
  -0.18750000  0.31250000  0.06250000       0.023
  -0.06250000  0.31250000  0.06250000       0.023
   0.43750000  0.43750000  0.06250000       0.012
  -0.43750000  0.43750000  0.06250000       0.023
  -0.31250000  0.43750000  0.06250000       0.023
  -0.18750000  0.43750000  0.06250000       0.023
  -0.06250000  0.43750000  0.06250000       0.023
  -0.43750000 -0.43750000  0.06250000       0.012
  -0.31250000 -0.43750000  0.06250000       0.023
  -0.18750000 -0.43750000  0.06250000       0.023
  -0.31250000 -0.31250000  0.06250000       0.012
  -0.18750000 -0.31250000  0.06250000       0.023
  -0.18750000 -0.18750000  0.06250000       0.012
   0.18750000  0.18750000  0.18750000       0.004
   0.31250000  0.18750000  0.18750000       0.012
   0.43750000  0.18750000  0.18750000       0.012
  -0.43750000  0.18750000  0.18750000       0.012
  -0.31250000  0.18750000  0.18750000       0.012
  -0.18750000  0.18750000  0.18750000       0.012
   0.31250000  0.31250000  0.18750000       0.012
   0.43750000  0.31250000  0.18750000       0.023
  -0.43750000  0.31250000  0.18750000       0.023
  -0.31250000  0.31250000  0.18750000       0.023
  -0.18750000  0.31250000  0.18750000       0.023
   0.43750000  0.43750000  0.18750000       0.012
  -0.43750000  0.43750000  0.18750000       0.023
  -0.31250000  0.43750000  0.18750000       0.023
  -0.18750000  0.43750000  0.18750000       0.023
  -0.43750000 -0.43750000  0.18750000       0.012
  -0.31250000 -0.43750000  0.18750000       0.023
  -0.31250000 -0.31250000  0.18750000       0.012
   0.31250000  0.31250000  0.31250000       0.004
   0.43750000  0.31250000  0.31250000       0.012
  -0.43750000  0.31250000  0.31250000       0.012
  -0.31250000  0.31250000  0.31250000       0.012
   0.43750000  0.43750000  0.31250000       0.012
  -0.43750000  0.43750000  0.31250000       0.023
  -0.31250000  0.43750000  0.31250000       0.023
  -0.43750000 -0.43750000  0.31250000       0.012
   0.43750000  0.43750000  0.43750000       0.004
  -0.43750000  0.43750000  0.43750000       0.012
 
 position of ions in fractional coordinates (direct lattice) 
   0.00000000  0.00000000  0.00000000
   0.25000000  0.25000000  0.25000000
 
 position of ions in cartesian coordinates  (Angst):
   0.00000000  0.00000000  0.00000000
   1.29879200  1.29879200  1.29879200
 


--------------------------------------------------------------------------------------------------------


 k-point  1 :   0.0625 0.0625 0.0625  plane waves:     531
 k-point  2 :   0.1875 0.0625 0.0625  plane waves:     530
 k-point  3 :   0.3125 0.0625 0.0625  plane waves:     526
 k-point  4 :   0.4375 0.0625 0.0625  plane waves:     523
 k-point  5 :  -0.4375 0.0625 0.0625  plane waves:     523
 k-point  6 :  -0.3125 0.0625 0.0625  plane waves:     522
 k-point  7 :  -0.1875 0.0625 0.0625  plane waves:     529
 k-point  8 :  -0.0625 0.0625 0.0625  plane waves:     532
 k-point  9 :   0.1875 0.1875 0.0625  plane waves:     525
 k-point 10 :   0.3125 0.1875 0.0625  plane waves:     528
 k-point 11 :   0.4375 0.1875 0.0625  plane waves:     520
 k-point 12 :  -0.4375 0.1875 0.0625  plane waves:     525
 k-point 13 :  -0.3125 0.1875 0.0625  plane waves:     522
 k-point 14 :  -0.1875 0.1875 0.0625  plane waves:     523
 k-point 15 :  -0.0625 0.1875 0.0625  plane waves:     527
 k-point 16 :   0.3125 0.3125 0.0625  plane waves:     521
 k-point 17 :   0.4375 0.3125 0.0625  plane waves:     521
 k-point 18 :  -0.4375 0.3125 0.0625  plane waves:     519
 k-point 19 :  -0.3125 0.3125 0.0625  plane waves:     522
 k-point 20 :  -0.1875 0.3125 0.0625  plane waves:     522
 k-point 21 :  -0.0625 0.3125 0.0625  plane waves:     519
 k-point 22 :   0.4375 0.4375 0.0625  plane waves:     515
 k-point 23 :  -0.4375 0.4375 0.0625  plane waves:     512
 k-point 24 :  -0.3125 0.4375 0.0625  plane waves:     519
 k-point 25 :  -0.1875 0.4375 0.0625  plane waves:     524
 k-point 26 :  -0.0625 0.4375 0.0625  plane waves:     523
 k-point 27 :  -0.4375-0.4375 0.0625  plane waves:     516
 k-point 28 :  -0.3125-0.4375 0.0625  plane waves:     516
 k-point 29 :  -0.1875-0.4375 0.0625  plane waves:     522
 k-point 30 :  -0.3125-0.3125 0.0625  plane waves:     519
 k-point 31 :  -0.1875-0.3125 0.0625  plane waves:     522
 k-point 32 :  -0.1875-0.1875 0.0625  plane waves:     524
 k-point 33 :   0.1875 0.1875 0.1875  plane waves:     528
 k-point 34 :   0.3125 0.1875 0.1875  plane waves:     529
 k-point 35 :   0.4375 0.1875 0.1875  plane waves:     521
 k-point 36 :  -0.4375 0.1875 0.1875  plane waves:     525
 k-point 37 :  -0.3125 0.1875 0.1875  plane waves:     524
 k-point 38 :  -0.1875 0.1875 0.1875  plane waves:     525
 k-point 39 :   0.3125 0.3125 0.1875  plane waves:     523
 k-point 40 :   0.4375 0.3125 0.1875  plane waves:     523
 k-point 41 :  -0.4375 0.3125 0.1875  plane waves:     521
 k-point 42 :  -0.3125 0.3125 0.1875  plane waves:     521
 k-point 43 :  -0.1875 0.3125 0.1875  plane waves:     520
 k-point 44 :   0.4375 0.4375 0.1875  plane waves:     523
 k-point 45 :  -0.4375 0.4375 0.1875  plane waves:     512
 k-point 46 :  -0.3125 0.4375 0.1875  plane waves:     517
 k-point 47 :  -0.1875 0.4375 0.1875  plane waves:     516
 k-point 48 :  -0.4375-0.4375 0.1875  plane waves:     515
 k-point 49 :  -0.3125-0.4375 0.1875  plane waves:     512
 k-point 50 :  -0.3125-0.3125 0.1875  plane waves:     518
 k-point 51 :   0.3125 0.3125 0.3125  plane waves:     522
 k-point 52 :   0.4375 0.3125 0.3125  plane waves:     519
 k-point 53 :  -0.4375 0.3125 0.3125  plane waves:     525
 k-point 54 :  -0.3125 0.3125 0.3125  plane waves:     515
 k-point 55 :   0.4375 0.4375 0.3125  plane waves:     522
 k-point 56 :  -0.4375 0.4375 0.3125  plane waves:     526
 k-point 57 :  -0.3125 0.4375 0.3125  plane waves:     517
 k-point 58 :  -0.4375-0.4375 0.3125  plane waves:     520
 k-point 59 :   0.4375 0.4375 0.4375  plane waves:     523
 k-point 60 :  -0.4375 0.4375 0.4375  plane waves:     524

 maximum and minimum number of plane-waves per node :       532      512

 maximum number of plane-waves:       532
 maximum index in each direction: 
   IXMAX=    6   IYMAX=    6   IZMAX=    5
   IXMIN=   -6   IYMIN=   -6   IZMIN=   -6


 serial   3D FFT for wavefunctions
 parallel 3D FFT for charge:
    minimum data exchange during FFTs selected (reduces bandwidth)


 total amount of memory used by VASP MPI-rank0    33418. kBytes
=======================================================================

   base      :      30000. kBytes
   nonl-proj :       2075. kBytes
   fftplans  :        247. kBytes
   grid      :        561. kBytes
   one-center:          6. kBytes
   wavefun   :        529. kBytes
 
     INWAV:  cpu time    0.0000: real time    0.0004
 Broyden mixing: mesh for mixing (old mesh)
   NGX = 11   NGY = 11   NGZ = 11
  (NGX  = 36   NGY  = 36   NGZ  = 36)
  gives a total of   1331 points

 initial charge density was supplied:
 charge density of overlapping atoms calculated
 number of electron       8.0000000 magnetization 
 keeping initial charge density in first step


--------------------------------------------------------------------------------------------------------


 Maximum index for augmentation-charges          841 (set IRDMAX)


--------------------------------------------------------------------------------------------------------


 First call to EWALD:  gamma=   0.542
 Maximum number of real-space cells 3x 3x 3
 Maximum number of reciprocal cells 3x 3x 3

    FEWALD:  cpu time    0.0080: real time    0.0073


--------------------------------------- Iteration      1(   1)  ---------------------------------------


    POTLOK:  cpu time    0.0400: real time    0.0455
    SETDIJ:  cpu time    0.0080: real time    0.0091
     EDDAV:  cpu time    0.7840: real time    0.7862
       DOS:  cpu time    0.0000: real time    0.0034
    --------------------------------------------
      LOOP:  cpu time    0.8320: real time    0.8448

 eigenvalue-minimisations  :   968
 total energy-change (2. order) : 0.3871268E+01  (-0.2739998E+03)
 number of electron       8.0000000 magnetization 
 augmentation part        8.0000000 magnetization 

 Free energy of the ion-electron system (eV)
  ---------------------------------------------------
  alpha Z        PSCENC =         3.84127166
  Ewald energy   TEWEN  =      -238.89505409
  -Hartree energ DENC   =        -9.10245995
  -exchange      EXHF   =         0.00000000
  -V(xc)+E(xc)   XCENC  =       -18.05938279
  PAW double counting   =        65.95520812      -30.76852678
  entropy T*S    EENTRO =        -0.01284895
  eigenvalues    EBANDS =        24.78180648
  atomic energy  EATOM  =       206.13125414
  Solvation  Ediel_sol  =         0.00000000
  ---------------------------------------------------
  free energy    TOTEN  =         3.87126785 eV

  energy without entropy =        3.88411679  energy(sigma->0) =        3.87769232


--------------------------------------------------------------------------------------------------------




--------------------------------------- Iteration      1(   2)  ---------------------------------------


     EDDAV:  cpu time    1.1560: real time    1.1630
       DOS:  cpu time    0.0040: real time    0.0031
    --------------------------------------------
      LOOP:  cpu time    1.1600: real time    1.1661

 eigenvalue-minimisations  :  1464
 total energy-change (2. order) :-0.1452568E+02  (-0.1368434E+02)
 number of electron       8.0000000 magnetization 
 augmentation part        8.0000000 magnetization 

 Free energy of the ion-electron system (eV)
  ---------------------------------------------------
  alpha Z        PSCENC =         3.84127166
  Ewald energy   TEWEN  =      -238.89505409
  -Hartree energ DENC   =        -9.10245995
  -exchange      EXHF   =         0.00000000
  -V(xc)+E(xc)   XCENC  =       -18.05938279
  PAW double counting   =        65.95520812      -30.76852678
  entropy T*S    EENTRO =        -0.00001015
  eigenvalues    EBANDS =        10.24328507
  atomic energy  EATOM  =       206.13125414
  Solvation  Ediel_sol  =         0.00000000
  ---------------------------------------------------
  free energy    TOTEN  =       -10.65441477 eV

  energy without entropy =      -10.65440462  energy(sigma->0) =      -10.65440969


--------------------------------------------------------------------------------------------------------




--------------------------------------- Iteration      1(   3)  ---------------------------------------


     EDDAV:  cpu time    0.9320: real time    0.9381
       DOS:  cpu time    0.0040: real time    0.0032
    --------------------------------------------
      LOOP:  cpu time    0.9360: real time    0.9415

 eigenvalue-minimisations  :  1160
 total energy-change (2. order) :-0.1605098E+00  (-0.1605098E+00)
 number of electron       8.0000000 magnetization 
 augmentation part        8.0000000 magnetization 

 Free energy of the ion-electron system (eV)
  ---------------------------------------------------
  alpha Z        PSCENC =         3.84127166
  Ewald energy   TEWEN  =      -238.89505409
  -Hartree energ DENC   =        -9.10245995
  -exchange      EXHF   =         0.00000000
  -V(xc)+E(xc)   XCENC  =       -18.05938279
  PAW double counting   =        65.95520812      -30.76852678
  entropy T*S    EENTRO =        -0.00001001
  eigenvalues    EBANDS =        10.08277509
  atomic energy  EATOM  =       206.13125414
  Solvation  Ediel_sol  =         0.00000000
  ---------------------------------------------------
  free energy    TOTEN  =       -10.81492460 eV

  energy without entropy =      -10.81491459  energy(sigma->0) =      -10.81491960


--------------------------------------------------------------------------------------------------------




--------------------------------------- Iteration      1(   4)  ---------------------------------------


     EDDAV:  cpu time    1.2960: real time    1.3005
       DOS:  cpu time    0.0040: real time    0.0031
    --------------------------------------------
      LOOP:  cpu time    1.3000: real time    1.3035

 eigenvalue-minimisations  :  1624
 total energy-change (2. order) :-0.6692648E-03  (-0.6692650E-03)
 number of electron       8.0000000 magnetization 
 augmentation part        8.0000000 magnetization 

 Free energy of the ion-electron system (eV)
  ---------------------------------------------------
  alpha Z        PSCENC =         3.84127166
  Ewald energy   TEWEN  =      -238.89505409
  -Hartree energ DENC   =        -9.10245995
  -exchange      EXHF   =         0.00000000
  -V(xc)+E(xc)   XCENC  =       -18.05938279
  PAW double counting   =        65.95520812      -30.76852678
  entropy T*S    EENTRO =        -0.00000999
  eigenvalues    EBANDS =        10.08210582
  atomic energy  EATOM  =       206.13125414
  Solvation  Ediel_sol  =         0.00000000
  ---------------------------------------------------
  free energy    TOTEN  =       -10.81559387 eV

  energy without entropy =      -10.81558387  energy(sigma->0) =      -10.81558887


--------------------------------------------------------------------------------------------------------




--------------------------------------- Iteration      1(   5)  ---------------------------------------


     EDDAV:  cpu time    0.9040: real time    0.9100
       DOS:  cpu time    0.0040: real time    0.0032
    CHARGE:  cpu time    0.0600: real time    0.0618
    MIXING:  cpu time    0.0040: real time    0.0025
    --------------------------------------------
      LOOP:  cpu time    0.9720: real time    0.9775

 eigenvalue-minimisations  :  1128
 total energy-change (2. order) :-0.1587077E-06  (-0.1592223E-06)
 number of electron       8.0000008 magnetization 
 augmentation part       -0.4814262 magnetization 

 Broyden mixing:
  rms(total) = 0.33537E+00    rms(broyden)= 0.33536E+00
  rms(prec ) = 0.10072E+01
  weight for this iteration     100.00

 Free energy of the ion-electron system (eV)
  ---------------------------------------------------
  alpha Z        PSCENC =         3.84127166
  Ewald energy   TEWEN  =      -238.89505409
  -Hartree energ DENC   =        -9.10245995
  -exchange      EXHF   =         0.00000000
  -V(xc)+E(xc)   XCENC  =       -18.05938279
  PAW double counting   =        65.95520812      -30.76852678
  entropy T*S    EENTRO =        -0.00000999
  eigenvalues    EBANDS =        10.08210566
  atomic energy  EATOM  =       206.13125414
  Solvation  Ediel_sol  =         0.00000000
  ---------------------------------------------------
  free energy    TOTEN  =       -10.81559402 eV

  energy without entropy =      -10.81558403  energy(sigma->0) =      -10.81558903


--------------------------------------------------------------------------------------------------------




--------------------------------------- Iteration      1(   6)  ---------------------------------------


    POTLOK:  cpu time    0.0240: real time    0.0312
    SETDIJ:  cpu time    0.0120: real time    0.0085
     EDDAV:  cpu time    0.9120: real time    0.9118
       DOS:  cpu time    0.0000: real time    0.0034
    CHARGE:  cpu time    0.0600: real time    0.0608
    MIXING:  cpu time    0.0040: real time    0.0020
    --------------------------------------------
      LOOP:  cpu time    1.0120: real time    1.0176

 eigenvalue-minimisations  :  1136
 total energy-change (2. order) : 0.1908353E+00  (-0.1362622E-01)
 number of electron       8.0000008 magnetization 
 augmentation part       -0.4735845 magnetization 

 Broyden mixing:
  rms(total) = 0.19438E+00    rms(broyden)= 0.19438E+00
  rms(prec ) = 0.57750E+00
  weight for this iteration     100.00

 eigenvalues of (default mixing * dielectric matrix)
  average eigenvalue GAMMA=   2.3568
  2.3568

 Free energy of the ion-electron system (eV)
  ---------------------------------------------------
  alpha Z        PSCENC =         3.84127166
  Ewald energy   TEWEN  =      -238.89505409
  -Hartree energ DENC   =       -10.78716164
  -exchange      EXHF   =         0.00000000
  -V(xc)+E(xc)   XCENC  =       -17.78523450
  PAW double counting   =        72.01698855      -37.00009970
  entropy T*S    EENTRO =        -0.00008059
  eigenvalues    EBANDS =        11.85335748
  atomic energy  EATOM  =       206.13125414
  Solvation  Ediel_sol  =         0.00000000
  ---------------------------------------------------
  free energy    TOTEN  =       -10.62475869 eV

  energy without entropy =      -10.62467810  energy(sigma->0) =      -10.62471840


--------------------------------------------------------------------------------------------------------




--------------------------------------- Iteration      1(   7)  ---------------------------------------


    POTLOK:  cpu time    0.0280: real time    0.0329
    SETDIJ:  cpu time    0.0080: real time    0.0085
     EDDAV:  cpu time    0.9720: real time    0.9710
       DOS:  cpu time    0.0000: real time    0.0033
    CHARGE:  cpu time    0.0640: real time    0.0604
    MIXING:  cpu time    0.0000: real time    0.0018
    --------------------------------------------
      LOOP:  cpu time    1.0720: real time    1.0780

 eigenvalue-minimisations  :  1224
 total energy-change (2. order) : 0.8004527E-01  (-0.2204472E-01)
 number of electron       8.0000007 magnetization 
 augmentation part       -0.4644355 magnetization 

 Broyden mixing:
  rms(total) = 0.18146E-01    rms(broyden)= 0.18146E-01
  rms(prec ) = 0.47783E-01
  weight for this iteration     100.00

 eigenvalues of (default mixing * dielectric matrix)
  average eigenvalue GAMMA=   2.4280
  2.4280  2.4280

 Free energy of the ion-electron system (eV)
  ---------------------------------------------------
  alpha Z        PSCENC =         3.84127166
  Ewald energy   TEWEN  =      -238.89505409
  -Hartree energ DENC   =       -13.35409029
  -exchange      EXHF   =         0.00000000
  -V(xc)+E(xc)   XCENC  =       -17.36006033
  PAW double counting   =        80.17857210      -45.37894913
  entropy T*S    EENTRO =        -0.00055614
  eigenvalues    EBANDS =        14.29289865
  atomic energy  EATOM  =       206.13125414
  Solvation  Ediel_sol  =         0.00000000
  ---------------------------------------------------
  free energy    TOTEN  =       -10.54471343 eV

  energy without entropy =      -10.54415728  energy(sigma->0) =      -10.54443536


--------------------------------------------------------------------------------------------------------




--------------------------------------- Iteration      1(   8)  ---------------------------------------


    POTLOK:  cpu time    0.0280: real time    0.0342
    SETDIJ:  cpu time    0.0080: real time    0.0085
     EDDAV:  cpu time    0.8920: real time    0.8936
       DOS:  cpu time    0.0040: real time    0.0034
    CHARGE:  cpu time    0.0600: real time    0.0605
    MIXING:  cpu time    0.0040: real time    0.0021
    --------------------------------------------
      LOOP:  cpu time    0.9960: real time    1.0019

 eigenvalue-minimisations  :  1112
 total energy-change (2. order) :-0.1307212E-02  (-0.5130831E-03)
 number of electron       8.0000008 magnetization 
 augmentation part       -0.4655514 magnetization 

 Broyden mixing:
  rms(total) = 0.25485E-02    rms(broyden)= 0.25478E-02
  rms(prec ) = 0.87202E-02
  weight for this iteration     100.00

 eigenvalues of (default mixing * dielectric matrix)
  average eigenvalue GAMMA=   2.0972
  1.4270  2.7646  2.1001

 Free energy of the ion-electron system (eV)
  ---------------------------------------------------
  alpha Z        PSCENC =         3.84127166
  Ewald energy   TEWEN  =      -238.89505409
  -Hartree energ DENC   =       -13.32658534
  -exchange      EXHF   =         0.00000000
  -V(xc)+E(xc)   XCENC  =       -17.34272895
  PAW double counting   =        79.35336941      -44.52481812
  entropy T*S    EENTRO =        -0.00046167
  eigenvalues    EBANDS =        14.21773231
  atomic energy  EATOM  =       206.13125414
  Solvation  Ediel_sol  =         0.00000000
  ---------------------------------------------------
  free energy    TOTEN  =       -10.54602064 eV

  energy without entropy =      -10.54555897  energy(sigma->0) =      -10.54578981


--------------------------------------------------------------------------------------------------------




--------------------------------------- Iteration      1(   9)  ---------------------------------------


    POTLOK:  cpu time    0.0280: real time    0.0337
    SETDIJ:  cpu time    0.0080: real time    0.0086
     EDDAV:  cpu time    0.6960: real time    0.6976
       DOS:  cpu time    0.0040: real time    0.0033
    --------------------------------------------
      LOOP:  cpu time    0.7360: real time    0.7433

 eigenvalue-minimisations  :   800
 total energy-change (2. order) :-0.6356921E-04  (-0.8391064E-05)
 number of electron       8.0000008 magnetization 
 augmentation part       -0.4655514 magnetization 

 Free energy of the ion-electron system (eV)
  ---------------------------------------------------
  alpha Z        PSCENC =         3.84127166
  Ewald energy   TEWEN  =      -238.89505409
  -Hartree energ DENC   =       -13.36757011
  -exchange      EXHF   =         0.00000000
  -V(xc)+E(xc)   XCENC  =       -17.33551041
  PAW double counting   =        79.40378796      -44.57681151
  entropy T*S    EENTRO =        -0.00046365
  eigenvalues    EBANDS =        14.25301180
  atomic energy  EATOM  =       206.13125414
  Solvation  Ediel_sol  =         0.00000000
  ---------------------------------------------------
  free energy    TOTEN  =       -10.54608421 eV

  energy without entropy =      -10.54562056  energy(sigma->0) =      -10.54585238


--------------------------------------------------------------------------------------------------------




 average (electrostatic) potential at core
  the test charge radii are     0.9892
  (the norm of the test charge is              1.0000)
       1 -81.6958       2 -81.6958
 
 
 
 E-fermi :   7.4120     XC(G=0):  -9.9414     alpha+bet :-13.6843


 k-point     1 :       0.0625    0.0625    0.0625
  band No.  band energies     occupation 
      1      -5.6151      2.00000
      2       6.7141      2.00000
      3       7.1581      1.92738
      4       7.1581      1.92738
      5      10.0091      0.00000
      6      10.0091      0.00000
      7      10.0140      0.00000
      8      12.5203      0.00000

 k-point     2 :       0.1875    0.0625    0.0625
  band No.  band energies     occupation 
      1      -5.3112      2.00000
      2       5.1355      2.00000
      3       6.2209      2.00000
      4       7.0444      1.99067
      5      10.2736      0.00000
      6      10.2848      0.00000
      7      10.7076      0.00000
      8      13.5574      0.00000

 k-point     3 :       0.3125    0.0625    0.0625
  band No.  band energies     occupation 
      1      -4.5732      2.00000
      2       2.6606      2.00000
      3       5.7037      2.00000
      4       6.5289      2.00000
      5       9.9709      0.00000
      6      10.7366      0.00000
      7      11.0641      0.00000
      8      14.0436      0.00000

 k-point     4 :       0.4375    0.0625    0.0625
  band No.  band energies     occupation 
      1      -3.5185      2.00000
      2       0.5173      2.00000
      3       5.4893      2.00000
      4       6.0729      2.00000
      5       9.6734      0.00000
      6      10.6752      0.00000
      7      10.6951      0.00000
      8      15.4245      0.00000

 k-point     5 :      -0.4375    0.0625    0.0625
  band No.  band energies     occupation 
      1      -2.9624      2.00000
      2      -0.3181      2.00000
      3       5.5656      2.00000
      4       5.8177      2.00000
      5       9.5786      0.00000
      6      10.4443      0.00000
      7      10.7401      0.00000
      8      15.3818      0.00000

 k-point     6 :      -0.3125    0.0625    0.0625
  band No.  band energies     occupation 
      1      -3.8854      2.00000
      2       1.1598      2.00000
      3       5.8221      2.00000
      4       5.8924      2.00000
      5       9.7139      0.00000
      6      10.5286      0.00000
      7      11.0965      0.00000
      8      14.4903      0.00000

 k-point     7 :      -0.1875    0.0625    0.0625
  band No.  band energies     occupation 
      1      -4.8636      2.00000
      2       3.4755      2.00000
      3       6.1136      2.00000
      4       6.4048      2.00000
      5       9.9512      0.00000
      6      10.6198      0.00000
      7      11.3132      0.00000
      8      13.2338      0.00000

 k-point     8 :      -0.0625    0.0625    0.0625
  band No.  band energies     occupation 
      1      -5.4625      2.00000
      2       5.9523      2.00000
      3       6.6509      2.00000
      4       6.8901      1.99978
      5       9.6916      0.00000
      6      10.5310      0.00000
      7      10.6866      0.00000
      8      12.9829      0.00000

 k-point     9 :       0.1875    0.1875    0.0625
  band No.  band energies     occupation 
      1      -5.1587      2.00000
      2       5.0671      2.00000
      3       6.0079      2.00000
      4       6.1780      2.00000
      5       9.2028      0.00000
      6      11.4578      0.00000
      7      11.6613      0.00000
      8      12.2173      0.00000

 k-point    10 :       0.3125    0.1875    0.0625
  band No.  band energies     occupation 
      1      -4.5622      2.00000
      2       3.4365      2.00000
      3       4.9149      2.00000
      4       5.8702      2.00000
      5       9.3919      0.00000
      6      11.4924      0.00000
      7      11.7893      0.00000
      8      12.5280      0.00000

 k-point    11 :       0.4375    0.1875    0.0625
  band No.  band energies     occupation 
      1      -3.5871      2.00000
      2       1.2953      2.00000
      3       4.4317      2.00000
      4       5.3727      2.00000
      5       9.5980      0.00000
      6      11.2927      0.00000
      7      12.5082      0.00000
      8      12.6888      0.00000

 k-point    12 :      -0.4375    0.1875    0.0625
  band No.  band energies     occupation 
      1      -2.6614      2.00000
      2      -0.1413      2.00000
      3       4.1274      2.00000
      4       5.2559      2.00000
      5       9.7205      0.00000
      6      10.8537      0.00000
      7      12.3085      0.00000
      8      14.9786      0.00000

 k-point    13 :      -0.3125    0.1875    0.0625
  band No.  band energies     occupation 
      1      -3.2258      2.00000
      2       0.6875      2.00000
      3       4.0106      2.00000
      4       5.5979      2.00000
      5      10.1646      0.00000
      6      10.6479      0.00000
      7      12.2770      0.00000
      8      14.0770      0.00000

 k-point    14 :      -0.1875    0.1875    0.0625
  band No.  band energies     occupation 
      1      -4.2771      2.00000
      2       2.6943      2.00000
      3       4.2759      2.00000
      4       6.1972      2.00000
      5      10.4610      0.00000
      6      10.8176      0.00000
      7      12.1915      0.00000
      8      12.4490      0.00000

 k-point    15 :      -0.0625    0.1875    0.0625
  band No.  band energies     occupation 
      1      -5.0101      2.00000
      2       4.2813      2.00000
      3       5.5627      2.00000
      4       6.6340      2.00000
      5       9.8781      0.00000
      6      10.9450      0.00000
      7      11.4359      0.00000
      8      12.6639      0.00000

 k-point    16 :       0.3125    0.3125    0.0625
  band No.  band energies     occupation 
      1      -4.1094      2.00000
      2       3.0113      2.00000
      3       4.7499      2.00000
      4       4.8887      2.00000
      5       8.2559      0.00000
      6       9.9034      0.00000
      7      13.8165      0.00000
      8      13.8780      0.00000

 k-point    17 :       0.4375    0.3125    0.0625
  band No.  band energies     occupation 
      1      -3.2499      2.00000
      2       1.6344      2.00000
      3       3.8279      2.00000
      4       4.4783      2.00000
      5       8.5799      0.00000
      6       9.7682      0.00000
      7      13.7316      0.00000
      8      14.9993      0.00000

 k-point    18 :      -0.4375    0.3125    0.0625
  band No.  band energies     occupation 
      1      -2.1886      2.00000
      2       0.2245      2.00000
      3       2.8601      2.00000
      4       4.4461      2.00000
      5       8.7966      0.00000
      6      11.6383      0.00000
      7      13.2453      0.00000
      8      14.9405      0.00000

 k-point    19 :      -0.3125    0.3125    0.0625
  band No.  band energies     occupation 
      1      -2.2590      2.00000
      2       0.3244      2.00000
      3       2.4279      2.00000
      4       4.8510      2.00000
      5       9.2768      0.00000
      6      12.5640      0.00000
      7      13.9487      0.00000
      8      14.2790      0.00000

 k-point    20 :      -0.1875    0.3125    0.0625
  band No.  band energies     occupation 
      1      -3.3132      2.00000
      2       1.3513      2.00000
      3       3.1633      2.00000
      4       5.5403      2.00000
      5      10.0839      0.00000
      6      11.3857      0.00000
      7      12.9969      0.00000
      8      13.2149      0.00000

 k-point    21 :      -0.0625    0.3125    0.0625
  band No.  band energies     occupation 
      1      -4.1442      2.00000
      2       1.9293      2.00000
      3       5.1057      2.00000
      4       6.0910      2.00000
      5      10.0462      0.00000
      6      10.7115      0.00000
      7      11.5864      0.00000
      8      13.3168      0.00000

 k-point    22 :       0.4375    0.4375    0.0625
  band No.  band energies     occupation 
      1      -2.5119      2.00000
      2       0.6830      2.00000
      3       3.9504      2.00000
      4       4.2242      2.00000
      5       7.7501      0.01683
      6       8.4455      0.00000
      7      16.2384      0.00000
      8      16.3578      0.00000

 k-point    23 :      -0.4375    0.4375    0.0625
  band No.  band energies     occupation 
      1      -1.4626      2.00000
      2      -0.4287      2.00000
      3       3.2678      2.00000
      4       3.9209      2.00000
      5       8.2047      0.00000
      6       9.0321      0.00000
      7      15.9698      0.00000
      8      17.2338      0.00000

 k-point    24 :      -0.3125    0.4375    0.0625
  band No.  band energies     occupation 
      1      -1.5205      2.00000
      2      -0.2761      2.00000
      3       2.3867      2.00000
      4       4.2841      2.00000
      5       8.6241      0.00000
      6      11.4993      0.00000
      7      14.2833      0.00000
      8      15.5511      0.00000

 k-point    25 :      -0.1875    0.4375    0.0625
  band No.  band energies     occupation 
      1      -2.3734      2.00000
      2      -0.0102      2.00000
      3       3.1755      2.00000
      4       4.9826      2.00000
      5       9.4318      0.00000
      6      11.6710      0.00000
      7      13.3706      0.00000
      8      14.7703      0.00000

 k-point    26 :      -0.0625    0.4375    0.0625
  band No.  band energies     occupation 
      1      -3.0830      2.00000
      2       0.0591      2.00000
      3       4.9499      2.00000
      4       5.6921      2.00000
      5       9.9485      0.00000
      6      10.3682      0.00000
      7      11.3338      0.00000
      8      15.2430      0.00000

 k-point    27 :      -0.4375   -0.4375    0.0625
  band No.  band energies     occupation 
      1      -1.5342      2.00000
      2      -0.4591      2.00000
      3       3.7937      2.00000
      4       4.0888      2.00000
      5       7.7012      0.04089
      6       8.0984      0.00000
      7      17.4900      0.00000
      8      17.6753      0.00000

 k-point    28 :      -0.3125   -0.4375    0.0625
  band No.  band energies     occupation 
      1      -2.4060      2.00000
      2       0.6170      2.00000
      3       3.4591      2.00000
      4       4.0991      2.00000
      5       8.3308      0.00000
      6       9.2763      0.00000
      7      14.8076      0.00000
      8      16.3032      0.00000

 k-point    29 :      -0.1875   -0.4375    0.0625
  band No.  band energies     occupation 
      1      -2.9213      2.00000
      2       0.7428      2.00000
      3       3.6323      2.00000
      4       4.7929      2.00000
      5       9.1322      0.00000
      6      11.7919      0.00000
      7      12.4650      0.00000
      8      13.7087      0.00000

 k-point    30 :      -0.3125   -0.3125    0.0625
  band No.  band energies     occupation 
      1      -3.3749      2.00000
      2       1.8565      2.00000
      3       4.2669      2.00000
      4       4.4927      2.00000
      5       7.9331      0.00023
      6       9.0526      0.00000
      7      15.0389      0.00000
      8      15.0705      0.00000

 k-point    31 :      -0.1875   -0.3125    0.0625
  band No.  band energies     occupation 
      1      -3.9728      2.00000
      2       2.5714      2.00000
      3       4.3291      2.00000
      4       5.0870      2.00000
      5       8.9419      0.00000
      6      10.5116      0.00000
      7      12.7285      0.00000
      8      13.7326      0.00000

 k-point    32 :      -0.1875   -0.1875    0.0625
  band No.  band energies     occupation 
      1      -4.7062      2.00000
      2       4.0917      2.00000
      3       5.4014      2.00000
      4       5.4026      2.00000
      5       8.6948      0.00000
      6      10.9764      0.00000
      7      12.6096      0.00000
      8      12.7466      0.00000

 k-point    33 :       0.1875    0.1875    0.1875
  band No.  band energies     occupation 
      1      -5.1614      2.00000
      2       4.3111      2.00000
      3       6.6581      2.00000
      4       6.6581      2.00000
      5       9.9246      0.00000
      6      10.6917      0.00000
      7      10.6917      0.00000
      8      14.3466      0.00000

 k-point    34 :       0.3125    0.1875    0.1875
  band No.  band energies     occupation 
      1      -4.7149      2.00000
      2       3.4659      2.00000
      3       4.9073      2.00000
      4       6.7120      2.00000
      5      10.5816      0.00000
      6      10.8067      0.00000
      7      11.1755      0.00000
      8      13.3626      0.00000

 k-point    35 :       0.4375    0.1875    0.1875
  band No.  band energies     occupation 
      1      -3.8570      2.00000
      2       1.9903      2.00000
      3       3.6681      2.00000
      4       6.1271      2.00000
      5      10.1489      0.00000
      6      11.6228      0.00000
      7      11.9449      0.00000
      8      13.5225      0.00000

 k-point    36 :      -0.4375    0.1875    0.1875
  band No.  band energies     occupation 
      1      -2.7956      2.00000
      2       0.2302      2.00000
      3       3.5688      2.00000
      4       5.5086      2.00000
      5       9.4594      0.00000
      6      11.9210      0.00000
      7      12.0143      0.00000
      8      15.4798      0.00000

 k-point    37 :      -0.3125    0.1875    0.1875
  band No.  band energies     occupation 
      1      -2.7804      2.00000
      2       0.2013      2.00000
      3       3.9351      2.00000
      4       5.1335      2.00000
      5       9.0830      0.00000
      6      12.0971      0.00000
      7      12.2996      0.00000
      8      13.5922      0.00000

 k-point    38 :      -0.1875    0.1875    0.1875
  band No.  band energies     occupation 
      1      -3.8419      2.00000
      2       1.9810      2.00000
      3       4.6236      2.00000
      4       5.0918      2.00000
      5       9.0153      0.00000
      6      11.3396      0.00000
      7      12.5415      0.00000
      8      12.8122      0.00000

 k-point    39 :       0.3125    0.3125    0.1875
  band No.  band energies     occupation 
      1      -4.4216      2.00000
      2       2.7012      2.00000
      3       5.5680      2.00000
      4       5.5972      2.00000
      5       9.5573      0.00000
      6      11.3891      0.00000
      7      12.0239      0.00000
      8      12.1956      0.00000

 k-point    40 :       0.4375    0.3125    0.1875
  band No.  band energies     occupation 
      1      -3.7040      2.00000
      2       1.9644      2.00000
      3       3.7315      2.00000
      4       5.3546      2.00000
      5      10.0436      0.00000
      6      11.1998      0.00000
      7      11.7521      0.00000
      8      13.5067      0.00000

 k-point    41 :      -0.4375    0.3125    0.1875
  band No.  band energies     occupation 
      1      -2.6657      2.00000
      2       0.7677      2.00000
      3       2.7986      2.00000
      4       4.6648      2.00000
      5      10.4691      0.00000
      6      11.1020      0.00000
      7      12.5017      0.00000
      8      14.6619      0.00000

 k-point    42 :      -0.3125    0.3125    0.1875
  band No.  band energies     occupation 
      1      -2.0749      2.00000
      2       0.0196      2.00000
      3       2.8457      2.00000
      4       4.2855      2.00000
      5       9.9416      0.00000
      6      11.4417      0.00000
      7      13.3215      0.00000
      8      14.9135      0.00000

 k-point    43 :      -0.1875    0.3125    0.1875
  band No.  band energies     occupation 
      1      -3.0076      2.00000
      2       1.2367      2.00000
      3       3.2975      2.00000
      4       4.5034      2.00000
      5       9.6797      0.00000
      6      10.8682      0.00000
      7      12.2342      0.00000
      8      14.8759      0.00000

 k-point    44 :       0.4375    0.4375    0.1875
  band No.  band energies     occupation 
      1      -3.1358      2.00000
      2       1.2632      2.00000
      3       3.7142      2.00000
      4       4.7176      2.00000
      5       8.5349      0.00000
      6      10.7422      0.00000
      7      13.6975      0.00000
      8      13.7663      0.00000

 k-point    45 :      -0.4375    0.4375    0.1875
  band No.  band energies     occupation 
      1      -2.2080      2.00000
      2       0.4547      2.00000
      3       2.9850      2.00000
      4       3.8619      2.00000
      5       9.4196      0.00000
      6      10.4884      0.00000
      7      13.1472      0.00000
      8      16.2346      0.00000

 k-point    46 :      -0.3125    0.4375    0.1875
  band No.  band energies     occupation 
      1      -1.2532      2.00000
      2      -0.3772      2.00000
      3       2.5730      2.00000
      4       3.2577      2.00000
      5      10.6265      0.00000
      6      11.5701      0.00000
      7      12.7083      0.00000
      8      13.7256      0.00000

 k-point    47 :      -0.1875    0.4375    0.1875
  band No.  band energies     occupation 
      1      -1.9508      2.00000
      2       0.2005      2.00000
      3       2.6010      2.00000
      4       3.8215      2.00000
      5      10.7029      0.00000
      6      11.2643      0.00000
      7      12.2834      0.00000
      8      14.9261      0.00000

 k-point    48 :      -0.4375   -0.4375    0.1875
  band No.  band energies     occupation 
      1      -1.4615      2.00000
      2      -0.3856      2.00000
      3       2.7033      2.00000
      4       4.3317      2.00000
      5       8.0099      0.00002
      6      10.1723      0.00000
      7      15.7918      0.00000
      8      16.2859      0.00000

 k-point    49 :      -0.3125   -0.4375    0.1875
  band No.  band energies     occupation 
      1      -1.3478      2.00000
      2      -0.3928      2.00000
      3       2.8139      2.00000
      4       3.5370      2.00000
      5       9.2848      0.00000
      6      10.2962      0.00000
      7      14.2165      0.00000
      8      15.4211      0.00000

 k-point    50 :      -0.3125   -0.3125    0.1875
  band No.  band energies     occupation 
      1      -2.3233      2.00000
      2       0.4725      2.00000
      3       3.0424      2.00000
      4       4.4615      2.00000
      5       8.1890      0.00000
      6      10.3590      0.00000
      7      14.6949      0.00000
      8      15.0273      0.00000

 k-point    51 :       0.3125    0.3125    0.3125
  band No.  band energies     occupation 
      1      -4.2936      2.00000
      2       1.8565      2.00000
      3       6.2071      2.00000
      4       6.2071      2.00000
      5       9.5348      0.00000
      6      10.8058      0.00000
      7      10.8058      0.00000
      8      15.1461      0.00000

 k-point    52 :       0.4375    0.3125    0.3125
  band No.  band energies     occupation 
      1      -3.7393      2.00000
      2       1.2463      2.00000
      3       4.5602      2.00000
      4       6.1166      2.00000
      5      10.0883      0.00000
      6      11.0886      0.00000
      7      11.1417      0.00000
      8      14.5001      0.00000

 k-point    53 :      -0.4375    0.3125    0.3125
  band No.  band energies     occupation 
      1      -2.8197      2.00000
      2       0.7976      2.00000
      3       2.7104      2.00000
      4       5.4308      2.00000
      5       9.3255      0.00000
      6      12.7368      0.00000
      7      13.0171      0.00000
      8      14.3148      0.00000

 k-point    54 :      -0.3125    0.3125    0.3125
  band No.  band energies     occupation 
      1      -1.8484      2.00000
      2      -0.0338      2.00000
      3       2.2662      2.00000
      4       4.7966      2.00000
      5       8.5625      0.00000
      6      12.7836      0.00000
      7      14.1426      0.00000
      8      14.8584      0.00000

 k-point    55 :       0.4375    0.4375    0.3125
  band No.  band energies     occupation 
      1      -3.3675      2.00000
      2       0.6006      2.00000
      3       4.9958      2.00000
      4       5.4472      2.00000
      5       9.5280      0.00000
      6      11.0936      0.00000
      7      11.6021      0.00000
      8      13.9225      0.00000

 k-point    56 :      -0.4375    0.4375    0.3125
  band No.  band energies     occupation 
      1      -2.6424      2.00000
      2       0.2727      2.00000
      3       3.4491      2.00000
      4       4.8603      2.00000
      5      10.2190      0.00000
      6      10.6952      0.00000
      7      13.4469      0.00000
      8      13.7799      0.00000

 k-point    57 :      -0.3125    0.4375    0.3125
  band No.  band energies     occupation 
      1      -1.6950      2.00000
      2      -0.0713      2.00000
      3       2.3701      2.00000
      4       4.0141      2.00000
      5       9.7959      0.00000
      6      12.2351      0.00000
      7      13.2733      0.00000
      8      13.9446      0.00000

 k-point    58 :      -0.4375   -0.4375    0.3125
  band No.  band energies     occupation 
      1      -2.2154      2.00000
      2      -0.0095      2.00000
      3       2.9423      2.00000
      4       4.9112      2.00000
      5       8.7409      0.00000
      6      12.7399      0.00000
      7      13.1660      0.00000
      8      13.8618      0.00000

 k-point    59 :       0.4375    0.4375    0.4375
  band No.  band energies     occupation 
      1      -3.2327      2.00000
      2      -0.0380      2.00000
      3       5.9718      2.00000
      4       5.9718      2.00000
      5       9.2990      0.00000
      6      10.5499      0.00000
      7      10.5499      0.00000
      8      15.1953      0.00000

 k-point    60 :      -0.4375    0.4375    0.4375
  band No.  band energies     occupation 
      1      -2.8128      2.00000
      2      -0.2216      2.00000
      3       4.6198      2.00000
      4       5.6483      2.00000
      5       9.6634      0.00000
      6      10.9859      0.00000
      7      11.2155      0.00000
      8      15.9252      0.00000


--------------------------------------------------------------------------------------------------------


 soft charge-density along one line, spin component           1
         0         1         2         3         4         5         6         7         8         9
 total charge-density along one line
 
 pseudopotential strength for first ion, spin component:           1
 18.259  -0.003  -0.000  -0.000  -0.000   0.000   0.000   0.000
 -0.003   0.006   0.000   0.000   0.000  -0.000  -0.000  -0.000
 -0.000   0.000   4.164  -0.000  -0.000  -0.006   0.000   0.000
 -0.000   0.000  -0.000   4.164  -0.000   0.000  -0.006   0.000
 -0.000   0.000  -0.000  -0.000   4.164   0.000   0.000  -0.006
  0.000  -0.000  -0.006   0.000   0.000   0.005  -0.000  -0.000
  0.000  -0.000   0.000  -0.006   0.000  -0.000   0.005  -0.000
  0.000  -0.000   0.000   0.000  -0.006  -0.000  -0.000   0.005
 total augmentation occupancy for first ion, spin component:           1
  1.482  -0.986  -0.000  -0.000   0.000   0.000   0.000  -0.000
 -0.986   1.092   0.000   0.000   0.000   0.000   0.000   0.000
 -0.000   0.000   1.128  -0.000   0.000  -0.681   0.000  -0.000
 -0.000   0.000  -0.000   1.128   0.000   0.000  -0.681  -0.000
  0.000   0.000   0.000   0.000   1.128  -0.000  -0.000  -0.681
  0.000   0.000  -0.681   0.000  -0.000   0.485  -0.000   0.000
  0.000   0.000   0.000  -0.681  -0.000  -0.000   0.485   0.000
  0.000   0.000  -0.000  -0.000  -0.681   0.000   0.000   0.485


------------------------ aborting loop because EDIFF is reached ----------------------------------------


    CHARGE:  cpu time    0.0600: real time    0.0597
    FORLOC:  cpu time    0.0000: real time    0.0009
    FORNL :  cpu time    0.0240: real time    0.0223
    STRESS:  cpu time    0.2400: real time    0.2425
    FORCOR:  cpu time    0.0240: real time    0.0217
    FORHAR:  cpu time    0.0040: real time    0.0054
    MIXING:  cpu time    0.0000: real time    0.0015
    OFIELD:  cpu time    0.0000: real time    0.0005

  FORCE on cell =-STRESS in cart. coord.  units (eV):
  Direction    XX          YY          ZZ          XY          YZ          ZX
  --------------------------------------------------------------------------------------
  Alpha Z     3.84127     3.84127     3.84127
  Ewald     -79.63172   -79.63172   -79.63172     0.00000     0.00000    -0.00000
  Hartree     4.45782     4.45782     4.45782     0.00000     0.00000     0.00000
  E(xc)     -26.19425   -26.19425   -26.19425    -0.00000    -0.00000    -0.00000
  Local     -27.52197   -27.52197   -27.52197     0.00003     0.00003     0.00003
  n-local    80.81916    83.44072    78.46890     1.23398    -1.32963     0.05342
  augment   -11.76848   -11.76848   -11.76848    -0.00002    -0.00002    -0.00002
  Kinetic    61.98079    58.19401    59.93587     0.65646    -0.75790     0.04590
  Fock        0.00000     0.00000     0.00000     0.00000     0.00000     0.00000
  -------------------------------------------------------------------------------------
  Total       4.12916     4.12916     4.12916     0.00000     0.00000    -0.00000
  in kB     188.72699   188.72699   188.72699     0.00000     0.00000    -0.00000
  external pressure =      188.73 kB  Pullay stress =        0.00 kB


 VOLUME and BASIS-vectors are now :
 -----------------------------------------------------------------------------
  energy-cutoff  :      350.00
  volume of cell :       35.05
      direct lattice vectors                 reciprocal lattice vectors
     0.000000000  2.597584000  2.597584000    -0.192486557  0.192486557  0.192486557
     2.597584000  0.000000000  2.597584000     0.192486557 -0.192486557  0.192486557
     2.597584000  2.597584000  0.000000000     0.192486557  0.192486557 -0.192486557

  length of vectors
     3.673538522  3.673538522  3.673538522     0.333396496  0.333396496  0.333396496


 FORCES acting on ions
    electron-ion (+dipol)            ewald-force                    non-local-force                 convergence-correction
 -----------------------------------------------------------------------------------------------
   0.453E-06 0.453E-06 0.403E-06   -.750E-14 0.121E-13 -.579E-14   0.110E-16 0.144E-16 0.194E-16   -.254E-06 -.254E-06 -.254E-06
   -.453E-06 -.453E-06 -.403E-06   0.732E-14 -.117E-13 0.622E-14   -.160E-16 -.142E-16 -.163E-16   0.254E-06 0.254E-06 0.254E-06
 -----------------------------------------------------------------------------------------------
   -.616E-13 -.540E-13 -.239E-13   -.172E-15 0.416E-15 0.431E-15   -.500E-17 0.205E-18 0.312E-17   0.618E-14 0.542E-14 -.189E-14
 
 
 POSITION                                       TOTAL-FORCE (eV/Angst)
 -----------------------------------------------------------------------------------
      0.00000      0.00000      0.00000        -0.000000     -0.000000     -0.000000
      1.29879      1.29879      1.29879         0.000000      0.000000      0.000000
 -----------------------------------------------------------------------------------
    total drift:                               -0.000000     -0.000000     -0.000000


--------------------------------------------------------------------------------------------------------



  FREE ENERGIE OF THE ION-ELECTRON SYSTEM (eV)
  ---------------------------------------------------
  free  energy   TOTEN  =       -10.54608421 eV

  energy  without entropy=      -10.54562056  energy(sigma->0) =      -10.54585238
 


--------------------------------------------------------------------------------------------------------


    POTLOK:  cpu time    0.0400: real time    0.0530


--------------------------------------------------------------------------------------------------------




--------------------------------------------------------------------------------------------------------


  
 reached required accuracy - stopping structural energy minimisation
 writing wavefunctions
     LOOP+:  cpu time   10.6400: real time   11.3118
    4ORBIT:  cpu time    0.0000: real time    0.0000

 total amount of memory used by VASP MPI-rank0    33418. kBytes
=======================================================================

   base      :      30000. kBytes
   nonl-proj :       2075. kBytes
   fftplans  :        247. kBytes
   grid      :        561. kBytes
   one-center:          6. kBytes
   wavefun   :        529. kBytes
 
  
  
 General timing and accounting informations for this job:
 ========================================================
  
                  Total CPU time used (sec):       16.232
                            User time (sec):       13.788
                          System time (sec):        2.444
                         Elapsed time (sec):       18.076
  
                   Maximum memory used (kb):        9876.
                   Average memory used (kb):           0.
  
                          Minor page faults:        38182
                          Major page faults:           26
                 Voluntary context switches:        39635
