 running on    8 total cores
 distrk:  each k-point on    8 cores,    1 groups
 distr:  one band on    1 cores,    8 groups
 using from now: INCAR     
 vasp.5.4.4.18Apr17-6-g9f103f2a35 (build Dec 09 2018 21:25:21) complex          
  
 POSCAR found type information on POSCAR  Si
 POSCAR found :  1 types and       2 ions
 scaLAPACK will be used

 ----------------------------------------------------------------------------- 
|                                                                             |
|           W    W    AA    RRRRR   N    N  II  N    N   GGGG   !!!           |
|           W    W   A  A   R    R  NN   N  II  NN   N  G    G  !!!           |
|           W    W  A    A  R    R  N N  N  II  N N  N  G       !!!           |
|           W WW W  AAAAAA  RRRRR   N  N N  II  N  N N  G  GGG   !            |
|           WW  WW  A    A  R   R   N   NN  II  N   NN  G    G                |
|           W    W  A    A  R    R  N    N  II  N    N   GGGG   !!!           |
|                                                                             |
|      For optimal performance we recommend to set                            |
|        NCORE= 4 - approx SQRT( number of cores)                             |
|      NCORE specifies how many cores store one orbital (NPAR=cpu/NCORE).     |
|      This setting can  greatly improve the performance of VASP for DFT.     |
|      The default,   NCORE=1            might be grossly inefficient         |
|      on modern multi-core architectures or massively parallel machines.     |
|      Do your own testing !!!!                                               |
|      Unfortunately you need to use the default for GW and RPA calculations. |
|      (for HF NCORE is supported but not extensively tested yet)             |
|                                                                             |
 ----------------------------------------------------------------------------- 

 LDA part: xc-table for Pade appr. of Perdew
 POSCAR, INCAR and KPOINTS ok, starting setup
 FFT: planning ...
 WAVECAR not read
 entering main loop
       N       E                     dE             d eps       ncg     rms          rms(c)
DAV:   1     0.387126784958E+01    0.38713E+01   -0.27400E+03   968   0.567E+02
DAV:   2    -0.106544147670E+02   -0.14526E+02   -0.13684E+02  1464   0.726E+01
DAV:   3    -0.108149246008E+02   -0.16051E+00   -0.16051E+00  1160   0.985E+00
DAV:   4    -0.108155938656E+02   -0.66926E-03   -0.66926E-03  1624   0.660E-01
DAV:   5    -0.108155940243E+02   -0.15871E-06   -0.15922E-06  1128   0.103E-02    0.335E+00
DAV:   6    -0.106247586929E+02    0.19084E+00   -0.13626E-01  1136   0.195E+00    0.194E+00
DAV:   7    -0.105447134273E+02    0.80045E-01   -0.22045E-01  1224   0.260E+00    0.181E-01
DAV:   8    -0.105460206394E+02   -0.13072E-02   -0.51308E-03  1112   0.560E-01    0.255E-02
DAV:   9    -0.105460842086E+02   -0.63569E-04   -0.83911E-05   800   0.793E-02
   1 F= -.10546084E+02 E0= -.10545852E+02  d E =-.105461E+02
 curvature:   0.00 expect dE= 0.000E+00 dE for cont linesearch  0.000E+00
 trial: gam= 0.00000 g(F)=  0.121E-46 g(S)=  0.000E+00 ort = 0.000E+00 (trialstep = 0.100E+01)
 search vector abs. value=  0.100E-09
 reached required accuracy - stopping structural energy minimisation
 writing wavefunctions
