   2   2   0   0
  0.2001288E+02  0.3839590E-09  0.3839590E-09  0.3839590E-09  0.5000000E-15
  1.000000000000000E-004
  CAR 
 unknown system                          
     14.36365204     -7.39662767  301      5.80467952      1.00000000
     -7.397  0.0000E+00  0.0000E+00
     -7.324  0.0000E+00  0.0000E+00
     -7.252  0.0000E+00  0.0000E+00
     -7.179  0.0000E+00  0.0000E+00
     -7.106  0.0000E+00  0.0000E+00
     -7.034  0.0000E+00  0.0000E+00
     -6.961  0.0000E+00  0.0000E+00
     -6.889  0.0000E+00  0.0000E+00
     -6.816  0.0000E+00  0.0000E+00
     -6.744  0.0000E+00  0.0000E+00
     -6.671  0.0000E+00  0.0000E+00
     -6.599  0.0000E+00  0.0000E+00
     -6.526  0.3061E-15  0.2220E-16
     -6.454  0.1750E-13  0.1292E-14
     -6.381  0.7552E-12  0.5607E-13
     -6.309  0.2515E-10  0.1880E-11
     -6.236  0.6459E-09  0.4873E-10
     -6.164  0.1280E-07  0.9772E-09
     -6.091  0.1958E-06  0.1518E-07
     -6.018  0.2311E-05  0.1828E-06
     -5.946  0.2107E-04  0.1711E-05
     -5.873  0.1483E-03  0.1247E-04
     -5.801  0.8063E-03  0.7095E-04
     -5.728  0.3387E-02  0.3166E-03
     -5.656  0.1100E-01  0.1114E-02
     -5.583  0.2759E-01  0.3115E-02
     -5.511  0.5350E-01  0.6996E-02
     -5.438  0.8020E-01  0.1281E-01
     -5.366  0.9295E-01  0.1955E-01
     -5.293  0.8328E-01  0.2560E-01
     -5.221  0.5768E-01  0.2978E-01
     -5.148  0.3089E-01  0.3202E-01
     -5.076  0.1278E-01  0.3295E-01
     -5.003  0.4090E-02  0.3324E-01
     -4.930  0.1011E-02  0.3332E-01
     -4.858  0.1931E-03  0.3333E-01
     -4.785  0.2849E-04  0.3333E-01
     -4.713  0.3246E-05  0.3333E-01
     -4.640  0.2855E-06  0.3333E-01
     -4.568  0.1939E-07  0.3333E-01
     -4.495  0.1020E-08  0.3333E-01
     -4.423  0.1631E-09  0.3333E-01
     -4.350  0.3020E-08  0.3333E-01
     -4.278  0.5764E-07  0.3333E-01
     -4.205  0.8495E-06  0.3333E-01
     -4.133  0.9664E-05  0.3333E-01
     -4.060  0.8489E-04  0.3334E-01
     -3.988  0.5759E-03  0.3338E-01
     -3.915  0.3018E-02  0.3360E-01
     -3.842  0.1222E-01  0.3449E-01
     -3.770  0.3823E-01  0.3726E-01
     -3.697  0.9243E-01  0.4396E-01
     -3.625  0.1728E+00  0.5650E-01
     -3.552  0.2496E+00  0.7460E-01
     -3.480  0.2789E+00  0.9483E-01
     -3.407  0.2408E+00  0.1123E+00
     -3.335  0.1608E+00  0.1240E+00
     -3.262  0.8297E-01  0.1300E+00
     -3.190  0.3310E-01  0.1324E+00
     -3.117  0.1021E-01  0.1331E+00
     -3.045  0.2431E-02  0.1333E+00
     -2.972  0.4475E-03  0.1333E+00
     -2.900  0.6363E-04  0.1333E+00
     -2.827  0.6987E-05  0.1333E+00
     -2.754  0.5923E-06  0.1333E+00
     -2.682  0.3876E-07  0.1333E+00
     -2.609  0.1958E-08  0.1333E+00
     -2.537  0.7628E-10  0.1333E+00
     -2.464  0.2293E-11  0.1333E+00
     -2.392  0.5327E-13  0.1333E+00
     -2.319  0.9184E-15  0.1333E+00
     -2.247  0.0000E+00  0.1333E+00
     -2.174  0.0000E+00  0.1333E+00
     -2.102  0.0000E+00  0.1333E+00
     -2.029  0.0000E+00  0.1333E+00
     -1.957  0.0000E+00  0.1333E+00
     -1.884  0.0000E+00  0.1333E+00
     -1.811  0.2296E-14  0.1333E+00
     -1.739  0.1198E-12  0.1333E+00
     -1.666  0.4891E-11  0.1333E+00
     -1.594  0.1541E-09  0.1333E+00
     -1.521  0.3745E-08  0.1333E+00
     -1.449  0.7023E-07  0.1333E+00
     -1.376  0.1016E-05  0.1333E+00
     -1.304  0.1135E-04  0.1333E+00
     -1.231  0.9793E-04  0.1333E+00
     -1.159  0.6524E-03  0.1334E+00
     -1.086  0.3357E-02  0.1336E+00
     -1.014  0.1335E-01  0.1346E+00
     -0.941  0.4102E-01  0.1376E+00
     -0.869  0.9740E-01  0.1446E+00
     -0.796  0.1788E+00  0.1576E+00
     -0.723  0.2537E+00  0.1760E+00
     -0.651  0.2783E+00  0.1962E+00
     -0.578  0.2361E+00  0.2133E+00
     -0.506  0.1548E+00  0.2245E+00
     -0.433  0.7844E-01  0.2302E+00
     -0.361  0.3073E-01  0.2325E+00
     -0.288  0.9305E-02  0.2331E+00
     -0.216  0.2177E-02  0.2333E+00
     -0.143  0.3935E-03  0.2333E+00
     -0.071  0.5494E-04  0.2333E+00
      0.002  0.5924E-05  0.2333E+00
      0.074  0.4932E-06  0.2333E+00
      0.147  0.3169E-07  0.2333E+00
      0.219  0.1572E-08  0.2333E+00
      0.292  0.6013E-10  0.2333E+00
      0.365  0.1775E-11  0.2333E+00
      0.437  0.4041E-13  0.2333E+00
      0.510  0.6122E-15  0.2333E+00
      0.582  0.5102E-16  0.2333E+00
      0.655  0.3750E-14  0.2333E+00
      0.727  0.1793E-12  0.2333E+00
      0.800  0.6608E-11  0.2333E+00
      0.872  0.1878E-09  0.2333E+00
      0.945  0.4118E-08  0.2333E+00
      1.017  0.6967E-07  0.2333E+00
      1.090  0.9099E-06  0.2333E+00
      1.162  0.9174E-05  0.2333E+00
      1.235  0.7143E-04  0.2333E+00
      1.307  0.4295E-03  0.2334E+00
      1.380  0.1995E-02  0.2335E+00
      1.453  0.7163E-02  0.2340E+00
      1.525  0.1987E-01  0.2355E+00
      1.598  0.4264E-01  0.2386E+00
      1.670  0.7089E-01  0.2437E+00
      1.743  0.9209E-01  0.2504E+00
      1.815  0.9687E-01  0.2574E+00
      1.888  0.9373E-01  0.2642E+00
      1.960  0.1078E+00  0.2720E+00
      2.033  0.1577E+00  0.2835E+00
      2.105  0.2291E+00  0.3001E+00
      2.178  0.2770E+00  0.3202E+00
      2.250  0.2636E+00  0.3393E+00
      2.323  0.1946E+00  0.3534E+00
      2.395  0.1112E+00  0.3615E+00
      2.468  0.4913E-01  0.3651E+00
      2.541  0.1677E-01  0.3663E+00
      2.613  0.4426E-02  0.3666E+00
      2.686  0.9024E-03  0.3667E+00
      2.758  0.1425E-03  0.3667E+00
      2.831  0.2147E-04  0.3667E+00
      2.903  0.4189E-04  0.3667E+00
      2.976  0.2997E-03  0.3667E+00
      3.048  0.1721E-02  0.3668E+00
      3.121  0.7640E-02  0.3674E+00
      3.193  0.2621E-01  0.3693E+00
      3.266  0.6947E-01  0.3743E+00
      3.338  0.1424E+00  0.3846E+00
      3.411  0.2255E+00  0.4010E+00
      3.484  0.2761E+00  0.4210E+00
      3.556  0.2614E+00  0.4400E+00
      3.629  0.1913E+00  0.4538E+00
      3.701  0.1082E+00  0.4617E+00
      3.774  0.4733E-01  0.4651E+00
      3.846  0.1600E-01  0.4663E+00
      3.919  0.4179E-02  0.4666E+00
      3.991  0.8433E-03  0.4667E+00
      4.064  0.1315E-03  0.4667E+00
      4.136  0.1588E-04  0.4667E+00
      4.209  0.2101E-05  0.4667E+00
      4.281  0.7189E-05  0.4667E+00
      4.354  0.6156E-04  0.4667E+00
      4.426  0.4132E-03  0.4667E+00
      4.499  0.2142E-02  0.4669E+00
      4.572  0.8581E-02  0.4675E+00
      4.644  0.2656E-01  0.4694E+00
      4.717  0.6356E-01  0.4740E+00
      4.789  0.1175E+00  0.4825E+00
      4.862  0.1680E+00  0.4947E+00
      4.934  0.1857E+00  0.5082E+00
      5.007  0.1587E+00  0.5197E+00
      5.079  0.1048E+00  0.5273E+00
      5.152  0.5353E-01  0.5312E+00
      5.224  0.2113E-01  0.5327E+00
      5.297  0.6445E-02  0.5332E+00
      5.369  0.1519E-02  0.5333E+00
      5.442  0.2767E-03  0.5333E+00
      5.514  0.3892E-04  0.5333E+00
      5.587  0.4228E-05  0.5333E+00
      5.660  0.3547E-06  0.5333E+00
      5.732  0.2296E-07  0.5333E+00
      5.805  0.1147E-08  0.5333E+00
      5.877  0.4423E-10  0.5333E+00
      5.950  0.1315E-11  0.5333E+00
      6.022  0.3018E-13  0.5333E+00
      6.095  0.6964E-14  0.5333E+00
      6.167  0.3127E-12  0.5333E+00
      6.240  0.1196E-10  0.5333E+00
      6.312  0.3530E-09  0.5333E+00
      6.385  0.8036E-08  0.5333E+00
      6.457  0.1412E-06  0.5333E+00
      6.530  0.1914E-05  0.5333E+00
      6.602  0.2003E-04  0.5333E+00
      6.675  0.1619E-03  0.5333E+00
      6.748  0.1010E-02  0.5334E+00
      6.820  0.4872E-02  0.5338E+00
      6.893  0.1815E-01  0.5351E+00
      6.965  0.5227E-01  0.5389E+00
      7.038  0.1163E+00  0.5473E+00
      7.110  0.2002E+00  0.5618E+00
      7.183  0.2669E+00  0.5812E+00
      7.255  0.2771E+00  0.6013E+00
      7.328  0.2287E+00  0.6179E+00
      7.400  0.1618E+00  0.6296E+00
      7.473  0.1177E+00  0.6382E+00
      7.545  0.1041E+00  0.6457E+00
      7.618  0.9960E-01  0.6529E+00
      7.690  0.8419E-01  0.6590E+00
      7.763  0.5716E-01  0.6632E+00
      7.836  0.3030E-01  0.6654E+00
      7.908  0.1245E-01  0.6663E+00
      7.981  0.3953E-02  0.6666E+00
      8.053  0.9704E-03  0.6667E+00
      8.126  0.1841E-03  0.6667E+00
      8.198  0.2697E-04  0.6667E+00
      8.271  0.3052E-05  0.6667E+00
      8.343  0.2760E-06  0.6667E+00
      8.416  0.1749E-06  0.6667E+00
      8.488  0.2027E-05  0.6667E+00
      8.561  0.2019E-04  0.6667E+00
      8.633  0.1554E-03  0.6667E+00
      8.706  0.9241E-03  0.6667E+00
      8.779  0.4245E-02  0.6671E+00
      8.851  0.1506E-01  0.6681E+00
      8.924  0.4132E-01  0.6711E+00
      8.996  0.8760E-01  0.6775E+00
      9.069  0.1436E+00  0.6879E+00
      9.141  0.1819E+00  0.7011E+00
      9.214  0.1781E+00  0.7140E+00
      9.286  0.1349E+00  0.7238E+00
      9.359  0.7895E-01  0.7295E+00
      9.431  0.3572E-01  0.7321E+00
      9.504  0.1251E-01  0.7330E+00
      9.576  0.3510E-02  0.7333E+00
      9.649  0.1561E-02  0.7334E+00
      9.721  0.4347E-02  0.7337E+00
      9.794  0.1618E-01  0.7349E+00
      9.867  0.4773E-01  0.7383E+00
      9.939  0.1089E+00  0.7462E+00
     10.012  0.1920E+00  0.7602E+00
     10.084  0.2618E+00  0.7792E+00
     10.157  0.2759E+00  0.7992E+00
     10.229  0.2248E+00  0.8155E+00
     10.302  0.1416E+00  0.8258E+00
     10.374  0.6896E-01  0.8308E+00
     10.447  0.2595E-01  0.8326E+00
     10.519  0.7549E-02  0.8332E+00
     10.592  0.1697E-02  0.8333E+00
     10.664  0.3001E-03  0.8333E+00
     10.737  0.9040E-04  0.8333E+00
     10.809  0.3721E-03  0.8334E+00
     10.882  0.2056E-02  0.8335E+00
     10.955  0.8879E-02  0.8342E+00
     11.027  0.2968E-01  0.8363E+00
     11.100  0.7697E-01  0.8419E+00
     11.172  0.1558E+00  0.8532E+00
     11.245  0.2492E+00  0.8713E+00
     11.317  0.3247E+00  0.8948E+00
     11.390  0.3630E+00  0.9212E+00
     11.462  0.3721E+00  0.9481E+00
     11.535  0.3608E+00  0.9743E+00
     11.607  0.3189E+00  0.9974E+00
     11.680  0.2404E+00  0.1015E+01
     11.752  0.1470E+00  0.1026E+01
     11.825  0.7094E-01  0.1031E+01
     11.897  0.2687E-01  0.1033E+01
     11.970  0.8795E-02  0.1033E+01
     12.043  0.5847E-02  0.1034E+01
     12.115  0.1309E-01  0.1035E+01
     12.188  0.3093E-01  0.1037E+01
     12.260  0.5769E-01  0.1041E+01
     12.333  0.8328E-01  0.1047E+01
     12.405  0.9295E-01  0.1054E+01
     12.478  0.8020E-01  0.1060E+01
     12.550  0.5350E-01  0.1064E+01
     12.623  0.2759E-01  0.1066E+01
     12.695  0.1100E-01  0.1066E+01
     12.768  0.3387E-02  0.1067E+01
     12.840  0.8063E-03  0.1067E+01
     12.913  0.1483E-03  0.1067E+01
     12.986  0.2107E-04  0.1067E+01
     13.058  0.2311E-05  0.1067E+01
     13.131  0.1958E-06  0.1067E+01
     13.203  0.1280E-07  0.1067E+01
     13.276  0.6459E-09  0.1067E+01
     13.348  0.2515E-10  0.1067E+01
     13.421  0.7552E-12  0.1067E+01
     13.493  0.1750E-13  0.1067E+01
     13.566  0.3061E-15  0.1067E+01
     13.638  0.0000E+00  0.1067E+01
     13.711  0.0000E+00  0.1067E+01
     13.783  0.0000E+00  0.1067E+01
     13.856  0.0000E+00  0.1067E+01
     13.928  0.0000E+00  0.1067E+01
     14.001  0.0000E+00  0.1067E+01
     14.074  0.0000E+00  0.1067E+01
     14.146  0.0000E+00  0.1067E+01
     14.219  0.0000E+00  0.1067E+01
     14.291  0.0000E+00  0.1067E+01
     14.364  0.0000E+00  0.1067E+01
