    2    2   15    1
  0.2001288E+02  0.3839590E-09  0.3839590E-09  0.3839590E-09  0.5000000E-15
  1.000000000000000E-004
  CAR 
 unknown system                          
      8      2      8
 
  0.2500000E+00  0.2500000E+00  0.2500000E+00  0.2500000E+00
    1       -5.399752   1.000000
    2        1.727231   1.000000
    3        4.866010   1.000000
    4        4.866010   1.000000
    5        7.551106   0.000000
    6        9.085981   0.000000
    7        9.085981   0.000000
    8       12.330780   0.000000
 
 -0.2500000E+00  0.2500000E+00  0.2500000E+00  0.7500000E+00
    1       -3.526875   1.000000
    2       -0.706020   1.000000
    3        2.153725   1.000000
    4        3.453012   1.000000
    5        7.146741   0.000000
    6       10.033391   0.000000
    7       11.234288   0.000000
    8       11.470246   0.000000
