unknown system                          
   1.00000000000000     
    -2.450000    2.450000    1.274000
     2.450000   -2.450000    1.274000
     2.450000    2.450000   -1.274000
   Si
     2
Direct
  0.250000  0.750000  0.500000
  0.000000  0.000000  0.000000
 
   28   28   28
 -5.4730     -3.9387     0.50839E-01  4.9719      9.1384      11.440      11.692      10.504      8.8112      7.1965    
  5.8358      4.7958      4.0794      3.6639      3.5279      3.6638      4.0795      4.7959      5.8359      7.1965    
  8.8112      10.504      11.692      11.440      9.1385      4.9720     0.50754E-01 -3.9389     -3.9389     -4.7281    
 -2.5759      1.6525      6.3596      9.9863      11.664      11.436      10.028      8.3351      6.7837      5.5105    
  4.5620      3.9308      3.5922      3.5278      3.7339      4.2218      5.0141      6.1304      7.5565      9.2074    
  10.863      11.827      11.199      8.5242      4.1950     -.52080     0.50754E-01 -2.5760     -2.6328     -.10668    
  3.9740      8.0687      10.856      11.757      11.028      9.4586      7.8041      6.3405      5.1720      4.3247    
  3.7830      3.5223      3.5277      3.7991      4.3506      5.2054      6.3782      7.8443      9.5041      11.098    
  11.883      11.047      8.3002      4.1950      4.9720      1.6525     -.10673     0.42860      3.0191      6.5848    
  9.7614      11.538      11.634      10.473      8.8332      7.2474      5.8913      4.8379      4.0956      3.6431    
  3.4575      3.5276      3.8562      4.4593      5.3592      6.5657      8.0448      9.6875      11.213      11.897    
  11.047      8.5242      9.1385      6.3597      3.9740      3.0191      3.9203      6.2667      9.0388      11.135    
  11.883      11.268      9.8140      8.1877      6.6959      5.4602      4.5255      3.8860      3.5180      3.4013    
  3.5278      3.9023      4.5418      5.4671      6.6826      8.1477      9.7495      11.213      11.883      11.199    
  11.440      9.9863      8.0687      6.5849      6.2668      7.2811      9.1403      10.976      11.992      11.836    
  10.696      9.1217      7.5585      6.1795      5.0694      4.2497      3.7059      3.4139      3.3565      3.5281    
  3.9347      4.5934      5.5226      6.7223      8.1477      9.6875      11.098      11.827      11.692      11.664    
  10.856      9.7613      9.0389      9.1404      10.048      11.287      12.193      12.275      11.444      10.017    
  8.4514      6.9809      5.7247      4.7371      4.0232      3.5635      3.3358      3.3255      3.5284      3.9515    
  4.6110      5.5226      6.6826      8.0448      9.5041      10.863      10.504      11.436      11.757      11.538    
  11.135      10.976      11.287      11.946      12.554      12.669      12.064      10.839      9.3431      7.8440    
  6.4851      5.3524      4.4773      3.8551      3.4651      3.2875      3.3096      3.5285      3.9515      4.5934    
  5.4671      6.5657      7.8443      9.2074      8.8112      10.028      11.028      11.634      11.883      11.992    
  12.193      12.554      12.917      12.993      12.544      11.542      10.191      8.7371      7.3350      6.0949    
  5.0774      4.2995      3.7518      3.4150      3.2712      3.3096      3.5284      3.9347      4.5418      5.3592    
  6.3782      7.5565      7.1965      8.3350      9.4587      10.474      11.268      11.836      12.275      12.669    
  12.993      13.100      12.814      12.060      10.933      9.6109      8.2424      6.9523      5.8267      4.9092    
  4.2093      3.7170      3.4150      3.2875      3.3255      3.5281      3.9023      4.4593      5.2054      6.1304    
  5.8359      6.7836      7.8040      8.8332      9.8141      10.696      11.444      12.064      12.544      12.814    
  12.763      12.312      11.489      10.396      9.1550      7.8933      6.7153      5.6904      4.8526      4.2093    
  3.7518      3.4651      3.3358      3.3565      3.5278      3.8562      4.3506      5.0141      4.7959      5.5106    
  6.3405      7.2473      8.1876      9.1217      10.017      10.839      11.542      12.060      12.312      12.226    
  11.780      11.009      9.9999      8.8643      7.7130      6.6352      5.6904      4.9092      4.2995      3.8551    
  3.5635      3.4139      3.4013      3.5276      3.7991      4.2218      4.0795      4.5622      5.1720      5.8913    
  6.6958      7.5585      8.4514      9.3431      10.191      10.933      11.489      11.780      11.745      11.369    
  10.691      9.7900      8.7645      7.7130      6.7153      5.8267      5.0774      4.4773      4.0232      3.7059    
  3.5180      3.4575      3.5277      3.7339      3.6638      3.9308      4.3247      4.8380      5.4603      6.1795    
  6.9808      7.8439      8.7371      9.6109      10.396      11.009      11.369      11.420      11.147      10.581    
  9.7900      8.8643      7.8933      6.9523      6.0949      5.3524      4.7371      4.2497      3.8860      3.6431    
  3.5223      3.5278      3.5279      3.5921      3.7829      4.0956      4.5255      5.0694      5.7247      6.4851    
  7.3349      8.2424      9.1551      9.9999      10.691      11.147      11.306      11.147      10.691      9.9999    
  9.1550      8.2424      7.3350      6.4851      5.7247      5.0694      4.5255      4.0956      3.7830      3.5922    
  3.6639      3.5278      3.5221      3.6429      3.8859      4.2497      4.7372      5.3524      6.0949      6.9523    
  7.8933      8.8643      9.7900      10.581      11.147      11.420      11.369      11.009      10.396      9.6109    
  8.7371      7.8440      6.9809      6.1795      5.4602      4.8379      4.3247      3.9308      4.0794      3.7339    
  3.5277      3.4574      3.5179      3.7058      4.0231      4.4774      5.0774      5.8267      6.7153      7.7129    
  8.7645      9.7900      10.691      11.369      11.745      11.780      11.489      10.933      10.191      9.3431    
  8.4514      7.5585      6.6959      5.8913      5.1720      4.5620      4.7958      4.2217      3.7991      3.5276    
  3.4013      3.4138      3.5634      3.8550      4.2996      4.9092      5.6904      6.6351      7.7129      8.8643    
  9.9999      11.009      11.780      12.226      12.312      12.060      11.542      10.839      10.017      9.1217    
  8.1877      7.2474      6.3405      5.5105      5.8358      5.0140      4.3505      3.8562      3.5278      3.3566    
  3.3359      3.4651      3.7518      4.2093      4.8526      5.6904      6.7153      7.8933      9.1551      10.396    
  11.489      12.312      12.763      12.814      12.544      12.064      11.444      10.696      9.8140      8.8332    
  7.8041      6.7837      7.1965      6.1304      5.2053      4.4592      3.9023      3.5281      3.3256      3.2876    
  3.4150      3.7170      4.2093      4.9092      5.8267      6.9523      8.2424      9.6109      10.933      12.060    
  12.814      13.100      12.993      12.669      12.275      11.836      11.268      10.473      9.4586      8.3351    
  8.8112      7.5565      6.3782      5.3592      4.5418      3.9347      3.5285      3.3098      3.2713      3.4150    
  3.7518      4.2996      5.0774      6.0949      7.3349      8.7371      10.191      11.542      12.544      12.993    
  12.917      12.554      12.193      11.992      11.883      11.634      11.028      10.028      10.504      9.2074    
  7.8443      6.5658      5.4672      4.5935      3.9515      3.5286      3.3098      3.2876      3.4651      3.8550    
  4.4774      5.3524      6.4851      7.8439      9.3431      10.839      12.064      12.669      12.554      11.946    
  11.287      10.976      11.135      11.538      11.757      11.436      11.692      10.863      9.5040      8.0448    
  6.6827      5.5228      4.6111      3.9515      3.5285      3.3256      3.3359      3.5634      4.0231      4.7372    
  5.7247      6.9808      8.4514      10.017      11.444      12.275      12.193      11.287      10.048      9.1403    
  9.0388      9.7614      10.856      11.664      11.440      11.827      11.098      9.6874      8.1476      6.7224    
  5.5228      4.5935      3.9347      3.5281      3.3566      3.4138      3.7058      4.2497      5.0694      6.1795    
  7.5585      9.1217      10.696      11.836      11.992      10.976      9.1404      7.2811      6.2667      6.5848    
  8.0687      9.9863      9.1384      11.199      11.883      11.213      9.7494      8.1476      6.6827      5.4672    
  4.5418      3.9023      3.5278      3.4013      3.5179      3.8859      4.5255      5.4603      6.6958      8.1876    
  9.8141      11.268      11.883      11.135      9.0389      6.2668      3.9203      3.0191      3.9740      6.3596    
  4.9719      8.5240      11.047      11.897      11.213      9.6874      8.0448      6.5658      5.3592      4.4592    
  3.8562      3.5276      3.4574      3.6429      4.0956      4.8380      5.8913      7.2473      8.8332      10.474    
  11.634      11.538      9.7613      6.5849      3.0191     0.42860     -.10668      1.6525     0.50839E-01  4.1949    
  8.3000      11.047      11.883      11.098      9.5040      7.8443      6.3782      5.2053      4.3505      3.7991    
  3.5277      3.5221      3.7829      4.3247      5.1720      6.3405      7.8040      9.4587      11.028      11.757    
  10.856      8.0687      3.9740     -.10673     -2.6328     -2.5759     -3.9387     -.52069      4.1949      8.5240    
  11.199      11.827      10.863      9.2074      7.5565      6.1304      5.0140      4.2217      3.7339      3.5278    
  3.5921      3.9308      4.5622      5.5106      6.7836      8.3350      10.028      11.436      11.664      9.9863    
  6.3597      1.6525     -2.5760     -4.7281     -3.9384     -2.8283     0.64643      5.1367      9.0532      11.279    
  11.557      10.410      8.7274      7.1047      5.7259      4.6631      3.9223      3.4792      3.3094      3.4021    
  3.7635      4.4154      5.3839      6.6744      8.2336      9.9144      11.253      11.368      9.6099      6.0338    
  1.5727     -2.2412     -2.8285     -3.9384     -2.2411      1.5727      6.0337      9.6100      11.368      11.253    
  9.9145      8.2337      6.6745      5.3839      4.4153      3.7635      3.4021      3.3094      3.4791      3.9223    
  4.6632      5.7258      7.1045      8.7274      10.410      11.557      11.279      9.0532      5.1367     0.64635    
 0.76716     -2.1087     -2.5757     -.46226      3.3548      7.4014      10.316      11.413      10.843      9.3428    
  7.6985      6.2262      5.0413      4.1772      3.6196      3.3415      3.3253      3.5695      4.0889      4.9090    
  6.0497      7.4946      9.1556      10.811      11.785      11.244      8.8123      4.9169      5.4345      1.9171    
 -.21708     -.10653      2.1699      5.6402      8.9414      10.969      11.318      10.318      8.7277      7.1481    
  5.7820      4.7144      3.9595      3.4964      3.2998      3.3565      3.6692      4.2554      5.1402      6.3385    
  7.8239      9.4967      11.108      11.964      11.330      8.9729      9.5133      6.5874      3.8738      2.4935    
  3.0191      5.1778      8.0038      10.342      11.396      11.029      9.6985      8.1004      6.6095      5.3637    
  4.4180      3.7713      3.3989      3.2786      3.4014      3.7734      4.4130      5.3442      6.5761      8.0743    
  9.7323      11.294      12.105      11.548      11.851      10.311      8.1380      6.2664      5.5397      6.2667    
  8.0591      10.051      11.355      11.491      10.546      9.0393      7.4915      6.1092      4.9906      4.1651    
  3.6203      3.3310      3.2786      3.4578      3.8763      4.5530      5.5091      6.7484      8.2306      9.8477    
  11.360      12.194      12.191      12.142      11.174      9.7749      8.6673      8.4221      9.1402      10.400    
  11.504      11.854      11.249      9.9340      8.3968      6.9318      5.6710      4.6790      3.9658      3.5125    
  3.2956      3.2999      3.5226      3.9723      4.6670      5.6248      6.8445      8.2823      9.8331      11.291    
  11.075      12.049      12.310      11.899      11.191      10.692      10.737      11.287      11.959      12.255    
  11.848      10.753      9.2960      7.8084      6.4494      5.3144      4.4416      3.8280      3.4526      3.2945    
  3.3417      3.5926      4.0560      4.7484      5.6840      6.8578      8.2244      9.6852      9.4083      10.708    
  11.733      12.261      12.318      12.156      12.083      12.251      12.554      12.691      12.364      11.465    
  10.152      8.7085      7.3081      6.0678      5.0541      4.2870      3.7568      3.4432      3.3283      3.4022    
  3.6642      4.1228      4.7923      5.6830      6.7864      8.0580      7.7910      9.0156      10.205      11.234    
  11.950      12.348      12.565      12.749      12.933      12.993      12.733      12.023      10.909      9.5858    
  8.2152      6.9247      5.8043      4.8998      4.2207      3.7553      3.4857      3.3963      3.4791      3.7341    
  4.1692      4.7962      5.6216      6.6339      6.4084      7.4381      8.5288      9.6021      10.584      11.396    
  12.005      12.450      12.768      12.924      12.814      12.337      11.487      10.373      9.1193      7.8530    
  6.6800      5.6703      4.8570      4.2452      3.8246      3.5793      3.4965      3.5693      3.7991      4.1930    
  4.7601      5.5030      5.3341      6.1228      7.0199      7.9769      8.9380      9.8524      10.682      11.391    
  11.954      12.338      12.482      12.312      11.800      10.985      9.9474      8.7987      7.6493      6.5879    
  5.6717      4.9277      4.3609      3.9631      3.7214      3.6248      3.6689      3.8560      4.1929      4.6859    
  4.5779      5.1241      5.7936      6.5613      7.3939      8.2548      9.1092      9.9252      10.667      11.287    
  11.722      11.904      11.780      11.337      10.613      9.6865      8.6570      7.6211      6.6553      5.8101    
  5.1111      4.5653      4.1671      3.9066      3.7759      3.7729      3.9019      4.1691      4.1226      4.4415    
  4.8848      5.4398      6.0897      6.8149      7.5939      8.4029      9.2122      9.9801      10.649      11.147    
  11.404      11.369      11.033      10.428      9.6250      8.7118      7.7743      6.8819      6.0827      5.4031    
  4.8527      4.4294      4.1271      3.9421      3.8759      3.9343      3.9510      4.0558      4.2843      4.6294    
  5.0817      5.6322      6.2727      6.9927      7.7754      8.5920      9.3970      10.127      10.708      11.065    
  11.147      10.937      10.459      9.7754      8.9637      8.1034      7.2604      6.4817      5.7951      5.2133    
  4.7391      4.3723      4.1148      3.9720      4.0559      3.9511      3.9719      4.1147      4.3722      4.7390    
  5.2132      5.7951      6.4817      7.2604      8.1034      8.9637      9.7754      10.459      10.937      11.147    
  11.065      10.708      10.127      9.3970      8.5920      7.7755      6.9928      6.2728      5.6323      5.0817    
  4.6295      4.2844      4.4416      4.1228      3.9344      3.8759      3.9420      4.1271      4.4293      4.8526    
  5.4031      6.0827      6.8819      7.7742      8.7118      9.6250      10.428      11.033      11.369      11.404    
  11.147      10.649      9.9801      9.2123      8.4030      7.5940      6.8150      6.0898      5.4398      4.8847    
  5.1240      4.5778      4.1692      3.9020      3.7730      3.7759      3.9066      4.1671      4.5652      5.1111    
  5.8101      6.6553      7.6211      8.6571      9.6866      10.613      11.337      11.780      11.904      11.722    
  11.287      10.667      9.9252      9.1093      8.2549      7.3940      6.5613      5.7935      6.1227      5.3339    
  4.6859      4.1930      3.8561      3.6690      3.6249      3.7214      3.9631      4.3609      4.9277      5.6717    
  6.5879      7.6493      8.7987      9.9474      10.985      11.800      12.312      12.482      12.338      11.954    
  11.391      10.682      9.8524      8.9381      7.9770      7.0199      7.4381      6.4083      5.5029      4.7600    
  4.1930      3.7991      3.5694      3.4965      3.5793      3.8245      4.2452      4.8570      5.6703      6.6800    
  7.8530      9.1193      10.373      11.487      12.337      12.814      12.924      12.768      12.450      12.005    
  11.396      10.584      9.6021      8.5288      9.0156      7.7910      6.6338      5.6215      4.7961      4.1692    
  3.7341      3.4792      3.3964      3.4857      3.7553      4.2207      4.8999      5.8044      6.9247      8.2153    
  9.5859      10.909      12.023      12.733      12.993      12.933      12.749      12.566      12.349      11.950    
  11.234      10.205      10.708      9.4082      8.0579      6.7864      5.6830      4.7922      4.1228      3.6642    
  3.4022      3.3283      3.4432      3.7568      4.2871      5.0542      6.0678      7.3081      8.7086      10.152    
  11.465      12.364      12.691      12.554      12.251      12.083      12.156      12.318      12.261      11.732    
  12.049      11.075      9.6851      8.2243      6.8578      5.6841      4.7484      4.0559      3.5925      3.3417    
  3.2944      3.4525      3.8280      4.4417      5.3145      6.4494      7.8085      9.2961      10.753      11.848    
  12.255      11.959      11.286      10.736      10.692      11.191      11.899      12.310      12.142      12.191    
  11.291      9.8330      8.2822      6.8445      5.6249      4.6670      3.9722      3.5226      3.2999      3.2955    
  3.5125      3.9659      4.6792      5.6710      6.9317      8.3969      9.9341      11.249      11.854      11.504    
  10.401      9.1401      8.4220      8.6672      9.7749      11.174      10.310      11.851      12.194      11.360    
  9.8476      8.2305      6.7485      5.5092      4.5529      3.8762      3.4578      3.2786      3.3309      3.6202    
  4.1652      4.9907      6.1092      7.4915      9.0394      10.546      11.491      11.355      10.051      8.0591    
  6.2667      5.5396      6.2664      8.1379      6.5873      9.5132      11.548      12.106      11.294      9.7322    
  8.0742      6.5763      5.3443      4.4130      3.7733      3.4015      3.2786      3.3988      3.7713      4.4182    
  5.3637      6.6095      8.1004      9.6986      11.029      11.396      10.342      8.0038      5.1778      3.0192    
  2.4936      3.8738      1.9172      5.4343      8.9727      11.330      11.964      11.108      9.4967      7.8240    
  6.3387      5.1402      4.2553      3.6693      3.3566      3.2998      3.4964      3.9596      4.7145      5.7820    
  7.1480      8.7277      10.318      11.318      10.969      8.9413      5.6402      2.1700     -.10644     -.21692    
 -2.1085     0.76727      4.9168      8.8122      11.244      11.785      10.811      9.1556      7.4947      6.0498    
  4.9090      4.0888      3.5696      3.3254      3.3415      3.6196      4.1773      5.0414      6.2261      7.6984    
  9.3429      10.843      11.412      10.315      7.4014      3.3548     -.46226     -2.5756     0.51732E-01 0.76785    
  3.4412      6.9886      10.072      11.723      11.702      10.462      8.7852      7.1757      5.8003      4.7291    
  3.9690      3.4968      3.2876      3.3284      3.6225      4.1887      5.0537      6.2300      7.6821      9.2947    
  10.775      11.403      10.530      8.0625      4.6651      1.5732     0.64696     -.51970     0.64706      3.6556    
  7.2874      10.207      11.563      11.274      9.9068      8.2479      6.7057      5.4208      4.4470      3.7810    
  3.3966      3.2712      3.3965      3.7809      4.4471      5.4208      6.7056      8.2479      9.9069      11.274    
  11.562      10.207      7.2875      3.6555      3.4411     0.76776     0.51776E-01  1.5733      4.6651      8.0625    
  10.530      11.403      10.775      9.2946      7.6821      6.2301      5.0537      4.1887      3.6226      3.3284    
  3.2875      3.4967      3.9689      4.7291      5.8002      7.1756      8.7852      10.463      11.702      11.723    
  10.072      6.9887      7.2641      4.0820      1.9176      1.6532      3.3552      6.2442      9.1071      10.896    
  11.175      10.199      8.6566      7.1143      5.7712      4.7153      3.9645      3.4994      3.2945      3.3358    
  3.6251      4.1787      5.0219      6.1733      7.6160      9.2669      10.937      12.070      11.941      10.219    
  10.654      8.0753      5.4570      3.8741      3.9744      5.6403      8.0604      10.164      11.151      10.822    
  9.5616      8.0204      6.5694      5.3490      4.4192      3.7825      3.4153      3.2955      3.4139      3.7761    
  4.4003      5.3106      6.5199      8.0024      9.6661      11.310      12.377      12.230      12.558      11.296    
  9.2579      7.2956      6.2664      6.5848      8.0036      9.7604      10.995      11.179      10.328      8.9019    
  7.4122      6.0710      4.9807      4.1764      3.6485      3.3727      3.3308      3.5180      3.9422      4.6219    
  5.5787      6.8196      8.3113      9.9570      11.558      12.604      12.715      12.847      11.996      10.565    
  9.2467      8.6671      9.0384      10.050      11.057      11.442      10.940      9.7294      8.2665      6.8582    
  5.6397      4.6805      3.9951      3.5667      3.3726      3.3987      3.6431      4.1148      4.8311      5.8102    
  7.0534      8.5220      10.118      11.660      11.594      12.664      13.003      12.581      11.730      10.964    
  10.692      10.975      11.504      11.791      11.465      10.478      9.1059      7.6864      6.3827      5.2928    
  4.4590      3.8812      3.5399      3.4151      3.4962      3.7830      4.2843      5.0155      5.9907      7.2058    
  8.6186      10.134      9.9978      11.350      12.417      12.941      12.901      12.536      12.187      12.082    
  12.192      12.255      11.956      11.137      9.9031      8.5282      7.1910      6.0068      5.0436      4.3237    
  3.8388      3.5694      3.4991      3.6194      3.9308      4.4414      5.1641      6.1085      7.2658      8.5922    
  8.4420      9.7146      10.935      11.962      12.616      12.868      12.861      12.789      12.749      12.669    
  12.364      11.679      10.615      9.3455      8.0360      6.8071      5.7471      4.9013      4.2793      3.8698    
  3.6554      3.6221      3.7633      4.0795      4.5777      5.2682      6.1561      7.2287      7.0958      8.1758    
  9.3003      10.380      11.326      12.039      12.479      12.705      12.796      12.768      12.544      12.023    
  11.171      10.080      8.8724      7.6642      6.5562      5.6151      4.8714      4.3284      3.9750      3.7963    
  3.7805      3.9219      4.2217      4.6859      5.3219      6.1305      6.0329      6.8748      7.8098      8.7814    
  9.7225      10.571      11.280      11.815      12.172      12.356      12.338      12.060      11.487      10.654    
  9.6346      8.5290      7.4410      6.4535      5.6179      4.9564      4.4711      4.1526      3.9885      3.9685    
  4.0885      4.3505      4.7601      5.3220      5.2686      5.8692      6.5793      7.3676      8.1922      9.0070    
  9.7698      10.448      11.015      11.443      11.694      11.722      11.489      10.985      10.242      9.3324    
  8.3506      7.3861      6.5077      5.7579      5.1560      4.7051      4.3984      4.2255      4.1784      4.2550    
  4.4591      4.7964      4.7925      5.1647      5.6489      6.2277      6.8776      7.5713      8.2805      8.9777    
  9.6365      10.227      10.709      11.034      11.147      11.009      10.613      9.9922      9.2136      8.3601    
  7.5094      6.7212      6.0338      5.4666      5.0249      4.7044      4.4978      4.4001      4.4128      4.5417    
  4.5935      4.7487      5.0161      5.3852      5.8416      6.3704      6.9572      7.5871      8.2426      8.9002    
  9.5264      10.075      10.488      10.708      10.691      10.428      9.9448      9.2999      8.5657      7.8110    
  7.0902      6.4399      5.8806      5.4202      5.0585      4.7924      4.6221      4.5530      4.6672      4.6111    
  4.6672      4.8315      5.0940      5.4444      5.8758      6.3843      6.9642      7.6038      8.2813      8.9613    
  9.5931      10.114      10.459      10.581      10.459      10.114      9.5930      8.9613      8.2814      7.6038    
  6.9641      6.3842      5.8758      5.4443      5.0939      4.8315      5.0161      4.7488      4.5935      4.5530    
  4.6221      4.7925      5.0585      5.4202      5.8806      6.4399      7.0902      7.8110      8.5657      9.2999    
  9.9448      10.428      10.691      10.708      10.488      10.075      9.5264      8.9002      8.2427      7.5871    
  6.9572      6.3704      5.8416      5.3852      5.6489      5.1647      4.7927      4.5418      4.4128      4.4002    
  4.4978      4.7044      5.0248      5.4667      6.0339      6.7212      7.5094      8.3601      9.2136      9.9922    
  10.613      11.009      11.147      11.034      10.709      10.227      9.6365      8.9778      8.2805      7.5713    
  6.8776      6.2277      6.5793      5.8692      5.2687      4.7965      4.4592      4.2550      4.1784      4.2255    
  4.3984      4.7051      5.1560      5.7579      6.5077      7.3861      8.3507      9.3324      10.242      10.985    
  11.489      11.722      11.694      11.443      11.015      10.448      9.7698      9.0070      8.1922      7.3677    
  7.8099      6.8748      6.0330      5.3221      4.7602      4.3504      4.0885      3.9686      3.9885      4.1526    
  4.4710      4.9564      5.6179      6.4535      7.4410      8.5290      9.6346      10.654      11.487      12.060    
  12.338      12.356      12.172      11.815      11.280      10.571      9.7225      8.7814      9.3004      8.1758    
  7.0957      6.1306      5.3220      4.6859      4.2216      3.9219      3.7805      3.7963      3.9749      4.3284    
  4.8714      5.6151      6.5562      7.6642      8.8725      10.080      11.171      12.023      12.544      12.768    
  12.796      12.705      12.479      12.039      11.326      10.380      10.935      9.7147      8.4420      7.2287    
  6.1562      5.2683      4.5776      4.0793      3.7632      3.6221      3.6553      3.8698      4.2794      4.9013    
  5.7470      6.8071      8.0361      9.3456      10.614      11.679      12.364      12.669      12.749      12.789    
  12.861      12.868      12.616      11.962      12.417      11.350      9.9978      8.5922      7.2658      6.1085    
  5.1641      4.4413      3.9307      3.6193      3.4990      3.5694      3.8387      4.3237      5.0436      6.0067    
  7.1910      8.5283      9.9031      11.137      11.956      12.255      12.192      12.082      12.187      12.536    
  12.901      12.941      13.003      12.664      11.594      10.134      8.6185      7.2057      5.9907      5.0154    
  4.2841      3.7829      3.4962      3.4151      3.5398      3.8813      4.4591      5.2928      6.3826      7.6864    
  9.1059      10.478      11.465      11.791      11.504      10.975      10.692      10.964      11.730      12.581    
  11.996      12.847      12.715      11.660      10.118      8.5219      7.0534      5.8102      4.8310      4.1147    
  3.6431      3.3987      3.3726      3.5667      3.9952      4.6806      5.6396      6.8582      8.2665      9.7294    
  10.940      11.442      11.057      10.050      9.0383      8.6670      9.2468      10.565      9.2579      11.296    
  12.558      12.604      11.558      9.9569      8.3112      6.8196      5.5787      4.6219      3.9422      3.5181    
  3.3309      3.3727      3.6485      4.1765      4.9808      6.0709      7.4122      8.9020      10.328      11.179    
  10.995      9.7605      8.0036      6.5847      6.2664      7.2957      5.4570      8.0753      10.654      12.230    
  12.377      11.309      9.6660      8.0024      6.5199      5.3105      4.4002      3.7762      3.4140      3.2956    
  3.4153      3.7825      4.4193      5.3490      6.5693      8.0204      9.5617      10.822      11.151      10.164    
  8.0605      5.6403      3.9743      3.8740      1.9177      4.0820      7.2640      10.219      11.941      12.070    
  10.937      9.2669      7.6161      6.1734      5.0219      4.1787      3.6252      3.3360      3.2945      3.4994    
  3.9645      4.7153      5.7711      7.1142      8.6567      10.199      11.175      10.896      9.1072      6.2442    
  3.3551      1.6532      4.9726      5.4347      7.2638      9.6705      11.649      12.475      12.000      10.622    
  8.9753      7.4098      6.0637      4.9997      4.2256      3.7215      3.4650      3.4431      3.6556      4.1159    
  4.8475      5.8674      7.1577      8.6368      10.137      11.209      11.268      10.096      8.0626      6.0341    
  5.1372      4.1958      4.9173      6.9885      9.4977      11.412      12.071      11.436      9.9945      8.3794    
  6.8827      5.6277      4.6637      3.9887      3.5795      3.4149      3.4857      3.7966      4.3654      5.2164    
  6.3604      7.7636      9.3219      10.810      11.658      11.309      9.6733      7.2874      6.9885      4.9173    
  4.1959      5.1372      7.2874      9.6732      11.309      11.658      10.810      9.3217      7.7636      6.3604    
  5.2164      4.3653      3.7966      3.4858      3.4148      3.5794      3.9887      4.6639      5.6278      6.8826    
  8.3794      9.9948      11.436      12.071      11.412      9.4978      9.6705      7.2638      5.4348      4.9728    
  6.0342      8.0624      10.096      11.268      11.209      10.136      8.6367      7.1577      5.8675      4.8475    