unknown system                          
   1.00000000000000     
    -2.450000    2.450000    1.274000
     2.450000   -2.450000    1.274000
     2.450000    2.450000   -1.274000
   Si
     2
Direct
  0.250000  0.750000  0.500000
  0.000000  0.000000  0.000000
 
   28   28   28
 -.54729765188E+01 -.39387999132E+01 0.50205979744E-01 0.49703511095E+01 0.91357681670E+01
 0.11436299202E+02 0.11688488493E+02 0.10500823809E+02 0.88087225184E+01 0.71956824316E+01
 0.58367142636E+01 0.47982236018E+01 0.40830407598E+01 0.36681748837E+01 0.35324230384E+01
 0.36681386729E+01 0.40831498099E+01 0.47984348148E+01 0.58367798440E+01 0.71955851527E+01
 0.88086831316E+01 0.10500879909E+02 0.11688472714E+02 0.11436213019E+02 0.91357559247E+01
 0.49703343292E+01 0.49988694965E-01 -.39390831140E+01 -.39390831140E+01 -.47279532958E+01
 -.25757359818E+01 0.16524336787E+01 0.63590348953E+01 0.99850756542E+01 0.11661789133E+02
 0.11433156936E+02 0.10025813208E+02 0.83333497709E+01 0.67831502128E+01 0.55115165489E+01
 0.45644963824E+01 0.39344207037E+01 0.35965033448E+01 0.35323860598E+01 0.37382958523E+01
 0.42255288185E+01 0.50166988949E+01 0.61311920914E+01 0.75551835742E+01 0.92041088798E+01
 0.10858262338E+02 0.11821885550E+02 0.11194307632E+02 0.85205681075E+01 0.41928829290E+01
 -.52171692403E+00 0.49988694965E-01 -.25759434437E+01 -.26322012953E+01 -.10573055050E+00
 0.39751905041E+01 0.80698484859E+01 0.10856436223E+02 0.11756811602E+02 0.11027228379E+02
 0.94571890159E+01 0.78029309908E+01 0.63402089940E+01 0.51730269600E+01 0.43271824418E+01
 0.37865625703E+01 0.35265123710E+01 0.35322168292E+01 0.38035274570E+01 0.43544522326E+01
 0.52079798231E+01 0.63788791432E+01 0.78425795484E+01 0.95000603718E+01 0.11092169621E+02
 0.11876800453E+02 0.11041815235E+02 0.82962811219E+01 0.41928829290E+01 0.49703343292E+01
 0.16523110774E+01 -.10581756906E+00 0.43041294543E+00 0.30217677603E+01 0.65882280534E+01
 0.97649493319E+01 0.11540927876E+02 0.11636031001E+02 0.10473760644E+02 0.88325785028E+01
 0.72465905466E+01 0.58911980177E+01 0.48390803595E+01 0.40981021343E+01 0.36465974519E+01
 0.34616703431E+01 0.35321128330E+01 0.38607200731E+01 0.44632541746E+01 0.53619151979E+01
 0.65662995601E+01 0.80427405960E+01 0.96829188301E+01 0.11206660937E+02 0.11890295456E+02
 0.11041815235E+02 0.85205681075E+01 0.91357559247E+01 0.63590324183E+01 0.39751794869E+01
 0.30218006848E+01 0.39243833087E+01 0.62722078119E+01 0.90451838753E+01 0.11141482771E+02
 0.11888219383E+02 0.11271050120E+02 0.98152854400E+01 0.81875645008E+01 0.66953412759E+01
 0.54603166052E+01 0.45267054859E+01 0.38884513449E+01 0.35213893675E+01 0.34053490107E+01
 0.35322331230E+01 0.39069113880E+01 0.45459478331E+01 0.54698397245E+01 0.66831038978E+01
 0.81454149406E+01 0.97447382744E+01 0.11206660937E+02 0.11876800453E+02 0.11194307632E+02
 0.11436213019E+02 0.99850511888E+01 0.80698532671E+01 0.65883041866E+01 0.62723230440E+01
 0.72884955067E+01 0.91492874188E+01 0.10985339248E+02 0.12000930503E+02 0.11842961728E+02
 0.10700877949E+02 0.91236539019E+01 0.75587840473E+01 0.61792353412E+01 0.50696357136E+01
 0.42510266478E+01 0.37082350203E+01 0.34171391354E+01 0.33605041090E+01 0.35325629694E+01
 0.39394473741E+01 0.45976918664E+01 0.55254624372E+01 0.67227803421E+01 0.81454149406E+01
 0.96829188301E+01 0.11092169621E+02 0.11821885550E+02 0.11688472714E+02 0.11661776198E+02
 0.10856402511E+02 0.97649506976E+01 0.90453002367E+01 0.91494324463E+01 0.10059590704E+02
 0.11299204952E+02 0.12205268306E+02 0.12285706656E+02 0.11452823498E+02 0.10022160214E+02
 0.84537554211E+01 0.69814320221E+01 0.57246753527E+01 0.47375301207E+01 0.40244655019E+01
 0.35657643746E+01 0.33389578400E+01 0.33293998387E+01 0.35329149086E+01 0.39562782681E+01
 0.46153095641E+01 0.55254624372E+01 0.66831038978E+01 0.80427405960E+01 0.95000603718E+01
 0.10858262338E+02 0.10500879909E+02 0.11433250889E+02 0.11756860361E+02 0.11540893116E+02
 0.11141474316E+02 0.10985450775E+02 0.11299334958E+02 0.11960809609E+02 0.12569178179E+02
 0.12683795791E+02 0.12076214373E+02 0.10848417985E+02 0.93485680095E+01 0.78465713556E+01
 0.64859581077E+01 0.53525884043E+01 0.44778893974E+01 0.38563802955E+01 0.34673290106E+01
 0.32905677257E+01 0.33134987810E+01 0.35330649027E+01 0.39562782681E+01 0.45976918664E+01
 0.54698397245E+01 0.65662995601E+01 0.78425795484E+01 0.92041088798E+01 0.88086831316E+01
 0.10025888801E+02 0.11027381830E+02 0.11636118366E+02 0.11888193725E+02 0.12000913909E+02
 0.12205348159E+02 0.12569268702E+02 0.12934331545E+02 0.13010172829E+02 0.12559741647E+02
 0.11554219728E+02 0.10199846085E+02 0.87427146127E+01 0.73378002742E+01 0.60960239929E+01
 0.50778352730E+01 0.43001693608E+01 0.37531205042E+01 0.34170851825E+01 0.32741927052E+01
 0.33134987810E+01 0.35329149086E+01 0.39394473741E+01 0.45459478331E+01 0.53619151979E+01
 0.63788791432E+01 0.75551835742E+01 0.71955851527E+01 0.83332653164E+01 0.94572467616E+01
 0.10473918546E+02 0.11271150416E+02 0.11842953229E+02 0.12285689770E+02 0.12683838496E+02
 0.13010220420E+02 0.13117935370E+02 0.12831883300E+02 0.12075698142E+02 0.10945170625E+02
 0.96200320733E+01 0.82481800341E+01 0.69553472830E+01 0.58280118566E+01 0.49097407000E+01
 0.42100166205E+01 0.37183098683E+01 0.34170851825E+01 0.32905677257E+01 0.33293998387E+01
 0.35325629694E+01 0.39069113880E+01 0.44632541746E+01 0.52079798231E+01 0.61311920914E+01
 0.58367798440E+01 0.67830542743E+01 0.78028204241E+01 0.88325975817E+01 0.98154082239E+01
 0.10700970781E+02 0.11452835074E+02 0.12076205674E+02 0.12559756390E+02 0.12831898520E+02
 0.12781136095E+02 0.12329780976E+02 0.11504697733E+02 0.10408423668E+02 0.91641427456E+01
 0.78991732107E+01 0.67185115408E+01 0.56917592112E+01 0.48532088246E+01 0.42100166205E+01
 0.37531205042E+01 0.34673290106E+01 0.33389578400E+01 0.33605041090E+01 0.35322331230E+01
 0.38607200731E+01 0.43544522326E+01 0.50166988949E+01 0.47984348148E+01 0.55115969030E+01
 0.63401361576E+01 0.72464808250E+01 0.81875462281E+01 0.91237263543E+01 0.10022233851E+02
 0.10848445904E+02 0.11554223323E+02 0.12075699412E+02 0.12329779585E+02 0.12243849168E+02
 0.11796603621E+02 0.11024039224E+02 0.10012170983E+02 0.88733968936E+01 0.77188622585E+01
 0.66383722823E+01 0.56917592112E+01 0.49097407000E+01 0.43001693608E+01 0.38563802955E+01
 0.35657643746E+01 0.34171391354E+01 0.34053490107E+01 0.35321128330E+01 0.38035274570E+01
 0.42255288185E+01 0.40831498099E+01 0.45646145384E+01 0.51730884429E+01 0.58911584628E+01
 0.66952576411E+01 0.75587457517E+01 0.84537828379E+01 0.93486177477E+01 0.10199881000E+02
 0.10945185224E+02 0.11504698489E+02 0.11796599510E+02 0.11761831178E+02 0.11385892943E+02
 0.10706210490E+02 0.98021014195E+01 0.87735619242E+01 0.77188622585E+01 0.67185115408E+01
 0.58280118566E+01 0.50778352730E+01 0.44778893974E+01 0.40244655019E+01 0.37082350203E+01
 0.35213893675E+01 0.34616703431E+01 0.35322168292E+01 0.37382958523E+01 0.36681386729E+01
 0.39343452474E+01 0.43271639105E+01 0.48390994544E+01 0.54603103701E+01 0.61791936743E+01
 0.69813953102E+01 0.78465689030E+01 0.87427397855E+01 0.96200633240E+01 0.10408445351E+02
 0.11024047304E+02 0.11385893752E+02 0.11437379056E+02 0.11163365651E+02 0.10595205560E+02
 0.98021014195E+01 0.88733968936E+01 0.78991732107E+01 0.69553472830E+01 0.60960239929E+01
 0.53525884043E+01 0.47375301207E+01 0.42510266478E+01 0.38884513449E+01 0.36465974519E+01
 0.35265123710E+01 0.35323860598E+01 0.35324230384E+01 0.35963052408E+01 0.37863178112E+01
 0.40979578532E+01 0.45266819988E+01 0.50696582947E+01 0.57246801095E+01 0.64859395997E+01
 0.73377836555E+01 0.82481829820E+01 0.91641638007E+01 0.10012196292E+02 0.10706227078E+02
 0.11163371500E+02 0.11323153320E+02 0.11163365651E+02 0.10706210490E+02 0.10012170983E+02
 0.91641427456E+01 0.82481800341E+01 0.73378002742E+01 0.64859581077E+01 0.57246753527E+01
 0.50696357136E+01 0.45267054859E+01 0.40981021343E+01 0.37865625703E+01 0.35965033448E+01
 0.36681748837E+01 0.35322535067E+01 0.35262044288E+01 0.36462592635E+01 0.38882416224E+01
 0.42509833934E+01 0.47375779195E+01 0.53526360580E+01 0.60960318430E+01 0.69553278982E+01
 0.78991594347E+01 0.88734080907E+01 0.98021282167E+01 0.10595225819E+02 0.11163371500E+02
 0.11437379056E+02 0.11385892943E+02 0.11024039224E+02 0.10408423668E+02 0.96200320733E+01
 0.87427146127E+01 0.78465713556E+01 0.69814320221E+01 0.61792353412E+01 0.54603166052E+01
 0.48390803595E+01 0.43271824418E+01 0.39344207037E+01 0.40830407598E+01 0.37381701301E+01
 0.35319906690E+01 0.34613379589E+01 0.35210632514E+01 0.37080408002E+01 0.40244354915E+01
 0.44779615902E+01 0.50779184058E+01 0.58280452566E+01 0.67184945781E+01 0.77188396454E+01
 0.87735691664E+01 0.98021282167E+01 0.10706227078E+02 0.11385893752E+02 0.11761831178E+02
 0.11796603621E+02 0.11504697733E+02 0.10945170625E+02 0.10199846085E+02 0.93485680095E+01
 0.84537554211E+01 0.75587840473E+01 0.66953412759E+01 0.58911980177E+01 0.51730269600E+01
 0.45644963824E+01 0.47982236018E+01 0.42252839357E+01 0.38032877039E+01 0.35318549457E+01
 0.34050788685E+01 0.34169174912E+01 0.35656504856E+01 0.38563884461E+01 0.43002643447E+01
 0.49098483944E+01 0.56918085066E+01 0.66383569840E+01 0.77188396454E+01 0.88734080907E+01
 0.10012196292E+02 0.11024047304E+02 0.11796599510E+02 0.12243849168E+02 0.12329780976E+02
 0.12075698142E+02 0.11554219728E+02 0.10848417985E+02 0.10022160214E+02 0.91236539019E+01
 0.81875645008E+01 0.72465905466E+01 0.63402089940E+01 0.55115165489E+01 0.58367142636E+01
 0.50164713941E+01 0.43541586562E+01 0.38604385624E+01 0.35320043114E+01 0.33603529822E+01
 0.33388842120E+01 0.34673157441E+01 0.37531687930E+01 0.42101264016E+01 0.48533255141E+01
 0.56918085066E+01 0.67184945781E+01 0.78991594347E+01 0.91641638007E+01 0.10408445351E+02
 0.11504698489E+02 0.12329779585E+02 0.12781136095E+02 0.12831883300E+02 0.12559741647E+02
 0.12076214373E+02 0.11452823498E+02 0.10700877949E+02 0.98152854400E+01 0.88325785028E+01
 0.78029309908E+01 0.67831502128E+01 0.71956824316E+01 0.61311673954E+01 0.52078115338E+01
 0.44629983248E+01 0.39066534538E+01 0.35323999713E+01 0.33293744987E+01 0.32906205734E+01
 0.34171400627E+01 0.37183751831E+01 0.42101264016E+01 0.49098483944E+01 0.58280452566E+01
 0.69553278982E+01 0.82481829820E+01 0.96200633240E+01 0.10945185224E+02 0.12075699412E+02
 0.12831898520E+02 0.13117935370E+02 0.13010172829E+02 0.12683795791E+02 0.12285706656E+02
 0.11842961728E+02 0.11271050120E+02 0.10473760644E+02 0.94571890159E+01 0.83333497709E+01
 0.88087225184E+01 0.75552554716E+01 0.63789042339E+01 0.53618514225E+01 0.45457804881E+01
 0.39392448736E+01 0.35328161109E+01 0.33135534214E+01 0.32742950058E+01 0.34171400627E+01
 0.37531687930E+01 0.43002643447E+01 0.50779184058E+01 0.60960318430E+01 0.73377836555E+01
 0.87427397855E+01 0.10199881000E+02 0.11554223323E+02 0.12559756390E+02 0.13010220420E+02
 0.12934331545E+02 0.12569178179E+02 0.12205268306E+02 0.12000930503E+02 0.11888219383E+02
 0.11636031001E+02 0.11027228379E+02 0.10025813208E+02 0.10500823809E+02 0.92040991375E+01
 0.78426070937E+01 0.65663679964E+01 0.54698818495E+01 0.45976101578E+01 0.39561190792E+01
 0.35329925070E+01 0.33135534214E+01 0.32906205734E+01 0.34673157441E+01 0.38563884461E+01
 0.44779615902E+01 0.53526360580E+01 0.64859395997E+01 0.78465689030E+01 0.93486177477E+01
 0.10848445904E+02 0.12076205674E+02 0.12683838496E+02 0.12569268702E+02 0.11960809609E+02
 0.11299204952E+02 0.10985339248E+02 0.11141482771E+02 0.11540927876E+02 0.11756811602E+02
 0.11433156936E+02 0.11688488493E+02 0.10858262192E+02 0.95000117604E+01 0.80427226814E+01
 0.66832006616E+01 0.55255702163E+01 0.46152628011E+01 0.39561190792E+01 0.35328161109E+01
 0.33293744987E+01 0.33388842120E+01 0.35656504856E+01 0.40244354915E+01 0.47375779195E+01
 0.57246801095E+01 0.69813953102E+01 0.84537828379E+01 0.10022233851E+02 0.11452835074E+02
 0.12285689770E+02 0.12205348159E+02 0.11299334958E+02 0.10059590704E+02 0.91492874188E+01
 0.90451838753E+01 0.97649493319E+01 0.10856436223E+02 0.11661789133E+02 0.11436299202E+02
 0.11822032437E+02 0.11092239201E+02 0.96828480776E+01 0.81453689064E+01 0.67228868669E+01
 0.55255702163E+01 0.45976101578E+01 0.39392448736E+01 0.35323999713E+01 0.33603529822E+01
 0.34169174912E+01 0.37080408002E+01 0.42509833934E+01 0.50696582947E+01 0.61791936743E+01
 0.75587457517E+01 0.91237263543E+01 0.10700970781E+02 0.11842953229E+02 0.12000913909E+02
 0.10985450775E+02 0.91494324463E+01 0.72884955067E+01 0.62722078119E+01 0.65882280534E+01
 0.80698484859E+01 0.99850756542E+01 0.91357681670E+01 0.11194460305E+02 0.11877054746E+02
 0.11206778778E+02 0.97446607891E+01 0.81453689064E+01 0.66832006616E+01 0.54698818495E+01
 0.45457804881E+01 0.39066534538E+01 0.35320043114E+01 0.34050788685E+01 0.35210632514E+01
 0.38882416224E+01 0.45266819988E+01 0.54603103701E+01 0.66952576411E+01 0.81875462281E+01
 0.98154082239E+01 0.11271150416E+02 0.11888193725E+02 0.11141474316E+02 0.90453002367E+01
 0.62723230440E+01 0.39243833087E+01 0.30217677603E+01 0.39751905041E+01 0.63590348953E+01
 0.49703511095E+01 0.85205707506E+01 0.11042007803E+02 0.11890591325E+02 0.11206778778E+02
 0.96828480776E+01 0.80427226814E+01 0.65663679964E+01 0.53618514225E+01 0.44629983248E+01
 0.38604385624E+01 0.35318549457E+01 0.34613379589E+01 0.36462592635E+01 0.40979578532E+01
 0.48390994544E+01 0.58911584628E+01 0.72464808250E+01 0.88325975817E+01 0.10473918546E+02
 0.11636118366E+02 0.11540893116E+02 0.97649506976E+01 0.65883041866E+01 0.30218006848E+01
 0.43041294543E+00 -.10573055050E+00 0.16524336787E+01 0.50205979744E-01 0.41929111686E+01
 0.82962802315E+01 0.11042007803E+02 0.11877054746E+02 0.11092239201E+02 0.95000117604E+01
 0.78426070937E+01 0.63789042339E+01 0.52078115338E+01 0.43541586562E+01 0.38032877039E+01
 0.35319906690E+01 0.35262044288E+01 0.37863178112E+01 0.43271639105E+01 0.51730884429E+01
 0.63401361576E+01 0.78028204241E+01 0.94572467616E+01 0.11027381830E+02 0.11756860361E+02
 0.10856402511E+02 0.80698532671E+01 0.39751794869E+01 -.10581756906E+00 -.26322012953E+01
 -.25757359818E+01 -.39387999132E+01 -.52146243507E+00 0.41929111686E+01 0.85205707506E+01
 0.11194460305E+02 0.11822032437E+02 0.10858262192E+02 0.92040991375E+01 0.75552554716E+01
 0.61311673954E+01 0.50164713941E+01 0.42252839357E+01 0.37381701301E+01 0.35322535067E+01
 0.35963052408E+01 0.39343452474E+01 0.45646145384E+01 0.55115969030E+01 0.67830542743E+01
 0.83332653164E+01 0.10025888801E+02 0.11433250889E+02 0.11661776198E+02 0.99850511888E+01
 0.63590324183E+01 0.16523110774E+01 -.25759434437E+01 -.47279532958E+01 -.39384895913E+01
 -.28287198804E+01 0.64513037631E+00 0.51339632893E+01 0.90490029861E+01 0.11274304376E+02
 0.11551884235E+02 0.10405794978E+02 0.87245273003E+01 0.71035754934E+01 0.57264847164E+01
 0.46652226012E+01 0.39253897081E+01 0.34829579906E+01 0.33133863045E+01 0.34058537321E+01
 0.37666795253E+01 0.44174779996E+01 0.53846467242E+01 0.66735968471E+01 0.82314858458E+01
 0.99112964777E+01 0.11249110162E+02 0.11364427055E+02 0.96067997458E+01 0.60315807972E+01
 0.15714814320E+01 -.22416135016E+01 -.28289513160E+01 -.39385549262E+01 -.22415262997E+01
 0.15714953194E+01 0.60315071346E+01 0.96068087381E+01 0.11364507472E+02 0.11249113200E+02
 0.99112698523E+01 0.82315900681E+01 0.66737577526E+01 0.53846541863E+01 0.44173627234E+01
 0.37666443695E+01 0.34059097060E+01 0.33133982945E+01 0.34829572331E+01 0.39254898225E+01
 0.46653201874E+01 0.57263965883E+01 0.71033819597E+01 0.87244377858E+01 0.10405780747E+02
 0.11551789485E+02 0.11274194722E+02 0.90490331954E+01 0.51340207017E+01 0.64499766382E+00
 0.76606727446E+00 -.21088336534E+01 -.25755495980E+01 -.46232150774E+00 0.33543132433E+01
 0.74004122349E+01 0.10314019350E+02 0.11410655697E+02 0.10841270061E+02 0.93408457146E+01
 0.76970898240E+01 0.62256921332E+01 0.50420901032E+01 0.41793043513E+01 0.36227344209E+01
 0.33453363927E+01 0.33293617854E+01 0.35734135204E+01 0.40921847442E+01 0.49111738684E+01
 0.60502075281E+01 0.74930010017E+01 0.91518192518E+01 0.10805411337E+02 0.11778364082E+02
 0.11238138882E+02 0.88078577137E+01 0.49142363457E+01 0.54323480109E+01 0.19166472724E+01
 -.21659743630E+00 -.10558042945E+00 0.21710524594E+01 0.56414419470E+01 0.89425452069E+01
 0.10970293457E+02 0.11318373043E+02 0.10317628656E+02 0.87266885859E+01 0.71471586928E+01
 0.57817663548E+01 0.47152306047E+01 0.39616023535E+01 0.34995344236E+01 0.33035829310E+01
 0.33605561809E+01 0.36732077952E+01 0.42588055037E+01 0.51424904080E+01 0.63389314295E+01
 0.78219138379E+01 0.94922564724E+01 0.11101441959E+02 0.11957110382E+02 0.11323559550E+02
 0.89687004642E+01 0.95099826590E+01 0.65862428053E+01 0.38744457143E+01 0.24953805128E+01
 0.30218927336E+01 0.51812292650E+01 0.80077238564E+01 0.10345874723E+02 0.11399355339E+02
 0.11030788703E+02 0.96992447004E+01 0.81000512470E+01 0.66089354494E+01 0.53635757098E+01
 0.44189814423E+01 0.37734077881E+01 0.34019486885E+01 0.32822689044E+01 0.34054912750E+01
 0.37774426448E+01 0.44166383383E+01 0.53465809835E+01 0.65764236631E+01 0.80719126868E+01
 0.97274388021E+01 0.11287449759E+02 0.12098675550E+02 0.11542589927E+02 0.11846373732E+02
 0.10308601014E+02 0.81384501886E+01 0.62689500001E+01 0.55439107694E+01 0.62723022290E+01
 0.80657849643E+01 0.10057836660E+02 0.11362379141E+02 0.11497027154E+02 0.10549852359E+02
 0.90408733873E+01 0.74916214285E+01 0.61088825250E+01 0.49906277661E+01 0.41661197472E+01
 0.36223714478E+01 0.33339367839E+01 0.32822455653E+01 0.34618868037E+01 0.38805467111E+01
 0.45567884887E+01 0.55115382512E+01 0.67486292939E+01 0.82280934827E+01 0.98427801964E+01
 0.11353572743E+02 0.12187627758E+02 0.12185689971E+02 0.12139376852E+02 0.11174020394E+02
 0.97775315102E+01 0.86724620620E+01 0.84295195711E+01 0.91493420896E+01 0.10410814025E+02
 0.11514435057E+02 0.11863464643E+02 0.11255920326E+02 0.99386145525E+01 0.83989712796E+01
 0.69322337890E+01 0.56708583303E+01 0.46792429271E+01 0.39669264701E+01 0.35145848154E+01
 0.32984429013E+01 0.33035200538E+01 0.35267854824E+01 0.39767240131E+01 0.46709815565E+01
 0.56272904570E+01 0.68447097663E+01 0.82799144595E+01 0.98285262320E+01 0.11285777494E+02
 0.11070807921E+02 0.12045583230E+02 0.12309087507E+02 0.11900531695E+02 0.11196197730E+02
 0.10700507782E+02 0.10747353487E+02 0.11299219359E+02 0.11972416025E+02 0.12267995353E+02
 0.11858798778E+02 0.10761131947E+02 0.93011924358E+01 0.78108930644E+01 0.64501502082E+01
 0.53145022275E+01 0.44419429304E+01 0.38291001926E+01 0.34545463212E+01 0.32972899168E+01
 0.33452457144E+01 0.35968145428E+01 0.40605235266E+01 0.47523815268E+01 0.56865586239E+01
 0.68580253523E+01 0.82222374578E+01 0.96812019587E+01 0.94050563586E+01 0.10704964608E+02
 0.11730605734E+02 0.12261606710E+02 0.12322173087E+02 0.12164052879E+02 0.12094027630E+02
 0.12264817330E+02 0.12569161736E+02 0.12707066057E+02 0.12378873891E+02 0.11477378644E+02
 0.10160867771E+02 0.87139654975E+01 0.73107951361E+01 0.60687764107E+01 0.50544069901E+01
 0.42874521882E+01 0.37579116505E+01 0.34451450613E+01 0.33310931457E+01 0.34057884504E+01
 0.36684904851E+01 0.41273401732E+01 0.47962094813E+01 0.56855068444E+01 0.67867947559E+01
 0.80561778236E+01 0.77895884514E+01 0.90130319030E+01 0.10203054114E+02 0.11232984704E+02
 0.11951943373E+02 0.12354505339E+02 0.12575361677E+02 0.12762704172E+02 0.12948572249E+02
 0.13010139232E+02 0.12749779920E+02 0.12037898207E+02 0.10921118546E+02 0.95946824741E+01
 0.82208047188E+01 0.69275796901E+01 0.58054602896E+01 0.49002220643E+01 0.42211673266E+01
 0.37564344539E+01 0.34876016656E+01 0.33991672356E+01 0.34827839933E+01 0.37384326707E+01
 0.41737144931E+01 0.48000467475E+01 0.56239870545E+01 0.66343443322E+01 0.64089667943E+01
 0.74370234120E+01 0.85267798981E+01 0.96005294270E+01 0.10584342394E+02 0.11399749100E+02
 0.12012120984E+02 0.12461005957E+02 0.12782305373E+02 0.12940779249E+02 0.12831845481E+02
 0.12354441147E+02 0.11502457479E+02 0.10384903992E+02 0.91281047767E+01 0.78586046951E+01
 0.66829554651E+01 0.56714939858E+01 0.48574068526E+01 0.42457334813E+01 0.38256392251E+01
 0.35812910933E+01 0.34993695973E+01 0.35731102898E+01 0.38034295992E+01 0.41974113007E+01
 0.47638310160E+01 0.55054168448E+01 0.53364284191E+01 0.61234523559E+01 0.70190308431E+01
 0.79753757414E+01 0.89370897346E+01 0.98534964400E+01 0.10686128988E+02 0.11398822280E+02
 0.11965448441E+02 0.12353282972E+02 0.12499048223E+02 0.12329747299E+02 0.11817008712E+02
 0.10999442769E+02 0.99593291441E+01 0.88074421893E+01 0.76549422499E+01 0.65909492259E+01
 0.56728848679E+01 0.49280742155E+01 0.43613520415E+01 0.39642263416E+01 0.37234404179E+01
 0.36278868959E+01 0.36727959498E+01 0.38604099082E+01 0.41973533596E+01 0.46896551810E+01
 0.45815212850E+01 0.51264246370E+01 0.57943066785E+01 0.65606666728E+01 0.73927101022E+01
 0.82542692260E+01 0.91107680357E+01 0.99298736491E+01 0.10675557706E+02 0.11299289762E+02
 0.11737186838E+02 0.11920316114E+02 0.11796574672E+02 0.11353264381E+02 0.10627462509E+02
 0.96983029609E+01 0.86657430349E+01 0.76267095042E+01 0.66582640664E+01 0.58111590257E+01
 0.51113798389E+01 0.45656137366E+01 0.41682174947E+01 0.39087898417E+01 0.37790689607E+01
 0.37769862653E+01 0.39064418355E+01 0.41735372810E+01 0.41270349959E+01 0.44451462556E+01
 0.48870763745E+01 0.54406193652E+01 0.60892932051E+01 0.68139837824E+01 0.75937255092E+01
 0.84048054307E+01 0.92171617270E+01 0.99885742447E+01 0.10660477132E+02 0.11161198491E+02
 0.11419664981E+02 0.11385862767E+02 0.11048702086E+02 0.10442148473E+02 0.96366344232E+01
 0.87204308459E+01 0.77797329885E+01 0.68846789358E+01 0.60835415168E+01 0.54031613503E+01
 0.48528624926E+01 0.44304357836E+01 0.41293748363E+01 0.39454775984E+01 0.38801184528E+01
 0.39388773975E+01 0.39556529342E+01 0.40600831660E+01 0.42877952252E+01 0.46316957589E+01
 0.50825997224E+01 0.56319975901E+01 0.62720971508E+01 0.69929236507E+01 0.77776234089E+01
 0.85971224974E+01 0.94055388314E+01 0.10139119440E+02 0.10722176647E+02 0.11081176634E+02
 0.11163328057E+02 0.10952210887E+02 0.10473323730E+02 0.97870178944E+01 0.89723018193E+01
 0.81087253533E+01 0.72628930315E+01 0.64822328964E+01 0.57948722011E+01 0.52132861578E+01
 0.47400854911E+01 0.43746137197E+01 0.41182826734E+01 0.39763652781E+01 0.40602331048E+01
 0.39556294181E+01 0.39761588269E+01 0.41180252453E+01 0.43744115294E+01 0.47399379561E+01
 0.52131677071E+01 0.57947895420E+01 0.64821818476E+01 0.72628457503E+01 0.81086842602E+01
 0.89722991062E+01 0.97870499678E+01 0.10473348091E+02 0.10952210668E+02 0.11163319602E+02
 0.11081159529E+02 0.10722140320E+02 0.10139090664E+02 0.94055580297E+01 0.85971829513E+01
 0.77776935447E+01 0.69930079822E+01 0.62722111668E+01 0.56321143134E+01 0.50826969629E+01
 0.46318187515E+01 0.42879773686E+01 0.44452055177E+01 0.41270967244E+01 0.39388122059E+01
 0.38799041117E+01 0.39452180453E+01 0.41291580607E+01 0.44302743858E+01 0.48527569343E+01
 0.54031177985E+01 0.60835286961E+01 0.68846534815E+01 0.77797054295E+01 0.87204374592E+01
 0.96366609028E+01 0.10442150662E+02 0.11048678948E+02 0.11385840444E+02 0.11419638194E+02
 0.11161157449E+02 0.10660458558E+02 0.99886147645E+01 0.92172371763E+01 0.84048833299E+01
 0.75938278180E+01 0.68141222504E+01 0.60894019928E+01 0.54406450340E+01 0.48870792807E+01
 0.51263108644E+01 0.45814566605E+01 0.41735072293E+01 0.39063483473E+01 0.37768100153E+01
 0.37788733430E+01 0.39086169894E+01 0.41680808243E+01 0.45655443520E+01 0.51113857130E+01
 0.58111807896E+01 0.66582509416E+01 0.76266915545E+01 0.86657598353E+01 0.96983219534E+01
 0.10627439383E+02 0.11353219569E+02 0.11796539609E+02 0.11920272985E+02 0.11737130946E+02
 0.11299275748E+02 0.10675612601E+02 0.99299442125E+01 0.91108240755E+01 0.82543648866E+01
 0.73928601280E+01 0.65607628612E+01 0.57942616044E+01 0.61233563644E+01 0.53362443269E+01
 0.46895090183E+01 0.41972526690E+01 0.38603033667E+01 0.36726845642E+01 0.36277887561E+01
 0.37233422361E+01 0.39641436214E+01 0.43613435009E+01 0.49281362890E+01 0.56729299865E+01
 0.65909397964E+01 0.76549403231E+01 0.88074797319E+01 0.99593445198E+01 0.10999395637E+02
 0.11816941033E+02 0.12329683253E+02 0.12498955941E+02 0.12353181339E+02 0.11965420997E+02
 0.11398874788E+02 0.10686167920E+02 0.98534996139E+01 0.89371505980E+01 0.79755124835E+01
 0.70191030190E+01 0.74370522362E+01 0.64088488317E+01 0.55052294363E+01 0.47636640384E+01
 0.41972712268E+01 0.38033219078E+01 0.35730662251E+01 0.34993633187E+01 0.35812653876E+01
 0.38256231299E+01 0.42457995311E+01 0.48575190333E+01 0.56715459629E+01 0.66829493160E+01
 0.78586348943E+01 0.91281736324E+01 0.10384914294E+02 0.11502381571E+02 0.12354336569E+02
 0.12831715834E+02 0.12940589786E+02 0.12782124311E+02 0.12460948806E+02 0.12012156010E+02
 0.11399738720E+02 0.10584277651E+02 0.96005341430E+01 0.85268695920E+01 0.90130461422E+01
 0.77895561166E+01 0.66342327175E+01 0.56238543032E+01 0.47999074757E+01 0.41735611897E+01
 0.37383309996E+01 0.34827903865E+01 0.33992167907E+01 0.34876209183E+01 0.37564795486E+01
 0.42213025695E+01 0.49003633983E+01 0.58055042183E+01 0.69275870052E+01 0.82208823199E+01
 0.95947779507E+01 0.10921107042E+02 0.12037779688E+02 0.12749618249E+02 0.13009909785E+02
 0.12948256868E+02 0.12762436326E+02 0.12575274987E+02 0.12354518055E+02 0.11951886450E+02
 0.11232865742E+02 0.10203000653E+02 0.10704877022E+02 0.94049886974E+01 0.80560823545E+01
 0.67867126937E+01 0.56854574206E+01 0.47961158769E+01 0.41271870228E+01 0.36683973985E+01
 0.34058167115E+01 0.33311480673E+01 0.34451724316E+01 0.37580013482E+01 0.42876349339E+01
 0.50545493838E+01 0.60688058791E+01 0.73108310456E+01 0.87140907782E+01 0.10160962823E+02
 0.11477319406E+02 0.12378705233E+02 0.12706845866E+02 0.12568835812E+02 0.12264400135E+02
 0.12093709291E+02 0.12163955754E+02 0.12322168726E+02 0.12261527757E+02 0.11730476251E+02
 0.12045502136E+02 0.11070728371E+02 0.96810741164E+01 0.82221018899E+01 0.68579915726E+01
 0.56865884353E+01 0.47523208588E+01 0.40603717557E+01 0.35967282428E+01 0.33452640094E+01
 0.32973050499E+01 0.34545553919E+01 0.38292182451E+01 0.44421439647E+01 0.53146195934E+01
 0.64501680401E+01 0.78109677741E+01 0.93013455168E+01 0.10761189218E+02 0.11858679026E+02
 0.12267796403E+02 0.11972173628E+02 0.11298854588E+02 0.10746917824E+02 0.10700212262E+02
 0.11196118913E+02 0.11900519819E+02 0.12309023633E+02 0.12139361186E+02 0.12185704425E+02
 0.11285744996E+02 0.98283795761E+01 0.82797835533E+01 0.68447381518E+01 0.56273709134E+01
 0.46709238179E+01 0.39765702655E+01 0.35267030476E+01 0.33035040477E+01 0.32983964574E+01
 0.35145727358E+01 0.39670625190E+01 0.46794312180E+01 0.56709315105E+01 0.69322487067E+01
 0.83990850035E+01 0.99387646599E+01 0.11255914959E+02 0.11863302401E+02 0.11514254808E+02
 0.10410613925E+02 0.91490325310E+01 0.84291810178E+01 0.86722727103E+01 0.97774949993E+01
 0.11174007863E+02 0.10308586809E+02 0.11846419971E+02 0.12187749104E+02 0.11353602164E+02
 0.98426581466E+01 0.82280171917E+01 0.67487233651E+01 0.55116293294E+01 0.45567058470E+01
 0.38803935559E+01 0.34618090217E+01 0.32821868349E+01 0.33338374087E+01 0.36223569200E+01
 0.41662652946E+01 0.49907732989E+01 0.61089025843E+01 0.74916448049E+01 0.90410164936E+01
 0.10549971053E+02 0.11496960833E+02 0.11362218861E+02 0.10057729008E+02 0.80656846940E+01
 0.62721343266E+01 0.55437682147E+01 0.62689233967E+01 0.81384612545E+01 0.65862814157E+01
 0.95099592826E+01 0.11542688237E+02 0.12098873153E+02 0.11287524695E+02 0.97273707086E+01
 0.80719252729E+01 0.65765702889E+01 0.53466448684E+01 0.44165207945E+01 0.37773034064E+01
 0.34054231154E+01 0.32821755917E+01 0.34018287693E+01 0.37734175421E+01 0.44191235366E+01
 0.53636537688E+01 0.66089050333E+01 0.81000911760E+01 0.96993970878E+01 0.11030857223E+02
 0.11399254338E+02 0.10345765143E+02 0.80077137428E+01 0.51812406792E+01 0.30218980441E+01
 0.24954666746E+01 0.38745803503E+01 0.19168773668E+01 0.54323773733E+01 0.89686629286E+01
 0.11323685190E+02 0.11957326266E+02 0.11101525934E+02 0.94922516974E+01 0.78220202269E+01
 0.63390998146E+01 0.51425016481E+01 0.42586647540E+01 0.36731014840E+01 0.33605029469E+01
 0.33034752659E+01 0.34994363449E+01 0.39616556752E+01 0.47153487334E+01 0.57817615025E+01
 0.71470883181E+01 0.87267419538E+01 0.10317760279E+02 0.11318384822E+02 0.10970196253E+02
 0.89425145893E+01 0.56415039096E+01 0.21711239519E+01 -.10544897820E+00 -.21633897945E+00
 -.21085252358E+01 0.76629162498E+00 0.49142246763E+01 0.88078132486E+01 0.11238265805E+02
 0.11778538907E+02 0.10805469206E+02 0.91518706108E+01 0.74931750082E+01 0.60503556184E+01
 0.49111245753E+01 0.40920477868E+01 0.35733564356E+01 0.33293274517E+01 0.33452414711E+01
 0.36226948405E+01 0.41794006613E+01 0.50421574304E+01 0.62256015159E+01 0.76969935671E+01
 0.93408964936E+01 0.10841347592E+02 0.11410615753E+02 0.10313959640E+02 0.74004534173E+01
 0.33543770982E+01 -.46228579755E+00 -.25753979661E+01 0.51123501148E-01 0.76683918232E+00
 0.34388742165E+01 0.69843952469E+01 0.10066323407E+02 0.11716126206E+02 0.11695593445E+02
 0.10456839571E+02 0.87813874714E+01 0.71738563948E+01 0.58002186353E+01 0.47304370740E+01
 0.39713293335E+01 0.34998307598E+01 0.32908245184E+01 0.33314181572E+01 0.36248752449E+01
 0.41900764180E+01 0.50538445471E+01 0.62289502393E+01 0.76799292198E+01 0.92916179470E+01
 0.10770809682E+02 0.11399032990E+02 0.10526105094E+02 0.80592946832E+01 0.46629942820E+01
 0.15720954588E+01 0.64569171511E+00 -.52051252392E+00 0.64572228651E+00 0.36529482085E+01
 0.72832198820E+01 0.10201152734E+02 0.11556502879E+02 0.11268410909E+02 0.99023902043E+01
 0.82449548950E+01 0.67043192456E+01 0.54208636007E+01 0.44483437779E+01 0.37832957340E+01
 0.33995993226E+01 0.32744134176E+01 0.33995111664E+01 0.37832804214E+01 0.44483961294E+01
 0.54208210407E+01 0.67042002485E+01 0.82449537252E+01 0.99025275048E+01 0.11268518406E+02
 0.11556557472E+02 0.10201293049E+02 0.72834267599E+01 0.36530427872E+01 0.34388596142E+01
 0.76673297343E+00 0.51078824308E-01 0.15720520209E+01 0.46628278154E+01 0.80590998307E+01