    2    2   15    1
  0.1529437E+02  0.3691622E-09  0.3691622E-09  0.3691622E-09  0.5000000E-15
  1.000000000000000E-004
  CAR 
 unknown system                          
      8     75      8
 
  0.0000000E+00  0.0000000E+00  0.0000000E+00  0.1371742E-02
    1       -4.614421   1.000000
    2        6.190128   1.000000
    3        6.299556   1.000000
    4        6.299580   1.000000
    5       10.539344   0.000000
    6       16.871101   0.000000
    7       17.370754   0.000000
    8       17.370779   0.000000
 
  0.1111111E+00 -0.9377698E-17  0.9377698E-17  0.1097394E-01
    1       -4.265990   1.000000
    2        5.310320   1.000000
    3        6.243163   1.000000
    4        7.787527   1.000000
    5       11.247935   0.000000
    6       15.185778   0.000000
    7       15.985192   0.000000
    8       17.326117   0.000000
 
  0.2222222E+00  0.6918512E-17 -0.6918512E-17  0.1097394E-01
    1       -3.224572   1.000000
    2        5.021452   1.000000
    3        6.319716   1.000000
    4        9.616034   0.000154
    5       12.141793   0.000000
    6       12.924090   0.000000
    7       13.032810   0.000000
    8       15.170496   0.000000
 
  0.3333333E+00 -0.3591853E-16  0.3591853E-16  0.1097394E-01
    1       -1.503671   1.000000
    2        5.359915   1.000000
    3        6.790996   1.000000
    4        7.470077   1.000000
    5       10.272480   0.000000
    6       12.669172   0.000000
    7       13.033818   0.000000
    8       14.015441   0.000000
 
  0.4444444E+00  0.1383702E-16 -0.1383702E-16  0.1097394E-01
    1        0.860861   1.000000
    2        3.898875   1.000000
    3        6.380403   1.000000
    4        7.567913   1.000000
    5        8.196453   1.000000
    6       10.749481   0.000000
    7       13.546344   0.000000
    8       14.521263   0.000000
 
  0.1111111E+00  0.1111111E+00  0.1875540E-16  0.1097394E-01
    1       -3.370555   1.000000
    2        5.337806   1.000000
    3        7.349670   1.000000
    4        8.543739   0.999965
    5       12.305487   0.000000
    6       12.593464   0.000000
    7       13.010549   0.000000
    8       15.653985   0.000000
 
  0.2222222E+00  0.1111111E+00 -0.2719765E-16  0.2194787E-01
    1       -1.792465   1.000000
    2        5.614782   1.000000
    3        7.893669   1.000000
    4        8.301662   1.000000
    5        9.752020   0.000002
    6       11.398566   0.000000
    7       13.030000   0.000000
    8       14.034913   0.000000
 
  0.3333333E+00  0.1111111E+00  0.2951719E-16  0.2194787E-01
    1        0.440546   1.000000
    2        4.706338   1.000000
    3        6.488268   1.000000
    4        6.930541   1.000000
    5        9.046089   0.663161
    6       11.119267   0.000000
    7       12.642912   0.000000
    8       14.535085   0.000000
 
  0.4444444E+00  0.1111111E+00  0.7517205E-17  0.2194787E-01
    1        1.549797   1.000000
    2        3.353824   1.000000
    3        5.231786   1.000000
    4        7.464736   1.000000
    5        8.685288   0.998522
    6       11.487599   0.000000
    7       12.417870   0.000000
    8       15.827531   0.000000
 
 -0.4444444E+00  0.1111111E+00  0.4279628E-16  0.2194787E-01
    1       -0.928601   1.000000
    2        3.997589   1.000000
    3        6.695244   1.000000
    4        7.003053   1.000000
    5       10.105921   0.000000
    6       12.398520   0.000000
    7       13.574546   0.000000
    8       14.494268   0.000000
 
 -0.3333333E+00  0.1111111E+00 -0.1456430E-16  0.2194787E-01
    1       -2.787524   1.000000
    2        3.477339   1.000000
    3        6.336894   1.000000
    4       10.144226   0.000000
    5       11.926699   0.000000
    6       12.043459   0.000000
    7       13.950583   0.000000
    8       15.148719   0.000000
 
 -0.2222222E+00  0.1111111E+00  0.1629621E-16  0.2194787E-01
    1       -3.972596   1.000000
    2        3.593082   1.000000
    3        6.300267   1.000000
    4        8.913404   0.912979
    5       12.771820   0.000000
    6       13.436667   0.000000
    7       15.323437   0.000000
    8       16.669199   0.000000
 
 -0.1111111E+00  0.1111111E+00  0.7914115E-18  0.5486968E-02
    1       -4.467587   1.000000
    2        4.322322   1.000000
    3        6.435876   1.000000
    4        7.649896   1.000000
    5       11.442709   0.000000
    6       14.892854   0.000000
    7       16.330906   0.000000
    8       19.519522   0.000000
 
  0.2222222E+00  0.2222222E+00 -0.4159260E-16  0.1097394E-01
    1        0.299791   1.000000
    2        5.715607   1.000000
    3        5.776111   1.000000
    4        6.436370   1.000000
    5        9.968466   0.000000
    6       11.611909   0.000000
    7       12.560670   0.000000
    8       12.830791   0.000000
 
  0.3333333E+00  0.2222222E+00  0.4287781E-16  0.2194787E-01
    1        2.440196   1.000000
    2        3.103775   1.000000
    3        3.886698   1.000000
    4        7.516668   1.000000
    5        9.259303   0.138620
    6       10.794942   0.000000
    7       13.585751   0.000000
    8       15.652978   0.000000
 
  0.4444444E+00  0.2222222E+00  0.2087783E-16  0.2194787E-01
    1       -0.072277   1.000000
    2        2.433971   1.000000
    3        6.400382   1.000000
    4        7.574410   1.000000
    5        9.481375   0.003944
    6       11.321358   0.000000
    7       14.769872   0.000000
    8       15.804594   0.000000
 
 -0.4444444E+00  0.2222222E+00  0.6918512E-17  0.2194787E-01
    1       -2.062319   1.000000
    2        1.754828   1.000000
    3        6.953645   1.000000
    4        9.938376   0.000000
    5       10.628672   0.000000
    6       12.507572   0.000000
    7       13.402724   0.000000
    8       15.828638   0.000000
 
 -0.3333333E+00  0.2222222E+00 -0.1251408E-16  0.2194787E-01
    1       -3.387634   1.000000
    2        1.732578   1.000000
    3        6.826446   1.000000
    4        9.743953   0.000003
    5       11.643865   0.000000
    6       14.197872   0.000000
    7       15.132857   0.000000
    8       15.855154   0.000000
 
 -0.2222222E+00  0.2222222E+00  0.1582823E-17  0.5486968E-02
    1       -4.027271   1.000000
    2        2.363305   1.000000
    3        6.844646   1.000000
    4        8.520283   0.999983
    5       12.915680   0.000000
    6       13.678078   0.000000
    7       14.687732   0.000000
    8       19.208910   0.000000
 
  0.3333333E+00  0.3333333E+00  0.7183707E-16  0.1097394E-01
    1        1.046124   1.000000
    2        1.064837   1.000000
    3        6.274993   1.000000
    4        8.237944   1.000000
    5        8.807704   0.982430
    6       10.953432   0.000000
    7       15.478759   0.000000
    8       16.515104   0.000000
 
  0.4444444E+00  0.3333333E+00  0.4983708E-16  0.2194787E-01
    1       -1.055112   1.000000
    2        0.224213   1.000000
    3        7.864202   1.000000
    4        8.996237   0.780421
    5       10.061188   0.000000
    6       13.037372   0.000000
    7       13.391820   0.000000
    8       14.699433   0.000000
 
 -0.4444444E+00  0.3333333E+00  0.6553460E-16  0.2194787E-01
    1       -2.515019   1.000000
    2        0.062025   1.000000
    3        7.639732   1.000000
    4       10.058237   0.000000
    5       10.653188   0.000000
    6       12.971346   0.000000
    7       15.157932   0.000000
    8       15.976300   0.000000
 
 -0.3333333E+00  0.3333333E+00  0.1438931E-16  0.5486968E-02
    1       -3.296247   1.000000
    2        0.570871   1.000000
    3        7.525237   1.000000
    4        9.365207   0.033223
    5       11.180097   0.000000
    6       13.079134   0.000000
    7       16.444251   0.000000
    8       18.931003   0.000000
 
  0.4444444E+00  0.4444444E+00 -0.8318520E-16  0.1097394E-01
    1       -1.361485   1.000000
    2       -1.360520   1.000000
    3        8.707159   0.997582
    4        8.737547   0.995377
    5       11.621203   0.000000
    6       11.840854   0.000000
    7       15.006249   0.000000
    8       15.907652   0.000000
 
 -0.4444444E+00  0.4444444E+00  0.3165646E-17  0.5486968E-02
    1       -2.279929   1.000000
    2       -0.985593   1.000000
    3        8.476953   0.999996
    4        9.696854   0.000015
    5       10.388623   0.000000
    6       11.629703   0.000000
    7       18.793496   0.000000
    8       18.838393   0.000000
 
  0.1111111E+00  0.1111111E+00  0.1111111E+00  0.1097394E-01
    1       -2.932632   1.000000
    2        3.408553   1.000000
    3        7.731591   1.000000
    4        9.344515   0.045602
    5       11.914858   0.000000
    6       12.076820   0.000000
    7       14.462134   0.000000
    8       15.118837   0.000000
 
  0.2222222E+00  0.1111111E+00  0.1111111E+00  0.2194787E-01
    1       -1.214645   1.000000
    2        3.818404   1.000000
    3        7.616069   1.000000
    4        8.217134   1.000000
    5        9.690893   0.000017
    6       12.043833   0.000000
    7       13.818314   0.000000
    8       14.685802   0.000000
 
  0.3333333E+00  0.1111111E+00  0.1111111E+00  0.2194787E-01
    1        1.145085   1.000000
    2        4.128703   1.000000
    3        4.940103   1.000000
    4        6.520613   1.000000
    5       10.000986   0.000000
    6       12.315184   0.000000
    7       13.866376   0.000000
    8       14.344408   0.000000
 
 -0.1111111E+00  0.1111111E+00  0.1111111E+00  0.5486968E-02
    1       -4.320763   1.000000
    2        3.996959   1.000000
    3        5.345842   1.000000
    4        8.973477   0.824989
    5       12.058029   0.000000
    6       13.347619   0.000000
    7       17.624917   0.000000
    8       18.108821   0.000000
 
  0.2222222E+00  0.2222222E+00  0.1111111E+00  0.1097394E-01
    1        1.007842   1.000000
    2        4.647366   1.000000
    3        5.274331   1.000000
    4        5.367126   1.000000
    5       11.108407   0.000000
    6       13.274766   0.000000
    7       13.526471   0.000000
    8       13.690200   0.000000
 
  0.3333333E+00  0.2222222E+00  0.1111111E+00  0.2194787E-01
    1        2.115259   1.000000
    2        3.303841   1.000000
    3        4.035807   1.000000
    4        6.299882   1.000000
    5       10.946717   0.000000
    6       12.429715   0.000000
    7       14.253013   0.000000
    8       15.197629   0.000000
 
  0.4444444E+00  0.2222222E+00  0.1111111E+00  0.2194787E-01
    1       -0.353312   1.000000
    2        2.184024   1.000000
    3        7.289819   1.000000
    4        8.192050   1.000000
    5       10.133864   0.000000
    6       12.426416   0.000000
    7       12.939016   0.000000
    8       14.907694   0.000000
 
 -0.4444444E+00  0.2222222E+00  0.1111111E+00  0.1097394E-01
    1       -2.205757   1.000000
    2        1.634785   1.000000
    3        8.350897   1.000000
    4        9.976426   0.000000
    5       11.283721   0.000000
    6       11.656651   0.000000
    7       13.253252   0.000000
    8       14.225422   0.000000
 
 -0.2222222E+00  0.2222222E+00  0.1111111E+00  0.1097394E-01
    1       -3.881221   1.000000
    2        2.431494   1.000000
    3        5.357822   1.000000
    4       10.149868   0.000000
    5       11.416065   0.000000
    6       13.984999   0.000000
    7       16.261130   0.000000
    8       18.940963   0.000000
 
 -0.1111111E+00  0.2222222E+00  0.1111111E+00  0.1097394E-01
    1       -3.680337   1.000000
    2        3.331412   1.000000
    3        4.867314   1.000000
    4       10.637610   0.000000
    5       11.582573   0.000000
    6       13.733849   0.000000
    7       14.858892   0.000000
    8       17.572136   0.000000
 
  0.3333333E+00  0.3333333E+00  0.1111111E+00  0.1097394E-01
    1        0.781015   1.000000
    2        0.787015   1.000000
    3        7.174153   1.000000
    4        8.150115   1.000000
    5       10.779027   0.000000
    6       11.512659   0.000000
    7       13.584384   0.000000
    8       14.269322   0.000000
 
  0.4444444E+00  0.3333333E+00  0.1111111E+00  0.1097394E-01
    1       -1.195429   1.000000
    2        0.089729   1.000000
    3        9.159785   0.350918
    4        9.964312   0.000000
    5       11.146873   0.000000
    6       11.400144   0.000000
    7       12.632575   0.000000
    8       13.109804   0.000000
 
 -0.3333333E+00  0.3333333E+00  0.1111111E+00  0.1097394E-01
    1       -3.152123   1.000000
    2        0.691336   1.000000
    3        5.992895   1.000000
    4        9.674569   0.000029
    5       11.074655   0.000000
    6       14.709721   0.000000
    7       16.638047   0.000000
    8       18.542768   0.000000
 
 -0.2222222E+00  0.3333333E+00  0.1111111E+00  0.2194787E-01
    1       -3.098010   1.000000
    2        1.918359   1.000000
    3        4.933644   1.000000
    4        9.743523   0.000003
    5       11.783575   0.000000
    6       14.302172   0.000000
    7       15.879028   0.000000
    8       17.219149   0.000000
 
 -0.1111111E+00  0.3333333E+00  0.1111111E+00  0.1097394E-01
    1       -2.353406   1.000000
    2        3.329363   1.000000
    3        4.947706   1.000000
    4        9.799231   0.000000
    5       10.470189   0.000000
    6       13.454881   0.000000
    7       14.817589   0.000000
    8       15.482127   0.000000
 
 -0.4444444E+00  0.4444444E+00  0.1111111E+00  0.1097394E-01
    1       -2.138652   1.000000
    2       -0.850558   1.000000
    3        6.945764   1.000000
    4        8.178508   1.000000
    5       12.099651   0.000000
    6       13.311386   0.000000
    7       18.221258   0.000000
    8       18.334920   0.000000
 
 -0.3333333E+00  0.4444444E+00  0.1111111E+00  0.2194787E-01
    1       -2.230129   1.000000
    2        0.316870   1.000000
    3        5.686337   1.000000
    4        8.130679   1.000000
    5       12.505936   0.000000
    6       14.105486   0.000000
    7       16.050676   0.000000
    8       17.178870   0.000000
 
 -0.2222222E+00  0.4444444E+00  0.1111111E+00  0.2194787E-01
    1       -1.633831   1.000000
    2        2.071800   1.000000
    3        5.111021   1.000000
    4        8.598715   0.999831
    5        9.580694   0.000391
    6       14.436815   0.000000
    7       14.953417   0.000000
    8       17.045647   0.000000
 
 -0.1111111E+00  0.4444444E+00  0.1111111E+00  0.1097394E-01
    1       -0.359810   1.000000
    2        3.967582   1.000000
    3        5.621143   1.000000
    4        6.197478   1.000000
    5        9.545763   0.000929
    6       12.285084   0.000000
    7       13.637934   0.000000
    8       16.180028   0.000000
 
 -0.4444444E+00 -0.4444444E+00  0.1111111E+00  0.1097394E-01
    1       -1.086727   1.000000
    2       -1.083832   1.000000
    3        6.764830   1.000000
    4        6.773472   1.000000
    5       12.787154   0.000000
    6       14.220753   0.000000
    7       15.374941   0.000000
    8       17.168692   0.000000
 
 -0.3333333E+00 -0.4444444E+00  0.1111111E+00  0.2194787E-01
    1       -0.637553   1.000000
    2        0.617631   1.000000
    3        5.980636   1.000000
    4        7.173360   1.000000
    5        9.309743   0.074481
    6       14.435125   0.000000
    7       15.784341   0.000000
    8       17.109235   0.000000
 
 -0.2222222E+00 -0.4444444E+00  0.1111111E+00  0.2194787E-01
    1        0.483951   1.000000
    2        2.878401   1.000000
    3        5.675089   1.000000
    4        6.007731   1.000000
    5        8.178591   1.000000
    6       12.239108   0.000000
    7       14.912071   0.000000
    8       17.262900   0.000000
 
 -0.1111111E+00 -0.4444444E+00  0.1111111E+00  0.1097394E-01
    1        2.158295   1.000000
    2        2.885888   1.000000
    3        5.365308   1.000000
    4        6.826307   1.000000
    5        8.832933   0.973094
    6       11.113430   0.000000
    7       11.702331   0.000000
    8       16.591840   0.000000
 
 -0.3333333E+00 -0.3333333E+00  0.1111111E+00  0.1097394E-01
    1        1.567347   1.000000
    2        1.601991   1.000000
    3        5.597202   1.000000
    4        6.839559   1.000000
    5        6.995342   1.000000
    6       12.155009   0.000000
    7       16.479661   0.000000
    8       16.748988   0.000000
 
 -0.2222222E+00 -0.3333333E+00  0.1111111E+00  0.2194787E-01
    1        2.374245   1.000000
    2        3.328029   1.000000
    3        4.430370   1.000000
    4        7.201237   1.000000
    5        8.173046   1.000000
    6       10.666000   0.000000
    7       13.050329   0.000000
    8       15.188851   0.000000
 
 -0.1111111E+00 -0.3333333E+00  0.1111111E+00  0.1097394E-01
    1        0.014522   1.000000
    2        5.497642   1.000000
    3        7.123838   1.000000
    4        8.059756   1.000000
    5        8.099089   1.000000
    6       10.895687   0.000000
    7       11.267707   0.000000
    8       13.566010   0.000000
 
 -0.2222222E+00 -0.2222222E+00  0.1111111E+00  0.1097394E-01
    1       -0.127809   1.000000
    2        6.444940   1.000000
    3        6.487470   1.000000
    4        7.810903   1.000000
    5        8.844385   0.967653
    6       10.501062   0.000000
    7       11.832442   0.000000
    8       12.200849   0.000000
 
 -0.1111111E+00 -0.2222222E+00  0.1111111E+00  0.1097394E-01
    1       -2.082445   1.000000
    2        7.207524   1.000000
    3        7.962451   1.000000
    4        8.651848   0.999334
    5        9.788897   0.000001
    6       10.719368   0.000000
    7       12.409782   0.000000
    8       13.074032   0.000000
 
 -0.1111111E+00 -0.1111111E+00  0.1111111E+00  0.2743484E-02
    1       -3.516774   1.000000
    2        7.185900   1.000000
    3        7.221063   1.000000
    4        7.221085   1.000000
    5       11.642174   0.000000
    6       12.882147   0.000000
    7       13.240587   0.000000
    8       15.443024   0.000000
 
  0.2222222E+00  0.2222222E+00  0.2222222E+00  0.1097394E-01
    1        1.988170   1.000000
    2        3.222760   1.000000
    3        5.026159   1.000000
    4        5.046037   1.000000
    5       12.284902   0.000000
    6       13.442965   0.000000
    7       14.589134   0.000000
    8       14.622222   0.000000
 
 -0.2222222E+00  0.2222222E+00  0.2222222E+00  0.5486968E-02
    1       -3.444635   1.000000
    2        2.277859   1.000000
    3        3.935987   1.000000
    4        9.470051   0.004987
    5       12.088876   0.000000
    6       15.153109   0.000000
    7       17.483281   0.000000
    8       18.480424   0.000000
 
 -0.3333333E+00  0.3333333E+00  0.2222222E+00  0.1097394E-01
    1       -2.721273   1.000000
    2        1.008735   1.000000
    3        4.097726   1.000000
    4        7.711919   1.000000
    5       13.406528   0.000000
    6       16.630155   0.000000
    7       17.295134   0.000000
    8       18.288024   0.000000
 
 -0.2222222E+00  0.3333333E+00  0.2222222E+00  0.1097394E-01
    1       -2.521652   1.000000
    2        1.891805   1.000000
    3        3.611014   1.000000
    4        7.890907   1.000000
    5       12.761908   0.000000
    6       14.927356   0.000000
    7       17.148119   0.000000
    8       18.436051   0.000000
 
 -0.4444444E+00  0.4444444E+00  0.2222222E+00  0.1097394E-01
    1       -1.718888   1.000000
    2       -0.455455   1.000000
    3        4.981458   1.000000
    4        6.205578   1.000000
    5       14.475382   0.000000
    6       15.559713   0.000000
    7       17.837379   0.000000
    8       17.982476   0.000000
 
 -0.3333333E+00  0.4444444E+00  0.2222222E+00  0.2194787E-01
    1       -1.665629   1.000000
    2        0.772127   1.000000
    3        3.889645   1.000000
    4        6.260851   1.000000
    5       12.698621   0.000000
    6       16.022844   0.000000
    7       18.336605   0.000000
    8       18.565346   0.000000
 
 -0.2222222E+00  0.4444444E+00  0.2222222E+00  0.1097394E-01
    1       -0.926608   1.000000
    2        2.181381   1.000000
    3        3.919337   1.000000
    4        6.924338   1.000000
    5        9.055643   0.638162
    6       15.652624   0.000000
    7       17.064432   0.000000
    8       17.233483   0.000000
 
 -0.4444444E+00 -0.4444444E+00  0.2222222E+00  0.1097394E-01
    1       -0.549899   1.000000
    2       -0.544736   1.000000
    3        4.904423   1.000000
    4        4.904882   1.000000
    5       12.628786   0.000000
    6       16.808388   0.000000
    7       17.590360   0.000000
    8       18.577176   0.000000
 
 -0.3333333E+00 -0.4444444E+00  0.2222222E+00  0.2194787E-01
    1        0.042514   1.000000
    2        1.212988   1.000000
    3        4.322378   1.000000
    4        5.460810   1.000000
    5        8.794001   0.986225
    6       16.008378   0.000000
    7       17.986817   0.000000
    8       18.639153   0.000000
 
 -0.2222222E+00 -0.4444444E+00  0.2222222E+00  0.1097394E-01
    1        1.298828   1.000000
    2        3.115241   1.000000
    3        4.857847   1.000000
    4        5.385341   1.000000
    5        6.675389   1.000000
    6       13.523595   0.000000
    7       15.014464   0.000000
    8       17.688418   0.000000
 
 -0.3333333E+00 -0.3333333E+00  0.2222222E+00  0.1097394E-01
    1        2.279877   1.000000
    2        2.340763   1.000000
    3        5.105015   1.000000
    4        5.385552   1.000000
    5        5.571532   1.000000
    6       13.837810   0.000000
    7       16.089568   0.000000
    8       16.663699   0.000000
 
 -0.2222222E+00 -0.3333333E+00  0.2222222E+00  0.1097394E-01
    1        2.144497   1.000000
    2        4.151704   1.000000
    3        4.829473   1.000000
    4        6.375409   1.000000
    5        7.016728   1.000000
    6       11.907662   0.000000
    7       13.017784   0.000000
    8       14.238103   0.000000
 
 -0.2222222E+00 -0.2222222E+00  0.2222222E+00  0.2743484E-02
    1       -0.270644   1.000000
    2        6.918096   1.000000
    3        7.068111   1.000000
    4        8.113363   1.000000
    5        8.113385   1.000000
    6       10.642964   0.000000
    7       11.594869   0.000000
    8       11.594918   0.000000
 
 -0.3333333E+00  0.3333333E+00  0.3333333E+00  0.5486968E-02
    1       -2.010185   1.000000
    2        1.114129   1.000000
    3        2.890548   1.000000
    4        5.945373   1.000000
    5       15.181297   0.000000
    6       16.763144   0.000000
    7       18.080560   0.000000
    8       18.956502   0.000000
 
 -0.4444444E+00  0.4444444E+00  0.3333333E+00  0.1097394E-01
    1       -1.035294   1.000000
    2        0.141698   1.000000
    3        3.295302   1.000000
    4        4.448606   1.000000
    5       16.024012   0.000000
    6       16.429393   0.000000
    7       18.485570   0.000000
    8       19.211723   0.000000
 
 -0.3333333E+00  0.4444444E+00  0.3333333E+00  0.1097394E-01
    1       -0.837511   1.000000
    2        1.018140   1.000000
    3        2.814691   1.000000
    4        4.637219   1.000000
    5       12.440687   0.000000
    6       18.072894   0.000000
    7       19.581663   0.000000
    8       19.961922   0.000000
 
 -0.4444444E+00 -0.4444444E+00  0.3333333E+00  0.1097394E-01
    1        0.189177   1.000000
    2        0.197020   1.000000
    3        3.349593   1.000000
    4        3.351212   1.000000
    5       12.339881   0.000000
    6       19.172989   0.000000
    7       19.817890   0.000000
    8       21.221798   0.000000
 
 -0.3333333E+00 -0.4444444E+00  0.3333333E+00  0.1097394E-01
    1        0.924617   1.000000
    2        1.601994   1.000000
    3        3.387580   1.000000
    4        4.054389   1.000000
    5        8.531471   0.999975
    6       17.317686   0.000000
    7       18.687492   0.000000
    8       19.260806   0.000000
 
 -0.3333333E+00 -0.3333333E+00  0.3333333E+00  0.2743484E-02
    1        2.779955   1.000000
    2        2.877710   1.000000
    3        4.597038   1.000000
    4        4.597045   1.000000
    5        5.175987   1.000000
    6       15.156612   0.000000
    7       15.950962   0.000000
    8       15.951053   0.000000
 
 -0.4444444E+00  0.4444444E+00  0.4444444E+00  0.5486968E-02
    1       -0.149648   1.000000
    2        0.528371   1.000000
    3        2.352785   1.000000
    4        3.023070   1.000000
    5       16.272577   0.000000
    6       16.349340   0.000000
    7       20.110904   0.000000
    8       20.795484   0.000000
 
 -0.4444444E+00 -0.4444444E+00  0.4444444E+00  0.2743484E-02
    1        0.720039   1.000000
    2        0.730624   1.000000
    3        2.544813   1.000000
    4        2.544813   1.000000
    5       12.228516   0.000000
    6       20.223128   0.000000
    7       20.672866   0.000000
    8       20.968386   0.000000
