 vasp.5.4.4.18Apr17-6-g9f103f2a35 (build Dec 09 2018 21:25:21) complex          
  
 executed on IFC18.0.1.163_CrayMP date 2019.03.18  04:37:36
 running on    8 total cores
 distrk:  each k-point on    8 cores,    1 groups
 distr:  one band on NCORES_PER_BAND=   1 cores,    8 groups


--------------------------------------------------------------------------------------------------------


 INCAR:
 POTCAR:   PAW_PBE Si 05Jan2001                   

 ----------------------------------------------------------------------------- 
|                                                                             |
|           W    W    AA    RRRRR   N    N  II  N    N   GGGG   !!!           |
|           W    W   A  A   R    R  NN   N  II  NN   N  G    G  !!!           |
|           W    W  A    A  R    R  N N  N  II  N N  N  G       !!!           |
|           W WW W  AAAAAA  RRRRR   N  N N  II  N  N N  G  GGG   !            |
|           WW  WW  A    A  R   R   N   NN  II  N   NN  G    G                |
|           W    W  A    A  R    R  N    N  II  N    N   GGGG   !!!           |
|                                                                             |
|      For optimal performance we recommend to set                            |
|        NCORE= 4 - approx SQRT( number of cores)                             |
|      NCORE specifies how many cores store one orbital (NPAR=cpu/NCORE).     |
|      This setting can  greatly improve the performance of VASP for DFT.     |
|      The default,   NCORE=1            might be grossly inefficient         |
|      on modern multi-core architectures or massively parallel machines.     |
|      Do your own testing !!!!                                               |
|      Unfortunately you need to use the default for GW and RPA calculations. |
|      (for HF NCORE is supported but not extensively tested yet)             |
|                                                                             |
 ----------------------------------------------------------------------------- 

 POTCAR:   PAW_PBE Si 05Jan2001                   
   VRHFIN =Si: s2p2                                                             
   LEXCH  = PE                                                                  
   EATOM  =   103.0669 eV,    7.5752 Ry                                         
                                                                                
   TITEL  = PAW_PBE Si 05Jan2001                                                
   LULTRA =        F    use ultrasoft PP ?                                      
   IUNSCR =        1    unscreen: 0-lin 1-nonlin 2-no                           
   RPACOR =    1.500    partial core radius                                     
   POMASS =   28.085; ZVAL   =    4.000    mass and valenz                      
   RCORE  =    1.900    outmost cutoff radius                                   
   RWIGS  =    2.480; RWIGS  =    1.312    wigner-seitz radius (au A)           
   ENMAX  =  245.345; ENMIN  =  184.009 eV                                      
   ICORE  =        2    local potential                                         
   LCOR   =        T    correct aug charges                                     
   LPAW   =        T    paw PP                                                  
   EAUG   =  322.069                                                            
   DEXC   =    -.007                                                            
   RMAX   =    2.944    core radius for proj-oper                               
   RAUG   =    1.300    factor for augmentation sphere                          
   RDEP   =    1.993    radius for radial grids                                 
   QCUT   =   -4.246; QGAM   =    8.493    optimization parameters              
                                                                                
   Description                                                                  
     l     E      TYP  RCUT    TYP  RCUT                                        
     0   .000     23  1.900                                                     
     0   .000     23  1.900                                                     
     1   .000     23  1.900                                                     
     1   .000     23  1.900                                                     
     2   .000      7  1.900                                                     
  local pseudopotential read in
  partial core-charges read in
  atomic valenz-charges read in
  non local Contribution for L=           0  read in
    real space projection operators read in
  non local Contribution for L=           0  read in
    real space projection operators read in
  non local Contribution for L=           1  read in
    real space projection operators read in
  non local Contribution for L=           1  read in
    real space projection operators read in
    PAW grid and wavefunctions read in
 
   number of l-projection  operators is LMAX  =           4
   number of lm-projection operators is LMMAX =           8
 
 PAW_PBE Si 05Jan2001                   :
 energy of atom  1       EATOM= -103.0669
 kinetic energy error for atom=    0.0052 (will be added to EATOM!!)
 
 
 POSCAR: Si2                                     
  positions in direct lattice
  No initial velocities read in
 exchange correlation table for  LEXCH =        8
   RHO(1)=    0.500       N(1)  =     2000
   RHO(2)=  100.500       N(2)  =     4000
 


--------------------------------------------------------------------------------------------------------


 ion  position               nearest neighbor table
   1  0.250  0.750  0.500-   2 2.53   2 2.53   2 2.53   2 2.53   2 3.11   2 3.11   2 3.11   2 3.11

   2  0.000  0.000  0.000-   1 2.53   1 2.53   1 2.53   1 2.53   1 3.11   1 3.11   1 3.11   1 3.11

 
  LATTYP: Found a body centered tetragonal cell.
 ALAT       =     4.9000000000
 C/A-ratio  =     0.5200000000
  
  Lattice vectors:
  
 A1 = (  -2.4500000000,   2.4500000000,   1.2740000000)
 A2 = (   2.4500000000,  -2.4500000000,   1.2740000000)
 A3 = (   2.4500000000,   2.4500000000,  -1.2740000000)


Analysis of symmetry for initial positions (statically):
=====================================================================
 Subroutine PRICEL returns:
 Original cell was already a primitive cell.
 

 Routine SETGRP: Setting up the symmetry group for a 
 body centered tetragonal supercell.


 Subroutine GETGRP returns: Found 16 space group operations
 (whereof  8 operations were pure point group operations)
 out of a pool of 16 trial point group operations.


The static configuration has the point symmetry D_2d.
 The point group associated with its full space group is D_4h.


Analysis of symmetry for dynamics (positions and initial velocities):
=====================================================================
 Subroutine PRICEL returns:
 Original cell was already a primitive cell.
 

 Routine SETGRP: Setting up the symmetry group for a 
 body centered tetragonal supercell.


 Subroutine GETGRP returns: Found 16 space group operations
 (whereof  8 operations were pure point group operations)
 out of a pool of 16 trial point group operations.


The dynamic configuration has the point symmetry D_2d.
 The point group associated with its full space group is D_4h.


 Subroutine INISYM returns: Found 16 space group operations
 (whereof  8 operations are pure point group operations),
 and found     1 'primitive' translations

 
 
 KPOINTS: Automatic kpoint scheme                 

Automatic generation of k-mesh.
Space group operators:
 irot       det(A)        alpha          n_x          n_y          n_z        tau_x        tau_y        tau_z
    1     1.000000     0.000000     1.000000     0.000000     0.000000     0.000000     0.000000     0.000000
    2    -1.000000    90.000000    -0.000000    -0.000000    -1.000000     0.000000     0.000000     0.000000
    3     1.000000   180.000000    -0.000000    -0.000000    -1.000000     0.000000     0.000000     0.000000
    4    -1.000000    90.000000    -0.000000     0.000000     1.000000     0.000000     0.000000     0.000000
    5    -1.000000   180.000000     0.000000    -1.000000     0.000000     0.000000     0.000000     0.000000
    6     1.000000   180.000000     0.707107     0.707107    -0.000000     0.000000     0.000000     0.000000
    7    -1.000000   180.000000     1.000000     0.000000     0.000000     0.000000     0.000000     0.000000
    8     1.000000   180.000000     0.707107    -0.707107     0.000000     0.000000     0.000000     0.000000
    9    -1.000000     0.000000     1.000000     0.000000     0.000000     0.250000     0.750000     0.500000
   10     1.000000    90.000000    -0.000000    -0.000000    -1.000000     0.250000     0.750000     0.500000
   11    -1.000000   180.000000    -0.000000    -0.000000    -1.000000     0.250000     0.750000     0.500000
   12     1.000000    90.000000    -0.000000     0.000000     1.000000     0.250000     0.750000     0.500000
   13     1.000000   180.000000     0.000000    -1.000000     0.000000     0.250000     0.750000     0.500000
   14    -1.000000   180.000000     0.707107     0.707107    -0.000000     0.250000     0.750000     0.500000
   15     1.000000   180.000000     1.000000     0.000000     0.000000     0.250000     0.750000     0.500000
   16    -1.000000   180.000000     0.707107    -0.707107     0.000000     0.250000     0.750000     0.500000
 
 Subroutine IBZKPT returns following result:
 ===========================================
 
 Found     75 irreducible k-points:
 
 Following reciprocal coordinates:
            Coordinates               Weight
  0.000000  0.000000  0.000000      1.000000
  0.111111 -0.000000  0.000000      8.000000
  0.222222  0.000000 -0.000000      8.000000
  0.333333 -0.000000  0.000000      8.000000
  0.444444  0.000000 -0.000000      8.000000
  0.111111  0.111111  0.000000      8.000000
  0.222222  0.111111 -0.000000     16.000000
  0.333333  0.111111  0.000000     16.000000
  0.444444  0.111111  0.000000     16.000000
 -0.444444  0.111111  0.000000     16.000000
 -0.333333  0.111111 -0.000000     16.000000
 -0.222222  0.111111  0.000000     16.000000
 -0.111111  0.111111  0.000000      4.000000
  0.222222  0.222222 -0.000000      8.000000
  0.333333  0.222222  0.000000     16.000000
  0.444444  0.222222  0.000000     16.000000
 -0.444444  0.222222  0.000000     16.000000
 -0.333333  0.222222 -0.000000     16.000000
 -0.222222  0.222222  0.000000      4.000000
  0.333333  0.333333  0.000000      8.000000
  0.444444  0.333333  0.000000     16.000000
 -0.444444  0.333333  0.000000     16.000000
 -0.333333  0.333333  0.000000      4.000000
  0.444444  0.444444 -0.000000      8.000000
 -0.444444  0.444444  0.000000      4.000000
  0.111111  0.111111  0.111111      8.000000
  0.222222  0.111111  0.111111     16.000000
  0.333333  0.111111  0.111111     16.000000
 -0.111111  0.111111  0.111111      4.000000
  0.222222  0.222222  0.111111      8.000000
  0.333333  0.222222  0.111111     16.000000
  0.444444  0.222222  0.111111     16.000000
 -0.444444  0.222222  0.111111      8.000000
 -0.222222  0.222222  0.111111      8.000000
 -0.111111  0.222222  0.111111      8.000000
  0.333333  0.333333  0.111111      8.000000
  0.444444  0.333333  0.111111      8.000000
 -0.333333  0.333333  0.111111      8.000000
 -0.222222  0.333333  0.111111     16.000000
 -0.111111  0.333333  0.111111      8.000000
 -0.444444  0.444444  0.111111      8.000000
 -0.333333  0.444444  0.111111     16.000000
 -0.222222  0.444444  0.111111     16.000000
 -0.111111  0.444444  0.111111      8.000000
 -0.444444 -0.444444  0.111111      8.000000
 -0.333333 -0.444444  0.111111     16.000000
 -0.222222 -0.444444  0.111111     16.000000
 -0.111111 -0.444444  0.111111      8.000000
 -0.333333 -0.333333  0.111111      8.000000
 -0.222222 -0.333333  0.111111     16.000000
 -0.111111 -0.333333  0.111111      8.000000
 -0.222222 -0.222222  0.111111      8.000000
 -0.111111 -0.222222  0.111111      8.000000
 -0.111111 -0.111111  0.111111      2.000000
  0.222222  0.222222  0.222222      8.000000
 -0.222222  0.222222  0.222222      4.000000
 -0.333333  0.333333  0.222222      8.000000
 -0.222222  0.333333  0.222222      8.000000
 -0.444444  0.444444  0.222222      8.000000
 -0.333333  0.444444  0.222222     16.000000
 -0.222222  0.444444  0.222222      8.000000
 -0.444444 -0.444444  0.222222      8.000000
 -0.333333 -0.444444  0.222222     16.000000
 -0.222222 -0.444444  0.222222      8.000000
 -0.333333 -0.333333  0.222222      8.000000
 -0.222222 -0.333333  0.222222      8.000000
 -0.222222 -0.222222  0.222222      2.000000
 -0.333333  0.333333  0.333333      4.000000
 -0.444444  0.444444  0.333333      8.000000
 -0.333333  0.444444  0.333333      8.000000
 -0.444444 -0.444444  0.333333      8.000000
 -0.333333 -0.444444  0.333333      8.000000
 -0.333333 -0.333333  0.333333      2.000000
 -0.444444  0.444444  0.444444      4.000000
 -0.444444 -0.444444  0.444444      2.000000
 
 Following cartesian coordinates:
            Coordinates               Weight
  0.000000  0.000000  0.000000      1.000000
  0.000000  0.022676  0.043607      8.000000
  0.000000  0.045351  0.087214      8.000000
  0.000000  0.068027  0.130822      8.000000
  0.000000  0.090703  0.174429      8.000000
  0.022676  0.022676  0.087214      8.000000
  0.022676  0.045351  0.130822     16.000000
  0.022676  0.068027  0.174429     16.000000
  0.022676  0.090703  0.218036     16.000000
  0.022676 -0.090703 -0.130822     16.000000
  0.022676 -0.068027 -0.087214     16.000000
  0.022676 -0.045351 -0.043607     16.000000
  0.022676 -0.022676 -0.000000      4.000000
  0.045351  0.045351  0.174429      8.000000
  0.045351  0.068027  0.218036     16.000000
  0.045351  0.090703  0.261643     16.000000
  0.045351 -0.090703 -0.087214     16.000000
  0.045351 -0.068027 -0.043607     16.000000
  0.045351 -0.045351  0.000000      4.000000
  0.068027  0.068027  0.261643      8.000000
  0.068027  0.090703  0.305250     16.000000
  0.068027 -0.090703 -0.043607     16.000000
  0.068027 -0.068027  0.000000      4.000000
  0.090703  0.090703  0.348857      8.000000
  0.090703 -0.090703  0.000000      4.000000
  0.045351  0.045351  0.087214      8.000000
  0.045351  0.068027  0.130822     16.000000
  0.045351  0.090703  0.174429     16.000000
  0.045351  0.000000  0.000000      4.000000
  0.068027  0.068027  0.174429      8.000000
  0.068027  0.090703  0.218036     16.000000
  0.068027  0.113379  0.261643     16.000000
  0.068027 -0.068027 -0.087214      8.000000
  0.068027 -0.022676  0.000000      8.000000
  0.068027  0.000000  0.043607      8.000000
  0.090703  0.090703  0.261643      8.000000
  0.090703  0.113379  0.305250      8.000000
  0.090703 -0.045351  0.000000      8.000000
  0.090703 -0.022676  0.043607     16.000000
  0.090703  0.000000  0.087214      8.000000
  0.113379 -0.068027  0.000000      8.000000
  0.113379 -0.045351  0.043607     16.000000
  0.113379 -0.022676  0.087214     16.000000
  0.113379  0.000000  0.130822      8.000000
 -0.068027 -0.068027 -0.348857      8.000000
 -0.068027 -0.045351 -0.305250     16.000000
 -0.068027 -0.022676 -0.261643     16.000000
 -0.068027  0.000000 -0.218036      8.000000
 -0.045351 -0.045351 -0.261643      8.000000
 -0.045351 -0.022676 -0.218036     16.000000
 -0.045351 -0.000000 -0.174429      8.000000
 -0.022676 -0.022676 -0.174429      8.000000
 -0.022676  0.000000 -0.130822      8.000000
  0.000000  0.000000 -0.087214      2.000000
  0.090703  0.090703  0.174429      8.000000
  0.090703  0.000000  0.000000      4.000000
  0.113379 -0.022676  0.000000      8.000000
  0.113379  0.000000  0.043607      8.000000
  0.136054 -0.045351  0.000000      8.000000
  0.136054 -0.022676  0.043607     16.000000
  0.136054  0.000000  0.087214      8.000000
 -0.045351 -0.045351 -0.348857      8.000000
 -0.045351 -0.022676 -0.305250     16.000000
 -0.045351  0.000000 -0.261643      8.000000
 -0.022676 -0.022676 -0.261643      8.000000
 -0.022676  0.000000 -0.218036      8.000000
  0.000000  0.000000 -0.174429      2.000000
  0.136054  0.000000  0.000000      4.000000
  0.158730 -0.022676  0.000000      8.000000
  0.158730  0.000000  0.043607      8.000000
 -0.022676 -0.022676 -0.348857      8.000000
 -0.022676 -0.000000 -0.305250      8.000000
 -0.000000  0.000000 -0.261643      2.000000
  0.181406  0.000000  0.000000      4.000000
  0.000000  0.000000 -0.348857      2.000000
 


--------------------------------------------------------------------------------------------------------




 Dimension of arrays:
   k-points           NKPTS =     75   k-points in BZ     NKDIM =     75   number of bands    NBANDS=      8
   number of dos      NEDOS =    301   number of ions     NIONS =      2
   non local maximal  LDIM  =      4   non local SUM 2l+1 LMDIM =      8
   total plane-waves  NPLWV =   2744
   max r-space proj   IRMAX =      1   max aug-charges    IRDMAX=   3198
   dimension x,y,z NGX =    14 NGY =   14 NGZ =   14
   dimension x,y,z NGXF=    28 NGYF=   28 NGZF=   28
   support grid    NGXF=    28 NGYF=   28 NGZF=   28
   ions per type =               2
   NGX,Y,Z   is equivalent  to a cutoff of   6.30,  6.30,  6.30 a.u.
   NGXF,Y,Z  is equivalent  to a cutoff of  12.61, 12.61, 12.61 a.u.

 SYSTEM =  unknown system                          
 POSCAR =  Si2                                     

 Startparameter for this run:
   NWRITE =      2    write-flag & timer
   PREC   = normal    normal or accurate (medium, high low for compatibility)
   ISTART =      1    job   : 0-new  1-cont  2-samecut
   ICHARG =      0    charge: 1-file 2-atom 10-const
   ISPIN  =      1    spin polarized calculation?
   LNONCOLLINEAR =      F non collinear calculations
   LSORBIT =      F    spin-orbit coupling
   INIWAV =      1    electr: 0-lowe 1-rand  2-diag
   LASPH  =      F    aspherical Exc in radial PAW
   METAGGA=      F    non-selfconsistent MetaGGA calc.

 Electronic Relaxation 1
   ENCUT  =  250.0 eV  18.37 Ry    4.29 a.u.   4.76  4.76  4.76*2*pi/ulx,y,z
   ENINI  =  250.0     initial cutoff
   ENAUG  =  322.1 eV  augmentation charge cutoff
   NELM   =     60;   NELMIN=  2; NELMDL=  0     # of ELM steps 
   EDIFF  = 0.4E-03   stopping-criterion for ELM
   LREAL  =      F    real-space projection
   NLSPLINE    = F    spline interpolate recip. space projectors
   LCOMPAT=      F    compatible to vasp.4.4
   GGA_COMPAT  = T    GGA compatible to vasp.4.4-vasp.4.6
   LMAXPAW     = -100 max onsite density
   LMAXMIX     =    2 max onsite mixed and CHGCAR
   VOSKOWN=      0    Vosko Wilk Nusair interpolation
   ROPT   =    0.00000
 Ionic relaxation
   EDIFFG = -.1E-01   stopping-criterion for IOM
   NSW    =     15    number of steps for IOM
   NBLOCK =      1;   KBLOCK =     15    inner block; outer block 
   IBRION =      2    ionic relax: 0-MD 1-quasi-New 2-CG
   NFREE  =      1    steps in history (QN), initial steepest desc. (CG)
   ISIF   =      2    stress and relaxation
   IWAVPR =     11    prediction:  0-non 1-charg 2-wave 3-comb
   ISYM   =      2    0-nonsym 1-usesym 2-fastsym
   LCORR  =      T    Harris-Foulkes like correction to forces

   POTIM  = 0.5000    time-step for ionic-motion
   TEIN   =    0.0    initial temperature
   TEBEG  =    0.0;   TEEND  =   0.0 temperature during run
   SMASS  =  -3.00    Nose mass-parameter (am)
   estimated Nose-frequenzy (Omega)   =  0.10E-29 period in steps =****** mass=  -0.311E-27a.u.
   SCALEE = 1.0000    scale energy and forces
   NPACO  =    256;   APACO  = 16.0  distance and # of slots for P.C.
   PSTRESS=    0.0 pullay stress

  Mass of Ions in am
   POMASS =  28.09
  Ionic Valenz
   ZVAL   =   4.00
  Atomic Wigner-Seitz radii
   RWIGS  =  -1.00
  virtual crystal weights 
   VCA    =   1.00
   NELECT =       8.0000    total number of electrons
   NUPDOWN=      -1.0000    fix difference up-down

 DOS related values:
   EMIN   =  10.00;   EMAX   =-10.00  energy-range for DOS
   EFERMI =   0.00
   ISMEAR =     0;   SIGMA  =   0.20  broadening in eV -4-tet -1-fermi 0-gaus

 Electronic relaxation 2 (details)
   IALGO  =     38    algorithm
   LDIAG  =      T    sub-space diagonalisation (order eigenvalues)
   LSUBROT=      F    optimize rotation matrix (better conditioning)
   TURBO    =      0    0=normal 1=particle mesh
   IRESTART =      0    0=no restart 2=restart with 2 vectors
   NREBOOT  =      0    no. of reboots
   NMIN     =      0    reboot dimension
   EREF     =   0.00    reference energy to select bands
   IMIX   =      4    mixing-type and parameters
     AMIX     =   0.40;   BMIX     =  1.00
     AMIX_MAG =   1.60;   BMIX_MAG =  1.00
     AMIN     =   0.10
     WC   =   100.;   INIMIX=   1;  MIXPRE=   1;  MAXMIX= -45

 Intra band minimization:
   WEIMIN = 0.0010     energy-eigenvalue tresh-hold
   EBREAK =  0.13E-04  absolut break condition
   DEPER  =   0.30     relativ break condition  

   TIME   =   0.40     timestep for ELM

  volume/ion in A,a.u.               =      15.29       103.21
  Fermi-wavevector in a.u.,A,eV,Ry     =   1.046930  1.978411 14.912834  1.096062
  Thomas-Fermi vector in A             =   2.181789
 
 Write flags
   LWAVE        =      T    write WAVECAR
   LDOWNSAMPLE  =      F    k-point downsampling of WAVECAR
   LCHARG       =      T    write CHGCAR
   LVTOT        =      F    write LOCPOT, total local potential
   LVHAR        =      F    write LOCPOT, Hartree potential only
   LELF         =      F    write electronic localiz. function (ELF)
   LORBIT       =      0    0 simple, 1 ext, 2 COOP (PROOUT), +10 PAW based schemes


 Dipole corrections
   LMONO  =      F    monopole corrections only (constant potential shift)
   LDIPOL =      F    correct potential (dipole corrections)
   IDIPOL =      0    1-x, 2-y, 3-z, 4-all directions 
   EPSILON=  1.0000000 bulk dielectric constant

 Exchange correlation treatment:
   GGA     =    --    GGA type
   LEXCH   =     8    internal setting for exchange type
   VOSKOWN=      0    Vosko Wilk Nusair interpolation
   LHFCALC =     F    Hartree Fock is set to
   LHFONE  =     F    Hartree Fock one center treatment
   AEXX    =    0.0000 exact exchange contribution

 Linear response parameters
   LEPSILON=     F    determine dielectric tensor
   LRPA    =     F    only Hartree local field effects (RPA)
   LNABLA  =     F    use nabla operator in PAW spheres
   LVEL    =     F    velocity operator in full k-point grid
   LINTERFAST=   F  fast interpolation
   KINTER  =     0    interpolate to denser k-point grid
   CSHIFT  =0.1000    complex shift for real part using Kramers Kronig
   OMEGAMAX=  -1.0    maximum frequency
   DEG_THRESHOLD= 0.2000000E-02 threshold for treating states as degnerate
   RTIME   =   -0.100 relaxation time in fs
  (WPLASMAI=    0.000 imaginary part of plasma frequency in eV, 0.658/RTIME)
   DFIELD  = 0.0000000 0.0000000 0.0000000 field for delta impulse in time
 
 Orbital magnetization related:
   ORBITALMAG=     F  switch on orbital magnetization
   LCHIMAG   =     F  perturbation theory with respect to B field
   DQ        =  0.001000  dq finite difference perturbation B field
   LLRAUG    =     F  two centre corrections for induced B field



--------------------------------------------------------------------------------------------------------


 conjugate gradient relaxation of ions
 charge density and potential will be updated during run
 non-spin polarized calculation
 Variant of blocked Davidson
 Davidson routine will perform the subspace rotation
 perform sub-space diagonalisation
    after iterative eigenvector-optimisation
 modified Broyden-mixing scheme, WC =      100.0
 initial mixing is a Kerker type mixing with AMIX =  0.4000 and BMIX =      1.0000
 Hartree-type preconditioning will be used
 using additional bands            4
 reciprocal scheme for non local part
 use partial core corrections
 calculate Harris-corrections to forces 
   (improved forces if not selfconsistent)
 use gradient corrections 
 use of overlap-Matrix (Vanderbilt PP)
 Gauss-broadening in eV      SIGMA  =   0.20


--------------------------------------------------------------------------------------------------------


  energy-cutoff  :      250.00
  volume of cell :       30.59
      direct lattice vectors                 reciprocal lattice vectors
    -2.450000000  2.450000000  1.274000000     0.000000000  0.204081633  0.392464678
     2.450000000 -2.450000000  1.274000000     0.204081633  0.000000000  0.392464678
     2.450000000  2.450000000 -1.274000000     0.204081633  0.204081633 -0.000000000

  length of vectors
     3.691622408  3.691622408  3.691622408     0.442354876  0.442354876  0.288615013


 
 old parameters found on file WAVECAR:
  energy-cutoff  :      250.00
  volume of cell :       30.59
      direct lattice vectors                 reciprocal lattice vectors
    -2.450000000  2.450000000  1.274000000     0.000000000  0.204081633  0.392464678
     2.450000000 -2.450000000  1.274000000     0.204081633  0.000000000  0.392464678
     2.450000000  2.450000000 -1.274000000     0.204081633  0.204081633 -0.000000000

  length of vectors

 
 k-points in units of 2pi/SCALE and weight: Automatic kpoint scheme                 
   0.00000000  0.00000000  0.00000000       0.001
   0.00000000  0.02267574  0.04360719       0.011
   0.00000000  0.04535147  0.08721437       0.011
   0.00000000  0.06802721  0.13082156       0.011
   0.00000000  0.09070295  0.17442875       0.011
   0.02267574  0.02267574  0.08721437       0.011
   0.02267574  0.04535147  0.13082156       0.022
   0.02267574  0.06802721  0.17442875       0.022
   0.02267574  0.09070295  0.21803593       0.022
   0.02267574 -0.09070295 -0.13082156       0.022
   0.02267574 -0.06802721 -0.08721437       0.022
   0.02267574 -0.04535147 -0.04360719       0.022
   0.02267574 -0.02267574 -0.00000000       0.005
   0.04535147  0.04535147  0.17442875       0.011
   0.04535147  0.06802721  0.21803593       0.022
   0.04535147  0.09070295  0.26164312       0.022
   0.04535147 -0.09070295 -0.08721437       0.022
   0.04535147 -0.06802721 -0.04360719       0.022
   0.04535147 -0.04535147  0.00000000       0.005
   0.06802721  0.06802721  0.26164312       0.011
   0.06802721  0.09070295  0.30525031       0.022
   0.06802721 -0.09070295 -0.04360719       0.022
   0.06802721 -0.06802721 -0.00000000       0.005
   0.09070295  0.09070295  0.34885749       0.011
   0.09070295 -0.09070295  0.00000000       0.005
   0.04535147  0.04535147  0.08721437       0.011
   0.04535147  0.06802721  0.13082156       0.022
   0.04535147  0.09070295  0.17442875       0.022
   0.04535147  0.00000000  0.00000000       0.005
   0.06802721  0.06802721  0.17442875       0.011
   0.06802721  0.09070295  0.21803593       0.022
   0.06802721  0.11337868  0.26164312       0.022
   0.06802721 -0.06802721 -0.08721437       0.011
   0.06802721 -0.02267574  0.00000000       0.011
   0.06802721  0.00000000  0.04360719       0.011
   0.09070295  0.09070295  0.26164312       0.011
   0.09070295  0.11337868  0.30525031       0.011
   0.09070295 -0.04535147 -0.00000000       0.011
   0.09070295 -0.02267574  0.04360719       0.022
   0.09070295  0.00000000  0.08721437       0.011
   0.11337868 -0.06802721  0.00000000       0.011
   0.11337868 -0.04535147  0.04360719       0.022
   0.11337868 -0.02267574  0.08721437       0.022
   0.11337868 -0.00000000  0.13082156       0.011
  -0.06802721 -0.06802721 -0.34885749       0.011
  -0.06802721 -0.04535147 -0.30525031       0.022
  -0.06802721 -0.02267574 -0.26164312       0.022
  -0.06802721  0.00000000 -0.21803593       0.011
  -0.04535147 -0.04535147 -0.26164312       0.011
  -0.04535147 -0.02267574 -0.21803593       0.022
  -0.04535147 -0.00000000 -0.17442875       0.011
  -0.02267574 -0.02267574 -0.17442875       0.011
  -0.02267574  0.00000000 -0.13082156       0.011
   0.00000000  0.00000000 -0.08721437       0.003
   0.09070295  0.09070295  0.17442875       0.011
   0.09070295  0.00000000  0.00000000       0.005
   0.11337868 -0.02267574  0.00000000       0.011
   0.11337868  0.00000000  0.04360719       0.011
   0.13605442 -0.04535147 -0.00000000       0.011
   0.13605442 -0.02267574  0.04360719       0.022
   0.13605442  0.00000000  0.08721437       0.011
  -0.04535147 -0.04535147 -0.34885749       0.011
  -0.04535147 -0.02267574 -0.30525031       0.022
  -0.04535147  0.00000000 -0.26164312       0.011
  -0.02267574 -0.02267574 -0.26164312       0.011
  -0.02267574  0.00000000 -0.21803593       0.011
   0.00000000  0.00000000 -0.17442875       0.003
   0.13605442 -0.00000000  0.00000000       0.005
   0.15873016 -0.02267574  0.00000000       0.011
   0.15873016  0.00000000  0.04360719       0.011
  -0.02267574 -0.02267574 -0.34885749       0.011
  -0.02267574 -0.00000000 -0.30525031       0.011
   0.00000000  0.00000000 -0.26164312       0.003
   0.18140590  0.00000000  0.00000000       0.005
   0.00000000  0.00000000 -0.34885749       0.003
 
 k-points in reciprocal lattice and weights: Automatic kpoint scheme                 
   0.00000000  0.00000000  0.00000000       0.001
   0.11111111 -0.00000000  0.00000000       0.011
   0.22222222  0.00000000 -0.00000000       0.011
   0.33333333 -0.00000000  0.00000000       0.011
   0.44444444  0.00000000 -0.00000000       0.011
   0.11111111  0.11111111  0.00000000       0.011
   0.22222222  0.11111111 -0.00000000       0.022
   0.33333333  0.11111111  0.00000000       0.022
   0.44444444  0.11111111  0.00000000       0.022
  -0.44444444  0.11111111  0.00000000       0.022
  -0.33333333  0.11111111 -0.00000000       0.022
  -0.22222222  0.11111111  0.00000000       0.022
  -0.11111111  0.11111111  0.00000000       0.005
   0.22222222  0.22222222 -0.00000000       0.011
   0.33333333  0.22222222  0.00000000       0.022
   0.44444444  0.22222222  0.00000000       0.022
  -0.44444444  0.22222222  0.00000000       0.022
  -0.33333333  0.22222222 -0.00000000       0.022
  -0.22222222  0.22222222  0.00000000       0.005
   0.33333333  0.33333333  0.00000000       0.011
   0.44444444  0.33333333  0.00000000       0.022
  -0.44444444  0.33333333  0.00000000       0.022
  -0.33333333  0.33333333  0.00000000       0.005
   0.44444444  0.44444444 -0.00000000       0.011
  -0.44444444  0.44444444  0.00000000       0.005
   0.11111111  0.11111111  0.11111111       0.011
   0.22222222  0.11111111  0.11111111       0.022
   0.33333333  0.11111111  0.11111111       0.022
  -0.11111111  0.11111111  0.11111111       0.005
   0.22222222  0.22222222  0.11111111       0.011
   0.33333333  0.22222222  0.11111111       0.022
   0.44444444  0.22222222  0.11111111       0.022
  -0.44444444  0.22222222  0.11111111       0.011
  -0.22222222  0.22222222  0.11111111       0.011
  -0.11111111  0.22222222  0.11111111       0.011
   0.33333333  0.33333333  0.11111111       0.011
   0.44444444  0.33333333  0.11111111       0.011
  -0.33333333  0.33333333  0.11111111       0.011
  -0.22222222  0.33333333  0.11111111       0.022
  -0.11111111  0.33333333  0.11111111       0.011
  -0.44444444  0.44444444  0.11111111       0.011
  -0.33333333  0.44444444  0.11111111       0.022
  -0.22222222  0.44444444  0.11111111       0.022
  -0.11111111  0.44444444  0.11111111       0.011
  -0.44444444 -0.44444444  0.11111111       0.011
  -0.33333333 -0.44444444  0.11111111       0.022
  -0.22222222 -0.44444444  0.11111111       0.022
  -0.11111111 -0.44444444  0.11111111       0.011
  -0.33333333 -0.33333333  0.11111111       0.011
  -0.22222222 -0.33333333  0.11111111       0.022
  -0.11111111 -0.33333333  0.11111111       0.011
  -0.22222222 -0.22222222  0.11111111       0.011
  -0.11111111 -0.22222222  0.11111111       0.011
  -0.11111111 -0.11111111  0.11111111       0.003
   0.22222222  0.22222222  0.22222222       0.011
  -0.22222222  0.22222222  0.22222222       0.005
  -0.33333333  0.33333333  0.22222222       0.011
  -0.22222222  0.33333333  0.22222222       0.011
  -0.44444444  0.44444444  0.22222222       0.011
  -0.33333333  0.44444444  0.22222222       0.022
  -0.22222222  0.44444444  0.22222222       0.011
  -0.44444444 -0.44444444  0.22222222       0.011
  -0.33333333 -0.44444444  0.22222222       0.022
  -0.22222222 -0.44444444  0.22222222       0.011
  -0.33333333 -0.33333333  0.22222222       0.011
  -0.22222222 -0.33333333  0.22222222       0.011
  -0.22222222 -0.22222222  0.22222222       0.003
  -0.33333333  0.33333333  0.33333333       0.005
  -0.44444444  0.44444444  0.33333333       0.011
  -0.33333333  0.44444444  0.33333333       0.011
  -0.44444444 -0.44444444  0.33333333       0.011
  -0.33333333 -0.44444444  0.33333333       0.011
  -0.33333333 -0.33333333  0.33333333       0.003
  -0.44444444  0.44444444  0.44444444       0.005
  -0.44444444 -0.44444444  0.44444444       0.003
 
 position of ions in fractional coordinates (direct lattice) 
   0.25000000  0.75000000  0.50000000
   0.00000000  0.00000000  0.00000000
 
 position of ions in cartesian coordinates  (Angst):
   2.45000000  0.00000000  0.63700000
   0.00000000  0.00000000  0.00000000
 


--------------------------------------------------------------------------------------------------------


 k-point  1 :   0.0000 0.0000 0.0000  plane waves:     263
 k-point  2 :   0.1111-0.0000 0.0000  plane waves:     272
 k-point  3 :   0.2222 0.0000-0.0000  plane waves:     273
 k-point  4 :   0.3333-0.0000 0.0000  plane waves:     276
 k-point  5 :   0.4444 0.0000-0.0000  plane waves:     280
 k-point  6 :   0.1111 0.1111 0.0000  plane waves:     275
 k-point  7 :   0.2222 0.1111-0.0000  plane waves:     273
 k-point  8 :   0.3333 0.1111 0.0000  plane waves:     276
 k-point  9 :   0.4444 0.1111 0.0000  plane waves:     276
 k-point 10 :  -0.4444 0.1111 0.0000  plane waves:     274
 k-point 11 :  -0.3333 0.1111-0.0000  plane waves:     273
 k-point 12 :  -0.2222 0.1111 0.0000  plane waves:     273
 k-point 13 :  -0.1111 0.1111 0.0000  plane waves:     279
 k-point 14 :   0.2222 0.2222-0.0000  plane waves:     273
 k-point 15 :   0.3333 0.2222 0.0000  plane waves:     272
 k-point 16 :   0.4444 0.2222 0.0000  plane waves:     268
 k-point 17 :  -0.4444 0.2222 0.0000  plane waves:     271
 k-point 18 :  -0.3333 0.2222-0.0000  plane waves:     278
 k-point 19 :  -0.2222 0.2222 0.0000  plane waves:     283
 k-point 20 :   0.3333 0.3333 0.0000  plane waves:     274
 k-point 21 :   0.4444 0.3333 0.0000  plane waves:     272
 k-point 22 :  -0.4444 0.3333 0.0000  plane waves:     277
 k-point 23 :  -0.3333 0.3333 0.0000  plane waves:     281
 k-point 24 :   0.4444 0.4444-0.0000  plane waves:     278
 k-point 25 :  -0.4444 0.4444 0.0000  plane waves:     275
 k-point 26 :   0.1111 0.1111 0.1111  plane waves:     275
 k-point 27 :   0.2222 0.1111 0.1111  plane waves:     273
 k-point 28 :   0.3333 0.1111 0.1111  plane waves:     274
 k-point 29 :  -0.1111 0.1111 0.1111  plane waves:     275
 k-point 30 :   0.2222 0.2222 0.1111  plane waves:     269
 k-point 31 :   0.3333 0.2222 0.1111  plane waves:     274
 k-point 32 :   0.4444 0.2222 0.1111  plane waves:     271
 k-point 33 :  -0.4444 0.2222 0.1111  plane waves:     273
 k-point 34 :  -0.2222 0.2222 0.1111  plane waves:     275
 k-point 35 :  -0.1111 0.2222 0.1111  plane waves:     273
 k-point 36 :   0.3333 0.3333 0.1111  plane waves:     272
 k-point 37 :   0.4444 0.3333 0.1111  plane waves:     273
 k-point 38 :  -0.3333 0.3333 0.1111  plane waves:     283
 k-point 39 :  -0.2222 0.3333 0.1111  plane waves:     278
 k-point 40 :  -0.1111 0.3333 0.1111  plane waves:     274
 k-point 41 :  -0.4444 0.4444 0.1111  plane waves:     273
 k-point 42 :  -0.3333 0.4444 0.1111  plane waves:     275
 k-point 43 :  -0.2222 0.4444 0.1111  plane waves:     273
 k-point 44 :  -0.1111 0.4444 0.1111  plane waves:     273
 k-point 45 :  -0.4444-0.4444 0.1111  plane waves:     275
 k-point 46 :  -0.3333-0.4444 0.1111  plane waves:     272
 k-point 47 :  -0.2222-0.4444 0.1111  plane waves:     278
 k-point 48 :  -0.1111-0.4444 0.1111  plane waves:     278
 k-point 49 :  -0.3333-0.3333 0.1111  plane waves:     274
 k-point 50 :  -0.2222-0.3333 0.1111  plane waves:     275
 k-point 51 :  -0.1111-0.3333 0.1111  plane waves:     274
 k-point 52 :  -0.2222-0.2222 0.1111  plane waves:     273
 k-point 53 :  -0.1111-0.2222 0.1111  plane waves:     273
 k-point 54 :  -0.1111-0.1111 0.1111  plane waves:     275
 k-point 55 :   0.2222 0.2222 0.2222  plane waves:     270
 k-point 56 :  -0.2222 0.2222 0.2222  plane waves:     272
 k-point 57 :  -0.3333 0.3333 0.2222  plane waves:     275
 k-point 58 :  -0.2222 0.3333 0.2222  plane waves:     273
 k-point 59 :  -0.4444 0.4444 0.2222  plane waves:     275
 k-point 60 :  -0.3333 0.4444 0.2222  plane waves:     277
 k-point 61 :  -0.2222 0.4444 0.2222  plane waves:     277
 k-point 62 :  -0.4444-0.4444 0.2222  plane waves:     274
 k-point 63 :  -0.3333-0.4444 0.2222  plane waves:     277
 k-point 64 :  -0.2222-0.4444 0.2222  plane waves:     276
 k-point 65 :  -0.3333-0.3333 0.2222  plane waves:     276
 k-point 66 :  -0.2222-0.3333 0.2222  plane waves:     274
 k-point 67 :  -0.2222-0.2222 0.2222  plane waves:     267
 k-point 68 :  -0.3333 0.3333 0.3333  plane waves:     278
 k-point 69 :  -0.4444 0.4444 0.3333  plane waves:     270
 k-point 70 :  -0.3333 0.4444 0.3333  plane waves:     277
 k-point 71 :  -0.4444-0.4444 0.3333  plane waves:     274
 k-point 72 :  -0.3333-0.4444 0.3333  plane waves:     274
 k-point 73 :  -0.3333-0.3333 0.3333  plane waves:     275
 k-point 74 :  -0.4444 0.4444 0.4444  plane waves:     278
 k-point 75 :  -0.4444-0.4444 0.4444  plane waves:     276

 maximum and minimum number of plane-waves per node :       283      263

 maximum number of plane-waves:       283
 maximum index in each direction: 
   IXMAX=    5   IYMAX=    5   IZMAX=    4
   IXMIN=   -5   IYMIN=   -5   IZMIN=   -5


 serial   3D FFT for wavefunctions
 parallel 3D FFT for charge:
    minimum data exchange during FFTs selected (reduces bandwidth)


 total amount of memory used by VASP MPI-rank0    32150. kBytes
=======================================================================

   base      :      30000. kBytes
   nonl-proj :       1391. kBytes
   fftplans  :        119. kBytes
   grid      :        270. kBytes
   one-center:          6. kBytes
   wavefun   :        364. kBytes
 
     INWAV:  cpu time    0.1640: real time    0.2671
 Broyden mixing: mesh for mixing (old mesh)
   NGX =  9   NGY =  9   NGZ =  9
  (NGX  = 28   NGY  = 28   NGZ  = 28)
  gives a total of    729 points

 charge density for first step will be calculated from the start-wavefunctions


--------------------------------------------------------------------------------------------------------


 Maximum index for augmentation-charges          442 (set IRDMAX)


--------------------------------------------------------------------------------------------------------


 initial charge from wavefunction
 First call to EWALD:  gamma=   0.567
 Maximum number of real-space cells 4x 4x 3
 Maximum number of reciprocal cells 3x 3x 3

    FEWALD:  cpu time    0.0080: real time    0.0075


--------------------------------------- Iteration      1(   1)  ---------------------------------------


    POTLOK:  cpu time    0.0280: real time    0.0360
    SETDIJ:  cpu time    0.0080: real time    0.0091
     EDDAV:  cpu time    0.8600: real time    0.8623
       DOS:  cpu time    0.0040: real time    0.0045
    CHARGE:  cpu time    0.0160: real time    0.0191
    MIXING:  cpu time    0.0040: real time    0.0021
    --------------------------------------------
      LOOP:  cpu time    0.9200: real time    0.9338

 eigenvalue-minimisations  :  1680
 total energy-change (2. order) :-0.1028804E+02  (-0.4044422E+00)
 number of electron       7.9999993 magnetization 
 augmentation part       -0.4735131 magnetization 

 Broyden mixing:
  rms(total) = 0.12117E+00    rms(broyden)= 0.12117E+00
  rms(prec ) = 0.36717E+00
  weight for this iteration     100.00

 Free energy of the ion-electron system (eV)
  ---------------------------------------------------
  alpha Z        PSCENC =         4.40202223
  Ewald energy   TEWEN  =      -265.18101312
  -Hartree energ DENC   =        -2.49413739
  -exchange      EXHF   =         0.00000000
  -V(xc)+E(xc)   XCENC  =       -17.57067290
  PAW double counting   =        70.69370256      -35.61328775
  entropy T*S    EENTRO =        -0.01192550
  eigenvalues    EBANDS =        29.36377039
  atomic energy  EATOM  =       206.12349923
  Solvation  Ediel_sol  =         0.00000000
  ---------------------------------------------------
  free energy    TOTEN  =       -10.28804225 eV

  energy without entropy =      -10.27611675  energy(sigma->0) =      -10.28207950


--------------------------------------------------------------------------------------------------------




--------------------------------------- Iteration      1(   2)  ---------------------------------------


    POTLOK:  cpu time    0.0200: real time    0.0256
    SETDIJ:  cpu time    0.0080: real time    0.0086
     EDDAV:  cpu time    0.7760: real time    0.7788
       DOS:  cpu time    0.0040: real time    0.0039
    CHARGE:  cpu time    0.0200: real time    0.0191
    MIXING:  cpu time    0.0000: real time    0.0015
    --------------------------------------------
      LOOP:  cpu time    0.8280: real time    0.8376

 eigenvalue-minimisations  :  1560
 total energy-change (2. order) : 0.4165959E-01  (-0.8007803E-02)
 number of electron       7.9999993 magnetization 
 augmentation part       -0.4738855 magnetization 

 Broyden mixing:
  rms(total) = 0.68173E-01    rms(broyden)= 0.68173E-01
  rms(prec ) = 0.20626E+00
  weight for this iteration     100.00

 eigenvalues of (default mixing * dielectric matrix)
  average eigenvalue GAMMA=   2.2798
  2.2798

 Free energy of the ion-electron system (eV)
  ---------------------------------------------------
  alpha Z        PSCENC =         4.40202223
  Ewald energy   TEWEN  =      -265.18101312
  -Hartree energ DENC   =        -2.46710010
  -exchange      EXHF   =         0.00000000
  -V(xc)+E(xc)   XCENC  =       -17.57628085
  PAW double counting   =        70.70630735      -35.62471943
  entropy T*S    EENTRO =        -0.01165858
  eigenvalues    EBANDS =        29.38256062
  atomic energy  EATOM  =       206.12349923
  Solvation  Ediel_sol  =         0.00000000
  ---------------------------------------------------
  free energy    TOTEN  =       -10.24638265 eV

  energy without entropy =      -10.23472407  energy(sigma->0) =      -10.24055336


--------------------------------------------------------------------------------------------------------




--------------------------------------- Iteration      1(   3)  ---------------------------------------


    POTLOK:  cpu time    0.0200: real time    0.0236
    SETDIJ:  cpu time    0.0080: real time    0.0086
     EDDAV:  cpu time    0.8080: real time    0.8059
       DOS:  cpu time    0.0000: real time    0.0043
    CHARGE:  cpu time    0.0200: real time    0.0189
    MIXING:  cpu time    0.0000: real time    0.0014
    --------------------------------------------
      LOOP:  cpu time    0.8600: real time    0.8628

 eigenvalue-minimisations  :  1616
 total energy-change (2. order) : 0.2080195E-01  (-0.5653006E-02)
 number of electron       7.9999993 magnetization 
 augmentation part       -0.4734481 magnetization 

 Broyden mixing:
  rms(total) = 0.59384E-02    rms(broyden)= 0.59371E-02
  rms(prec ) = 0.14996E-01
  weight for this iteration     100.00

 eigenvalues of (default mixing * dielectric matrix)
  average eigenvalue GAMMA=   1.4155
  2.2100  0.6210

 Free energy of the ion-electron system (eV)
  ---------------------------------------------------
  alpha Z        PSCENC =         4.40202223
  Ewald energy   TEWEN  =      -265.18101312
  -Hartree energ DENC   =        -2.50119603
  -exchange      EXHF   =         0.00000000
  -V(xc)+E(xc)   XCENC  =       -17.57538830
  PAW double counting   =        70.75339468      -35.67190233
  entropy T*S    EENTRO =        -0.01144826
  eigenvalues    EBANDS =        29.43645119
  atomic energy  EATOM  =       206.12349923
  Solvation  Ediel_sol  =         0.00000000
  ---------------------------------------------------
  free energy    TOTEN  =       -10.22558070 eV

  energy without entropy =      -10.21413244  energy(sigma->0) =      -10.21985657


--------------------------------------------------------------------------------------------------------




--------------------------------------- Iteration      1(   4)  ---------------------------------------


    POTLOK:  cpu time    0.0200: real time    0.0253
    SETDIJ:  cpu time    0.0080: real time    0.0086
     EDDAV:  cpu time    0.6640: real time    0.6618
       DOS:  cpu time    0.0040: real time    0.0039
    --------------------------------------------
      LOOP:  cpu time    0.6920: real time    0.6993

 eigenvalue-minimisations  :  1352
 total energy-change (2. order) :-0.1471848E-03  (-0.2224179E-03)
 number of electron       7.9999993 magnetization 
 augmentation part       -0.4734481 magnetization 

 Free energy of the ion-electron system (eV)
  ---------------------------------------------------
  alpha Z        PSCENC =         4.40202223
  Ewald energy   TEWEN  =      -265.18101312
  -Hartree energ DENC   =        -2.50010189
  -exchange      EXHF   =         0.00000000
  -V(xc)+E(xc)   XCENC  =       -17.57528721
  PAW double counting   =        70.75049193      -35.66890940
  entropy T*S    EENTRO =        -0.01145312
  eigenvalues    EBANDS =        29.43502346
  atomic energy  EATOM  =       206.12349923
  Solvation  Ediel_sol  =         0.00000000
  ---------------------------------------------------
  free energy    TOTEN  =       -10.22572789 eV

  energy without entropy =      -10.21427476  energy(sigma->0) =      -10.22000133


--------------------------------------------------------------------------------------------------------




 average (electrostatic) potential at core
  the test charge radii are     0.9892
  (the norm of the test charge is              1.0000)
       1 -80.5462       2 -80.5462
 
 
 
 E-fermi :   9.1056     XC(G=0): -10.8920     alpha+bet :-15.6819


 k-point     1 :       0.0000    0.0000    0.0000
  band No.  band energies     occupation 
      1      -4.6144      2.00000
      2       6.1901      2.00000
      3       6.2996      2.00000
      4       6.2996      2.00000
      5      10.5393      0.00000
      6      16.8711      0.00000
      7      17.3708      0.00000
      8      17.3708      0.00000

 k-point     2 :       0.1111   -0.0000    0.0000
  band No.  band energies     occupation 
      1      -4.2660      2.00000
      2       5.3103      2.00000
      3       6.2432      2.00000
      4       7.7875      2.00000
      5      11.2479      0.00000
      6      15.1858      0.00000
      7      15.9852      0.00000
      8      17.3261      0.00000

 k-point     3 :       0.2222    0.0000   -0.0000
  band No.  band energies     occupation 
      1      -3.2246      2.00000
      2       5.0215      2.00000
      3       6.3197      2.00000
      4       9.6160      0.00031
      5      12.1418      0.00000
      6      12.9241      0.00000
      7      13.0328      0.00000
      8      15.1705      0.00000

 k-point     4 :       0.3333   -0.0000    0.0000
  band No.  band energies     occupation 
      1      -1.5037      2.00000
      2       5.3599      2.00000
      3       6.7910      2.00000
      4       7.4701      2.00000
      5      10.2725      0.00000
      6      12.6692      0.00000
      7      13.0338      0.00000
      8      14.0154      0.00000

 k-point     5 :       0.4444    0.0000   -0.0000
  band No.  band energies     occupation 
      1       0.8609      2.00000
      2       3.8989      2.00000
      3       6.3804      2.00000
      4       7.5679      2.00000
      5       8.1965      2.00000
      6      10.7495      0.00000
      7      13.5463      0.00000
      8      14.5213      0.00000

 k-point     6 :       0.1111    0.1111    0.0000
  band No.  band energies     occupation 
      1      -3.3706      2.00000
      2       5.3378      2.00000
      3       7.3497      2.00000
      4       8.5437      1.99993
      5      12.3055      0.00000
      6      12.5935      0.00000
      7      13.0105      0.00000
      8      15.6540      0.00000

 k-point     7 :       0.2222    0.1111   -0.0000
  band No.  band energies     occupation 
      1      -1.7925      2.00000
      2       5.6148      2.00000
      3       7.8937      2.00000
      4       8.3017      2.00000
      5       9.7520      0.00000
      6      11.3986      0.00000
      7      13.0300      0.00000
      8      14.0349      0.00000

 k-point     8 :       0.3333    0.1111    0.0000
  band No.  band energies     occupation 
      1       0.4405      2.00000
      2       4.7063      2.00000
      3       6.4883      2.00000
      4       6.9305      2.00000
      5       9.0461      1.32632
      6      11.1193      0.00000
      7      12.6429      0.00000
      8      14.5351      0.00000

 k-point     9 :       0.4444    0.1111    0.0000
  band No.  band energies     occupation 
      1       1.5498      2.00000
      2       3.3538      2.00000
      3       5.2318      2.00000
      4       7.4647      2.00000
      5       8.6853      1.99704
      6      11.4876      0.00000
      7      12.4179      0.00000
      8      15.8275      0.00000

 k-point    10 :      -0.4444    0.1111    0.0000
  band No.  band energies     occupation 
      1      -0.9286      2.00000
      2       3.9976      2.00000
      3       6.6952      2.00000
      4       7.0031      2.00000
      5      10.1059      0.00000
      6      12.3985      0.00000
      7      13.5745      0.00000
      8      14.4943      0.00000

 k-point    11 :      -0.3333    0.1111   -0.0000
  band No.  band energies     occupation 
      1      -2.7875      2.00000
      2       3.4773      2.00000
      3       6.3369      2.00000
      4      10.1442      0.00000
      5      11.9267      0.00000
      6      12.0435      0.00000
      7      13.9506      0.00000
      8      15.1487      0.00000

 k-point    12 :      -0.2222    0.1111    0.0000
  band No.  band energies     occupation 
      1      -3.9726      2.00000
      2       3.5931      2.00000
      3       6.3003      2.00000
      4       8.9134      1.82596
      5      12.7718      0.00000
      6      13.4367      0.00000
      7      15.3234      0.00000
      8      16.6692      0.00000

 k-point    13 :      -0.1111    0.1111    0.0000
  band No.  band energies     occupation 
      1      -4.4676      2.00000
      2       4.3223      2.00000
      3       6.4359      2.00000
      4       7.6499      2.00000
      5      11.4427      0.00000
      6      14.8929      0.00000
      7      16.3309      0.00000
      8      19.5195      0.00000

 k-point    14 :       0.2222    0.2222   -0.0000
  band No.  band energies     occupation 
      1       0.2998      2.00000
      2       5.7156      2.00000
      3       5.7761      2.00000
      4       6.4364      2.00000
      5       9.9685      0.00000
      6      11.6119      0.00000
      7      12.5607      0.00000
      8      12.8308      0.00000

 k-point    15 :       0.3333    0.2222    0.0000
  band No.  band energies     occupation 
      1       2.4402      2.00000
      2       3.1038      2.00000
      3       3.8867      2.00000
      4       7.5167      2.00000
      5       9.2593      0.27724
      6      10.7949      0.00000
      7      13.5858      0.00000
      8      15.6530      0.00000

 k-point    16 :       0.4444    0.2222    0.0000
  band No.  band energies     occupation 
      1      -0.0723      2.00000
      2       2.4340      2.00000
      3       6.4004      2.00000
      4       7.5744      2.00000
      5       9.4814      0.00789
      6      11.3214      0.00000
      7      14.7699      0.00000
      8      15.8046      0.00000

 k-point    17 :      -0.4444    0.2222    0.0000
  band No.  band energies     occupation 
      1      -2.0623      2.00000
      2       1.7548      2.00000
      3       6.9536      2.00000
      4       9.9384      0.00000
      5      10.6287      0.00000
      6      12.5076      0.00000
      7      13.4027      0.00000
      8      15.8286      0.00000

 k-point    18 :      -0.3333    0.2222   -0.0000
  band No.  band energies     occupation 
      1      -3.3876      2.00000
      2       1.7326      2.00000
      3       6.8264      2.00000
      4       9.7440      0.00001
      5      11.6439      0.00000
      6      14.1979      0.00000
      7      15.1329      0.00000
      8      15.8552      0.00000

 k-point    19 :      -0.2222    0.2222    0.0000
  band No.  band energies     occupation 
      1      -4.0273      2.00000
      2       2.3633      2.00000
      3       6.8446      2.00000
      4       8.5203      1.99997
      5      12.9157      0.00000
      6      13.6781      0.00000
      7      14.6877      0.00000
      8      19.2089      0.00000

 k-point    20 :       0.3333    0.3333    0.0000
  band No.  band energies     occupation 
      1       1.0461      2.00000
      2       1.0648      2.00000
      3       6.2750      2.00000
      4       8.2379      2.00000
      5       8.8077      1.96486
      6      10.9534      0.00000
      7      15.4788      0.00000
      8      16.5151      0.00000

 k-point    21 :       0.4444    0.3333    0.0000
  band No.  band energies     occupation 
      1      -1.0551      2.00000
      2       0.2242      2.00000
      3       7.8642      2.00000
      4       8.9962      1.56084
      5      10.0612      0.00000
      6      13.0374      0.00000
      7      13.3918      0.00000
      8      14.6994      0.00000

 k-point    22 :      -0.4444    0.3333    0.0000
  band No.  band energies     occupation 
      1      -2.5150      2.00000
      2       0.0620      2.00000
      3       7.6397      2.00000
      4      10.0582      0.00000
      5      10.6532      0.00000
      6      12.9713      0.00000
      7      15.1579      0.00000
      8      15.9763      0.00000

 k-point    23 :      -0.3333    0.3333    0.0000
  band No.  band energies     occupation 
      1      -3.2962      2.00000
      2       0.5709      2.00000
      3       7.5252      2.00000
      4       9.3652      0.06645
      5      11.1801      0.00000
      6      13.0791      0.00000
      7      16.4443      0.00000
      8      18.9310      0.00000

 k-point    24 :       0.4444    0.4444   -0.0000
  band No.  band energies     occupation 
      1      -1.3615      2.00000
      2      -1.3605      2.00000
      3       8.7072      1.99516
      4       8.7375      1.99075
      5      11.6212      0.00000
      6      11.8409      0.00000
      7      15.0062      0.00000
      8      15.9077      0.00000

 k-point    25 :      -0.4444    0.4444    0.0000
  band No.  band energies     occupation 
      1      -2.2799      2.00000
      2      -0.9856      2.00000
      3       8.4770      1.99999
      4       9.6969      0.00003
      5      10.3886      0.00000
      6      11.6297      0.00000
      7      18.7935      0.00000
      8      18.8384      0.00000

 k-point    26 :       0.1111    0.1111    0.1111
  band No.  band energies     occupation 
      1      -2.9326      2.00000
      2       3.4086      2.00000
      3       7.7316      2.00000
      4       9.3445      0.09120
      5      11.9149      0.00000
      6      12.0768      0.00000
      7      14.4621      0.00000
      8      15.1188      0.00000

 k-point    27 :       0.2222    0.1111    0.1111
  band No.  band energies     occupation 
      1      -1.2146      2.00000
      2       3.8184      2.00000
      3       7.6161      2.00000
      4       8.2171      2.00000
      5       9.6909      0.00003
      6      12.0438      0.00000
      7      13.8183      0.00000
      8      14.6858      0.00000

 k-point    28 :       0.3333    0.1111    0.1111
  band No.  band energies     occupation 
      1       1.1451      2.00000
      2       4.1287      2.00000
      3       4.9401      2.00000
      4       6.5206      2.00000
      5      10.0010      0.00000
      6      12.3152      0.00000
      7      13.8664      0.00000
      8      14.3444      0.00000

 k-point    29 :      -0.1111    0.1111    0.1111
  band No.  band energies     occupation 
      1      -4.3208      2.00000
      2       3.9970      2.00000
      3       5.3458      2.00000
      4       8.9735      1.64998
      5      12.0580      0.00000
      6      13.3476      0.00000
      7      17.6249      0.00000
      8      18.1088      0.00000

 k-point    30 :       0.2222    0.2222    0.1111
  band No.  band energies     occupation 
      1       1.0078      2.00000
      2       4.6474      2.00000
      3       5.2743      2.00000
      4       5.3671      2.00000
      5      11.1084      0.00000
      6      13.2748      0.00000
      7      13.5265      0.00000
      8      13.6902      0.00000

 k-point    31 :       0.3333    0.2222    0.1111
  band No.  band energies     occupation 
      1       2.1153      2.00000
      2       3.3038      2.00000
      3       4.0358      2.00000
      4       6.2999      2.00000
      5      10.9467      0.00000
      6      12.4297      0.00000
      7      14.2530      0.00000
      8      15.1976      0.00000

 k-point    32 :       0.4444    0.2222    0.1111
  band No.  band energies     occupation 
      1      -0.3533      2.00000
      2       2.1840      2.00000
      3       7.2898      2.00000
      4       8.1920      2.00000
      5      10.1339      0.00000
      6      12.4264      0.00000
      7      12.9390      0.00000
      8      14.9077      0.00000

 k-point    33 :      -0.4444    0.2222    0.1111
  band No.  band energies     occupation 
      1      -2.2058      2.00000
      2       1.6348      2.00000
      3       8.3509      2.00000
      4       9.9764      0.00000
      5      11.2837      0.00000
      6      11.6567      0.00000
      7      13.2533      0.00000
      8      14.2254      0.00000

 k-point    34 :      -0.2222    0.2222    0.1111
  band No.  band energies     occupation 
      1      -3.8812      2.00000
      2       2.4315      2.00000
      3       5.3578      2.00000
      4      10.1499      0.00000
      5      11.4161      0.00000
      6      13.9850      0.00000
      7      16.2611      0.00000
      8      18.9410      0.00000

 k-point    35 :      -0.1111    0.2222    0.1111
  band No.  band energies     occupation 
      1      -3.6803      2.00000
      2       3.3314      2.00000
      3       4.8673      2.00000
      4      10.6376      0.00000
      5      11.5826      0.00000
      6      13.7338      0.00000
      7      14.8589      0.00000
      8      17.5721      0.00000

 k-point    36 :       0.3333    0.3333    0.1111
  band No.  band energies     occupation 
      1       0.7810      2.00000
      2       0.7870      2.00000
      3       7.1742      2.00000
      4       8.1501      2.00000
      5      10.7790      0.00000
      6      11.5127      0.00000
      7      13.5844      0.00000
      8      14.2693      0.00000

 k-point    37 :       0.4444    0.3333    0.1111
  band No.  band energies     occupation 
      1      -1.1954      2.00000
      2       0.0897      2.00000
      3       9.1598      0.70184
      4       9.9643      0.00000
      5      11.1469      0.00000
      6      11.4001      0.00000
      7      12.6326      0.00000
      8      13.1098      0.00000

 k-point    38 :      -0.3333    0.3333    0.1111
  band No.  band energies     occupation 
      1      -3.1521      2.00000
      2       0.6913      2.00000
      3       5.9929      2.00000
      4       9.6746      0.00006
      5      11.0747      0.00000
      6      14.7097      0.00000
      7      16.6380      0.00000
      8      18.5428      0.00000

 k-point    39 :      -0.2222    0.3333    0.1111
  band No.  band energies     occupation 
      1      -3.0980      2.00000
      2       1.9184      2.00000
      3       4.9336      2.00000
      4       9.7435      0.00001
      5      11.7836      0.00000
      6      14.3022      0.00000
      7      15.8790      0.00000
      8      17.2191      0.00000

 k-point    40 :      -0.1111    0.3333    0.1111
  band No.  band energies     occupation 
      1      -2.3534      2.00000
      2       3.3294      2.00000
      3       4.9477      2.00000
      4       9.7992      0.00000
      5      10.4702      0.00000
      6      13.4549      0.00000
      7      14.8176      0.00000
      8      15.4821      0.00000

 k-point    41 :      -0.4444    0.4444    0.1111
  band No.  band energies     occupation 
      1      -2.1387      2.00000
      2      -0.8506      2.00000
      3       6.9458      2.00000
      4       8.1785      2.00000
      5      12.0997      0.00000
      6      13.3114      0.00000
      7      18.2213      0.00000
      8      18.3349      0.00000

 k-point    42 :      -0.3333    0.4444    0.1111
  band No.  band energies     occupation 
      1      -2.2301      2.00000
      2       0.3169      2.00000
      3       5.6863      2.00000
      4       8.1307      2.00000
      5      12.5059      0.00000
      6      14.1055      0.00000
      7      16.0507      0.00000
      8      17.1789      0.00000

 k-point    43 :      -0.2222    0.4444    0.1111
  band No.  band energies     occupation 
      1      -1.6338      2.00000
      2       2.0718      2.00000
      3       5.1110      2.00000
      4       8.5987      1.99966
      5       9.5807      0.00078
      6      14.4368      0.00000
      7      14.9534      0.00000
      8      17.0456      0.00000

 k-point    44 :      -0.1111    0.4444    0.1111
  band No.  band energies     occupation 
      1      -0.3598      2.00000
      2       3.9676      2.00000
      3       5.6211      2.00000
      4       6.1975      2.00000
      5       9.5458      0.00186
      6      12.2851      0.00000
      7      13.6379      0.00000
      8      16.1800      0.00000

 k-point    45 :      -0.4444   -0.4444    0.1111
  band No.  band energies     occupation 
      1      -1.0867      2.00000
      2      -1.0838      2.00000
      3       6.7648      2.00000
      4       6.7735      2.00000
      5      12.7872      0.00000
      6      14.2208      0.00000
      7      15.3749      0.00000
      8      17.1687      0.00000

 k-point    46 :      -0.3333   -0.4444    0.1111
  band No.  band energies     occupation 
      1      -0.6376      2.00000
      2       0.6176      2.00000
      3       5.9806      2.00000
      4       7.1734      2.00000
      5       9.3097      0.14896
      6      14.4351      0.00000
      7      15.7843      0.00000
      8      17.1092      0.00000

 k-point    47 :      -0.2222   -0.4444    0.1111
  band No.  band energies     occupation 
      1       0.4840      2.00000
      2       2.8784      2.00000
      3       5.6751      2.00000
      4       6.0077      2.00000
      5       8.1786      2.00000
      6      12.2391      0.00000
      7      14.9121      0.00000
      8      17.2629      0.00000

 k-point    48 :      -0.1111   -0.4444    0.1111
  band No.  band energies     occupation 
      1       2.1583      2.00000
      2       2.8859      2.00000
      3       5.3653      2.00000
      4       6.8263      2.00000
      5       8.8329      1.94619
      6      11.1134      0.00000
      7      11.7023      0.00000
      8      16.5918      0.00000

 k-point    49 :      -0.3333   -0.3333    0.1111
  band No.  band energies     occupation 
      1       1.5673      2.00000
      2       1.6020      2.00000
      3       5.5972      2.00000
      4       6.8396      2.00000
      5       6.9953      2.00000
      6      12.1550      0.00000
      7      16.4797      0.00000
      8      16.7490      0.00000

 k-point    50 :      -0.2222   -0.3333    0.1111
  band No.  band energies     occupation 
      1       2.3742      2.00000
      2       3.3280      2.00000
      3       4.4304      2.00000
      4       7.2012      2.00000
      5       8.1730      2.00000
      6      10.6660      0.00000
      7      13.0503      0.00000
      8      15.1889      0.00000

 k-point    51 :      -0.1111   -0.3333    0.1111
  band No.  band energies     occupation 
      1       0.0145      2.00000
      2       5.4976      2.00000
      3       7.1238      2.00000
      4       8.0598      2.00000
      5       8.0991      2.00000
      6      10.8957      0.00000
      7      11.2677      0.00000
      8      13.5660      0.00000

 k-point    52 :      -0.2222   -0.2222    0.1111
  band No.  band energies     occupation 
      1      -0.1278      2.00000
      2       6.4449      2.00000
      3       6.4875      2.00000
      4       7.8109      2.00000
      5       8.8444      1.93531
      6      10.5011      0.00000
      7      11.8324      0.00000
      8      12.2008      0.00000

 k-point    53 :      -0.1111   -0.2222    0.1111
  band No.  band energies     occupation 
      1      -2.0824      2.00000
      2       7.2075      2.00000
      3       7.9625      2.00000
      4       8.6518      1.99867
      5       9.7889      0.00000
      6      10.7194      0.00000
      7      12.4098      0.00000
      8      13.0740      0.00000

 k-point    54 :      -0.1111   -0.1111    0.1111
  band No.  band energies     occupation 
      1      -3.5168      2.00000
      2       7.1859      2.00000
      3       7.2211      2.00000
      4       7.2211      2.00000
      5      11.6422      0.00000
      6      12.8821      0.00000
      7      13.2406      0.00000
      8      15.4430      0.00000

 k-point    55 :       0.2222    0.2222    0.2222
  band No.  band energies     occupation 
      1       1.9882      2.00000
      2       3.2228      2.00000
      3       5.0262      2.00000
      4       5.0460      2.00000
      5      12.2849      0.00000
      6      13.4430      0.00000
      7      14.5891      0.00000
      8      14.6222      0.00000

 k-point    56 :      -0.2222    0.2222    0.2222
  band No.  band energies     occupation 
      1      -3.4446      2.00000
      2       2.2779      2.00000
      3       3.9360      2.00000
      4       9.4701      0.00997
      5      12.0889      0.00000
      6      15.1531      0.00000
      7      17.4833      0.00000
      8      18.4804      0.00000

 k-point    57 :      -0.3333    0.3333    0.2222
  band No.  band energies     occupation 
      1      -2.7213      2.00000
      2       1.0087      2.00000
      3       4.0977      2.00000
      4       7.7119      2.00000
      5      13.4065      0.00000
      6      16.6302      0.00000
      7      17.2951      0.00000
      8      18.2880      0.00000

 k-point    58 :      -0.2222    0.3333    0.2222
  band No.  band energies     occupation 
      1      -2.5217      2.00000
      2       1.8918      2.00000
      3       3.6110      2.00000
      4       7.8909      2.00000
      5      12.7619      0.00000
      6      14.9274      0.00000
      7      17.1481      0.00000
      8      18.4361      0.00000

 k-point    59 :      -0.4444    0.4444    0.2222
  band No.  band energies     occupation 
      1      -1.7189      2.00000
      2      -0.4555      2.00000
      3       4.9815      2.00000
      4       6.2056      2.00000
      5      14.4754      0.00000
      6      15.5597      0.00000
      7      17.8374      0.00000
      8      17.9825      0.00000

 k-point    60 :      -0.3333    0.4444    0.2222
  band No.  band energies     occupation 
      1      -1.6656      2.00000
      2       0.7721      2.00000
      3       3.8896      2.00000
      4       6.2609      2.00000
      5      12.6986      0.00000
      6      16.0228      0.00000
      7      18.3366      0.00000
      8      18.5653      0.00000

 k-point    61 :      -0.2222    0.4444    0.2222
  band No.  band energies     occupation 
      1      -0.9266      2.00000
      2       2.1814      2.00000
      3       3.9193      2.00000
      4       6.9243      2.00000
      5       9.0556      1.27632
      6      15.6526      0.00000
      7      17.0644      0.00000
      8      17.2335      0.00000

 k-point    62 :      -0.4444   -0.4444    0.2222
  band No.  band energies     occupation 
      1      -0.5499      2.00000
      2      -0.5447      2.00000
      3       4.9044      2.00000
      4       4.9049      2.00000
      5      12.6288      0.00000
      6      16.8084      0.00000
      7      17.5904      0.00000
      8      18.5772      0.00000

 k-point    63 :      -0.3333   -0.4444    0.2222
  band No.  band energies     occupation 
      1       0.0425      2.00000
      2       1.2130      2.00000
      3       4.3224      2.00000
      4       5.4608      2.00000
      5       8.7940      1.97245
      6      16.0084      0.00000
      7      17.9868      0.00000
      8      18.6392      0.00000

 k-point    64 :      -0.2222   -0.4444    0.2222
  band No.  band energies     occupation 
      1       1.2988      2.00000
      2       3.1152      2.00000
      3       4.8578      2.00000
      4       5.3853      2.00000
      5       6.6754      2.00000
      6      13.5236      0.00000
      7      15.0145      0.00000
      8      17.6884      0.00000

 k-point    65 :      -0.3333   -0.3333    0.2222
  band No.  band energies     occupation 
      1       2.2799      2.00000
      2       2.3408      2.00000
      3       5.1050      2.00000
      4       5.3856      2.00000
      5       5.5715      2.00000
      6      13.8378      0.00000
      7      16.0896      0.00000
      8      16.6637      0.00000

 k-point    66 :      -0.2222   -0.3333    0.2222
  band No.  band energies     occupation 
      1       2.1445      2.00000
      2       4.1517      2.00000
      3       4.8295      2.00000
      4       6.3754      2.00000
      5       7.0167      2.00000
      6      11.9077      0.00000
      7      13.0178      0.00000
      8      14.2381      0.00000

 k-point    67 :      -0.2222   -0.2222    0.2222
  band No.  band energies     occupation 
      1      -0.2706      2.00000
      2       6.9181      2.00000
      3       7.0681      2.00000
      4       8.1134      2.00000
      5       8.1134      2.00000
      6      10.6430      0.00000
      7      11.5949      0.00000
      8      11.5949      0.00000

 k-point    68 :      -0.3333    0.3333    0.3333
  band No.  band energies     occupation 
      1      -2.0102      2.00000
      2       1.1141      2.00000
      3       2.8905      2.00000
      4       5.9454      2.00000
      5      15.1813      0.00000
      6      16.7631      0.00000
      7      18.0806      0.00000
      8      18.9565      0.00000

 k-point    69 :      -0.4444    0.4444    0.3333
  band No.  band energies     occupation 
      1      -1.0353      2.00000
      2       0.1417      2.00000
      3       3.2953      2.00000
      4       4.4486      2.00000
      5      16.0240      0.00000
      6      16.4294      0.00000
      7      18.4856      0.00000
      8      19.2117      0.00000

 k-point    70 :      -0.3333    0.4444    0.3333
  band No.  band energies     occupation 
      1      -0.8375      2.00000
      2       1.0181      2.00000
      3       2.8147      2.00000
      4       4.6372      2.00000
      5      12.4407      0.00000
      6      18.0729      0.00000
      7      19.5817      0.00000
      8      19.9619      0.00000

 k-point    71 :      -0.4444   -0.4444    0.3333
  band No.  band energies     occupation 
      1       0.1892      2.00000
      2       0.1970      2.00000
      3       3.3496      2.00000
      4       3.3512      2.00000
      5      12.3399      0.00000
      6      19.1730      0.00000
      7      19.8179      0.00000
      8      21.2218      0.00000

 k-point    72 :      -0.3333   -0.4444    0.3333
  band No.  band energies     occupation 
      1       0.9246      2.00000
      2       1.6020      2.00000
      3       3.3876      2.00000
      4       4.0544      2.00000
      5       8.5315      1.99995
      6      17.3177      0.00000
      7      18.6875      0.00000
      8      19.2608      0.00000

 k-point    73 :      -0.3333   -0.3333    0.3333
  band No.  band energies     occupation 
      1       2.7800      2.00000
      2       2.8777      2.00000
      3       4.5970      2.00000
      4       4.5970      2.00000
      5       5.1760      2.00000
      6      15.1566      0.00000
      7      15.9510      0.00000
      8      15.9511      0.00000

 k-point    74 :      -0.4444    0.4444    0.4444
  band No.  band energies     occupation 
      1      -0.1496      2.00000
      2       0.5284      2.00000
      3       2.3528      2.00000
      4       3.0231      2.00000
      5      16.2726      0.00000
      6      16.3493      0.00000
      7      20.1109      0.00000
      8      20.7955      0.00000

 k-point    75 :      -0.4444   -0.4444    0.4444
  band No.  band energies     occupation 
      1       0.7200      2.00000
      2       0.7306      2.00000
      3       2.5448      2.00000
      4       2.5448      2.00000
      5      12.2285      0.00000
      6      20.2231      0.00000
      7      20.6729      0.00000
      8      20.9684      0.00000


--------------------------------------------------------------------------------------------------------


 soft charge-density along one line, spin component           1
         0         1         2         3         4         5         6         7         8         9
 total charge-density along one line
 
 pseudopotential strength for first ion, spin component:           1
 18.065  -0.003   0.000  -0.000  -0.000  -0.000   0.000   0.000
 -0.003   0.005  -0.000   0.000   0.000   0.000  -0.000  -0.000
  0.000  -0.000   4.117   0.000   0.000  -0.006  -0.000  -0.000
 -0.000   0.000   0.000   4.118   0.000  -0.000  -0.006  -0.000
 -0.000   0.000   0.000   0.000   4.117  -0.000  -0.000  -0.006
 -0.000   0.000  -0.006  -0.000  -0.000   0.005   0.000   0.000
  0.000  -0.000  -0.000  -0.006  -0.000   0.000   0.005   0.000
  0.000  -0.000  -0.000  -0.000  -0.006   0.000   0.000   0.005
 total augmentation occupancy for first ion, spin component:           1
  1.617  -0.546   0.000   0.000   0.000   0.000   0.000   0.000
 -0.546   0.957  -0.000   0.000   0.000   0.000   0.000  -0.000
 -0.000  -0.000   0.896  -0.000  -0.000  -0.548   0.000   0.000
  0.000   0.000   0.000   0.859   0.000  -0.000  -0.529   0.000
  0.000   0.000  -0.000   0.000   0.896   0.000   0.000  -0.548
  0.000   0.000  -0.548  -0.000   0.000   0.425   0.000  -0.000
  0.000   0.000   0.000  -0.529   0.000   0.000   0.418  -0.000
  0.000  -0.000   0.000   0.000  -0.548  -0.000  -0.000   0.425


------------------------ aborting loop because EDIFF is reached ----------------------------------------


    CHARGE:  cpu time    0.0160: real time    0.0185
    FORLOC:  cpu time    0.0040: real time    0.0005
    FORNL :  cpu time    0.0160: real time    0.0160
    STRESS:  cpu time    0.1680: real time    0.1681
    FORCOR:  cpu time    0.0120: real time    0.0125
    FORHAR:  cpu time    0.0040: real time    0.0036
    MIXING:  cpu time    0.0000: real time    0.0010
    OFIELD:  cpu time    0.0000: real time    0.0005

  FORCE on cell =-STRESS in cart. coord.  units (eV):
  Direction    XX          YY          ZZ          XY          YZ          ZX
  --------------------------------------------------------------------------------------
  Alpha Z     4.40202     4.40202     4.40202
  Ewald     -90.96023   -90.96023   -83.26083    -0.00000     0.00000     0.00000
  Hartree     0.55623     0.55623     1.39065     0.00000     0.00000     0.00000
  E(xc)     -25.43639   -25.43639   -25.38168     0.00005     0.00001     0.00001
  Local     -11.30148   -11.30148   -17.45717    -0.00002    -0.00005    -0.00005
  n-local    77.18565    76.94205    76.66246     0.93200    -0.39452    -0.37809
  augment   -12.09035   -12.09035   -11.96798     0.00004     0.00005     0.00005
  Kinetic    60.37603    54.59546    56.32607     3.58311    -1.96860    -3.79194
  Fock        0.00000     0.00000     0.00000     0.00000     0.00000     0.00000
  -------------------------------------------------------------------------------------
  Total      -0.28059    -0.28059     0.71353    -0.00000     0.00000     0.00000
  in kB     -14.69697   -14.69697    37.37347    -0.00000     0.00000     0.00000
  external pressure =        2.66 kB  Pullay stress =        0.00 kB


 VOLUME and BASIS-vectors are now :
 -----------------------------------------------------------------------------
  energy-cutoff  :      250.00
  volume of cell :       30.59
      direct lattice vectors                 reciprocal lattice vectors
    -2.450000000  2.450000000  1.274000000     0.000000000  0.204081633  0.392464678
     2.450000000 -2.450000000  1.274000000     0.204081633  0.000000000  0.392464678
     2.450000000  2.450000000 -1.274000000     0.204081633  0.204081633 -0.000000000

  length of vectors
     3.691622408  3.691622408  3.691622408     0.442354876  0.442354876  0.288615013


 FORCES acting on ions
    electron-ion (+dipol)            ewald-force                    non-local-force                 convergence-correction
 -----------------------------------------------------------------------------------------------
   0.962E-05 -.962E-05 0.906E-14   0.198E-14 0.156E-15 0.342E-17   0.289E-16 -.856E-16 -.364E-17   -.130E-06 0.130E-06 -.958E-16
   -.962E-05 0.962E-05 -.680E-14   -.185E-14 0.943E-16 0.891E-15   -.203E-16 0.630E-16 0.160E-17   0.130E-06 -.130E-06 0.529E-16
 -----------------------------------------------------------------------------------------------
   -.128E-13 0.136E-13 0.227E-14   0.139E-15 0.250E-15 0.894E-15   0.859E-17 -.226E-16 -.204E-17   -.407E-16 0.138E-15 -.429E-16
 
 
 POSITION                                       TOTAL-FORCE (eV/Angst)
 -----------------------------------------------------------------------------------
      2.45000      0.00000      0.63700         0.000000      0.000000     -0.000000
      0.00000      0.00000      0.00000        -0.000000     -0.000000      0.000000
 -----------------------------------------------------------------------------------
    total drift:                               -0.000000      0.000000      0.000000


--------------------------------------------------------------------------------------------------------



  FREE ENERGIE OF THE ION-ELECTRON SYSTEM (eV)
  ---------------------------------------------------
  free  energy   TOTEN  =       -10.22572789 eV

  energy  without entropy=      -10.21427476  energy(sigma->0) =      -10.22000133
 


--------------------------------------------------------------------------------------------------------


    POTLOK:  cpu time    0.0320: real time    0.0405


--------------------------------------------------------------------------------------------------------




--------------------------------------------------------------------------------------------------------


  
 reached required accuracy - stopping structural energy minimisation
 writing wavefunctions
     LOOP+:  cpu time    4.2720: real time    4.6915
    4ORBIT:  cpu time    0.0000: real time    0.0000

 total amount of memory used by VASP MPI-rank0    32150. kBytes
=======================================================================

   base      :      30000. kBytes
   nonl-proj :       1391. kBytes
   fftplans  :        119. kBytes
   grid      :        270. kBytes
   one-center:          6. kBytes
   wavefun   :        364. kBytes
 
  
  
 General timing and accounting informations for this job:
 ========================================================
  
                  Total CPU time used (sec):        8.376
                            User time (sec):        6.596
                          System time (sec):        1.780
                         Elapsed time (sec):       10.909
  
                   Maximum memory used (kb):        9344.
                   Average memory used (kb):           0.
  
                          Minor page faults:        38036
                          Major page faults:           16
                 Voluntary context switches:        28464
