   2   2   0   0
  0.2001288E+02  0.3839590E-09  0.3839590E-09  0.3839590E-09  0.5000000E-15
  1.000000000000000E-004
  CAR 
 unknown system                          
     17.37275759     -8.08058518  301      6.13188239      1.00000000
     -8.081  0.0000E+00  0.0000E+00
     -7.996  0.0000E+00  0.0000E+00
     -7.911  0.0000E+00  0.0000E+00
     -7.826  0.0000E+00  0.0000E+00
     -7.741  0.0000E+00  0.0000E+00
     -7.656  0.0000E+00  0.0000E+00
     -7.572  0.0000E+00  0.0000E+00
     -7.487  0.0000E+00  0.0000E+00
     -7.402  0.0000E+00  0.0000E+00
     -7.317  0.0000E+00  0.0000E+00
     -7.232  0.1022E-17  0.8674E-19
     -7.147  0.1401E-15  0.1197E-16
     -7.062  0.1168E-13  0.1003E-14
     -6.978  0.6828E-12  0.5893E-13
     -6.893  0.2804E-10  0.2438E-11
     -6.808  0.8104E-09  0.7120E-10
     -6.723  0.1651E-07  0.1472E-08
     -6.638  0.2380E-06  0.2167E-07
     -6.553  0.2440E-05  0.2287E-06
     -6.469  0.1793E-04  0.1750E-05
     -6.384  0.9569E-04  0.9869E-05
     -6.299  0.3774E-03  0.4189E-04
     -6.214  0.1127E-02  0.1375E-03
     -6.129  0.2617E-02  0.3595E-03
     -6.044  0.4868E-02  0.7725E-03
     -5.959  0.7490E-02  0.1408E-02
     -5.875  0.9959E-02  0.2253E-02
     -5.790  0.1213E-01  0.3282E-02
     -5.705  0.1422E-01  0.4489E-02
     -5.620  0.1624E-01  0.5866E-02
     -5.535  0.1767E-01  0.7365E-02
     -5.450  0.1837E-01  0.8924E-02
     -5.366  0.1933E-01  0.1056E-01
     -5.281  0.2149E-01  0.1239E-01
     -5.196  0.2407E-01  0.1443E-01
     -5.111  0.2530E-01  0.1658E-01
     -5.026  0.2501E-01  0.1870E-01
     -4.941  0.2501E-01  0.2082E-01
     -4.856  0.2650E-01  0.2307E-01
     -4.772  0.2874E-01  0.2551E-01
     -4.687  0.3085E-01  0.2813E-01
     -4.602  0.3287E-01  0.3091E-01
     -4.517  0.3473E-01  0.3386E-01
     -4.432  0.3563E-01  0.3688E-01
     -4.347  0.3513E-01  0.3986E-01
     -4.263  0.3414E-01  0.4276E-01
     -4.178  0.3512E-01  0.4574E-01
     -4.093  0.3999E-01  0.4913E-01
     -4.008  0.4702E-01  0.5312E-01
     -3.923  0.5206E-01  0.5754E-01
     -3.838  0.5345E-01  0.6208E-01
     -3.754  0.5325E-01  0.6659E-01
     -3.669  0.5351E-01  0.7113E-01
     -3.584  0.5375E-01  0.7569E-01
     -3.499  0.5204E-01  0.8011E-01
     -3.414  0.4819E-01  0.8420E-01
     -3.329  0.4566E-01  0.8807E-01
     -3.244  0.4801E-01  0.9215E-01
     -3.160  0.5338E-01  0.9667E-01
     -3.075  0.5559E-01  0.1014E+00
     -2.990  0.5087E-01  0.1057E+00
     -2.905  0.4132E-01  0.1092E+00
     -2.820  0.3189E-01  0.1119E+00
     -2.735  0.2587E-01  0.1141E+00
     -2.651  0.2422E-01  0.1162E+00
     -2.566  0.2695E-01  0.1185E+00
     -2.481  0.3271E-01  0.1212E+00
     -2.396  0.3775E-01  0.1244E+00
     -2.311  0.3764E-01  0.1276E+00
     -2.226  0.3092E-01  0.1302E+00
     -2.141  0.2034E-01  0.1320E+00
     -2.057  0.1045E-01  0.1329E+00
     -1.972  0.4101E-02  0.1332E+00
     -1.887  0.1336E-02  0.1333E+00
     -1.802  0.1120E-02  0.1334E+00
     -1.717  0.3646E-02  0.1337E+00
     -1.632  0.1073E-01  0.1346E+00
     -1.548  0.2292E-01  0.1366E+00
     -1.463  0.3563E-01  0.1396E+00
     -1.378  0.4149E-01  0.1431E+00
     -1.293  0.3908E-01  0.1464E+00
     -1.208  0.3584E-01  0.1495E+00
     -1.123  0.3983E-01  0.1529E+00
     -1.038  0.5165E-01  0.1572E+00
     -0.954  0.6523E-01  0.1628E+00
     -0.869  0.7450E-01  0.1691E+00
     -0.784  0.7762E-01  0.1757E+00
     -0.699  0.7482E-01  0.1820E+00
     -0.614  0.6626E-01  0.1877E+00
     -0.529  0.5511E-01  0.1923E+00
     -0.445  0.4775E-01  0.1964E+00
     -0.360  0.4642E-01  0.2003E+00
     -0.275  0.4522E-01  0.2042E+00
     -0.190  0.3787E-01  0.2074E+00
     -0.105  0.2694E-01  0.2097E+00
     -0.020  0.2079E-01  0.2114E+00
      0.064  0.2346E-01  0.2134E+00
      0.149  0.3132E-01  0.2161E+00
      0.234  0.3742E-01  0.2192E+00
      0.319  0.3694E-01  0.2224E+00
      0.404  0.3029E-01  0.2249E+00
      0.489  0.2204E-01  0.2268E+00
      0.574  0.1698E-01  0.2283E+00
      0.658  0.1754E-01  0.2297E+00
      0.743  0.2272E-01  0.2317E+00
      0.828  0.2758E-01  0.2340E+00
      0.913  0.2650E-01  0.2363E+00
      0.998  0.1927E-01  0.2379E+00
      1.083  0.1153E-01  0.2389E+00
      1.167  0.8574E-02  0.2396E+00
      1.252  0.1150E-01  0.2406E+00
      1.337  0.1928E-01  0.2422E+00
      1.422  0.3137E-01  0.2449E+00
      1.507  0.4592E-01  0.2488E+00
      1.592  0.5765E-01  0.2537E+00
      1.677  0.6247E-01  0.2590E+00
      1.761  0.6304E-01  0.2643E+00
      1.846  0.6477E-01  0.2698E+00
      1.931  0.6836E-01  0.2756E+00
      2.016  0.7090E-01  0.2816E+00
      2.101  0.7179E-01  0.2877E+00
      2.186  0.7262E-01  0.2939E+00
      2.270  0.7336E-01  0.3001E+00
      2.355  0.7245E-01  0.3062E+00
      2.440  0.6968E-01  0.3122E+00
      2.525  0.6701E-01  0.3178E+00
      2.610  0.6715E-01  0.3235E+00
      2.695  0.7191E-01  0.3296E+00
      2.780  0.8142E-01  0.3366E+00
      2.864  0.9233E-01  0.3444E+00
      2.949  0.9833E-01  0.3527E+00
      3.034  0.9673E-01  0.3609E+00
      3.119  0.9301E-01  0.3688E+00
      3.204  0.9349E-01  0.3768E+00
      3.289  0.9637E-01  0.3849E+00
      3.373  0.9513E-01  0.3930E+00
      3.458  0.8905E-01  0.4006E+00
      3.543  0.8560E-01  0.4078E+00
      3.628  0.9135E-01  0.4156E+00
      3.713  0.1016E+00  0.4242E+00
      3.798  0.1040E+00  0.4330E+00
      3.882  0.9315E-01  0.4409E+00
      3.967  0.7700E-01  0.4475E+00
      4.052  0.6809E-01  0.4532E+00
      4.137  0.7185E-01  0.4593E+00
      4.222  0.8274E-01  0.4664E+00
      4.307  0.9018E-01  0.4740E+00
      4.392  0.8787E-01  0.4815E+00
      4.476  0.7782E-01  0.4881E+00
      4.561  0.6664E-01  0.4937E+00
      4.646  0.5980E-01  0.4988E+00
      4.731  0.5842E-01  0.5037E+00
      4.816  0.5813E-01  0.5087E+00
      4.901  0.5261E-01  0.5131E+00
      4.985  0.4129E-01  0.5166E+00
      5.070  0.3062E-01  0.5192E+00
      5.155  0.2630E-01  0.5215E+00
      5.240  0.2719E-01  0.5238E+00
      5.325  0.2764E-01  0.5261E+00
      5.410  0.2417E-01  0.5282E+00
      5.495  0.1841E-01  0.5297E+00
      5.579  0.1358E-01  0.5309E+00
      5.664  0.1053E-01  0.5318E+00
      5.749  0.8096E-02  0.5325E+00
      5.834  0.5466E-02  0.5329E+00
      5.919  0.2969E-02  0.5332E+00
      6.004  0.1237E-02  0.5333E+00
      6.088  0.3959E-03  0.5333E+00
      6.173  0.1785E-03  0.5333E+00
      6.258  0.4793E-03  0.5334E+00
      6.343  0.1683E-02  0.5335E+00
      6.428  0.4368E-02  0.5339E+00
      6.513  0.8316E-02  0.5346E+00
      6.598  0.1208E-01  0.5356E+00
      6.682  0.1463E-01  0.5369E+00
      6.767  0.1712E-01  0.5383E+00
      6.852  0.2172E-01  0.5402E+00
      6.937  0.2820E-01  0.5426E+00
      7.022  0.3348E-01  0.5454E+00
      7.107  0.3581E-01  0.5484E+00
      7.191  0.3778E-01  0.5516E+00
      7.276  0.4203E-01  0.5552E+00
      7.361  0.4642E-01  0.5591E+00
      7.446  0.4766E-01  0.5632E+00
      7.531  0.4722E-01  0.5672E+00
      7.616  0.4959E-01  0.5714E+00
      7.700  0.5711E-01  0.5762E+00
      7.785  0.6873E-01  0.5821E+00
      7.870  0.8239E-01  0.5891E+00
      7.955  0.9579E-01  0.5972E+00
      8.040  0.1050E+00  0.6061E+00
      8.125  0.1060E+00  0.6151E+00
      8.210  0.9997E-01  0.6236E+00
      8.294  0.9243E-01  0.6314E+00
      8.379  0.8833E-01  0.6389E+00
      8.464  0.8799E-01  0.6464E+00
      8.549  0.8733E-01  0.6538E+00
      8.634  0.8220E-01  0.6608E+00
      8.719  0.7437E-01  0.6671E+00
      8.803  0.7036E-01  0.6730E+00
      8.888  0.7505E-01  0.6794E+00
      8.973  0.9015E-01  0.6871E+00
      9.058  0.1132E+00  0.6967E+00
      9.143  0.1340E+00  0.7080E+00
      9.228  0.1395E+00  0.7199E+00
      9.313  0.1276E+00  0.7307E+00
      9.397  0.1093E+00  0.7400E+00
      9.482  0.9788E-01  0.7483E+00
      9.567  0.9763E-01  0.7566E+00
      9.652  0.1028E+00  0.7653E+00
      9.737  0.1052E+00  0.7742E+00
      9.822  0.1013E+00  0.7828E+00
      9.906  0.9369E-01  0.7908E+00
      9.991  0.8815E-01  0.7982E+00
     10.076  0.8633E-01  0.8056E+00
     10.161  0.8475E-01  0.8128E+00
     10.246  0.8125E-01  0.8197E+00
     10.331  0.7773E-01  0.8262E+00
     10.416  0.7665E-01  0.8328E+00
     10.500  0.7875E-01  0.8394E+00
     10.585  0.8324E-01  0.8465E+00
     10.670  0.8885E-01  0.8540E+00
     10.755  0.9453E-01  0.8621E+00
     10.840  0.9813E-01  0.8704E+00
     10.925  0.9579E-01  0.8785E+00
     11.009  0.8590E-01  0.8858E+00
     11.094  0.7228E-01  0.8919E+00
     11.179  0.6101E-01  0.8971E+00
     11.264  0.5514E-01  0.9018E+00
     11.349  0.5419E-01  0.9064E+00
     11.434  0.5818E-01  0.9113E+00
     11.518  0.6827E-01  0.9171E+00
     11.603  0.8261E-01  0.9241E+00
     11.688  0.9549E-01  0.9322E+00
     11.773  0.1015E+00  0.9408E+00
     11.858  0.9785E-01  0.9491E+00
     11.943  0.8466E-01  0.9563E+00
     12.028  0.6593E-01  0.9619E+00
     12.112  0.4994E-01  0.9661E+00
     12.197  0.4357E-01  0.9698E+00
     12.282  0.4606E-01  0.9737E+00
     12.367  0.4970E-01  0.9780E+00
     12.452  0.4755E-01  0.9820E+00
     12.537  0.4062E-01  0.9854E+00
     12.621  0.3681E-01  0.9886E+00
     12.706  0.4337E-01  0.9922E+00
     12.791  0.6024E-01  0.9974E+00
     12.876  0.7884E-01  0.1004E+01
     12.961  0.8742E-01  0.1011E+01
     13.046  0.7973E-01  0.1018E+01
     13.131  0.5968E-01  0.1023E+01
     13.215  0.3817E-01  0.1027E+01
     13.300  0.2528E-01  0.1029E+01
     13.385  0.2358E-01  0.1031E+01
     13.470  0.2784E-01  0.1033E+01
     13.555  0.3118E-01  0.1036E+01
     13.640  0.3112E-01  0.1038E+01
     13.724  0.2925E-01  0.1041E+01
     13.809  0.2758E-01  0.1043E+01
     13.894  0.2714E-01  0.1045E+01
     13.979  0.2873E-01  0.1048E+01
     14.064  0.3248E-01  0.1051E+01
     14.149  0.3574E-01  0.1054E+01
     14.234  0.3371E-01  0.1057E+01
     14.318  0.2484E-01  0.1059E+01
     14.403  0.1361E-01  0.1060E+01
     14.488  0.5409E-02  0.1060E+01
     14.573  0.1587E-02  0.1060E+01
     14.658  0.5929E-03  0.1060E+01
     14.743  0.1160E-02  0.1061E+01
     14.827  0.3116E-02  0.1061E+01
     14.912  0.6156E-02  0.1061E+01
     14.997  0.8773E-02  0.1062E+01
     15.082  0.9484E-02  0.1063E+01
     15.167  0.8907E-02  0.1064E+01
     15.252  0.8761E-02  0.1064E+01
     15.336  0.9009E-02  0.1065E+01
     15.421  0.8095E-02  0.1066E+01
     15.506  0.5618E-02  0.1066E+01
     15.591  0.2876E-02  0.1067E+01
     15.676  0.1069E-02  0.1067E+01
     15.761  0.2865E-03  0.1067E+01
     15.846  0.5505E-04  0.1067E+01
     15.930  0.7549E-05  0.1067E+01
     16.015  0.7359E-06  0.1067E+01
     16.100  0.5084E-07  0.1067E+01
     16.185  0.2483E-08  0.1067E+01
     16.270  0.8551E-10  0.1067E+01
     16.355  0.2074E-11  0.1067E+01
     16.439  0.3535E-13  0.1067E+01
     16.524  0.4232E-15  0.1067E+01
     16.609  0.4089E-17  0.1067E+01
     16.694  0.0000E+00  0.1067E+01
     16.779  0.0000E+00  0.1067E+01
     16.864  0.0000E+00  0.1067E+01
     16.949  0.0000E+00  0.1067E+01
     17.033  0.0000E+00  0.1067E+01
     17.118  0.0000E+00  0.1067E+01
     17.203  0.0000E+00  0.1067E+01
     17.288  0.0000E+00  0.1067E+01
     17.373  0.0000E+00  0.1067E+01
