    2    2   15    1
  0.2001288E+02  0.3839590E-09  0.3839590E-09  0.3839590E-09  0.5000000E-15
  1.000000000000000E-004
  CAR 
 unknown system                          
      8     60      8
 
  0.6250000E-01  0.6250000E-01  0.6250000E-01  0.3906250E-02
    1       -6.080585   1.000000
    2        5.299525   1.000000
    3        5.744618   0.996913
    4        5.744618   0.996913
    5        8.460521   0.000000
    6        8.520943   0.000000
    7        8.520943   0.000000
    8        9.583687   0.000000
 
  0.1875000E+00  0.6250000E-01  0.6250000E-01  0.1171875E-01
    1       -5.809257   1.000000
    2        3.791409   1.000000
    3        4.925802   1.000000
    4        5.627756   0.999818
    5        8.543739   0.000000
    6        8.767071   0.000000
    7        9.073992   0.000000
    8       11.006097   0.000000
 
  0.3125000E+00  0.6250000E-01  0.6250000E-01  0.1171875E-01
    1       -5.153930   1.000000
    2        1.543379   1.000000
    3        4.436336   1.000000
    4        5.161172   1.000000
    5        8.105456   0.000000
    6        9.254704   0.000000
    7        9.544079   0.000000
    8       12.475733   0.000000
 
  0.4375000E+00  0.6250000E-01  0.6250000E-01  0.1171875E-01
    1       -4.237104   1.000000
    2       -0.367129   1.000000
    3        4.220983   1.000000
    4        4.750011   1.000000
    5        7.791172   0.000000
    6        9.300867   0.000000
    7        9.313890   0.000000
    8       13.674666   0.000000
 
 -0.4375000E+00  0.6250000E-01  0.6250000E-01  0.1171875E-01
    1       -3.778468   1.000000
    2       -1.080327   1.000000
    3        4.273563   1.000000
    4        4.528396   1.000000
    5        7.709956   0.000000
    6        9.100841   0.000000
    7        9.375212   0.000000
    8       13.725535   0.000000
 
 -0.3125000E+00  0.6250000E-01  0.6250000E-01  0.1171875E-01
    1       -4.551703   1.000000
    2        0.198769   1.000000
    3        4.547084   1.000000
    4        4.563770   1.000000
    5        7.873907   0.000000
    6        9.117986   0.000000
    7        9.645411   0.000000
    8       12.784870   0.000000
 
 -0.1875000E+00  0.6250000E-01  0.6250000E-01  0.1171875E-01
    1       -5.410978   1.000000
    2        2.281033   1.000000
    3        4.823988   1.000000
    4        5.032231   1.000000
    5        8.219374   0.000000
    6        9.008219   0.000000
    7        9.722899   0.000000
    8       11.612957   0.000000
 
 -0.6250000E-01  0.6250000E-01  0.6250000E-01  0.1171875E-01
    1       -5.944234   1.000000
    2        4.550631   1.000000
    3        5.310552   1.000000
    4        5.478094   0.999998
    5        8.231744   0.000000
    6        8.849869   0.000000
    7        9.110407   0.000000
    8       10.291482   0.000000
 
  0.1875000E+00  0.1875000E+00  0.6250000E-01  0.1171875E-01
    1       -5.672767   1.000000
    2        3.660316   1.000000
    3        4.744842   1.000000
    4        4.837044   1.000000
    5        7.802545   0.000000
    6        9.629412   0.000000
    7        9.980185   0.000000
    8       10.524613   0.000000
 
  0.3125000E+00  0.1875000E+00  0.6250000E-01  0.2343750E-01
    1       -5.141670   1.000000
    2        2.147313   1.000000
    3        3.763230   1.000000
    4        4.574241   1.000000
    5        7.973350   0.000000
    6        9.747404   0.000000
    7       10.269133   0.000000
    8       10.782157   0.000000
 
  0.4375000E+00  0.1875000E+00  0.6250000E-01  0.2343750E-01
    1       -4.284475   1.000000
    2        0.261765   1.000000
    3        3.270753   1.000000
    4        4.155449   1.000000
    5        8.174514   0.000000
    6        9.630580   0.000000
    7       10.811573   0.000000
    8       11.043913   0.000000
 
 -0.4375000E+00  0.1875000E+00  0.6250000E-01  0.2343750E-01
    1       -3.507010   1.000000
    2       -0.969571   1.000000
    3        2.981019   1.000000
    4        4.060120   1.000000
    5        8.255560   0.000000
    6        9.298269   0.000000
    7       10.642759   0.000000
    8       13.107176   0.000000
 
 -0.3125000E+00  0.1875000E+00  0.6250000E-01  0.2343750E-01
    1       -3.975167   1.000000
    2       -0.266128   1.000000
    3        2.902863   1.000000
    4        4.350481   1.000000
    5        8.558636   0.000000
    6        9.193780   0.000000
    7       10.592436   0.000000
    8       12.342178   0.000000
 
 -0.1875000E+00  0.1875000E+00  0.6250000E-01  0.2343750E-01
    1       -4.890221   1.000000
    2        1.488423   1.000000
    3        3.199278   1.000000
    4        4.866951   1.000000
    5        8.866488   0.000000
    6        9.166022   0.000000
    7       10.474537   0.000000
    8       10.923604   0.000000
 
 -0.6250000E-01  0.1875000E+00  0.6250000E-01  0.2343750E-01
    1       -5.540718   1.000000
    2        2.973057   1.000000
    3        4.341114   1.000000
    4        5.246277   1.000000
    5        8.381706   0.000000
    6        9.104761   0.000000
    7        9.788071   0.000000
    8       11.036337   0.000000
 
  0.3125000E+00  0.3125000E+00  0.6250000E-01  0.1171875E-01
    1       -4.736387   1.000000
    2        1.652814   1.000000
    3        3.619785   1.000000
    4        3.743458   1.000000
    5        6.976722   0.000000
    6        8.636780   0.000000
    7       11.873026   0.000000
    8       12.006127   0.000000
 
  0.4375000E+00  0.3125000E+00  0.6250000E-01  0.2343750E-01
    1       -3.974628   1.000000
    2        0.403140   1.000000
    3        2.819536   1.000000
    4        3.390528   1.000000
    5        7.291664   0.000000
    6        8.475269   0.000000
    7       11.830543   0.000000
    8       13.011297   0.000000
 
 -0.4375000E+00  0.3125000E+00  0.6250000E-01  0.2343750E-01
    1       -3.060971   1.000000
    2       -0.814266   1.000000
    3        1.966496   1.000000
    4        3.359002   1.000000
    5        7.524937   0.000000
    6       10.155664   0.000000
    7       11.399975   0.000000
    8       12.926349   0.000000
 
 -0.3125000E+00  0.3125000E+00  0.6250000E-01  0.2343750E-01
    1       -3.131998   1.000000
    2       -0.720026   1.000000
    3        1.605480   1.000000
    4        3.709195   1.000000
    5        7.937265   0.000000
    6       10.911700   0.000000
    7       12.248740   0.000000
    8       12.490859   0.000000
 
 -0.1875000E+00  0.3125000E+00  0.6250000E-01  0.2343750E-01
    1       -4.043360   1.000000
    2        0.238317   1.000000
    3        2.222876   1.000000
    4        4.304663   1.000000
    5        8.594189   0.000000
    6        9.798893   0.000000
    7       11.262763   0.000000
    8       11.506364   0.000000
 
 -0.6250000E-01  0.3125000E+00  0.6250000E-01  0.2343750E-01
    1       -4.775086   1.000000
    2        0.865838   1.000000
    3        3.888166   1.000000
    4        4.767276   1.000000
    5        8.347622   0.000000
    6        9.161382   0.000000
    7       10.019990   0.000000
    8       11.707011   0.000000
 
  0.4375000E+00  0.4375000E+00  0.6250000E-01  0.1171875E-01
    1       -3.313455   1.000000
    2       -0.467333   1.000000
    3        2.920852   1.000000
    4        3.143994   1.000000
    5        6.569568   0.000984
    6        7.277175   0.000000
    7       14.189309   0.000000
    8       14.197457   0.000000
 
 -0.4375000E+00  0.4375000E+00  0.6250000E-01  0.2343750E-01
    1       -2.390275   1.000000
    2       -1.467886   1.000000
    3        2.350040   1.000000
    4        2.894195   1.000000
    5        7.002873   0.000000
    6        7.742200   0.000000
    7       13.930369   0.000000
    8       14.991033   0.000000
 
 -0.3125000E+00  0.4375000E+00  0.6250000E-01  0.2343750E-01
    1       -2.482774   1.000000
    2       -1.304124   1.000000
    3        1.604921   1.000000
    4        3.213793   1.000000
    5        7.374014   0.000000
    6       10.002174   0.000000
    7       12.385810   0.000000
    8       13.556880   0.000000
 
 -0.1875000E+00  0.4375000E+00  0.6250000E-01  0.2343750E-01
    1       -3.248260   1.000000
    2       -0.913342   1.000000
    3        2.182233   1.000000
    4        3.824439   1.000000
    5        8.063510   0.000000
    6       10.055918   0.000000
    7       11.617410   0.000000
    8       12.858607   0.000000
 
 -0.6250000E-01  0.4375000E+00  0.6250000E-01  0.2343750E-01
    1       -3.866676   1.000000
    2       -0.774902   1.000000
    3        3.716515   1.000000
    4        4.425344   1.000000
    5        8.155919   0.000000
    6        9.032083   0.000000
    7        9.829990   0.000000
    8       13.421685   0.000000
 
 -0.4375000E+00 -0.4375000E+00  0.6250000E-01  0.1171875E-01
    1       -2.443834   1.000000
    2       -1.486781   1.000000
    3        2.781316   1.000000
    4        3.021591   1.000000
    5        6.560014   0.001234
    6        6.923456   0.000000
    7       15.286579   0.000000
    8       15.372758   0.000000
 
 -0.3125000E+00 -0.4375000E+00  0.6250000E-01  0.2343750E-01
    1       -3.225789   1.000000
    2       -0.531280   1.000000
    3        2.510886   1.000000
    4        3.055507   1.000000
    5        7.095582   0.000000
    6        7.992111   0.000000
    7       12.850622   0.000000
    8       14.191175   0.000000
 
 -0.1875000E+00 -0.4375000E+00  0.6250000E-01  0.2343750E-01
    1       -3.700527   1.000000
    2       -0.285903   1.000000
    3        2.583783   1.000000
    4        3.663796   1.000000
    5        7.810273   0.000000
    6       10.337222   0.000000
    7       10.621586   0.000000
    8       11.832621   0.000000
 
 -0.3125000E+00 -0.3125000E+00  0.6250000E-01  0.1171875E-01
    1       -4.081706   1.000000
    2        0.589871   1.000000
    3        3.200280   1.000000
    4        3.386460   1.000000
    5        6.706874   0.000024
    6        7.858468   0.000000
    7       13.018319   0.000000
    8       13.082234   0.000000
 
 -0.1875000E+00 -0.3125000E+00  0.6250000E-01  0.2343750E-01
    1       -4.617106   1.000000
    2        1.298041   1.000000
    3        3.247238   1.000000
    4        3.909702   1.000000
    5        7.590965   0.000000
    6        9.165492   0.000000
    7       10.877170   0.000000
    8       11.865657   0.000000
 
 -0.1875000E+00 -0.1875000E+00  0.6250000E-01  0.1171875E-01
    1       -5.268775   1.000000
    2        2.686841   1.000000
    3        4.175264   1.000000
    4        4.203886   1.000000
    5        7.356480   0.000000
    6        9.538317   0.000000
    7       10.801284   0.000000
    8       10.965752   0.000000
 
  0.1875000E+00  0.1875000E+00  0.1875000E+00  0.3906250E-02
    1       -5.675910   1.000000
    2        3.056959   1.000000
    3        5.298253   1.000000
    4        5.298253   1.000000
    5        8.103335   0.000000
    6        9.144084   0.000000
    7        9.144084   0.000000
    8       11.664578   0.000000
 
  0.3125000E+00  0.1875000E+00  0.1875000E+00  0.1171875E-01
    1       -5.278513   1.000000
    2        2.219755   1.000000
    3        3.760160   1.000000
    4        5.320904   1.000000
    5        8.757780   0.000000
    6        9.265800   0.000000
    7        9.565007   0.000000
    8       11.627969   0.000000
 
  0.4375000E+00  0.1875000E+00  0.1875000E+00  0.1171875E-01
    1       -4.520529   1.000000
    2        0.842062   1.000000
    3        2.662849   1.000000
    4        4.808020   1.000000
    5        8.568033   0.000000
    6       10.027895   0.000000
    7       10.242643   0.000000
    8       11.913433   0.000000
 
 -0.4375000E+00  0.1875000E+00  0.1875000E+00  0.1171875E-01
    1       -3.609223   1.000000
    2       -0.674589   1.000000
    3        2.517608   1.000000
    4        4.268095   1.000000
    5        8.042174   0.000000
    6       10.229705   0.000000
    7       10.403429   0.000000
    8       13.772098   0.000000
 
 -0.3125000E+00  0.1875000E+00  0.1875000E+00  0.1171875E-01
    1       -3.593762   1.000000
    2       -0.702846   1.000000
    3        2.824370   1.000000
    4        3.944236   1.000000
    5        7.750163   0.000000
    6       10.311379   0.000000
    7       10.750982   0.000000
    8       11.767115   0.000000
 
 -0.1875000E+00  0.1875000E+00  0.1875000E+00  0.1171875E-01
    1       -4.503955   1.000000
    2        0.838053   1.000000
    3        3.443937   1.000000
    4        3.918043   1.000000
    5        7.679766   0.000000
    6        9.900253   0.000000
    7       10.587546   0.000000
    8       11.142601   0.000000
 
  0.3125000E+00  0.3125000E+00  0.1875000E+00  0.1171875E-01
    1       -5.018164   1.000000
    2        1.543781   1.000000
    3        4.287601   1.000000
    4        4.342062   1.000000
    5        8.094735   0.000000
    6        9.529169   0.000000
    7       10.396224   0.000000
    8       10.731669   0.000000
 
  0.4375000E+00  0.3125000E+00  0.1875000E+00  0.2343750E-01
    1       -4.382843   1.000000
    2        0.781015   1.000000
    3        2.720379   1.000000
    4        4.145004   1.000000
    5        8.580878   0.000000
    6        9.664748   0.000000
    7       10.106961   0.000000
    8       11.679428   0.000000
 
 -0.4375000E+00  0.3125000E+00  0.1875000E+00  0.2343750E-01
    1       -3.476910   1.000000
    2       -0.328872   1.000000
    3        1.915551   1.000000
    4        3.563955   1.000000
    5        9.035537   0.000000
    6        9.528759   0.000000
    7       10.825998   0.000000
    8       12.780939   0.000000
 
 -0.3125000E+00  0.3125000E+00  0.1875000E+00  0.2343750E-01
    1       -2.978916   1.000000
    2       -0.956100   1.000000
    3        1.923975   1.000000
    4        3.244151   1.000000
    5        8.553680   0.000000
    6        9.861815   0.000000
    7       11.612423   0.000000
    8       12.955020   0.000000
 
 -0.1875000E+00  0.3125000E+00  0.1875000E+00  0.2343750E-01
    1       -3.767604   1.000000
    2        0.070677   1.000000
    3        2.349322   1.000000
    4        3.427459   1.000000
    5        8.283866   0.000000
    6        9.493387   0.000000
    7       10.427669   0.000000
    8       12.920468   0.000000
 
  0.4375000E+00  0.4375000E+00  0.1875000E+00  0.1171875E-01
    1       -3.878954   1.000000
    2        0.123973   1.000000
    3        2.692618   1.000000
    4        3.583223   1.000000
    5        7.285373   0.000000
    6        9.333574   0.000000
    7       11.700132   0.000000
    8       11.970700   0.000000
 
 -0.4375000E+00  0.4375000E+00  0.1875000E+00  0.2343750E-01
    1       -3.062794   1.000000
    2       -0.673654   1.000000
    3        2.098504   1.000000
    4        2.879474   1.000000
    5        8.071962   0.000000
    6        9.089425   0.000000
    7       11.320138   0.000000
    8       14.175441   0.000000
 
 -0.3125000E+00  0.4375000E+00  0.1875000E+00  0.2343750E-01
    1       -2.240024   1.000000
    2       -1.435871   1.000000
    3        1.769676   1.000000
    4        2.366605   1.000000
    5        9.201754   0.000000
    6       10.124347   0.000000
    7       10.877921   0.000000
    8       11.876721   0.000000
 
 -0.1875000E+00  0.4375000E+00  0.1875000E+00  0.2343750E-01
    1       -2.852211   1.000000
    2       -0.885556   1.000000
    3        1.765843   1.000000
    4        2.851807   1.000000
    5        9.297085   0.000000
    6        9.739093   0.000000
    7       10.538704   0.000000
    8       13.043090   0.000000
 
 -0.4375000E+00 -0.4375000E+00  0.1875000E+00  0.1171875E-01
    1       -2.408190   1.000000
    2       -1.418766   1.000000
    3        1.877331   1.000000
    4        3.236802   1.000000
    5        6.839918   0.000000
    6        8.772145   0.000000
    7       13.832985   0.000000
    8       14.078472   0.000000
 
 -0.3125000E+00 -0.4375000E+00  0.1875000E+00  0.2343750E-01
    1       -2.306586   1.000000
    2       -1.445972   1.000000
    3        1.972918   1.000000
    4        2.589149   1.000000
    5        7.962556   0.000000
    6        8.888161   0.000000
    7       12.328626   0.000000
    8       13.452572   0.000000
 
 -0.3125000E+00 -0.3125000E+00  0.1875000E+00  0.1171875E-01
    1       -3.162084   1.000000
    2       -0.638430   1.000000
    3        2.151712   1.000000
    4        3.353422   1.000000
    5        6.993487   0.000000
    6        8.956713   0.000000
    7       12.875670   0.000000
    8       12.886784   0.000000
 
  0.3125000E+00  0.3125000E+00  0.3125000E+00  0.3906250E-02
    1       -4.908632   1.000000
    2        0.829143   1.000000
    3        4.881636   1.000000
    4        4.881636   1.000000
    5        7.654209   0.000000
    6        9.359577   0.000000
    7        9.359577   0.000000
    8       13.582252   0.000000
 
  0.4375000E+00  0.3125000E+00  0.3125000E+00  0.1171875E-01
    1       -4.421497   1.000000
    2        0.250260   1.000000
    3        3.397950   1.000000
    4        4.794102   1.000000
    5        8.356188   0.000000
    6        9.589486   0.000000
    7        9.631532   0.000000
    8       12.921801   0.000000
 
 -0.4375000E+00  0.3125000E+00  0.3125000E+00  0.1171875E-01
    1       -3.616384   1.000000
    2       -0.268862   1.000000
    3        1.834630   1.000000
    4        4.202488   1.000000
    5        7.955617   0.000000
    6       11.059353   0.000000
    7       11.245362   0.000000
    8       12.698579   0.000000
 
 -0.3125000E+00  0.3125000E+00  0.3125000E+00  0.1171875E-01
    1       -2.779842   1.000000
    2       -1.054218   1.000000
    3        1.484922   1.000000
    4        3.646946   1.000000
    5        7.318317   0.000000
    6       11.240731   0.000000
    7       12.345816   0.000000
    8       12.674717   0.000000
 
  0.4375000E+00  0.4375000E+00  0.3125000E+00  0.1171875E-01
    1       -4.101259   1.000000
    2       -0.316961   1.000000
    3        3.745650   1.000000
    4        4.219729   1.000000
    5        8.032987   0.000000
    6        9.392560   0.000000
    7       10.114783   0.000000
    8       12.183945   0.000000
 
 -0.4375000E+00  0.4375000E+00  0.3125000E+00  0.2343750E-01
    1       -3.470759   1.000000
    2       -0.669777   1.000000
    3        2.409808   1.000000
    4        3.732091   1.000000
    5        8.794992   0.000000
    6        9.132088   0.000000
    7       11.739719   0.000000
    8       11.909202   0.000000
 
 -0.3125000E+00  0.4375000E+00  0.3125000E+00  0.2343750E-01
    1       -2.640275   1.000000
    2       -1.116002   1.000000
    3        1.578174   1.000000
    4        3.004387   1.000000
    5        8.421261   0.000000
    6       10.686635   0.000000
    7       11.509977   0.000000
    8       12.057339   0.000000
 
 -0.4375000E+00 -0.4375000E+00  0.3125000E+00  0.1171875E-01
    1       -3.105238   1.000000
    2       -0.948143   1.000000
    3        2.003920   1.000000
    4        3.748250   1.000000
    5        7.471333   0.000000
    6       11.201324   0.000000
    7       11.527628   0.000000
    8       11.703658   0.000000
 
  0.4375000E+00  0.4375000E+00  0.4375000E+00  0.3906250E-02
    1       -4.001453   1.000000
    2       -0.840735   1.000000
    3        4.659668   1.000000
    4        4.659668   1.000000
    5        7.402744   0.000000
    6        9.204019   0.000000
    7        9.204019   0.000000
    8       13.603719   0.000000
 
 -0.4375000E+00  0.4375000E+00  0.4375000E+00  0.1171875E-01
    1       -3.643603   1.000000
    2       -1.015647   1.000000
    3        3.422750   1.000000
    4        4.385845   1.000000
    5        8.079628   0.000000
    6        9.366085   0.000000
    7        9.792856   0.000000
    8       14.043538   0.000000
