    2    2   15    1
  0.2001288E+02  0.3839590E-09  0.3839590E-09  0.3839590E-09  0.5000000E-15
  1.000000000000000E-004
  CAR 
 unknown system                          
      8     10      8
 
  0.0000000E+00  0.0000000E+00  0.0000000E+00  0.8000000E-02
    1       -6.116294   1.000000
    2        5.872540   0.971523
    3        5.872572   0.971509
    4        5.872572   0.971509
    5        8.435924   0.000000
    6        8.435938   0.000000
    7        8.435938   0.000000
    8        9.225654   0.000000
 
  0.2000000E+00  0.1993820E-16  0.3023569E-17  0.6400000E-01
    1       -5.598636   1.000000
    2        2.846525   1.000000
    3        5.285228   1.000000
    4        5.285258   1.000000
    5        8.094531   0.000000
    6        9.243938   0.000000
    7        9.243976   0.000000
    8       11.923891   0.000000
 
  0.4000000E+00  0.3987640E-16  0.6047138E-17  0.6400000E-01
    1       -4.234160   1.000000
    2       -0.423203   1.000000
    3        4.732626   1.000000
    4        4.732664   1.000000
    5        7.493990   0.000000
    6        9.310144   0.000000
    7        9.310202   0.000000
    8       13.707282   0.000000
 
  0.2000000E+00  0.2000000E+00  0.4572614E-17  0.4800000E-01
    1       -5.420409   1.000000
    2        3.238923   1.000000
    3        4.369639   1.000000
    4        4.369659   1.000000
    5        7.334076   0.000000
    6        9.781234   0.000000
    7       10.795072   0.000000
    8       10.795082   0.000000
 
  0.4000000E+00  0.2000000E+00  0.1623023E-16  0.1920000E+00
    1       -4.277818   1.000000
    2        0.543663   1.000000
    3        3.230203   1.000000
    4        3.858432   1.000000
    5        7.650757   0.000000
    6        9.981270   0.000000
    7       10.827288   0.000000
    8       11.343083   0.000000
 
 -0.4000000E+00  0.2000000E+00  0.9097260E-17  0.1920000E+00
    1       -3.391834   1.000000
    2       -0.853019   1.000000
    3        2.419079   1.000000
    4        4.142587   1.000000
    5        7.935024   0.000000
    6       10.500114   0.000000
    7       10.705383   0.000000
    8       13.491879   0.000000
 
 -0.2000000E+00  0.2000000E+00  0.1212083E-16  0.9600000E-01
    1       -4.766232   1.000000
    2        1.378108   1.000000
    3        2.850880   1.000000
    4        5.015927   1.000000
    5        8.773070   0.000000
    6        9.877074   0.000000
    7       10.209171   0.000000
    8       11.621362   0.000000
 
  0.4000000E+00  0.4000000E+00  0.9145228E-17  0.4800000E-01
    1       -3.401606   1.000000
    2       -0.325498   1.000000
    3        3.155899   1.000000
    4        3.155926   1.000000
    5        6.451545   0.014243
    6        7.189209   0.000000
    7       14.447642   0.000000
    8       14.447649   0.000000
 
 -0.4000000E+00  0.4000000E+00  0.2424166E-16  0.9600000E-01
    1       -2.194196   1.000000
    2       -1.589301   1.000000
    3        1.783606   1.000000
    4        3.276009   1.000000
    5        6.902843   0.000000
    6        9.042002   0.000000
    7       14.013569   0.000000
    8       14.622250   0.000000
 
 -0.4000000E+00  0.4000000E+00  0.2000000E+00  0.1920000E+00
    1       -2.961067   1.000000
    2       -0.710191   1.000000
    3        1.868945   1.000000
    4        2.859255   1.000000
    5        9.285985   0.000000
    6        9.672403   0.000000
    7       10.323545   0.000000
    8       13.707210   0.000000
