Automatically generated mesh
      28
Reciprocal lattice
    0.08333333333333    0.08333333333333    0.08333333333333           128
    0.25000000000000    0.08333333333333    0.08333333333333           256
    0.41666666666667    0.08333333333333    0.08333333333333           128
   -0.08333333333333    0.08333333333333    0.08333333333333            64
    0.25000000000000    0.25000000000000    0.08333333333333           128
    0.41666666666667    0.25000000000000    0.08333333333333           256
   -0.41666666666667    0.25000000000000    0.08333333333333           128
   -0.25000000000000    0.25000000000000    0.08333333333333           128
   -0.08333333333333    0.25000000000000    0.08333333333333           128
    0.41666666666667    0.41666666666667    0.08333333333333            64
   -0.41666666666667    0.41666666666667    0.08333333333333           128
   -0.25000000000000    0.41666666666667    0.08333333333333           256
   -0.08333333333333    0.41666666666667    0.08333333333333           128
   -0.41666666666667   -0.41666666666667    0.08333333333333           128
   -0.25000000000000   -0.41666666666667    0.08333333333333           256
   -0.08333333333333   -0.41666666666667    0.08333333333333           128
   -0.25000000000000   -0.25000000000000    0.08333333333333           128
   -0.08333333333333   -0.25000000000000    0.08333333333333           128
   -0.08333333333333   -0.08333333333333    0.08333333333333            32
    0.25000000000000    0.25000000000000    0.25000000000000            32
   -0.25000000000000    0.25000000000000    0.25000000000000            64
   -0.41666666666667    0.41666666666667    0.25000000000000           128
   -0.25000000000000    0.41666666666667    0.25000000000000           128
   -0.41666666666667   -0.41666666666667    0.25000000000000           128
   -0.25000000000000   -0.41666666666667    0.25000000000000           128
   -0.25000000000000   -0.25000000000000    0.25000000000000            32
   -0.41666666666667    0.41666666666667    0.41666666666667            64
   -0.41666666666667   -0.41666666666667    0.41666666666667            32
