unknown system                          
   1.00000000000000     
     0.000000    2.734461    2.734461
     2.734461   -0.000000    2.734461
     2.734461    2.734461    0.000000
   Si
     2
Direct
  0.500000  0.500000  0.500000
  0.750000  0.750000  0.750000
 
   36   36   36
 0.85007345122E+00 0.86611818542E+00 0.91531458960E+00 0.10007184355E+01 0.11270334591E+01
 0.13001263358E+01 0.15264719719E+01 0.18125081761E+01 0.21637445957E+01 0.25833889668E+01
 0.30703359698E+01 0.36166692162E+01 0.42052904202E+01 0.48086808118E+01 0.53898023184E+01
 0.59055964372E+01 0.63126334892E+01 0.65736762770E+01 0.66636400430E+01 0.65736783996E+01
 0.63126315668E+01 0.59055873823E+01 0.53897917815E+01 0.48086774174E+01 0.42052961349E+01
 0.36166779157E+01 0.30703409651E+01 0.25833894913E+01 0.21637443583E+01 0.18125096782E+01
 0.15264740911E+01 0.13001268936E+01 0.11270323255E+01 0.10007173569E+01 0.91531474217E+00
 0.86611889669E+00 0.86611818542E+00 0.89407538997E+00 0.95174349080E+00 0.10424315619E+01
 0.11706317004E+01 0.13415152411E+01 0.15603332455E+01 0.18317027845E+01 0.21586780781E+01
 0.25414667351E+01 0.29757468766E+01 0.34508108841E+01 0.39481235541E+01 0.44411147304E+01
 0.48968791852E+01 0.52798716183E+01 0.55569261187E+01 0.57024243102E+01 0.57024247528E+01
 0.55569250449E+01 0.52798668142E+01 0.48968746760E+01 0.44411165579E+01 0.39481311699E+01
 0.34508176244E+01 0.29757486386E+01 0.25414659068E+01 0.21586784052E+01 0.18317041979E+01
 0.15603333682E+01 0.13415133910E+01 0.11706293730E+01 0.10424301488E+01 0.95174308190E+00
 0.89407541871E+00 0.86611823417E+00 0.91531458960E+00 0.95174349080E+00 0.10148626826E+01
 0.11079945025E+01 0.12352322576E+01 0.14009183681E+01 0.16090221950E+01 0.18624105005E+01
 0.21619520070E+01 0.25053908943E+01 0.28860315898E+01 0.32915064454E+01 0.37031473285E+01
 0.40965612675E+01 0.44437615062E+01 0.47166697771E+01 0.48912586348E+01 0.49513547822E+01
 0.48912578922E+01 0.47166683657E+01 0.44437614398E+01 0.40965646218E+01 0.37031520663E+01
 0.32915078019E+01 0.28860285343E+01 0.25053877346E+01 0.21619522317E+01 0.18624122742E+01
 0.16090218595E+01 0.14009157150E+01 0.12352299500E+01 0.11079939942E+01 0.10148630439E+01
 0.95174353534E+00 0.91531433356E+00 0.90342007111E+00 0.10007184355E+01 0.10424315619E+01
 0.11079945025E+01 0.12005910125E+01 0.13238042698E+01 0.14810911743E+01 0.16751734868E+01
 0.19073463973E+01 0.21766761754E+01 0.24790772528E+01 0.28063699996E+01 0.31456002498E+01
 0.34790420626E+01 0.37852660625E+01 0.40413731555E+01 0.42260672426E+01 0.43228948620E+01
 0.43228940630E+01 0.42260661941E+01 0.40413740285E+01 0.37852684715E+01 0.34790426863E+01
 0.31455967836E+01 0.28063647207E+01 0.24790748830E+01 0.21766782297E+01 0.19073496199E+01
 0.16751744178E+01 0.14810902086E+01 0.13238039916E+01 0.12005922819E+01 0.11079959808E+01
 0.10424321162E+01 0.10007182928E+01 0.98048986434E+00 0.98049000834E+00 0.11270334591E+01
 0.11706317004E+01 0.12352322576E+01 0.13238042698E+01 0.14393827503E+01 0.15845642045E+01
 0.17609488545E+01 0.19685329113E+01 0.22050421673E+01 0.24652322302E+01 0.27402856195E+01
 0.30175656546E+01 0.32810398519E+01 0.35125782855E+01 0.36940706203E+01 0.38099959640E+01
 0.38498714530E+01 0.38099948834E+01 0.36940706456E+01 0.35125793195E+01 0.32810387978E+01
 0.30175614926E+01 0.27402821250E+01 0.24652333950E+01 0.22050468997E+01 0.19685367329E+01
 0.17609497091E+01 0.15845640872E+01 0.14393839361E+01 0.13238063535E+01 0.12352335451E+01
 0.11706317609E+01 0.11270331458E+01 0.11019671865E+01 0.10938018918E+01 0.11019672974E+01
 0.13001263358E+01 0.13415152411E+01 0.14009183681E+01 0.14810911743E+01 0.15845642045E+01
 0.17131864005E+01 0.18676499026E+01 0.20469976268E+01 0.22481128585E+01 0.24652321676E+01
 0.26896174425E+01 0.29096102030E+01 0.31112875208E+01 0.32798076339E+01 0.34013111195E+01
 0.34650164500E+01 0.34650162557E+01 0.34013110918E+01 0.32798077658E+01 0.31112862371E+01
 0.29096074706E+01 0.26896165255E+01 0.24652353604E+01 0.22481174046E+01 0.20469990569E+01
 0.18676480569E+01 0.17131849551E+01 0.15845650881E+01 0.14810926152E+01 0.14009183321E+01
 0.13415140479E+01 0.13001253663E+01 0.12741994681E+01 0.12617713801E+01 0.12617713750E+01
 0.12741997434E+01 0.15264719719E+01 0.15603332455E+01 0.16090221950E+01 0.16751734868E+01
 0.17609488545E+01 0.18676499026E+01 0.19953465670E+01 0.21425131052E+01 0.23056699478E+01
 0.24790772317E+01 0.26546086028E+01 0.28219910894E+01 0.29695642787E+01 0.30855771856E+01
 0.31598471996E+01 0.31854271990E+01 0.31598476668E+01 0.30855770191E+01 0.29695624898E+01
 0.28219886199E+01 0.26546079662E+01 0.24790790396E+01 0.23056711427E+01 0.21425107869E+01
 0.19953424019E+01 0.18676480095E+01 0.17609500677E+01 0.16751747384E+01 0.16090213377E+01
 0.15603314132E+01 0.15264708667E+01 0.15047360380E+01 0.14927744902E+01 0.14889782061E+01
 0.14927746695E+01 0.15047363999E+01 0.18125081761E+01 0.18317027845E+01 0.18624105005E+01
 0.19073463973E+01 0.19685329113E+01 0.20469976268E+01 0.21425131052E+01 0.22533570320E+01
 0.23760891414E+01 0.25053910731E+01 0.26340856294E+01 0.27534898379E+01 0.28542078429E+01
 0.29273308726E+01 0.29658352535E+01 0.29658355963E+01 0.29273307546E+01 0.28542058919E+01
 0.27534871610E+01 0.26340843788E+01 0.25053908639E+01 0.23760873131E+01 0.22533529981E+01
 0.21425101418E+01 0.20469987573E+01 0.19685366218E+01 0.19073485541E+01 0.18624096260E+01
 0.18317010761E+01 0.18125075941E+01 0.18017866585E+01 0.17966155002E+01 0.17946744594E+01
 0.17946748610E+01 0.17966160081E+01 0.18017867023E+01 0.21637445957E+01 0.21586780781E+01
 0.21619520070E+01 0.21766761754E+01 0.22050421673E+01 0.22481128585E+01 0.23056699478E+01
 0.23760891414E+01 0.24562418706E+01 0.25414669294E+01 0.26257114137E+01 0.27019625216E+01
 0.27630292028E+01 0.28025928084E+01 0.28162994294E+01 0.28025927551E+01 0.27630281056E+01
 0.27019610286E+01 0.26257110795E+01 0.25414667955E+01 0.24562394765E+01 0.23760855319E+01
 0.23056697856E+01 0.22481179890E+01 0.22050483732E+01 0.21766784329E+01 0.21619504405E+01
 0.21586764410E+01 0.21637447787E+01 0.21734419661E+01 0.21839203617E+01 0.21917835079E+01
 0.21946849026E+01 0.21917844524E+01 0.21839208308E+01 0.21734413555E+01 0.25833889668E+01
 0.25414667351E+01 0.25053908943E+01 0.24790772528E+01 0.24652322302E+01 0.24652321676E+01
 0.24790772317E+01 0.25053910731E+01 0.25414669294E+01 0.25833890096E+01 0.26262957989E+01
 0.26648603746E+01 0.26939963031E+01 0.27096788566E+01 0.27096786593E+01 0.26939959205E+01
 0.26648606780E+01 0.26262972688E+01 0.25833896507E+01 0.25414641396E+01 0.25053867683E+01
 0.24790772542E+01 0.24652383336E+01 0.24652387963E+01 0.24790783292E+01 0.25053879266E+01
 0.25414651402E+01 0.25833903610E+01 0.26262974120E+01 0.26648601714E+01 0.26939951412E+01
 0.27096779999E+01 0.27096783047E+01 0.26939957554E+01 0.26648599927E+01 0.26262957013E+01
 0.30703359698E+01 0.29757468766E+01 0.28860315898E+01 0.28063699996E+01 0.27402856195E+01
 0.26896174425E+01 0.26546086028E+01 0.26340856294E+01 0.26257114137E+01 0.26262957989E+01
 0.26321715628E+01 0.26396571064E+01 0.26455860916E+01 0.26478146408E+01 0.26455854508E+01
 0.26396578321E+01 0.26321738775E+01 0.26262959814E+01 0.26257059084E+01 0.26340773265E+01
 0.26546054207E+01 0.26896226764E+01 0.27402931283E+01 0.28063721760E+01 0.28860289730E+01
 0.29757455847E+01 0.30703382042E+01 0.31631814141E+01 0.32467231021E+01 0.33133236068E+01
 0.33563366089E+01 0.33712136591E+01 0.33563363020E+01 0.33133237614E+01 0.32467226297E+01
 0.31631789427E+01 0.36166692162E+01 0.34508108841E+01 0.32915064454E+01 0.31456002498E+01
 0.30175656546E+01 0.29096102030E+01 0.28219910894E+01 0.27534898379E+01 0.27019625216E+01
 0.26648603746E+01 0.26396571064E+01 0.26241791541E+01 0.26168506077E+01 0.26168500583E+01
 0.26241793853E+01 0.26396592487E+01 0.26648596392E+01 0.27019534260E+01 0.27534760374E+01
 0.28219842544E+01 0.29096169038E+01 0.30175793721E+01 0.31456094370E+01 0.32915073996E+01
 0.34508087554E+01 0.36166686609E+01 0.37800420075E+01 0.39302544952E+01 0.40560160316E+01
 0.41468123944E+01 0.41944572554E+01 0.41944566981E+01 0.41468119173E+01 0.40560167955E+01
 0.39302552348E+01 0.37800417392E+01 0.42052904202E+01 0.39481235541E+01 0.37031473285E+01
 0.34790420626E+01 0.32810398519E+01 0.31112875208E+01 0.29695642787E+01 0.28542078429E+01
 0.27630292028E+01 0.26939963031E+01 0.26455860916E+01 0.26168506077E+01 0.26073172857E+01
 0.26168512634E+01 0.26455885200E+01 0.26939957176E+01 0.27630180913E+01 0.28541895768E+01
 0.29695551673E+01 0.31112994008E+01 0.32810654298E+01 0.34790627598E+01 0.37031523553E+01
 0.39481166693E+01 0.42052809952E+01 0.44626089747E+01 0.47053636573E+01 0.49173643220E+01
 0.50827571485E+01 0.51880789537E+01 0.52242550783E+01 0.51880779977E+01 0.50827563058E+01
 0.49173648813E+01 0.47053666997E+01 0.44626154994E+01 0.48086808118E+01 0.44411147304E+01
 0.40965612675E+01 0.37852660625E+01 0.35125782855E+01 0.32798076339E+01 0.30855771856E+01
 0.29273308726E+01 0.28025928084E+01 0.27096788566E+01 0.26478146408E+01 0.26168500583E+01
 0.26168512634E+01 0.26478179001E+01 0.27096791966E+01 0.28025813372E+01 0.29273094418E+01
 0.30855656798E+01 0.32798246787E+01 0.35126169505E+01 0.37852985883E+01 0.40965673711E+01
 0.44410978773E+01 0.48086581585E+01 0.51839727072E+01 0.55474588264E+01 0.58768085897E+01
 0.61492443481E+01 0.63441751638E+01 0.64459008316E+01 0.64459005603E+01 0.63441734016E+01
 0.61492406001E+01 0.58768059695E+01 0.55474630609E+01 0.51839877393E+01 0.53898023184E+01
 0.48968791852E+01 0.44437615062E+01 0.40413731555E+01 0.36940706203E+01 0.34013111195E+01
 0.31598471996E+01 0.29658352535E+01 0.28162994294E+01 0.27096786593E+01 0.26455854508E+01
 0.26241793853E+01 0.26455885200E+01 0.27096791966E+01 0.28162878867E+01 0.29658116661E+01
 0.31598325016E+01 0.34013300563E+01 0.36941192151E+01 0.40414157974E+01 0.44437668186E+01
 0.48968501153E+01 0.53897663829E+01 0.59043718644E+01 0.64159392100E+01 0.68950809097E+01
 0.73105954710E+01 0.76328217323E+01 0.78371322873E+01 0.79071541942E+01 0.78371334505E+01
 0.76328199542E+01 0.73105886825E+01 0.68950735809E+01 0.64159412835E+01 0.59043924088E+01
 0.59055964372E+01 0.52798716183E+01 0.47166697771E+01 0.42260672426E+01 0.38099959640E+01
 0.34650164500E+01 0.31854271990E+01 0.29658355963E+01 0.28025927551E+01 0.26939959205E+01
 0.26396578321E+01 0.26396592487E+01 0.26939957176E+01 0.28025813372E+01 0.29658116661E+01
 0.31854106630E+01 0.34650353234E+01 0.38100506189E+01 0.42261184815E+01 0.47166761392E+01
 0.52798331206E+01 0.59055501048E+01 0.65740374187E+01 0.72560013530E+01 0.79147515833E+01
 0.85096337885E+01 0.90001298453E+01 0.93502049219E+01 0.95326136005E+01 0.95326161079E+01
 0.93502099272E+01 0.90001317126E+01 0.85096280505E+01 0.79147405382E+01 0.72559984059E+01
 0.65740597435E+01 0.63126334892E+01 0.55569261187E+01 0.48912586348E+01 0.43228948620E+01
 0.38498714530E+01 0.34650162557E+01 0.31598476668E+01 0.29273307546E+01 0.27630281056E+01
 0.26648606780E+01 0.26321738775E+01 0.26648596392E+01 0.27630180913E+01 0.29273094418E+01
 0.31598325016E+01 0.34650353234E+01 0.38499288699E+01 0.43229522367E+01 0.48912682119E+01
 0.55568828021E+01 0.63125793845E+01 0.71390036507E+01 0.80040233047E+01 0.88646440111E+01
 0.96708039460E+01 0.10370059389E+02 0.10912654363E+02 0.11256967773E+02 0.11375037524E+02
 0.11256970961E+02 0.10912660955E+02 0.10370065656E+02 0.96708014678E+01 0.88646306621E+01
 0.80040161185E+01 0.71390277485E+01 0.65736762770E+01 0.57024243102E+01 0.49513547822E+01
 0.43228940630E+01 0.38099948834E+01 0.34013110918E+01 0.30855770191E+01 0.28542058919E+01
 0.27019610286E+01 0.26262972688E+01 0.26262959814E+01 0.27019534260E+01 0.28541895768E+01
 0.30855656798E+01 0.34013300563E+01 0.38100506189E+01 0.43229522367E+01 0.49513662949E+01
 0.57023787884E+01 0.65736156408E+01 0.75488018440E+01 0.85957782769E+01 0.96677199204E+01
 0.10706861849E+02 0.11649335551E+02 0.12430425217E+02 0.12990743970E+02 0.13283805265E+02
 0.13283801949E+02 0.12990738498E+02 0.12430425474E+02 0.11649340775E+02 0.10706859776E+02
 0.96677050783E+01 0.85957707707E+01 0.75488306401E+01 0.66636400430E+01 0.57024247528E+01
 0.48912578922E+01 0.42260661941E+01 0.36940706456E+01 0.32798077658E+01 0.29695624898E+01
 0.27534871610E+01 0.26257110795E+01 0.25833896507E+01 0.26257059084E+01 0.27534760374E+01
 0.29695551673E+01 0.32798246787E+01 0.36941192151E+01 0.42261184815E+01 0.48912682119E+01
 0.57023787884E+01 0.66635751920E+01 0.77643549320E+01 0.89759615510E+01 0.10251431463E+02
 0.11528782168E+02 0.12735461867E+02 0.13792906804E+02 0.14622259096E+02 0.15153044918E+02
 0.15335709174E+02 0.15153030851E+02 0.14622240645E+02 0.13792896593E+02 0.12735461058E+02
 0.11528776963E+02 0.10251415677E+02 0.89759569849E+01 0.77643897256E+01 0.65736783996E+01
 0.55569250449E+01 0.47166683657E+01 0.40413740285E+01 0.35125793195E+01 0.31112862371E+01
 0.28219886199E+01 0.26340843788E+01 0.25414667955E+01 0.25414641396E+01 0.26340773265E+01
 0.28219842544E+01 0.31112994008E+01 0.35126169505E+01 0.40414157974E+01 0.47166761392E+01
 0.55568828021E+01 0.65736156408E+01 0.77643549320E+01 0.91071089037E+01 0.10558945101E+02
 0.12058305495E+02 0.13528760852E+02 0.14882115318E+02 0.16019802707E+02 0.16840750950E+02
 0.17270497031E+02 0.17270490784E+02 0.16840732507E+02 0.16019778559E+02 0.14882098575E+02
 0.13528754688E+02 0.12058297054E+02 0.10558929427E+02 0.91071078452E+01 0.77643924935E+01
 0.63126315668E+01 0.52798668142E+01 0.44437614398E+01 0.37852684715E+01 0.32810387978E+01
 0.29096074706E+01 0.26546079662E+01 0.25053908639E+01 0.24562394765E+01 0.25053867683E+01
 0.26546054207E+01 0.29096169038E+01 0.32810654298E+01 0.37852985883E+01 0.44437668186E+01
 0.52798331206E+01 0.63125793845E+01 0.75488018440E+01 0.89759615510E+01 0.10558945101E+02
 0.12241284651E+02 0.13948308343E+02 0.15588554579E+02 0.17044048104E+02 0.18186711942E+02
 0.18915755921E+02 0.19166304265E+02 0.18915753122E+02 0.18186696729E+02 0.17044022784E+02
 0.15588535381E+02 0.13948301229E+02 0.12241277426E+02 0.10558932788E+02 0.89759630217E+01
 0.75488355571E+01 0.59055873823E+01 0.48968746760E+01 0.40965646218E+01 0.34790426863E+01
 0.30175614926E+01 0.26896165255E+01 0.24790790396E+01 0.23760873131E+01 0.23760855319E+01
 0.24790772542E+01 0.26896226764E+01 0.30175793721E+01 0.34790627598E+01 0.40965673711E+01
 0.48968501153E+01 0.59055501048E+01 0.71390036507E+01 0.85957782769E+01 0.10251431463E+02
 0.12058305495E+02 0.13948308343E+02 0.15833411033E+02 0.17585865719E+02 0.19055864870E+02
 0.20116342692E+02 0.20672525512E+02 0.20672529381E+02 0.20116341900E+02 0.19055843393E+02
 0.17585833013E+02 0.15833391707E+02 0.13948308421E+02 0.12058307929E+02 0.10251426335E+02
 0.85957795534E+01 0.71390272932E+01 0.53897917815E+01 0.44411165579E+01 0.37031520663E+01
 0.31455967836E+01 0.27402821250E+01 0.24652353604E+01 0.23056711427E+01 0.22533529981E+01
 0.23056697856E+01 0.24652383336E+01 0.27402931283E+01 0.31456094370E+01 0.37031523553E+01
 0.44410978773E+01 0.53897663829E+01 0.65740374187E+01 0.80040233047E+01 0.96677199204E+01
 0.11528782168E+02 0.13528760852E+02 0.15588554579E+02 0.17585865719E+02 0.19356516280E+02
 0.20750805795E+02 0.21644867635E+02 0.21953233000E+02 0.21644874032E+02 0.20750793432E+02
 0.19356476387E+02 0.17585825809E+02 0.15588545792E+02 0.13528779340E+02 0.11528798054E+02
 0.96677179967E+01 0.80040185632E+01 0.65740493368E+01 0.48086774174E+01 0.39481311699E+01
 0.32915078019E+01 0.28063647207E+01 0.24652333950E+01 0.22481174046E+01 0.21425107869E+01
 0.21425101418E+01 0.22481179890E+01 0.24652387963E+01 0.28063721760E+01 0.32915073996E+01
 0.39481166693E+01 0.48086581585E+01 0.59043718644E+01 0.72560013530E+01 0.88646440111E+01
 0.10706861849E+02 0.12735461867E+02 0.14882115318E+02 0.17044048104E+02 0.19055864870E+02
 0.20750805795E+02 0.21981431148E+02 0.22630380731E+02 0.22630389950E+02 0.21981437837E+02
 0.20750779871E+02 0.19055816874E+02 0.17044022029E+02 0.14882133547E+02 0.12735498370E+02
 0.10706877086E+02 0.88646312030E+01 0.72559864738E+01 0.59043766747E+01 0.42052961349E+01
 0.34508176244E+01 0.28860285343E+01 0.24790748830E+01 0.22050468997E+01 0.20469990569E+01
 0.19953424019E+01 0.20469987573E+01 0.22050483732E+01 0.24790783292E+01 0.28860289730E+01
 0.34508087554E+01 0.42052809952E+01 0.51839727072E+01 0.64159392100E+01 0.79147515833E+01
 0.96708039460E+01 0.11649335551E+02 0.13792906804E+02 0.16019802707E+02 0.18186711942E+02
 0.20116342692E+02 0.21644867635E+02 0.22630380731E+02 0.22971396676E+02 0.22630403639E+02
 0.21644875381E+02 0.20116317515E+02 0.18186685919E+02 0.16019814772E+02 0.13792949440E+02
 0.11649364608E+02 0.96707935684E+01 0.79147200260E+01 0.64159202192E+01 0.51839777599E+01
 0.36166779157E+01 0.29757486386E+01 0.25053877346E+01 0.21766782297E+01 0.19685367329E+01
 0.18676480569E+01 0.18676480095E+01 0.19685366218E+01 0.21766784329E+01 0.25053879266E+01
 0.29757455847E+01 0.36166686609E+01 0.44626089747E+01 0.55474588264E+01 0.68950809097E+01
 0.85096337885E+01 0.10370059389E+02 0.12430425217E+02 0.14622259096E+02 0.16840750950E+02
 0.18915755921E+02 0.20672525512E+02 0.21953233000E+02 0.22630389950E+02 0.22630403639E+02
 0.21953255180E+02 0.20672530002E+02 0.18915752072E+02 0.16840770111E+02 0.14622304018E+02
 0.12430458846E+02 0.10370049941E+02 0.85095925140E+01 0.68950450166E+01 0.55474494034E+01
 0.44626176080E+01 0.30703409651E+01 0.25414659068E+01 0.21619522317E+01 0.19073496199E+01
 0.17609497091E+01 0.17131849551E+01 0.17609500677E+01 0.19073485541E+01 0.21619504405E+01
 0.25414651402E+01 0.30703382042E+01 0.37800420075E+01 0.47053636573E+01 0.58768085897E+01
 0.73105954710E+01 0.90001298453E+01 0.10912654363E+02 0.12990743970E+02 0.15153044918E+02
 0.17270497031E+02 0.19166304265E+02 0.20672529381E+02 0.21644874032E+02 0.21981437837E+02
 0.21644875381E+02 0.20672530002E+02 0.19166314126E+02 0.17270532228E+02 0.15153099209E+02
 0.12990781469E+02 0.10912644524E+02 0.90000828638E+01 0.73105509070E+01 0.58767928354E+01
 0.47053700986E+01 0.37800507372E+01 0.25833894913E+01 0.21586784052E+01 0.18624122742E+01
 0.16751744178E+01 0.15845640872E+01 0.15845650881E+01 0.16751747384E+01 0.18624096260E+01
 0.21586764410E+01 0.25833903610E+01 0.31631814141E+01 0.39302544952E+01 0.49173643220E+01
 0.61492443481E+01 0.76328217323E+01 0.93502049219E+01 0.11256967773E+02 0.13283805265E+02
 0.15335709174E+02 0.17270490784E+02 0.18915753122E+02 0.20116341900E+02 0.20750793432E+02
 0.20750779871E+02 0.20116317515E+02 0.18915752072E+02 0.17270532228E+02 0.15335774410E+02
 0.13283849262E+02 0.11256959042E+02 0.93501552820E+01 0.76327734393E+01 0.61492281123E+01
 0.49173749820E+01 0.39302677877E+01 0.31631847598E+01 0.21637443583E+01 0.18317041979E+01
 0.16090218595E+01 0.14810902086E+01 0.14393839361E+01 0.14810926152E+01 0.16090213377E+01
 0.18317010761E+01 0.21637447787E+01 0.26262974120E+01 0.32467231021E+01 0.40560160316E+01
 0.50827571485E+01 0.63441751638E+01 0.78371322873E+01 0.95326136005E+01 0.11375037524E+02
 0.13283801949E+02 0.15153030851E+02 0.16840732507E+02 0.18186696729E+02 0.19055843393E+02
 0.19356476387E+02 0.19055816874E+02 0.18186685919E+02 0.16840770111E+02 0.15153099209E+02
 0.13283849262E+02 0.11375029066E+02 0.95325620961E+01 0.78370813287E+01 0.63441579452E+01
 0.50827714571E+01 0.40560359464E+01 0.32467300386E+01 0.26262948795E+01 0.18125096782E+01
 0.15603333682E+01 0.14009157150E+01 0.13238039916E+01 0.13238063535E+01 0.14009183321E+01
 0.15603314132E+01 0.18125075941E+01 0.21734419661E+01 0.26648601714E+01 0.33133236068E+01
 0.41468123944E+01 0.51880789537E+01 0.64459008316E+01 0.79071541942E+01 0.95326161079E+01
 0.11256970961E+02 0.12990738498E+02 0.14622240645E+02 0.16019778559E+02 0.17044022784E+02
 0.17585833013E+02 0.17585825809E+02 0.17044022029E+02 0.16019814772E+02 0.14622304018E+02
 0.12990781469E+02 0.11256959042E+02 0.95325620961E+01 0.79071011056E+01 0.64458812162E+01
 0.51880926066E+01 0.41468355502E+01 0.33133348333E+01 0.26648580321E+01 0.21734387202E+01
 0.15264740911E+01 0.13415133910E+01 0.12352299500E+01 0.12005922819E+01 0.12352335451E+01
 0.13415140479E+01 0.15264708667E+01 0.18017866585E+01 0.21839203617E+01 0.26939951412E+01
 0.33563366089E+01 0.41944572554E+01 0.52242550783E+01 0.64459005603E+01 0.78371334505E+01
 0.93502099272E+01 0.10912660955E+02 0.12430425474E+02 0.13792896593E+02 0.14882098575E+02
 0.15588535381E+02 0.15833391707E+02 0.15588545792E+02 0.14882133547E+02 0.13792949440E+02
 0.12430458846E+02 0.10912644524E+02 0.93501552820E+01 0.78370813287E+01 0.64458812162E+01
 0.52242678337E+01 0.41944808416E+01 0.33563508397E+01 0.26939953027E+01 0.21839159611E+01
 0.18017870164E+01 0.13001268936E+01 0.11706293730E+01 0.11079939942E+01 0.11079959808E+01
 0.11706317609E+01 0.13001253663E+01 0.15047360380E+01 0.17966155002E+01 0.21917835079E+01
 0.27096779999E+01 0.33712136591E+01 0.41944566981E+01 0.51880779977E+01 0.63441734016E+01
 0.76328199542E+01 0.90001317126E+01 0.10370065656E+02 0.11649340775E+02 0.12735461058E+02
 0.13528754688E+02 0.13948301229E+02 0.13948308421E+02 0.13528779340E+02 0.12735498370E+02
 0.11649364608E+02 0.10370049941E+02 0.90000828638E+01 0.76327734393E+01 0.63441579452E+01
 0.51880926066E+01 0.41944808416E+01 0.33712292437E+01 0.27096803848E+01 0.21917794564E+01
 0.17966139381E+01 0.15047386964E+01 0.11270323255E+01 0.10424301488E+01 0.10148630439E+01
 0.10424321162E+01 0.11270331458E+01 0.12741994681E+01 0.14927744902E+01 0.17946744594E+01
 0.21946849026E+01 0.27096783047E+01 0.33563363020E+01 0.41468119173E+01 0.50827563058E+01
 0.61492406001E+01 0.73105886825E+01 0.85096280505E+01 0.96708014678E+01 0.10706859776E+02
 0.11528776963E+02 0.12058297054E+02 0.12241277426E+02 0.12058307929E+02 0.11528798054E+02
 0.10706877086E+02 0.96707935684E+01 0.85095925140E+01 0.73105509070E+01 0.61492281123E+01
 0.50827714571E+01 0.41468355502E+01 0.33563508397E+01 0.27096803848E+01 0.21946808384E+01
 0.17946712584E+01 0.14927746761E+01 0.12742006662E+01 0.10007173569E+01 0.95174308190E+00
 0.95174353534E+00 0.10007182928E+01 0.11019671865E+01 0.12617713801E+01 0.14889782061E+01
 0.17946748610E+01 0.21917844524E+01 0.26939957554E+01 0.33133237614E+01 0.40560167955E+01
 0.49173648813E+01 0.58768059695E+01 0.68950735809E+01 0.79147405382E+01 0.88646306621E+01
 0.96677050783E+01 0.10251415677E+02 0.10558929427E+02 0.10558932788E+02 0.10251426335E+02
 0.96677179967E+01 0.88646312030E+01 0.79147200260E+01 0.68950450166E+01 0.58767928354E+01
 0.49173749820E+01 0.40560359464E+01 0.33133348333E+01 0.26939953027E+01 0.21917794564E+01
 0.17946712584E+01 0.14889768235E+01 0.12617708117E+01 0.11019664363E+01 0.91531474217E+00
 0.89407541871E+00 0.91531433356E+00 0.98048986434E+00 0.10938018918E+01 0.12617713750E+01
 0.14927746695E+01 0.17966160081E+01 0.21839208308E+01 0.26648599927E+01 0.32467226297E+01
 0.39302552348E+01 0.47053666997E+01 0.55474630609E+01 0.64159412835E+01 0.72559984059E+01
 0.80040161185E+01 0.85957707707E+01 0.89759569849E+01 0.91071078452E+01 0.89759630217E+01
 0.85957795534E+01 0.80040185632E+01 0.72559864738E+01 0.64159202192E+01 0.55474494034E+01
 0.47053700986E+01 0.39302677877E+01 0.32467300386E+01 0.26648580321E+01 0.21839159611E+01
 0.17966139381E+01 0.14927746761E+01 0.12617708117E+01 0.10938007760E+01 0.98048956172E+00
 0.86611889669E+00 0.86611823417E+00 0.90342007111E+00 0.98049000834E+00 0.11019672974E+01
 0.12741997434E+01 0.15047363999E+01 0.18017867023E+01 0.21734413555E+01 0.26262957013E+01
 0.31631789427E+01 0.37800417392E+01 0.44626154994E+01 0.51839877393E+01 0.59043924088E+01
 0.65740597435E+01 0.71390277485E+01 0.75488306401E+01 0.77643897256E+01 0.77643924935E+01
 0.75488355571E+01 0.71390272932E+01 0.65740493368E+01 0.59043766747E+01 0.51839777599E+01
 0.44626176080E+01 0.37800507372E+01 0.31631847598E+01 0.26262948795E+01 0.21734387202E+01
 0.18017870164E+01 0.15047386964E+01 0.12742006662E+01 0.11019664363E+01 0.98048956172E+00
 0.90342092675E+00 0.86611829619E+00 0.89407539698E+00 0.95174354519E+00 0.10424316539E+01
 0.11706317048E+01 0.13415151636E+01 0.15603332102E+01 0.18317028075E+01 0.21586780790E+01
 0.25414667417E+01 0.29757469753E+01 0.34508109787E+01 0.39481234046E+01 0.44411142310E+01
 0.48968784148E+01 0.52798706735E+01 0.55569251420E+01 0.57024236428E+01 0.57024247683E+01
 0.55569257710E+01 0.52798678826E+01 0.48968756196E+01 0.44411169880E+01 0.39481307847E+01
 0.34508163765E+01 0.29757469371E+01 0.25414644171E+01 0.21586775894E+01 0.18317041655E+01
 0.15603340584E+01 0.13415146281E+01 0.11706307832E+01 0.10424313199E+01 0.95174386957E+00
 0.89407592920E+00 0.86611854481E+00 0.89407539698E+00 0.92991225591E+00 0.99194220870E+00
 0.10833744357E+01 0.12082095176E+01 0.13707514714E+01 0.15749955187E+01 0.18238804195E+01
 0.21183585871E+01 0.24562416831E+01 0.28308857578E+01 0.32299960619E+01 0.36350613179E+01
 0.40219875052E+01 0.43632446023E+01 0.46313167358E+01 0.48027302408E+01 0.48617185336E+01
 0.48027302612E+01 0.46313157210E+01 0.43632437558E+01 0.40219896625E+01 0.36350662442E+01
 0.32299999253E+01 0.28308864715E+01 0.24562415508E+01 0.21183600802E+01 0.18238822431E+01
 0.15749949991E+01 0.13707487324E+01 0.12082070005E+01 0.10833734751E+01 0.99194205364E+00
 0.92991192702E+00 0.89407496686E+00 0.88236664159E+00 0.95174354519E+00 0.99194220870E+00
 0.10549846275E+01 0.11438714589E+01 0.12620824012E+01 0.14130906892E+01 0.15997427947E+01
 0.18235100093E+01 0.20836177245E+01 0.23760890641E+01 0.26928347704E+01 0.30210659919E+01
 0.33434114381E+01 0.36390601937E+01 0.38859732161E+01 0.40638157320E+01 0.41569729257E+01
 0.41569720803E+01 0.40638140210E+01 0.38859724265E+01 0.36390613106E+01 0.33434133972E+01
 0.30210669025E+01 0.26928344739E+01 0.23760892580E+01 0.20836190951E+01 0.18235107285E+01
 0.15997409621E+01 0.14130871171E+01 0.12620796032E+01 0.11438705734E+01 0.10549846612E+01
 0.99194193273E+00 0.95174290714E+00 0.93221244054E+00 0.93221277330E+00 0.10424316539E+01
 0.10833744357E+01 0.11438714589E+01 0.12267169124E+01 0.13349166235E+01 0.14711993510E+01
 0.16374060444E+01 0.18337867137E+01 0.20582530046E+01 0.23056699812E+01 0.25673387372E+01
 0.28308974800E+01 0.30808817611E+01 0.33000690247E+01 0.34714982892E+01 0.35808044745E+01
 0.36183669175E+01 0.35808027960E+01 0.34714972241E+01 0.33000695176E+01 0.30808820818E+01
 0.28308962699E+01 0.25673373380E+01 0.23056702861E+01 0.20582543712E+01 0.18337867951E+01
 0.16374041180E+01 0.14711971643E+01 0.13349159269E+01 0.12267175142E+01 0.11438721038E+01
 0.10833745565E+01 0.10424315657E+01 0.10188173060E+01 0.10111086803E+01 0.10188173212E+01
 0.11706317048E+01 0.12082095176E+01 0.12620824012E+01 0.13349166235E+01 0.14293375814E+01
 0.15474454656E+01 0.16902470644E+01 0.18570518146E+01 0.20448995396E+01 0.22481128630E+01
 0.24581077514E+01 0.26636229746E+01 0.28514947849E+01 0.30079849358E+01 0.31204991474E+01
 0.31793785079E+01 0.31793782175E+01 0.31204991449E+01 0.30079858869E+01 0.28514952819E+01
 0.26636218644E+01 0.24581066203E+01 0.22481137224E+01 0.20449013694E+01 0.18570520391E+01
 0.16902456359E+01 0.15474448585E+01 0.14293389926E+01 0.13349185342E+01 0.12620831211E+01
 0.12082092522E+01 0.11706315681E+01 0.11470216177E+01 0.11356684751E+01 0.11356682540E+01
 0.11470213103E+01 0.13415151636E+01 0.13707514714E+01 0.14130906892E+01 0.14711993510E+01
 0.15474454656E+01 0.16434434083E+01 0.17595726396E+01 0.18945191970E+01 0.20448995306E+01
 0.22050421183E+01 0.23670266127E+01 0.25210855524E+01 0.26564280314E+01 0.27624440691E+01
 0.28301206692E+01 0.28533933380E+01 0.28301217796E+01 0.27624455389E+01 0.26564285634E+01
 0.25210847913E+01 0.23670260895E+01 0.22050432176E+01 0.20449010990E+01 0.18945191146E+01
 0.17595712818E+01 0.16434432149E+01 0.15474471434E+01 0.14712008907E+01 0.14130904963E+01
 0.13707503123E+01 0.13415144283E+01 0.13228172761E+01 0.13125370300E+01 0.13092734570E+01
 0.13125370080E+01 0.13228174023E+01 0.15603332102E+01 0.15749955187E+01 0.15997427947E+01
 0.16374060444E+01 0.16902470644E+01 0.17595726396E+01 0.18453818144E+01 0.19460740449E+01
 0.20582529918E+01 0.21766762001E+01 0.22944233389E+01 0.24033589135E+01 0.24949218524E+01
 0.25611823328E+01 0.25959949882E+01 0.25959956076E+01 0.25611831461E+01 0.24949212759E+01
 0.24033572428E+01 0.22944224565E+01 0.21766768565E+01 0.20582536809E+01 0.19460733258E+01
 0.18453806099E+01 0.17595728381E+01 0.16902485070E+01 0.16374066557E+01 0.15997416228E+01
 0.15749938578E+01 0.15603323488E+01 0.15527564049E+01 0.15495066874E+01 0.15484606875E+01
 0.15484610611E+01 0.15495072994E+01 0.15527568176E+01 0.18317028075E+01 0.18238804195E+01
 0.18235100093E+01 0.18337867137E+01 0.18570518146E+01 0.18945191970E+01 0.19460740449E+01
 0.20101389128E+01 0.20836177365E+01 0.21619521251E+01 0.22393523161E+01 0.23092697063E+01
 0.23651296849E+01 0.24012472041E+01 0.24137457544E+01 0.24012467757E+01 0.23651279453E+01
 0.23092672302E+01 0.22393510418E+01 0.21619524665E+01 0.20836180079E+01 0.20101383340E+01
 0.19460741662E+01 0.18945211923E+01 0.18570541882E+01 0.18337872317E+01 0.18235086990E+01
 0.18238791112E+01 0.18317024166E+01 0.18432891499E+01 0.18549183904E+01 0.18633702368E+01
 0.18664483014E+01 0.18633711722E+01 0.18549192594E+01 0.18432894054E+01 0.21586780790E+01
 0.21183585871E+01 0.20836177245E+01 0.20582530046E+01 0.20448995396E+01 0.20448995306E+01
 0.20582529918E+01 0.20836177365E+01 0.21183586399E+01 0.21586781532E+01 0.21998884912E+01
 0.22368833632E+01 0.22648083160E+01 0.22798310110E+01 0.22798303288E+01 0.22648064995E+01
 0.22368814651E+01 0.21998878745E+01 0.21586786227E+01 0.21183586920E+01 0.20836175371E+01
 0.20582548479E+01 0.20449040077E+01 0.20449035196E+01 0.20582535959E+01 0.20836160610E+01
 0.21183576123E+01 0.21586783662E+01 0.21998885172E+01 0.22368827608E+01 0.22648080377E+01
 0.22798317146E+01 0.22798319942E+01 0.22648088411E+01 0.22368835326E+01 0.21998884701E+01
 0.25414667417E+01 0.24562416831E+01 0.23760890641E+01 0.23056699812E+01 0.22481128630E+01
 0.22050421183E+01 0.21766762001E+01 0.21619521251E+01 0.21586781532E+01 0.21637445791E+01