    2    2   15    1
  0.2001288E+02  0.3839590E-09  0.3839590E-09  0.3839590E-09  0.5000000E-15
  1.000000000000000E-004
  CAR 
 unknown system                          
      8     20      8
 
  0.0000000E+00  0.0000000E+00  0.0000000E+00  0.2915452E-02
    1       -6.196500   1.000000
    2        5.618789   0.978753
    3        5.618792   0.978752
    4        5.618792   0.978752
    5        8.174692   0.000000
    6        8.174695   0.000000
    7        8.174695   0.000000
    8        8.750894   0.000000
 
  0.1428571E+00 -0.2862800E-17 -0.1748977E-16  0.2332362E-01
    1       -5.935171   1.000000
    2        3.698456   1.000000
    3        5.269239   0.999997
    4        5.269242   0.999997
    5        7.996749   0.000000
    6        8.686933   0.000000
    7        8.686935   0.000000
    8       10.468002   0.000000
 
  0.2857143E+00 -0.2269120E-16  0.9741634E-17  0.2332362E-01
    1       -5.182924   1.000000
    2        1.115517   1.000000
    3        4.761129   1.000000
    4        4.761131   1.000000
    5        7.453209   0.000000
    6        9.144205   0.000000
    7        9.144209   0.000000
    8       12.930620   0.000000
 
  0.4285714E+00 -0.2759730E-17  0.1159403E-16  0.2332362E-01
    1       -4.165613   1.000000
    2       -0.878811   1.000000
    3        4.475771   1.000000
    4        4.475773   1.000000
    5        7.127749   0.000000
    6        9.007471   0.000000
    7        9.007477   0.000000
    8       13.380496   0.000000
 
  0.1428571E+00  0.1428571E+00  0.4108522E-18  0.1749271E-01
    1       -5.846720   1.000000
    2        3.970098   1.000000
    3        4.668776   1.000000
    4        4.668777   1.000000
    5        7.506708   0.000000
    6        9.553738   0.000000
    7        9.553741   0.000000
    8        9.907793   0.000000
 
  0.2857143E+00  0.1428571E+00 -0.8512426E-17  0.6997085E-01
    1       -5.250699   1.000000
    2        1.885318   1.000000
    3        4.086626   1.000000
    4        4.135219   1.000000
    5        7.694988   0.000000
    6        9.445452   0.000000
    7       10.183076   0.000000
    8       10.332176   0.000000
 
  0.4285714E+00  0.1428571E+00  0.6714690E-17  0.6997085E-01
    1       -4.262134   1.000000
    2       -0.259186   1.000000
    3        3.407784   1.000000
    4        3.947774   1.000000
    5        7.751892   0.000000
    6        9.397177   0.000000
    7       10.134140   0.000000
    8       11.367891   0.000000
 
 -0.4285714E+00  0.1428571E+00 -0.2538985E-16  0.6997085E-01
    1       -3.718075   1.000000
    2       -1.103903   1.000000
    3        3.002288   1.000000
    4        4.140337   1.000000
    5        7.838437   0.000000
    6        9.321572   0.000000
    7        9.748214   0.000000
    8       13.715592   0.000000
 
 -0.2857143E+00  0.1428571E+00 -0.5704498E-17  0.6997085E-01
    1       -4.622928   1.000000
    2        0.407863   1.000000
    3        3.011520   1.000000
    4        4.643880   1.000000
    5        8.220743   0.000000
    6        9.504517   0.000000
    7        9.528140   0.000000
    8       12.189043   0.000000
 
 -0.1428571E+00  0.1428571E+00 -0.5725601E-17  0.3498542E-01
    1       -5.506716   1.000000
    2        2.495265   1.000000
    3        3.697109   1.000000
    4        5.225876   0.999999
    5        8.609347   0.000000
    6        8.896392   0.000000
    7        9.144686   0.000000
    8       11.159880   0.000000
 
  0.2857143E+00  0.2857143E+00  0.8217044E-18  0.1749271E-01
    1       -4.814207   1.000000
    2        1.466687   1.000000
    3        3.524178   1.000000
    4        3.524179   1.000000
    5        6.576249   0.000001
    6        8.248030   0.000000
    7       11.936962   0.000000
    8       11.936965   0.000000
 
  0.4285714E+00  0.2857143E+00 -0.5710699E-17  0.6997085E-01
    1       -3.928296   1.000000
    2       -0.011463   1.000000
    3        2.566450   1.000000
    4        3.268038   1.000000
    5        6.859478   0.000000
    6        8.329922   0.000000
    7       12.144498   0.000000
    8       12.339303   0.000000
 
 -0.4285714E+00  0.2857143E+00  0.1028864E-16  0.6997085E-01
    1       -3.032307   1.000000
    2       -1.163996   1.000000
    3        1.632314   1.000000
    4        3.433019   1.000000
    5        7.096748   0.000000
    6       10.543304   0.000000
    7       11.850909   0.000000
    8       11.878076   0.000000
 
 -0.2857143E+00  0.2857143E+00 -0.7704199E-17  0.3498542E-01
    1       -3.668618   1.000000
    2       -0.427120   1.000000
    3        1.561723   1.000000
    4        3.971513   1.000000
    5        7.687170   0.000000
    6       11.027593   0.000000
    7       11.366239   0.000000
    8       12.125821   0.000000
 
  0.4285714E+00  0.4285714E+00  0.1232557E-17  0.1749271E-01
    1       -3.156758   1.000000
    2       -0.995231   1.000000
    3        2.902658   1.000000
    4        2.902660   1.000000
    5        6.231455   0.010624
    6        6.748873   0.000000
    7       14.549707   0.000000
    8       14.549711   0.000000
 
 -0.4285714E+00  0.4285714E+00 -0.5519460E-17  0.3498542E-01
    1       -2.226681   1.000000
    2       -1.937636   1.000000
    3        2.033297   1.000000
    4        2.962870   1.000000
    5        6.531917   0.000005
    6        7.769088   0.000000
    7       14.329184   0.000000
    8       14.736279   0.000000
 
  0.4285714E+00  0.2857143E+00  0.1428571E+00  0.6997085E-01
    1       -4.511860   1.000000
    2        0.748445   1.000000
    3        2.570369   1.000000
    4        3.866706   1.000000
    5        8.198025   0.000000
    6        9.434203   0.000000
    7        9.727822   0.000000
    8       11.696883   0.000000
 
 -0.4285714E+00  0.2857143E+00  0.1428571E+00  0.1399417E+00
    1       -3.491826   1.000000
    2       -0.753165   1.000000
    3        2.002704   1.000000
    4        3.343508   1.000000
    5        8.679790   0.000000
    6        9.084006   0.000000
    7       11.045137   0.000000
    8       12.148871   0.000000
 
 -0.4285714E+00  0.4285714E+00  0.1428571E+00  0.6997085E-01
    1       -2.957700   1.000000
    2       -1.082036   1.000000
    3        2.097532   1.000000
    4        2.502335   1.000000
    5        7.838180   0.000000
    6        8.208941   0.000000
    7       11.707341   0.000000
    8       14.178147   0.000000
 
 -0.2857143E+00  0.4285714E+00  0.1428571E+00  0.6997085E-01
    1       -2.532642   1.000000
    2       -1.470797   1.000000
    3        1.475136   1.000000
    4        2.591733   1.000000
    5        8.359717   0.000000
    6       10.451471   0.000000
    7       11.194822   0.000000
    8       11.352630   0.000000
