<?xml version="1.0" encoding="ISO-8859-1"?>
<modeling>
 <generator>
  <i name="program" type="string">vasp </i>
  <i name="version" type="string">5.4.4.18Apr17-6-g9f103f2a35  </i>
  <i name="subversion" type="string">(build Dec 09 2018 21:25:21) complex            parallel </i>
  <i name="platform" type="string">IFC18.0.1.163_CrayMPICH7.7.0_MKL18.0.1.163 </i>
  <i name="date" type="string">2019 03 19 </i>
  <i name="time" type="string">13:25:02 </i>
 </generator>
 <incar>
  <i type="string" name="PREC">normal</i>
  <i type="int" name="IBRION">     2</i>
  <i name="EDIFF">      0.00040000</i>
  <i name="EDIFFG">     -0.01000000</i>
  <i type="int" name="NSW">    15</i>
  <i type="int" name="ISIF">     2</i>
  <i name="ENCUT">    150.00000000</i>
  <i type="int" name="NBANDS">     8</i>
  <i type="logical" name="LREAL"> F  </i>
  <i type="int" name="ISMEAR">     0</i>
  <i name="SIGMA">      0.20000000</i>
  <v type="int" name="KPOINT_BSE">    -1     0     0     0</v>
 </incar>
 <structure name="primitive_cell" >
  <crystal>
   <varray name="basis" >
    <v>       0.00000000       2.71500000       2.71500000 </v>
    <v>       2.71500000       0.00000000       2.71500000 </v>
    <v>       2.71500000       2.71500000       0.00000000 </v>
   </varray>
   <i name="volume">     40.02575175 </i>
   <varray name="rec_basis" >
    <v>      -0.18416206       0.18416206       0.18416206 </v>
    <v>       0.18416206      -0.18416206       0.18416206 </v>
    <v>       0.18416206       0.18416206      -0.18416206 </v>
   </varray>
  </crystal>
  <varray name="positions" >
   <v>      -0.50000000      -0.50000000      -0.50000000 </v>
   <v>      -0.25000000      -0.25000000      -0.25000000 </v>
  </varray>
 </structure>
 <varray name="primitive_index" >
  <v type="int" >        1 </v>
  <v type="int" >        2 </v>
 </varray>
 <kpoints>
  <generation param="Monkhorst-Pack">
   <v type="int" name="divisions">       2        2        2 </v>
   <v name="usershift">      0.00000000       0.00000000       0.00000000 </v>
   <v name="genvec1">      0.50000000       0.00000000      -0.00000000 </v>
   <v name="genvec2">      0.00000000       0.50000000       0.00000000 </v>
   <v name="genvec3">     -0.00000000      -0.00000000       0.50000000 </v>
   <v name="shift">      0.50000000       0.50000000       0.50000000 </v>
  </generation>
  <varray name="kpointlist" >
   <v>       0.25000000       0.25000000       0.25000000 </v>
   <v>      -0.25000000       0.25000000       0.25000000 </v>
  </varray>
  <varray name="weights" >
   <v>       0.25000000 </v>
   <v>       0.75000000 </v>
  </varray>
 </kpoints>
 <parameters>
  <separator name="general" >
   <i type="string" name="SYSTEM">unknown system</i>
   <i type="logical" name="LCOMPAT"> F  </i>
  </separator>
  <separator name="electronic" >
   <i type="string" name="PREC">normal</i>
   <i name="ENMAX">    150.00000000</i>
   <i name="ENAUG">    322.06900000</i>
   <i name="EDIFF">      0.00040000</i>
   <i type="int" name="IALGO">    38</i>
   <i type="int" name="IWAVPR">    11</i>
   <i type="int" name="NBANDS">     8</i>
   <i name="NELECT">      8.00000000</i>
   <i type="int" name="TURBO">     0</i>
   <i type="int" name="IRESTART">     0</i>
   <i type="int" name="NREBOOT">     0</i>
   <i type="int" name="NMIN">     0</i>
   <i name="EREF">      0.00000000</i>
   <separator name="electronic smearing" >
    <i type="int" name="ISMEAR">     0</i>
    <i name="SIGMA">      0.20000000</i>
    <i name="KSPACING">      0.50000000</i>
    <i type="logical" name="KGAMMA"> T  </i>
   </separator>
   <separator name="electronic projectors" >
    <i type="logical" name="LREAL"> F  </i>
    <v name="ROPT">      0.00000000</v>
    <i type="int" name="LMAXPAW">  -100</i>
    <i type="int" name="LMAXMIX">     2</i>
    <i type="logical" name="NLSPLINE"> F  </i>
   </separator>
   <separator name="electronic startup" >
    <i type="int" name="ISTART">     1</i>
    <i type="int" name="ICHARG">     0</i>
    <i type="int" name="INIWAV">     1</i>
   </separator>
   <separator name="electronic spin" >
    <i type="int" name="ISPIN">     1</i>
    <i type="logical" name="LNONCOLLINEAR"> F  </i>
    <v name="MAGMOM">      1.00000000      1.00000000</v>
    <i name="NUPDOWN">     -1.00000000</i>
    <i type="logical" name="LSORBIT"> F  </i>
    <v name="SAXIS">      0.00000000      0.00000000      1.00000000</v>
    <i type="logical" name="LSPIRAL"> F  </i>
    <v name="QSPIRAL">      0.00000000      0.00000000      0.00000000</v>
    <i type="logical" name="LZEROZ"> F  </i>
   </separator>
   <separator name="electronic exchange-correlation" >
    <i type="logical" name="LASPH"> F  </i>
    <i type="logical" name="LMETAGGA"> F  </i>
   </separator>
   <separator name="electronic convergence" >
    <i type="int" name="NELM">    60</i>
    <i type="int" name="NELMDL">     0</i>
    <i type="int" name="NELMIN">     2</i>
    <i name="ENINI">    150.00000000</i>
    <separator name="electronic convergence detail" >
     <i type="logical" name="LDIAG"> T  </i>
     <i type="logical" name="LSUBROT"> F  </i>
     <i name="WEIMIN">      0.00100000</i>
     <i name="EBREAK">      0.00001250</i>
     <i name="DEPER">      0.30000000</i>
     <i type="int" name="NRMM">     4</i>
     <i name="TIME">      0.40000000</i>
    </separator>
   </separator>
   <separator name="electronic mixer" >
    <i name="AMIX">      0.40000000</i>
    <i name="BMIX">      1.00000000</i>
    <i name="AMIN">      0.10000000</i>
    <i name="AMIX_MAG">      1.60000000</i>
    <i name="BMIX_MAG">      1.00000000</i>
    <separator name="electronic mixer details" >
     <i type="int" name="IMIX">     4</i>
     <i type="logical" name="MIXFIRST"> F  </i>
     <i type="int" name="MAXMIX">   -45</i>
     <i name="WC">    100.00000000</i>
     <i type="int" name="INIMIX">     1</i>
     <i type="int" name="MIXPRE">     1</i>
     <i type="int" name="MREMOVE">     5</i>
    </separator>
   </separator>
   <separator name="electronic dipolcorrection" >
    <i type="logical" name="LDIPOL"> F  </i>
    <i type="logical" name="LMONO"> F  </i>
    <i type="int" name="IDIPOL">     0</i>
    <i name="EPSILON">      1.00000000</i>
    <v name="DIPOL">   -100.00000000   -100.00000000   -100.00000000</v>
    <i name="EFIELD">      0.00000000</i>
   </separator>
  </separator>
  <separator name="grids" >
   <i type="int" name="NGX">    12</i>
   <i type="int" name="NGY">    12</i>
   <i type="int" name="NGZ">    12</i>
   <i type="int" name="NGXF">    24</i>
   <i type="int" name="NGYF">    24</i>
   <i type="int" name="NGZF">    24</i>
   <i type="logical" name="ADDGRID"> F  </i>
  </separator>
  <separator name="ionic" >
   <i type="int" name="NSW">    15</i>
   <i type="int" name="IBRION">     2</i>
   <i type="int" name="MDALGO">     0</i>
   <i type="int" name="ISIF">     2</i>
   <i name="PSTRESS">      0.00000000</i>
   <i name="EDIFFG">     -0.01000000</i>
   <i type="int" name="NFREE">     1</i>
   <i name="POTIM">      0.50000000</i>
   <i name="SMASS">     -3.00000000</i>
   <i name="SCALEE">      1.00000000</i>
  </separator>
  <separator name="ionic md" >
   <i name="TEBEG">      0.00010000</i>
   <i name="TEEND">      0.00010000</i>
   <i type="int" name="NBLOCK">     1</i>
   <i type="int" name="KBLOCK">    15</i>
   <i type="int" name="NPACO">   256</i>
   <i name="APACO">     16.00000000</i>
  </separator>
  <separator name="symmetry" >
   <i type="int" name="ISYM">     2</i>
   <i name="SYMPREC">      0.00001000</i>
  </separator>
  <separator name="dos" >
   <i type="int" name="LORBIT">     0</i>
   <v name="RWIGS">     -1.00000000</v>
   <i type="int" name="NEDOS">   301</i>
   <i name="EMIN">     10.00000000</i>
   <i name="EMAX">    -10.00000000</i>
   <i name="EFERMI">      0.00000000</i>
  </separator>
  <separator name="writing" >
   <i type="int" name="NWRITE">     2</i>
   <i type="logical" name="LWAVE"> T  </i>
   <i type="logical" name="LDOWNSAMPLE"> F  </i>
   <i type="logical" name="LCHARG"> T  </i>
   <i type="logical" name="LPARD"> F  </i>
   <i type="logical" name="LVTOT"> F  </i>
   <i type="logical" name="LVHAR"> F  </i>
   <i type="logical" name="LELF"> F  </i>
   <i type="logical" name="LOPTICS"> F  </i>
   <v name="STM">      0.00000000      0.00000000      0.00000000      0.00000000      0.00000000      0.00000000      0.00000000</v>
  </separator>
  <separator name="performance" >
   <i type="int" name="NPAR">     8</i>
   <i type="int" name="NSIM">     4</i>
   <i type="int" name="NBLK">    -1</i>
   <i type="logical" name="LPLANE"> T  </i>
   <i type="logical" name="LSCALAPACK"> T  </i>
   <i type="logical" name="LSCAAWARE"> F  </i>
   <i type="logical" name="LSCALU"> F  </i>
   <i type="logical" name="LASYNC"> F  </i>
   <i type="logical" name="LORBITALREAL"> F  </i>
  </separator>
  <separator name="miscellaneous" >
   <i type="int" name="IDIOT">     3</i>
   <i type="int" name="ISPECIAL">     0</i>
   <i type="logical" name="LMUSIC"> F  </i>
   <v name="POMASS">     28.08500000</v>
   <v name="DARWINR">      0.00000000</v>
   <v name="DARWINV">      1.00000000</v>
   <i type="logical" name="LCORR"> T  </i>
  </separator>
  <i type="logical" name="GGA_COMPAT"> T  </i>
  <i type="logical" name="LBERRY"> F  </i>
  <i type="int" name="ICORELEVEL">     0</i>
  <i type="logical" name="LDAU"> F  </i>
  <i type="int" name="I_CONSTRAINED_M">     0</i>
  <separator name="electronic exchange-correlation" >
   <i type="string" name="GGA">--</i>
   <i type="int" name="VOSKOWN">     0</i>
   <i type="logical" name="LHFCALC"> F  </i>
   <i type="string" name="PRECFOCK"></i>
   <i type="logical" name="LSYMGRAD"> F  </i>
   <i type="logical" name="LHFONE"> F  </i>
   <i type="logical" name="LRHFCALC"> F  </i>
   <i type="logical" name="LTHOMAS"> F  </i>
   <i type="logical" name="LMODELHF"> F  </i>
   <i name="ENCUT4O">     -1.00000000</i>
   <i type="int" name="EXXOEP">     0</i>
   <i type="int" name="FOURORBIT">     0</i>
   <i name="AEXX">      0.00000000</i>
   <i name="HFALPHA">      0.00000000</i>
   <i name="MCALPHA">      0.00000000</i>
   <i name="ALDAX">      1.00000000</i>
   <i name="AGGAX">      1.00000000</i>
   <i name="ALDAC">      1.00000000</i>
   <i name="AGGAC">      1.00000000</i>
   <i type="int" name="NKREDX">     1</i>
   <i type="int" name="NKREDY">     1</i>
   <i type="int" name="NKREDZ">     1</i>
   <i type="logical" name="SHIFTRED"> F  </i>
   <i type="logical" name="ODDONLY"> F  </i>
   <i type="logical" name="EVENONLY"> F  </i>
   <i type="int" name="LMAXFOCK">     0</i>
   <i type="int" name="NMAXFOCKAE">     0</i>
   <i type="logical" name="LFOCKAEDFT"> F  </i>
   <i name="HFSCREEN">      0.00000000</i>
   <i name="HFSCREENC">      0.00000000</i>
   <i type="int" name="NBANDSGWLOW">     0</i>
  </separator>
  <separator name="vdW DFT" >
   <i type="logical" name="LUSE_VDW"> F  </i>
   <i name="Zab_VDW">     -0.84910000</i>
   <i name="PARAM1">      0.12340000</i>
   <i name="PARAM2">      1.00000000</i>
   <i name="PARAM3">      0.00000000</i>
  </separator>
  <separator name="model GW" >
   <i type="int" name="MODEL_GW">     0</i>
   <i name="MODEL_EPS0">     12.00772552</i>
   <i name="MODEL_ALPHA">      1.00000000</i>
  </separator>
  <separator name="linear response parameters" >
   <i type="logical" name="LEPSILON"> F  </i>
   <i type="logical" name="LRPA"> F  </i>
   <i type="logical" name="LNABLA"> F  </i>
   <i type="logical" name="LVEL"> F  </i>
   <i type="int" name="KINTER">     0</i>
   <i name="CSHIFT">      0.10000000</i>
   <i name="OMEGAMAX">     -1.00000000</i>
   <i name="DEG_THRESHOLD">      0.00200000</i>
   <i name="RTIME">     -0.10000000</i>
   <i name="WPLASMAI">      0.00000000</i>
   <v name="DFIELD">      0.00000000      0.00000000      0.00000000</v>
   <v name="WPLASMA">      0.00000000      0.00000000      0.00000000      0.00000000      0.00000000      0.00000000      0.00000000      0.00000000      0.00000000</v>
  </separator>
  <separator name="orbital magnetization" >
   <i type="logical" name="NUCIND"> F  </i>
   <v name="MAGPOS">      0.00000000      0.00000000      0.00000000</v>
   <i type="logical" name="LNICSALL"> T  </i>
   <i type="logical" name="ORBITALMAG"> F  </i>
   <i type="logical" name="LMAGBLOCH"> F  </i>
   <i type="logical" name="LCHIMAG"> F  </i>
   <i type="logical" name="LGAUGE"> T  </i>
   <i type="int" name="MAGATOM">     0</i>
   <v name="MAGDIPOL">      0.00000000      0.00000000      0.00000000</v>
   <v name="AVECCONST">      0.00000000      0.00000000      0.00000000</v>
  </separator>
  <separator name="response functions" >
   <i type="logical" name="LADDER"> F  </i>
   <i type="logical" name="LRPAFORCE"> F  </i>
   <i type="logical" name="LFXC"> F  </i>
   <i type="logical" name="LHARTREE"> T  </i>
   <i type="int" name="IBSE">     0</i>
   <v type="int" name="KPOINT">    -1     0     0     0</v>
   <i type="logical" name="LTCTE"> F  </i>
   <i type="logical" name="LTETE"> F  </i>
   <i type="logical" name="LTRIPLET"> F  </i>
   <i type="logical" name="LFXCEPS"> F  </i>
   <i type="logical" name="LFXHEG"> F  </i>
   <i type="int" name="NATURALO">     2</i>
   <i type="logical" name="L2ORDER"> F  </i>
   <i type="logical" name="LMP2LT"> F  </i>
   <i type="logical" name="LUSEW"> F  </i>
   <i name="ENCUTGW">     -2.00000000</i>
   <i name="ENCUTGWSOFT">     -2.00000000</i>
   <i name="ENCUTLF">     -1.00000000</i>
   <i type="int" name="LMAXMP2">    -1</i>
   <i name="SCISSOR">      0.00000000</i>
   <i type="int" name="NOMEGA">     0</i>
   <i type="int" name="NOMEGAR">     0</i>
   <i type="int" name="NBANDSGW">    -1</i>
   <i type="int" name="NBANDSO">    -1</i>
   <i type="int" name="NBANDSV">    -1</i>
   <i type="int" name="NELM">     1</i>
   <i type="int" name="NELMHF">     1</i>
   <i type="int" name="DIM">     3</i>
   <i type="int" name="ANTIRES">     0</i>
   <i name="OMEGAMAX">    -30.00000000</i>
   <i name="OMEGAMIN">    -30.00000000</i>
   <i name="OMEGATL">   -200.00000000</i>
   <i type="int" name="OMEGAGRID">   140</i>
   <i name="CSHIFT">     -0.10000000</i>
   <i type="logical" name="SELFENERGY"> F  </i>
   <i type="logical" name="LSPECTRAL"> F  </i>
   <i type="logical" name="LSPECTRALGW"> F  </i>
   <i type="logical" name="LSINGLES"> F  </i>
   <i type="logical" name="LFERMIGW"> F  </i>
   <i type="logical" name="ODDONLYGW"> F  </i>
   <i type="logical" name="EVENONLYGW"> F  </i>
   <i type="int" name="NKREDLFX">     1</i>
   <i type="int" name="NKREDLFY">     1</i>
   <i type="int" name="NKREDLFZ">     1</i>
   <i type="int" name="MAXMEM">  2800</i>
   <i type="int" name="TELESCOPE">     0</i>
   <i type="int" name="TAUPAR">     1</i>
   <i type="int" name="OMEGAPAR">    -1</i>
   <i name="LAMBDA">      1.00000000</i>
  </separator>
  <separator name="External order field" >
   <i name="OFIELD_KAPPA">      0.00000000</i>
   <v name="OFIELD_K">      0.00000000      0.00000000      0.00000000</v>
   <i name="OFIELD_Q6_NEAR">      0.00000000</i>
   <i name="OFIELD_Q6_FAR">      0.00000000</i>
   <i name="OFIELD_A">      0.00000000</i>
  </separator>
 </parameters>
 <atominfo>
  <atoms>       2 </atoms>
  <types>       1 </types>
  <array name="atoms" >
   <dimension dim="1">ion</dimension>
   <field type="string">element</field>
   <field type="int">atomtype</field>
   <set>
    <rc><c>Si</c><c>   1</c></rc>
    <rc><c>Si</c><c>   1</c></rc>
   </set>
  </array>
  <array name="atomtypes" >
   <dimension dim="1">type</dimension>
   <field type="int">atomspertype</field>
   <field type="string">element</field>
   <field>mass</field>
   <field>valence</field>
   <field type="string">pseudopotential</field>
   <set>
    <rc><c>   2</c><c>Si</c><c>     28.08500000</c><c>      4.00000000</c><c> PAW_PBE Si 05Jan2001                   </c></rc>
   </set>
  </array>
 </atominfo>
 <structure name="initialpos" >
  <crystal>
   <varray name="basis" >
    <v>       0.00000000       2.71500000       2.71500000 </v>
    <v>       2.71500000       0.00000000       2.71500000 </v>
    <v>       2.71500000       2.71500000       0.00000000 </v>
   </varray>
   <i name="volume">     40.02575175 </i>
   <varray name="rec_basis" >
    <v>      -0.18416206       0.18416206       0.18416206 </v>
    <v>       0.18416206      -0.18416206       0.18416206 </v>
    <v>       0.18416206       0.18416206      -0.18416206 </v>
   </varray>
  </crystal>
  <varray name="positions" >
   <v>       0.50000000       0.50000000       0.50000000 </v>
   <v>       0.75000000       0.75000000       0.75000000 </v>
  </varray>
 </structure>
 <calculation>
  <scstep>
   <time name="dav">    0.01    0.01</time>
   <time name="total">    0.05    0.06</time>
   <energy>
    <i name="alphaZ">      3.36414203 </i>
    <i name="ewald">   -228.56352493 </i>
    <i name="hartreedc">    -15.15373528 </i>
    <i name="XCdc">    -17.89073042 </i>
    <i name="pawpsdc">     76.83348608 </i>
    <i name="pawaedc">    -41.89246122 </i>
    <i name="eentropy">     -0.00000000 </i>
    <i name="bandstr">      6.62387801 </i>
    <i name="atom">    206.09183643 </i>
    <i name="e_fr_energy">    -10.58710931 </i>
    <i name="e_wo_entrp">    -10.58710931 </i>
    <i name="e_0_energy">    -10.58710931 </i>
   </energy>
  </scstep>
  <scstep>
   <time name="dav">    0.01    0.01</time>
   <time name="total">    0.03    0.04</time>
   <energy>
    <i name="alphaZ">      3.36414203 </i>
    <i name="ewald">   -228.56352493 </i>
    <i name="hartreedc">    -15.15354073 </i>
    <i name="XCdc">    -17.89072248 </i>
    <i name="pawpsdc">     76.83197513 </i>
    <i name="pawaedc">    -41.89088969 </i>
    <i name="eentropy">     -0.00000000 </i>
    <i name="bandstr">      6.62361450 </i>
    <i name="atom">    206.09183643 </i>
    <i name="e_fr_energy">    -10.58710975 </i>
    <i name="e_wo_entrp">    -10.58710975 </i>
    <i name="e_0_energy">    -10.58710975 </i>
   </energy>
  </scstep>
  <structure>
   <crystal>
    <varray name="basis" >
     <v>       0.00000000       2.71500000       2.71500000 </v>
     <v>       2.71500000       0.00000000       2.71500000 </v>
     <v>       2.71500000       2.71500000       0.00000000 </v>
    </varray>
    <i name="volume">     40.02575175 </i>
    <varray name="rec_basis" >
     <v>      -0.18416206       0.18416206       0.18416206 </v>
     <v>       0.18416206      -0.18416206       0.18416206 </v>
     <v>       0.18416206       0.18416206      -0.18416206 </v>
    </varray>
   </crystal>
   <varray name="positions" >
    <v>       0.50000000       0.50000000       0.50000000 </v>
    <v>       0.75000000       0.75000000       0.75000000 </v>
   </varray>
  </structure>
  <varray name="forces" >
   <v>       0.00000000       0.00000000      -0.00000000 </v>
   <v>      -0.00000000      -0.00000000       0.00000000 </v>
  </varray>
  <varray name="stress" >
   <v>      23.16273933       0.00000000      -0.00000000 </v>
   <v>       0.00000000      23.16273933      -0.00000000 </v>
   <v>       0.00000000       0.00000000      23.16273933 </v>
  </varray>
  <energy>
   <i name="e_fr_energy">    -10.58710975 </i>
   <i name="e_wo_entrp">    -10.58710975 </i>
   <i name="e_0_energy">     -0.00000000 </i>
  </energy>
  <time name="totalsc">    0.42    0.84</time>
  <eigenvalues>
   <array>
    <dimension dim="1">band</dimension>
    <dimension dim="2">kpoint</dimension>
    <dimension dim="3">spin</dimension>
    <field>eigene</field>
    <field>occ</field>
    <set>
     <set comment="spin 1">
      <set comment="kpoint 1">
       <r>   -5.3039    1.0000 </r>
       <r>    1.9508    1.0000 </r>
       <r>    5.1350    1.0000 </r>
       <r>    5.1350    1.0000 </r>
       <r>    7.9507    0.0000 </r>
       <r>    9.4465    0.0000 </r>
       <r>    9.4465    0.0000 </r>
       <r>   12.8298    0.0000 </r>
      </set>
      <set comment="kpoint 2">
       <r>   -3.3802    1.0000 </r>
       <r>   -0.5148    1.0000 </r>
       <r>    2.3373    1.0000 </r>
       <r>    3.6677    1.0000 </r>
       <r>    7.4498    0.0000 </r>
       <r>   10.4079    0.0000 </r>
       <r>   11.6885    0.0000 </r>
       <r>   11.9068    0.0000 </r>
      </set>
     </set>
    </set>
   </array>
  </eigenvalues>
  <separator name="orbital magnetization" >
   <v name="MAGDIPOLOUT">      0.00000000      0.00000000      0.00000000</v>
  </separator>
  <dos>
   <i name="efermi">      6.05023800 </i>
   <total>
    <array>
     <dimension dim="1">gridpoints</dimension>
     <dimension dim="2">spin</dimension>
     <field>energy</field>
     <field>total</field>
     <field>integrated</field>
     <set>
      <set comment="spin 1">
       <r>    -7.3039     0.0000     0.0000 </r>
       <r>    -7.2301     0.0000     0.0000 </r>
       <r>    -7.1563     0.0000     0.0000 </r>
       <r>    -7.0825     0.0000     0.0000 </r>
       <r>    -7.0088     0.0000     0.0000 </r>
       <r>    -6.9350     0.0000     0.0000 </r>
       <r>    -6.8612     0.0000     0.0000 </r>
       <r>    -6.7874     0.0000     0.0000 </r>
       <r>    -6.7136     0.0000     0.0000 </r>
       <r>    -6.6399     0.0000     0.0000 </r>
       <r>    -6.5661     0.0000     0.0000 </r>
       <r>    -6.4923     0.0000     0.0000 </r>
       <r>    -6.4185     0.0000     0.0000 </r>
       <r>    -6.3448     0.0000     0.0000 </r>
       <r>    -6.2710     0.0000     0.0000 </r>
       <r>    -6.1972     0.0000     0.0000 </r>
       <r>    -6.1234     0.0000     0.0000 </r>
       <r>    -6.0496     0.0000     0.0000 </r>
       <r>    -5.9759     0.0000     0.0000 </r>
       <r>    -5.9021     0.0001     0.0000 </r>
       <r>    -5.8283     0.0006     0.0001 </r>
       <r>    -5.7545     0.0042     0.0004 </r>
       <r>    -5.6807     0.0212     0.0019 </r>
       <r>    -5.6070     0.0827     0.0080 </r>
       <r>    -5.5332     0.2468     0.0262 </r>
       <r>    -5.4594     0.5642     0.0679 </r>
       <r>    -5.3856     0.9887     0.1408 </r>
       <r>    -5.3118     1.3277     0.2388 </r>
       <r>    -5.2381     1.3664     0.3396 </r>
       <r>    -5.1643     1.0778     0.4191 </r>
       <r>    -5.0905     0.6515     0.4672 </r>
       <r>    -5.0167     0.3018     0.4894 </r>
       <r>    -4.9430     0.1071     0.4973 </r>
       <r>    -4.8692     0.0291     0.4995 </r>
       <r>    -4.7954     0.0061     0.4999 </r>
       <r>    -4.7216     0.0010     0.5000 </r>
       <r>    -4.6478     0.0001     0.5000 </r>
       <r>    -4.5741     0.0000     0.5000 </r>
       <r>    -4.5003     0.0000     0.5000 </r>
       <r>    -4.4265     0.0000     0.5000 </r>
       <r>    -4.3527     0.0000     0.5000 </r>
       <r>    -4.2789     0.0000     0.5000 </r>
       <r>    -4.2052     0.0000     0.5000 </r>
       <r>    -4.1314     0.0000     0.5000 </r>
       <r>    -4.0576     0.0000     0.5000 </r>
       <r>    -3.9838     0.0002     0.5000 </r>
       <r>    -3.9101     0.0016     0.5001 </r>
       <r>    -3.8363     0.0110     0.5009 </r>
       <r>    -3.7625     0.0569     0.5051 </r>
       <r>    -3.6887     0.2263     0.5218 </r>
       <r>    -3.6149     0.6889     0.5727 </r>
       <r>    -3.5412     1.6067     0.6912 </r>
       <r>    -3.4674     2.8714     0.9031 </r>
       <r>    -3.3936     3.9328     1.1932 </r>
       <r>    -3.3198     4.1281     1.4978 </r>
       <r>    -3.2460     3.3209     1.7428 </r>
       <r>    -3.1723     2.0474     1.8938 </r>
       <r>    -3.0985     0.9673     1.9652 </r>
       <r>    -3.0247     0.3501     1.9910 </r>
       <r>    -2.9509     0.0971     1.9982 </r>
       <r>    -2.8771     0.0206     1.9997 </r>
       <r>    -2.8034     0.0034     2.0000 </r>
       <r>    -2.7296     0.0004     2.0000 </r>
       <r>    -2.6558     0.0000     2.0000 </r>
       <r>    -2.5820     0.0000     2.0000 </r>
       <r>    -2.5083     0.0000     2.0000 </r>
       <r>    -2.4345     0.0000     2.0000 </r>
       <r>    -2.3607     0.0000     2.0000 </r>
       <r>    -2.2869     0.0000     2.0000 </r>
       <r>    -2.2131     0.0000     2.0000 </r>
       <r>    -2.1394     0.0000     2.0000 </r>
       <r>    -2.0656     0.0000     2.0000 </r>
       <r>    -1.9918     0.0000     2.0000 </r>
       <r>    -1.9180     0.0000     2.0000 </r>
       <r>    -1.8442     0.0000     2.0000 </r>
       <r>    -1.7705     0.0000     2.0000 </r>
       <r>    -1.6967     0.0000     2.0000 </r>
       <r>    -1.6229     0.0000     2.0000 </r>
       <r>    -1.5491     0.0000     2.0000 </r>
       <r>    -1.4753     0.0000     2.0000 </r>
       <r>    -1.4016     0.0000     2.0000 </r>
       <r>    -1.3278     0.0000     2.0000 </r>
       <r>    -1.2540     0.0000     2.0000 </r>
       <r>    -1.1802     0.0000     2.0000 </r>
       <r>    -1.1065     0.0003     2.0000 </r>
       <r>    -1.0327     0.0023     2.0002 </r>
       <r>    -0.9589     0.0146     2.0013 </r>
       <r>    -0.8851     0.0725     2.0066 </r>
       <r>    -0.8113     0.2761     2.0270 </r>
       <r>    -0.7376     0.8048     2.0864 </r>
       <r>    -0.6638     1.7977     2.2190 </r>
       <r>    -0.5900     3.0770     2.4460 </r>
       <r>    -0.5162     4.0362     2.7438 </r>
       <r>    -0.4424     4.0576     3.0432 </r>
       <r>    -0.3687     3.1262     3.2738 </r>
       <r>    -0.2949     1.8458     3.4100 </r>
       <r>    -0.2211     0.8352     3.4716 </r>
       <r>    -0.1473     0.2895     3.4930 </r>
       <r>    -0.0736     0.0769     3.4986 </r>
       <r>     0.0002     0.0156     3.4998 </r>
       <r>     0.0740     0.0024     3.5000 </r>
       <r>     0.1478     0.0003     3.5000 </r>
       <r>     0.2216     0.0000     3.5000 </r>
       <r>     0.2953     0.0000     3.5000 </r>
       <r>     0.3691     0.0000     3.5000 </r>
       <r>     0.4429     0.0000     3.5000 </r>
       <r>     0.5167     0.0000     3.5000 </r>
       <r>     0.5905     0.0000     3.5000 </r>
       <r>     0.6642     0.0000     3.5000 </r>
       <r>     0.7380     0.0000     3.5000 </r>
       <r>     0.8118     0.0000     3.5000 </r>
       <r>     0.8856     0.0000     3.5000 </r>
       <r>     0.9594     0.0000     3.5000 </r>
       <r>     1.0331     0.0000     3.5000 </r>
       <r>     1.1069     0.0000     3.5000 </r>
       <r>     1.1807     0.0000     3.5000 </r>
       <r>     1.2545     0.0000     3.5000 </r>
       <r>     1.3282     0.0000     3.5000 </r>
       <r>     1.4020     0.0003     3.5000 </r>
       <r>     1.4758     0.0023     3.5002 </r>
       <r>     1.5496     0.0128     3.5011 </r>
       <r>     1.6234     0.0544     3.5052 </r>
       <r>     1.6971     0.1773     3.5182 </r>
       <r>     1.7709     0.4430     3.5509 </r>
       <r>     1.8447     0.8507     3.6137 </r>
       <r>     1.9185     1.2668     3.7071 </r>
       <r>     1.9923     1.5121     3.8187 </r>
       <r>     2.0660     1.6107     3.9375 </r>
       <r>     2.1398     1.8843     4.0766 </r>
       <r>     2.2136     2.6276     4.2704 </r>
       <r>     2.2874     3.6348     4.5386 </r>
       <r>     2.3612     4.2126     4.8494 </r>
       <r>     2.4349     3.8340     5.1323 </r>
       <r>     2.5087     2.6910     5.3308 </r>
       <r>     2.5825     1.4496     5.4377 </r>
       <r>     2.6563     0.5986     5.4819 </r>
       <r>     2.7300     0.1894     5.4959 </r>
       <r>     2.8038     0.0459     5.4993 </r>
       <r>     2.8776     0.0085     5.4999 </r>
       <r>     2.9514     0.0012     5.5000 </r>
       <r>     3.0252     0.0002     5.5000 </r>
       <r>     3.0989     0.0005     5.5000 </r>
       <r>     3.1727     0.0041     5.5003 </r>
       <r>     3.2465     0.0247     5.5022 </r>
       <r>     3.3203     0.1131     5.5105 </r>
       <r>     3.3941     0.3963     5.5398 </r>
       <r>     3.4678     1.0633     5.6182 </r>
       <r>     3.5416     2.1863     5.7795 </r>
       <r>     3.6154     3.4448     6.0337 </r>
       <r>     3.6892     4.1597     6.3406 </r>
       <r>     3.7629     3.8496     6.6246 </r>
       <r>     3.8367     2.7303     6.8260 </r>
       <r>     3.9105     1.4840     6.9355 </r>
       <r>     3.9843     0.6181     6.9811 </r>
       <r>     4.0581     0.1972     6.9957 </r>
       <r>     4.1318     0.0482     6.9992 </r>
       <r>     4.2056     0.0090     6.9999 </r>
       <r>     4.2794     0.0013     7.0000 </r>
       <r>     4.3532     0.0001     7.0000 </r>
       <r>     4.4270     0.0000     7.0000 </r>
       <r>     4.5007     0.0000     7.0000 </r>
       <r>     4.5745     0.0005     7.0000 </r>
       <r>     4.6483     0.0034     7.0003 </r>
       <r>     4.7221     0.0198     7.0018 </r>
       <r>     4.7959     0.0879     7.0082 </r>
       <r>     4.8696     0.2989     7.0303 </r>
       <r>     4.9434     0.7785     7.0877 </r>
       <r>     5.0172     1.5539     7.2024 </r>
       <r>     5.0910     2.3766     7.3777 </r>
       <r>     5.1647     2.7858     7.5832 </r>
       <r>     5.2385     2.5026     7.7679 </r>
       <r>     5.3123     1.7230     7.8950 </r>
       <r>     5.3861     0.9091     7.9621 </r>
       <r>     5.4599     0.3675     7.9892 </r>
       <r>     5.5336     0.1138     7.9976 </r>
       <r>     5.6074     0.0270     7.9996 </r>
       <r>     5.6812     0.0049     7.9999 </r>
       <r>     5.7550     0.0007     8.0000 </r>
       <r>     5.8288     0.0001     8.0000 </r>
       <r>     5.9025     0.0000     8.0000 </r>
       <r>     5.9763     0.0000     8.0000 </r>
       <r>     6.0501     0.0000     8.0000 </r>
       <r>     6.1239     0.0000     8.0000 </r>
       <r>     6.1977     0.0000     8.0000 </r>
       <r>     6.2714     0.0000     8.0000 </r>
       <r>     6.3452     0.0000     8.0000 </r>
       <r>     6.4190     0.0000     8.0000 </r>
       <r>     6.4928     0.0000     8.0000 </r>
       <r>     6.5665     0.0000     8.0000 </r>
       <r>     6.6403     0.0000     8.0000 </r>
       <r>     6.7141     0.0000     8.0000 </r>
       <r>     6.7879     0.0000     8.0000 </r>
       <r>     6.8617     0.0003     8.0000 </r>
       <r>     6.9354     0.0025     8.0002 </r>
       <r>     7.0092     0.0159     8.0014 </r>
       <r>     7.0830     0.0779     8.0071 </r>
       <r>     7.1568     0.2927     8.0287 </r>
       <r>     7.2306     0.8422     8.0909 </r>
       <r>     7.3043     1.8569     8.2279 </r>
       <r>     7.3781     3.1375     8.4593 </r>
       <r>     7.4519     4.0635     8.7591 </r>
       <r>     7.5257     4.0386     9.0571 </r>
       <r>     7.5994     3.1008     9.2859 </r>
       <r>     7.6732     1.9113     9.4269 </r>
       <r>     7.7470     1.1369     9.5108 </r>
       <r>     7.8208     0.9796     9.5830 </r>
       <r>     7.8946     1.2004     9.6716 </r>
       <r>     7.9683     1.3964     9.7746 </r>
       <r>     8.0421     1.2991     9.8705 </r>
       <r>     8.1159     0.9329     9.9393 </r>
       <r>     8.1897     0.5140     9.9772 </r>
       <r>     8.2635     0.2171     9.9932 </r>
       <r>     8.3372     0.0702     9.9984 </r>
       <r>     8.4110     0.0174     9.9997 </r>
       <r>     8.4848     0.0033    10.0000 </r>
       <r>     8.5586     0.0005    10.0000 </r>
       <r>     8.6324     0.0001    10.0000 </r>
       <r>     8.7061     0.0000    10.0000 </r>
       <r>     8.7799     0.0000    10.0000 </r>
       <r>     8.8537     0.0002    10.0000 </r>
       <r>     8.9275     0.0015    10.0001 </r>
       <r>     9.0012     0.0095    10.0008 </r>
       <r>     9.0750     0.0473    10.0043 </r>
       <r>     9.1488     0.1808    10.0176 </r>
       <r>     9.2226     0.5291    10.0567 </r>
       <r>     9.2964     1.1865    10.1442 </r>
       <r>     9.3701     2.0389    10.2946 </r>
       <r>     9.4439     2.6851    10.4928 </r>
       <r>     9.5177     2.7101    10.6927 </r>
       <r>     9.5915     2.0964    10.8474 </r>
       <r>     9.6653     1.2427    10.9391 </r>
       <r>     9.7390     0.5645    10.9807 </r>
       <r>     9.8128     0.1967    10.9952 </r>
       <r>     9.8866     0.0544    10.9992 </r>
       <r>     9.9604     0.0242    11.0010 </r>
       <r>    10.0342     0.0694    11.0061 </r>
       <r>    10.1079     0.2612    11.0254 </r>
       <r>    10.1817     0.7703    11.0822 </r>
       <r>    10.2555     1.7420    11.2108 </r>
       <r>    10.3293     3.0188    11.4335 </r>
       <r>    10.4030     4.0092    11.7293 </r>
       <r>    10.4768     4.0806    12.0304 </r>
       <r>    10.5506     3.1830    12.2652 </r>
       <r>    10.6244     1.9028    12.4056 </r>
       <r>    10.6982     0.8717    12.4699 </r>
       <r>    10.7719     0.3059    12.4925 </r>
       <r>    10.8457     0.0823    12.4985 </r>
       <r>    10.9195     0.0169    12.4998 </r>
       <r>    10.9933     0.0027    12.5000 </r>
       <r>    11.0671     0.0004    12.5000 </r>
       <r>    11.1408     0.0010    12.5001 </r>
       <r>    11.2146     0.0071    12.5006 </r>
       <r>    11.2884     0.0394    12.5035 </r>
       <r>    11.3622     0.1674    12.5159 </r>
       <r>    11.4360     0.5475    12.5563 </r>
       <r>    11.5097     1.3843    12.6584 </r>
       <r>    11.5835     2.7335    12.8601 </r>
       <r>    11.6573     4.2987    13.1772 </r>
       <r>    11.7311     5.5660    13.5879 </r>
       <r>    11.8048     6.1972    14.0451 </r>
       <r>    11.8786     6.1293    14.4973 </r>
       <r>    11.9524     5.3635    14.8930 </r>
       <r>    12.0262     4.0016    15.1883 </r>
       <r>    12.1000     2.4396    15.3682 </r>
       <r>    12.1737     1.1788    15.4552 </r>
       <r>    12.2475     0.4438    15.4880 </r>
       <r>    12.3213     0.1299    15.4975 </r>
       <r>    12.3951     0.0349    15.5001 </r>
       <r>    12.4689     0.0341    15.5026 </r>
       <r>    12.5426     0.1077    15.5106 </r>
       <r>    12.6164     0.3018    15.5328 </r>
       <r>    12.6902     0.6515    15.5809 </r>
       <r>    12.7640     1.0778    15.6604 </r>
       <r>    12.8377     1.3664    15.7612 </r>
       <r>    12.9115     1.3277    15.8592 </r>
       <r>    12.9853     0.9887    15.9321 </r>
       <r>    13.0591     0.5642    15.9738 </r>
       <r>    13.1329     0.2468    15.9920 </r>
       <r>    13.2066     0.0827    15.9981 </r>
       <r>    13.2804     0.0212    15.9996 </r>
       <r>    13.3542     0.0042    15.9999 </r>
       <r>    13.4280     0.0006    16.0000 </r>
       <r>    13.5018     0.0001    16.0000 </r>
       <r>    13.5755     0.0000    16.0000 </r>
       <r>    13.6493     0.0000    16.0000 </r>
       <r>    13.7231     0.0000    16.0000 </r>
       <r>    13.7969     0.0000    16.0000 </r>
       <r>    13.8707     0.0000    16.0000 </r>
       <r>    13.9444     0.0000    16.0000 </r>
       <r>    14.0182     0.0000    16.0000 </r>
       <r>    14.0920     0.0000    16.0000 </r>
       <r>    14.1658     0.0000    16.0000 </r>
       <r>    14.2395     0.0000    16.0000 </r>
       <r>    14.3133     0.0000    16.0000 </r>
       <r>    14.3871     0.0000    16.0000 </r>
       <r>    14.4609     0.0000    16.0000 </r>
       <r>    14.5347     0.0000    16.0000 </r>
       <r>    14.6084     0.0000    16.0000 </r>
       <r>    14.6822     0.0000    16.0000 </r>
       <r>    14.7560     0.0000    16.0000 </r>
       <r>    14.8298     0.0000    16.0000 </r>
      </set>
     </set>
    </array>
   </total>
  </dos>
 </calculation>
 <structure name="finalpos" >
  <crystal>
   <varray name="basis" >
    <v>       0.00000000       2.71500000       2.71500000 </v>
    <v>       2.71500000       0.00000000       2.71500000 </v>
    <v>       2.71500000       2.71500000       0.00000000 </v>
   </varray>
   <i name="volume">     40.02575175 </i>
   <varray name="rec_basis" >
    <v>      -0.18416206       0.18416206       0.18416206 </v>
    <v>       0.18416206      -0.18416206       0.18416206 </v>
    <v>       0.18416206       0.18416206      -0.18416206 </v>
   </varray>
  </crystal>
  <varray name="positions" >
   <v>       0.50000000       0.50000000       0.50000000 </v>
   <v>       0.75000000       0.75000000       0.75000000 </v>
  </varray>
 </structure>
</modeling>
