   2   2   0   0
  0.2001288E+02  0.3839590E-09  0.3839590E-09  0.3839590E-09  0.5000000E-15
  1.000000000000000E-004
  CAR 
 unknown system                          
     17.31998636     -8.17429187  301      5.93683097      1.00000000
     -8.174  0.0000E+00  0.0000E+00
     -8.089  0.0000E+00  0.0000E+00
     -8.004  0.0000E+00  0.0000E+00
     -7.919  0.0000E+00  0.0000E+00
     -7.834  0.0000E+00  0.0000E+00
     -7.749  0.0000E+00  0.0000E+00
     -7.664  0.0000E+00  0.0000E+00
     -7.579  0.0000E+00  0.0000E+00
     -7.494  0.0000E+00  0.0000E+00
     -7.409  0.0000E+00  0.0000E+00
     -7.324  0.4032E-18  0.3427E-19
     -7.240  0.5000E-16  0.4283E-17
     -7.155  0.4285E-14  0.3684E-15
     -7.070  0.2595E-12  0.2242E-13
     -6.985  0.1112E-10  0.9675E-12
     -6.900  0.3384E-09  0.2972E-10
     -6.815  0.7334E-08  0.6530E-09
     -6.730  0.1137E-06  0.1032E-07
     -6.645  0.1268E-05  0.1181E-06
     -6.560  0.1023E-04  0.9875E-06
     -6.475  0.6026E-04  0.6109E-05
     -6.390  0.2621E-03  0.2838E-04
     -6.305  0.8547E-03  0.1010E-03
     -6.220  0.2137E-02  0.2827E-03
     -6.135  0.4222E-02  0.6414E-03
     -6.050  0.6843E-02  0.1223E-02
     -5.965  0.9530E-02  0.2033E-02
     -5.880  0.1195E-01  0.3048E-02
     -5.795  0.1402E-01  0.4240E-02
     -5.710  0.1582E-01  0.5584E-02
     -5.625  0.1746E-01  0.7068E-02
     -5.540  0.1901E-01  0.8683E-02
     -5.455  0.2040E-01  0.1042E-01
     -5.370  0.2172E-01  0.1226E-01
     -5.285  0.2314E-01  0.1423E-01
     -5.200  0.2456E-01  0.1632E-01
     -5.115  0.2570E-01  0.1850E-01
     -5.030  0.2680E-01  0.2078E-01
     -4.945  0.2824E-01  0.2318E-01
     -4.860  0.2983E-01  0.2571E-01
     -4.775  0.3111E-01  0.2836E-01
     -4.690  0.3206E-01  0.3108E-01
     -4.605  0.3322E-01  0.3390E-01
     -4.520  0.3508E-01  0.3688E-01
     -4.435  0.3729E-01  0.4005E-01
     -4.350  0.3896E-01  0.4336E-01
     -4.265  0.4012E-01  0.4677E-01
     -4.180  0.4201E-01  0.5034E-01
     -4.095  0.4537E-01  0.5420E-01
     -4.010  0.4961E-01  0.5842E-01
     -3.925  0.5347E-01  0.6296E-01
     -3.840  0.5570E-01  0.6769E-01
     -3.755  0.5581E-01  0.7244E-01
     -3.670  0.5479E-01  0.7709E-01
     -3.585  0.5403E-01  0.8168E-01
     -3.500  0.5344E-01  0.8622E-01
     -3.415  0.5223E-01  0.9066E-01
     -3.330  0.5006E-01  0.9492E-01
     -3.245  0.4665E-01  0.9888E-01
     -3.160  0.4262E-01  0.1025E+00
     -3.075  0.4025E-01  0.1059E+00
     -2.990  0.4075E-01  0.1094E+00
     -2.905  0.4170E-01  0.1129E+00
     -2.820  0.3960E-01  0.1163E+00
     -2.736  0.3407E-01  0.1192E+00
     -2.651  0.2818E-01  0.1216E+00
     -2.566  0.2522E-01  0.1237E+00
     -2.481  0.2560E-01  0.1259E+00
     -2.396  0.2640E-01  0.1281E+00
     -2.311  0.2416E-01  0.1302E+00
     -2.226  0.1825E-01  0.1318E+00
     -2.141  0.1119E-01  0.1327E+00
     -2.056  0.6213E-02  0.1332E+00
     -1.971  0.5447E-02  0.1337E+00
     -1.886  0.9417E-02  0.1345E+00
     -1.801  0.1637E-01  0.1359E+00
     -1.716  0.2228E-01  0.1378E+00
     -1.631  0.2395E-01  0.1398E+00
     -1.546  0.2263E-01  0.1417E+00
     -1.461  0.2312E-01  0.1437E+00
     -1.376  0.3009E-01  0.1463E+00
     -1.291  0.4495E-01  0.1501E+00
     -1.206  0.6363E-01  0.1555E+00
     -1.121  0.7785E-01  0.1621E+00
     -1.036  0.8148E-01  0.1690E+00
     -0.951  0.7575E-01  0.1755E+00
     -0.866  0.6669E-01  0.1811E+00
     -0.781  0.5888E-01  0.1861E+00
     -0.696  0.5356E-01  0.1907E+00
     -0.611  0.5050E-01  0.1950E+00
     -0.526  0.4803E-01  0.1991E+00
     -0.441  0.4367E-01  0.2028E+00
     -0.356  0.3801E-01  0.2060E+00
     -0.271  0.3435E-01  0.2089E+00
     -0.186  0.3312E-01  0.2117E+00
     -0.101  0.3158E-01  0.2144E+00
     -0.016  0.2937E-01  0.2169E+00
      0.069  0.2895E-01  0.2194E+00
      0.154  0.3007E-01  0.2219E+00
      0.239  0.2914E-01  0.2244E+00
      0.324  0.2507E-01  0.2265E+00
      0.409  0.2134E-01  0.2283E+00
      0.494  0.2090E-01  0.2301E+00
      0.579  0.2218E-01  0.2320E+00
      0.664  0.2182E-01  0.2339E+00
      0.749  0.1948E-01  0.2355E+00
      0.834  0.1793E-01  0.2370E+00
      0.919  0.1857E-01  0.2386E+00
      1.004  0.1941E-01  0.2403E+00
      1.089  0.1848E-01  0.2418E+00
      1.174  0.1729E-01  0.2433E+00
      1.259  0.1985E-01  0.2450E+00
      1.344  0.2859E-01  0.2474E+00
      1.429  0.4207E-01  0.2510E+00
      1.514  0.5614E-01  0.2558E+00
      1.599  0.6662E-01  0.2614E+00
      1.683  0.7184E-01  0.2675E+00
      1.768  0.7333E-01  0.2738E+00
      1.853  0.7369E-01  0.2800E+00
      1.938  0.7363E-01  0.2863E+00
      2.023  0.7221E-01  0.2924E+00
      2.108  0.6965E-01  0.2983E+00
      2.193  0.6832E-01  0.3042E+00
      2.278  0.7019E-01  0.3101E+00
      2.363  0.7410E-01  0.3164E+00
      2.448  0.7701E-01  0.3230E+00
      2.533  0.7805E-01  0.3296E+00
      2.618  0.7950E-01  0.3363E+00
      2.703  0.8337E-01  0.3434E+00
      2.788  0.8946E-01  0.3510E+00
      2.873  0.9600E-01  0.3592E+00
      2.958  0.1005E+00  0.3677E+00
      3.043  0.1013E+00  0.3763E+00
      3.128  0.9879E-01  0.3847E+00
      3.213  0.9595E-01  0.3929E+00
      3.298  0.9523E-01  0.4010E+00
      3.383  0.9593E-01  0.4091E+00
      3.468  0.9515E-01  0.4172E+00
      3.553  0.9190E-01  0.4250E+00
      3.638  0.8861E-01  0.4326E+00
      3.723  0.8746E-01  0.4400E+00
      3.808  0.8741E-01  0.4474E+00
      3.893  0.8635E-01  0.4548E+00
      3.978  0.8427E-01  0.4619E+00
      4.063  0.8239E-01  0.4689E+00
      4.148  0.8098E-01  0.4758E+00
      4.233  0.7910E-01  0.4825E+00
      4.318  0.7598E-01  0.4890E+00
      4.403  0.7189E-01  0.4951E+00
      4.488  0.6703E-01  0.5008E+00
      4.573  0.6040E-01  0.5059E+00
      4.658  0.5191E-01  0.5103E+00
      4.743  0.4384E-01  0.5141E+00
      4.828  0.3826E-01  0.5173E+00
      4.913  0.3461E-01  0.5203E+00
      4.998  0.3106E-01  0.5229E+00
      5.083  0.2694E-01  0.5252E+00
      5.168  0.2290E-01  0.5271E+00
      5.253  0.1952E-01  0.5288E+00
      5.338  0.1660E-01  0.5302E+00
      5.423  0.1357E-01  0.5314E+00
      5.508  0.1017E-01  0.5322E+00
      5.593  0.6725E-02  0.5328E+00
      5.678  0.3793E-02  0.5331E+00
      5.763  0.1761E-02  0.5333E+00
      5.848  0.6509E-03  0.5333E+00
      5.933  0.2134E-03  0.5333E+00
      6.018  0.2110E-03  0.5334E+00
      6.103  0.6809E-03  0.5334E+00
      6.187  0.1939E-02  0.5336E+00
      6.272  0.4257E-02  0.5339E+00
      6.357  0.7610E-02  0.5346E+00
      6.442  0.1190E-01  0.5356E+00
      6.527  0.1691E-01  0.5370E+00
      6.612  0.2182E-01  0.5389E+00
      6.697  0.2549E-01  0.5411E+00
      6.782  0.2787E-01  0.5434E+00
      6.867  0.3029E-01  0.5460E+00
      6.952  0.3437E-01  0.5489E+00
      7.037  0.3995E-01  0.5523E+00
      7.122  0.4501E-01  0.5561E+00
      7.207  0.4858E-01  0.5603E+00
      7.292  0.5200E-01  0.5647E+00
      7.377  0.5665E-01  0.5695E+00
      7.462  0.6270E-01  0.5748E+00
      7.547  0.7006E-01  0.5808E+00
      7.632  0.7848E-01  0.5874E+00
      7.717  0.8748E-01  0.5949E+00
      7.802  0.9619E-01  0.6031E+00
      7.887  0.1021E+00  0.6117E+00
      7.972  0.1027E+00  0.6205E+00
      8.057  0.9960E-01  0.6289E+00
      8.142  0.9624E-01  0.6371E+00
      8.227  0.9318E-01  0.6450E+00
      8.312  0.8890E-01  0.6526E+00
      8.397  0.8357E-01  0.6597E+00
      8.482  0.7909E-01  0.6664E+00
      8.567  0.7665E-01  0.6729E+00
      8.652  0.7713E-01  0.6795E+00
      8.737  0.8294E-01  0.6865E+00
      8.822  0.9598E-01  0.6947E+00
      8.907  0.1131E+00  0.7043E+00
      8.992  0.1267E+00  0.7150E+00
      9.077  0.1311E+00  0.7262E+00
      9.162  0.1273E+00  0.7370E+00
      9.247  0.1199E+00  0.7472E+00
      9.332  0.1128E+00  0.7568E+00
      9.417  0.1070E+00  0.7659E+00
      9.502  0.1011E+00  0.7745E+00
      9.587  0.9477E-01  0.7825E+00
      9.672  0.8960E-01  0.7901E+00
      9.757  0.8709E-01  0.7975E+00
      9.842  0.8629E-01  0.8049E+00
      9.927  0.8542E-01  0.8121E+00
     10.012  0.8409E-01  0.8193E+00
     10.097  0.8373E-01  0.8264E+00
     10.182  0.8539E-01  0.8337E+00
     10.267  0.8718E-01  0.8411E+00
     10.352  0.8654E-01  0.8484E+00
     10.437  0.8433E-01  0.8556E+00
     10.522  0.8335E-01  0.8627E+00
     10.606  0.8387E-01  0.8698E+00
     10.691  0.8417E-01  0.8769E+00
     10.776  0.8395E-01  0.8841E+00
     10.861  0.8345E-01  0.8912E+00
     10.946  0.8117E-01  0.8981E+00
     11.031  0.7639E-01  0.9046E+00
     11.116  0.7199E-01  0.9107E+00
     11.201  0.7111E-01  0.9167E+00
     11.286  0.7295E-01  0.9229E+00
     11.371  0.7463E-01  0.9293E+00
     11.456  0.7529E-01  0.9357E+00
     11.541  0.7528E-01  0.9421E+00
     11.626  0.7374E-01  0.9483E+00
     11.711  0.6992E-01  0.9543E+00
     11.796  0.6494E-01  0.9598E+00
     11.881  0.6059E-01  0.9649E+00
     11.966  0.5815E-01  0.9699E+00
     12.051  0.5868E-01  0.9749E+00
     12.136  0.6222E-01  0.9802E+00
     12.221  0.6625E-01  0.9858E+00
     12.306  0.6717E-01  0.9915E+00
     12.391  0.6365E-01  0.9969E+00
     12.476  0.5701E-01  0.1002E+01
     12.561  0.4902E-01  0.1006E+01
     12.646  0.4208E-01  0.1009E+01
     12.731  0.3948E-01  0.1013E+01
     12.816  0.4225E-01  0.1016E+01
     12.901  0.4717E-01  0.1020E+01
     12.986  0.5007E-01  0.1025E+01
     13.071  0.4906E-01  0.1029E+01
     13.156  0.4456E-01  0.1033E+01
     13.241  0.3834E-01  0.1036E+01
     13.326  0.3273E-01  0.1039E+01
     13.411  0.2930E-01  0.1041E+01
     13.496  0.2792E-01  0.1044E+01
     13.581  0.2762E-01  0.1046E+01
     13.666  0.2811E-01  0.1048E+01
     13.751  0.2948E-01  0.1051E+01
     13.836  0.2978E-01  0.1053E+01
     13.921  0.2596E-01  0.1056E+01
     14.006  0.1835E-01  0.1057E+01
     14.091  0.1104E-01  0.1058E+01
     14.176  0.7277E-02  0.1059E+01
     14.261  0.6856E-02  0.1059E+01
     14.346  0.7941E-02  0.1060E+01
     14.431  0.9602E-02  0.1061E+01
     14.516  0.1164E-01  0.1062E+01
     14.601  0.1275E-01  0.1063E+01
     14.686  0.1123E-01  0.1064E+01
     14.771  0.7500E-02  0.1064E+01
     14.856  0.3939E-02  0.1065E+01
     14.941  0.2279E-02  0.1065E+01
     15.026  0.2429E-02  0.1065E+01
     15.110  0.3316E-02  0.1065E+01
     15.195  0.3963E-02  0.1066E+01
     15.280  0.3944E-02  0.1066E+01
     15.365  0.3250E-02  0.1066E+01
     15.450  0.2141E-02  0.1067E+01
     15.535  0.1077E-02  0.1067E+01
     15.620  0.3994E-03  0.1067E+01
     15.705  0.1071E-03  0.1067E+01
     15.790  0.2052E-04  0.1067E+01
     15.875  0.2797E-05  0.1067E+01
     15.960  0.2702E-06  0.1067E+01
     16.045  0.1846E-07  0.1067E+01
     16.130  0.8904E-09  0.1067E+01
     16.215  0.3028E-10  0.1067E+01
     16.300  0.7250E-12  0.1067E+01
     16.385  0.1221E-13  0.1067E+01
     16.470  0.1440E-15  0.1067E+01
     16.555  0.1210E-17  0.1067E+01
     16.640  0.0000E+00  0.1067E+01
     16.725  0.0000E+00  0.1067E+01
     16.810  0.0000E+00  0.1067E+01
     16.895  0.0000E+00  0.1067E+01
     16.980  0.0000E+00  0.1067E+01
     17.065  0.0000E+00  0.1067E+01
     17.150  0.0000E+00  0.1067E+01
     17.235  0.0000E+00  0.1067E+01
     17.320  0.0000E+00  0.1067E+01
