    2    2   15    1
  0.2001288E+02  0.3839590E-09  0.3839590E-09  0.3839590E-09  0.5000000E-15
  1.000000000000000E-004
  CAR 
 unknown system                          
      8    182      8
 
  0.4166667E-01  0.4166667E-01  0.4166667E-01  0.1157407E-02
    1       -6.174292   1.000000
    2        5.367763   0.999971
    3        5.587589   0.993235
    4        5.587589   0.993235
    5        8.226976   0.000000
    6        8.240710   0.000000
    7        8.240710   0.000000
    8        8.943244   0.000000
 
  0.1250000E+00  0.4166667E-01  0.4166667E-01  0.3472222E-02
    1       -6.055191   1.000000
    2        4.481867   1.000000
    3        5.174601   1.000000
    4        5.535552   0.997726
    5        8.283685   0.000000
    6        8.357307   0.000000
    7        8.542305   0.000000
    8        9.796098   0.000000
 
  0.2083333E+00  0.4166667E-01  0.4166667E-01  0.3472222E-02
    1       -5.761222   1.000000
    2        2.992478   1.000000
    3        4.811022   1.000000
    4        5.270375   0.999999
    5        8.005891   0.000000
    6        8.741541   0.000000
    7        9.035660   0.000000
    8       11.137131   0.000000
 
  0.2916667E+00  0.4166667E-01  0.4166667E-01  0.3472222E-02
    1       -5.305384   1.000000
    2        1.496063   1.000000
    3        4.518663   1.000000
    4        4.958980   1.000000
    5        7.694902   0.000000
    6        9.030319   0.000000
    7        9.280577   0.000000
    8       12.291578   0.000000
 
  0.3750000E+00  0.4166667E-01  0.4166667E-01  0.3472222E-02
    1       -4.723391   1.000000
    2        0.151279   1.000000
    3        4.327628   1.000000
    4        4.689674   1.000000
    5        7.449203   0.000000
    6        9.073270   0.000000
    7        9.207046   0.000000
    8       13.210211   0.000000
 
  0.4583333E+00  0.4166667E-01  0.4166667E-01  0.3472222E-02
    1       -4.132162   1.000000
    2       -0.885004   1.000000
    3        4.246867   1.000000
    4        4.498270   1.000000
    5        7.302912   0.000000
    6        9.038253   0.000000
    7        9.041604   0.000000
    8       13.444923   0.000000
 
 -0.4583333E+00  0.4166667E-01  0.4166667E-01  0.3472222E-02
    1       -3.906499   1.000000
    2       -1.222926   1.000000
    3        4.274655   1.000000
    4        4.399677   1.000000
    5        7.267108   0.000000
    6        8.942092   0.000000
    7        9.070975   0.000000
    8       13.415759   0.000000
 
 -0.3750000E+00  0.4166667E-01  0.4166667E-01  0.3472222E-02
    1       -4.314746   1.000000
    2       -0.590813   1.000000
    3        4.403500   1.000000
    4        4.404552   1.000000
    5        7.343592   0.000000
    6        8.946613   0.000000
    7        9.200311   0.000000
    8       13.338772   0.000000
 
 -0.2916667E+00  0.4166667E-01  0.4166667E-01  0.3472222E-02
    1       -4.927008   1.000000
    2        0.574961   1.000000
    3        4.514709   1.000000
    4        4.626505   1.000000
    5        7.527277   0.000000
    6        8.988453   0.000000
    7        9.354125   0.000000
    8       12.548117   0.000000
 
 -0.2083333E+00  0.4166667E-01  0.4166667E-01  0.3472222E-02
    1       -5.473755   1.000000
    2        1.983927   1.000000
    3        4.731651   1.000000
    4        4.921815   1.000000
    5        7.798008   0.000000
    6        8.879709   0.000000
    7        9.343271   0.000000
    8       11.741725   0.000000
 
 -0.1250000E+00  0.4166667E-01  0.4166667E-01  0.3472222E-02
    1       -5.878008   1.000000
    2        3.506570   1.000000
    3        5.035433   1.000000
    4        5.242809   1.000000
    5        8.090110   0.000000
    6        8.537353   0.000000
    7        9.011569   0.000000
    8       10.657091   0.000000
 
 -0.4166667E-01  0.4166667E-01  0.4166667E-01  0.3472222E-02
    1       -6.114606   1.000000
    2        4.946130   1.000000
    3        5.367172   0.999972
    4        5.466388   0.999560
    5        8.104100   0.000000
    6        8.422279   0.000000
    7        8.532695   0.000000
    8        9.346602   0.000000
 
  0.1250000E+00  0.1250000E+00  0.4166667E-01  0.3472222E-02
    1       -5.995485   1.000000
    2        4.394693   1.000000
    3        5.027561   1.000000
    4        5.125723   1.000000
    5        7.868275   0.000000
    6        8.843188   0.000000
    7        9.013840   0.000000
    8        9.857214   0.000000
 
  0.2083333E+00  0.1250000E+00  0.4166667E-01  0.6944444E-02
    1       -5.759318   1.000000
    2        3.364064   1.000000
    3        4.447592   1.000000
    4        4.983292   1.000000
    5        7.881191   0.000000
    6        9.008833   0.000000
    7        9.511336   0.000000
    8       10.498088   0.000000
 
  0.2916667E+00  0.1250000E+00  0.4166667E-01  0.6944444E-02
    1       -5.355842   1.000000
    2        1.962168   1.000000
    3        4.068950   1.000000
    4        4.696349   1.000000
    5        8.067550   0.000000
    6        8.969547   0.000000
    7        9.890752   0.000000
    8       10.737539   0.000000
 
  0.3750000E+00  0.1250000E+00  0.4166667E-01  0.6944444E-02
    1       -4.809800   1.000000
    2        0.601537   1.000000
    3        3.810200   1.000000
    4        4.397961   1.000000
    5        8.003193   0.000000
    6        8.988177   0.000000
    7        9.896618   0.000000
    8       11.332100   0.000000
 
  0.4583333E+00  0.1250000E+00  0.4166667E-01  0.6944444E-02
    1       -4.197150   1.000000
    2       -0.542974   1.000000
    3        3.630662   1.000000
    4        4.208826   1.000000
    5        7.886233   0.000000
    6        8.912516   0.000000
    7        9.728861   0.000000
    8       12.448711   0.000000
 
 -0.4583333E+00  0.1250000E+00  0.4166667E-01  0.6944444E-02
    1       -3.787181   1.000000
    2       -1.168872   1.000000
    3        3.508218   1.000000
    4        4.184717   1.000000
    5        7.846298   0.000000
    6        8.869936   0.000000
    7        9.592339   0.000000
    8       13.582194   0.000000
 
 -0.3750000E+00  0.1250000E+00  0.4166667E-01  0.6944444E-02
    1       -4.015340   1.000000
    2       -0.831156   1.000000
    3        3.461013   1.000000
    4        4.317515   1.000000
    5        7.905931   0.000000
    6        8.914203   0.000000
    7        9.570598   0.000000
    8       13.274032   0.000000
 
 -0.2916667E+00  0.1250000E+00  0.4166667E-01  0.6944444E-02
    1       -4.607786   1.000000
    2        0.190797   1.000000
    3        3.522398   1.000000
    4        4.568882   1.000000
    5        8.058037   0.000000
    6        8.994639   0.000000
    7        9.646846   0.000000
    8       12.116305   0.000000
 
 -0.2083333E+00  0.1250000E+00  0.4166667E-01  0.6944444E-02
    1       -5.188978   1.000000
    2        1.493871   1.000000
    3        3.719655   1.000000
    4        4.890927   1.000000
    5        8.272010   0.000000
    6        8.931838   0.000000
    7        9.665862   0.000000
    8       11.276480   0.000000
 
 -0.1250000E+00  0.1250000E+00  0.4166667E-01  0.6944444E-02
    1       -5.643581   1.000000
    2        2.868895   1.000000
    3        4.100375   1.000000
    4        5.203044   1.000000
    5        8.360629   0.000000
    6        8.718980   0.000000
    7        9.337269   0.000000
    8       10.914810   0.000000
 
 -0.4166667E-01  0.1250000E+00  0.4166667E-01  0.6944444E-02
    1       -5.936587   1.000000
    2        3.938521   1.000000
    3        4.832057   1.000000
    4        5.355264   0.999980
    5        8.147708   0.000000
    6        8.574729   0.000000
    7        8.934569   0.000000
    8       10.314369   0.000000
 
  0.2083333E+00  0.2083333E+00  0.4166667E-01  0.3472222E-02
    1       -5.581021   1.000000
    2        3.100705   1.000000
    3        4.282782   1.000000
    4        4.295070   1.000000
    5        7.279977   0.000000
    6        9.625164   0.000000
    7       10.221844   0.000000
    8       10.245874   0.000000
 
  0.2916667E+00  0.2083333E+00  0.4166667E-01  0.6944444E-02
    1       -5.232345   1.000000
    2        2.150871   1.000000
    3        3.706461   1.000000
    4        4.115974   1.000000
    5        7.314183   0.000000
    6        9.286695   0.000000
    7       10.419339   0.000000
    8       10.846503   0.000000
 
  0.3750000E+00  0.2083333E+00  0.4166667E-01  0.6944444E-02
    1       -4.730385   1.000000
    2        0.963899   1.000000
    3        3.255351   1.000000
    4        3.856068   1.000000
    5        7.571762   0.000000
    6        9.508187   0.000000
    7       10.218567   0.000000
    8       11.051158   0.000000
 
  0.4583333E+00  0.2083333E+00  0.4166667E-01  0.6944444E-02
    1       -4.124511   1.000000
    2       -0.170497   1.000000
    3        2.865455   1.000000
    4        3.720642   1.000000
    5        7.642068   0.000000
    6        9.950961   0.000000
    7       10.495700   0.000000
    8       10.926969   0.000000
 
 -0.4583333E+00  0.2083333E+00  0.4166667E-01  0.6944444E-02
    1       -3.592069   1.000000
    2       -0.979211   1.000000
    3        2.559404   1.000000
    4        3.756179   1.000000
    5        7.714947   0.000000
    6        9.733487   0.000000
    7       10.736796   0.000000
    8       11.910334   0.000000
 
 -0.3750000E+00  0.2083333E+00  0.4166667E-01  0.6944444E-02
    1       -3.602657   1.000000
    2       -0.960787   1.000000
    3        2.381345   1.000000
    4        3.942850   1.000000
    5        7.904397   0.000000
    6        9.596344   0.000000
    7       10.604398   0.000000
    8       13.240608   0.000000
 
 -0.2916667E+00  0.2083333E+00  0.4166667E-01  0.6944444E-02
    1       -4.141372   1.000000
    2       -0.139438   1.000000
    3        2.374755   1.000000
    4        4.248613   1.000000
    5        8.207222   0.000000
    6        9.516434   0.000000
    7       10.520354   0.000000
    8       11.893244   0.000000
 
 -0.2083333E+00  0.2083333E+00  0.4166667E-01  0.6944444E-02
    1       -4.744474   1.000000
    2        0.938897   1.000000
    3        2.623466   1.000000
    4        4.620828   1.000000
    5        8.551730   0.000000
    6        9.292425   0.000000
    7       10.342155   0.000000
    8       10.975594   0.000000
 
 -0.1250000E+00  0.2083333E+00  0.4166667E-01  0.6944444E-02
    1       -5.242267   1.000000
    2        1.856525   1.000000
    3        3.336406   1.000000
    4        4.956496   1.000000
    5        8.635916   0.000000
    6        8.860372   0.000000
    7        9.795891   0.000000
    8       10.902353   0.000000
 
 -0.4166667E-01  0.2083333E+00  0.4166667E-01  0.6944444E-02
    1       -5.586817   1.000000
    2        2.472505   1.000000
    3        4.454058   1.000000
    4        5.079659   1.000000
    5        8.108158   0.000000
    6        8.730727   0.000000
    7        9.395321   0.000000
    8       11.223231   0.000000
 
  0.2916667E+00  0.2916667E+00  0.4166667E-01  0.3472222E-02
    1       -4.938120   1.000000
    2        1.689181   1.000000
    3        3.584621   1.000000
    4        3.636911   1.000000
    5        6.750697   0.000000
    6        8.521704   0.000000
    7       11.559137   0.000000
    8       11.633601   0.000000
 
  0.3750000E+00  0.2916667E+00  0.4166667E-01  0.6944444E-02
    1       -4.484644   1.000000
    2        0.854068   1.000000
    3        3.099826   1.000000
    4        3.411643   1.000000
    5        6.865335   0.000000
    6        8.210490   0.000000
    7       11.702995   0.000000
    8       12.307183   0.000000
 
  0.4583333E+00  0.2916667E+00  0.4166667E-01  0.6944444E-02
    1       -3.903918   1.000000
    2       -0.069538   1.000000
    3        2.477128   1.000000
    4        3.284415   1.000000
    5        7.103573   0.000000
    6        8.733854   0.000000
    7       11.484820   0.000000
    8       12.392620   0.000000
 
 -0.4583333E+00  0.2916667E+00  0.4166667E-01  0.6944444E-02
    1       -3.306975   1.000000
    2       -0.876506   1.000000
    3        1.937695   1.000000
    4        3.323444   1.000000
    5        7.217477   0.000000
    6        9.974402   0.000000
    7       11.224365   0.000000
    8       12.225524   0.000000
 
 -0.3750000E+00  0.2916667E+00  0.4166667E-01  0.6944444E-02
    1       -3.107908   1.000000
    2       -1.111816   1.000000
    3        1.605051   1.000000
    4        3.514569   1.000000
    5        7.430782   0.000000
    6       10.895470   0.000000
    7       11.618475   0.000000
    8       12.060290   0.000000
 
 -0.2916667E+00  0.2916667E+00  0.4166667E-01  0.6944444E-02
    1       -3.564527   1.000000
    2       -0.551053   1.000000
    3        1.571789   1.000000
    4        3.833181   1.000000
    5        7.781812   0.000000
    6       10.657925   0.000000
    7       11.701422   0.000000
    8       11.933886   0.000000
 
 -0.2083333E+00  0.2916667E+00  0.4166667E-01  0.6944444E-02
    1       -4.171816   1.000000
    2        0.132809   1.000000
    3        2.017400   1.000000
    4        4.231107   1.000000
    5        8.208810   0.000000
    6        9.914462   0.000000
    7       10.982767   0.000000
    8       11.333452   0.000000
 
 -0.1250000E+00  0.2916667E+00  0.4166667E-01  0.6944444E-02
    1       -4.698248   1.000000
    2        0.614088   1.000000
    3        3.003557   1.000000
    4        4.605165   1.000000
    5        8.398185   0.000000
    6        9.114417   0.000000
    7        9.997868   0.000000
    8       11.460641   0.000000
 
 -0.4166667E-01  0.2916667E+00  0.4166667E-01  0.6944444E-02
    1       -5.083258   1.000000
    2        1.032867   1.000000
    3        4.188815   1.000000
    4        4.764285   1.000000
    5        7.855697   0.000000
    6        8.944909   0.000000
    7        9.516425   0.000000
    8       11.856565   0.000000
 
  0.3750000E+00  0.3750000E+00  0.4166667E-01  0.3472222E-02
    1       -4.079147   1.000000
    2        0.253396   1.000000
    3        3.078721   1.000000
    4        3.167093   1.000000
    5        6.410651   0.000403
    6        7.484850   0.000000
    7       13.063704   0.000000
    8       13.096338   0.000000
 
  0.4583333E+00  0.3750000E+00  0.4166667E-01  0.6944444E-02
    1       -3.533814   1.000000
    2       -0.484898   1.000000
    3        2.686219   1.000000
    4        2.970634   1.000000
    5        6.619806   0.000001
    6        7.388128   0.000000
    7       13.107574   0.000000
    8       13.838643   0.000000
 
 -0.4583333E+00  0.3750000E+00  0.4166667E-01  0.6944444E-02
    1       -2.915009   1.000000
    2       -1.179711   1.000000
    3        1.988491   1.000000
    4        2.986463   1.000000
    5        6.812302   0.000000
    6        8.290213   0.000000
    7       12.854056   0.000000
    8       13.851658   0.000000
 
 -0.3750000E+00  0.3750000E+00  0.4166667E-01  0.6944444E-02
    1       -2.577936   1.000000
    2       -1.500549   1.000000
    3        1.454111   1.000000
    4        3.158422   1.000000
    5        7.016182   0.000000
    6        9.763507   0.000000
    7       12.526987   0.000000
    8       13.356148   0.000000
 
 -0.2916667E+00  0.3750000E+00  0.4166667E-01  0.6944444E-02
    1       -2.995904   1.000000
    2       -1.101748   1.000000
    3        1.356239   1.000000
    4        3.466197   1.000000
    5        7.367645   0.000000
    6       11.296049   0.000000
    7       11.752470   0.000000
    8       12.496923   0.000000
 
 -0.2083333E+00  0.3750000E+00  0.4166667E-01  0.6944444E-02
    1       -3.573448   1.000000
    2       -0.733895   1.000000
    3        1.886575   1.000000
    4        3.870242   1.000000
    5        7.827789   0.000000
    6       10.149595   0.000000
    7       11.204010   0.000000
    8       12.509249   0.000000
 
 -0.1250000E+00  0.3750000E+00  0.4166667E-01  0.6944444E-02
    1       -4.085597   1.000000
    2       -0.497828   1.000000
    3        2.897893   1.000000
    4        4.279563   1.000000
    5        8.144427   0.000000
    6        9.114243   0.000000
    7       10.009469   0.000000
    8       12.595683   0.000000
 
 -0.4166667E-01  0.3750000E+00  0.4166667E-01  0.6944444E-02
    1       -4.477417   1.000000
    2       -0.224275   1.000000
    3        4.032121   1.000000
    4        4.504908   1.000000
    5        7.650647   0.000000
    6        8.943959   0.000000
    7        9.385026   0.000000
    8       12.823411   0.000000
 
  0.4583333E+00  0.4583333E+00  0.4166667E-01  0.3472222E-02
    1       -3.023752   1.000000
    2       -1.139158   1.000000
    3        2.794490   1.000000
    4        2.900136   1.000000
    5        6.320780   0.003314
    6        6.780457   0.000000
    7       14.598713   0.000000
    8       14.613950   0.000000
 
 -0.4583333E+00  0.4583333E+00  0.4166667E-01  0.6944444E-02
    1       -2.408762   1.000000
    2       -1.788040   1.000000
    3        2.503167   1.000000
    4        2.785906   1.000000
    5        6.579808   0.000003
    6        6.961952   0.000000
    7       14.563226   0.000000
    8       15.098015   0.000000
 
 -0.3750000E+00  0.4583333E+00  0.4166667E-01  0.6944444E-02
    1       -2.403034   1.000000
    2       -1.718980   1.000000
    3        1.889417   1.000000
    4        2.927904   1.000000
    5        6.751624   0.000000
    6        8.202665   0.000000
    7       13.547749   0.000000
    8       14.267159   0.000000
 
 -0.2916667E+00  0.4583333E+00  0.4166667E-01  0.6944444E-02
    1       -2.896060   1.000000
    2       -1.221549   1.000000
    3        1.621087   1.000000
    4        3.213273   1.000000
    5        7.084109   0.000000
    6        9.833887   0.000000
    7       11.883651   0.000000
    8       12.928236   0.000000
 
 -0.2083333E+00  0.4583333E+00  0.4166667E-01  0.6944444E-02
    1       -3.317232   1.000000
    2       -1.082405   1.000000
    3        2.032550   1.000000
    4        3.611116   1.000000
    5        7.551720   0.000000
    6       10.311571   0.000000
    7       11.348147   0.000000
    8       11.756154   0.000000
 
 -0.1250000E+00  0.4583333E+00  0.4166667E-01  0.6944444E-02
    1       -3.669929   1.000000
    2       -1.123421   1.000000
    3        2.948081   1.000000
    4        4.048099   1.000000
    5        7.957547   0.000000
    6        9.120296   0.000000
    7       10.051005   0.000000
    8       13.582216   0.000000
 
 -0.4166667E-01  0.4583333E+00  0.4166667E-01  0.6944444E-02
    1       -3.948375   1.000000
    2       -1.084973   1.000000
    3        3.968236   1.000000
    4        4.354819   1.000000
    5        7.542156   0.000000
    6        8.899273   0.000000
    7        9.251926   0.000000
    8       13.510445   0.000000
 
 -0.4583333E+00 -0.4583333E+00  0.4166667E-01  0.3472222E-02
    1       -2.431188   1.000000
    2       -1.800762   1.000000
    3        2.737378   1.000000
    4        2.846299   1.000000
    5        6.371246   0.001064
    6        6.569439   0.000004
    7       15.272367   0.000000
    8       15.319986   0.000000
 
 -0.3750000E+00 -0.4583333E+00  0.4166667E-01  0.6944444E-02
    1       -2.990451   1.000000
    2       -1.146116   1.000000
    3        2.564526   1.000000
    4        2.847194   1.000000
    5        6.580232   0.000003
    6        7.117337   0.000000
    7       13.836948   0.000000
    8       14.601064   0.000000
 
 -0.2916667E+00 -0.4583333E+00  0.4166667E-01  0.6944444E-02
    1       -3.425768   1.000000
    2       -0.617989   1.000000
    3        2.186141   1.000000
    4        3.104478   1.000000
    5        6.931271   0.000000
    6        8.466715   0.000000
    7       12.159631   0.000000
    8       13.117946   0.000000
 
 -0.2083333E+00 -0.4583333E+00  0.4166667E-01  0.6944444E-02
    1       -3.726095   1.000000
    2       -0.526196   1.000000
    3        2.368986   1.000000
    4        3.490849   1.000000
    5        7.408777   0.000000
    6       10.181007   0.000000
    7       10.593395   0.000000
    8       11.546194   0.000000
 
 -0.1250000E+00 -0.4583333E+00  0.4166667E-01  0.6944444E-02
    1       -3.895321   1.000000
    2       -0.797268   1.000000
    3        3.116589   1.000000
    4        3.952452   1.000000
    5        7.873558   0.000000
    6        9.219824   0.000000
    7       10.183809   0.000000
    8       12.145273   0.000000
 
 -0.3750000E+00 -0.3750000E+00  0.4166667E-01  0.3472222E-02
    1       -3.574423   1.000000
    2       -0.452005   1.000000
    3        2.908447   1.000000
    4        3.007407   1.000000
    5        6.332289   0.002584
    6        7.088709   0.000000
    7       13.838785   0.000000
    8       13.848182   0.000000
 
 -0.2916667E+00 -0.3750000E+00  0.4166667E-01  0.6944444E-02
    1       -4.033176   1.000000
    2        0.185226   1.000000
    3        2.865975   1.000000
    4        3.157978   1.000000
    5        6.714430   0.000000
    6        7.755254   0.000000
    7       12.395964   0.000000
    8       13.065848   0.000000
 
 -0.2083333E+00 -0.3750000E+00  0.4166667E-01  0.6944444E-02
    1       -4.340537   1.000000
    2        0.456885   1.000000
    3        2.844833   1.000000
    4        3.531862   1.000000
    5        7.321010   0.000000
    6        9.090856   0.000000
    7       10.829021   0.000000
    8       11.699867   0.000000
 
 -0.1250000E+00 -0.3750000E+00  0.4166667E-01  0.6944444E-02
    1       -4.488439   1.000000
    2        0.202115   1.000000
    3        3.365302   1.000000
    4        4.023686   1.000000
    5        7.878692   0.000000
    6        9.389825   0.000000
    7       10.360077   0.000000
    8       10.881458   0.000000
 
 -0.2916667E+00 -0.2916667E+00  0.4166667E-01  0.3472222E-02
    1       -4.534635   1.000000
    2        0.969650   1.000000
    3        3.304553   1.000000
    4        3.377720   1.000000
    5        6.552108   0.000007
    6        7.965527   0.000000
    7       12.302334   0.000000
    8       12.357171   0.000000
 
 -0.2083333E+00 -0.2916667E+00  0.4166667E-01  0.6944444E-02
    1       -4.885185   1.000000
    2        1.511871   1.000000
    3        3.382162   1.000000
    4        3.732587   1.000000
    5        7.067851   0.000000
    6        8.739172   0.000000
    7       11.031695   0.000000
    8       11.565426   0.000000
 
 -0.1250000E+00 -0.2916667E+00  0.4166667E-01  0.6944444E-02
    1       -5.069695   1.000000
    2        1.461808   1.000000
    3        3.669508   1.000000
    4        4.257458   1.000000
    5        7.836667   0.000000
    6        9.462975   0.000000
    7       10.171607   0.000000
    8       10.461082   0.000000
 
 -0.2083333E+00 -0.2083333E+00  0.4166667E-01  0.3472222E-02
    1       -5.287504   1.000000
    2        2.402767   1.000000
    3        3.916431   1.000000
    4        3.940686   1.000000
    5        6.997374   0.000000
    6        9.117478   0.000000
    7       10.844404   0.000000
    8       10.927476   0.000000
 
 -0.1250000E+00 -0.2083333E+00  0.4166667E-01  0.6944444E-02
    1       -5.524189   1.000000
    2        2.768203   1.000000
    3        4.065407   1.000000
    4        4.545265   1.000000
    5        7.591789   0.000000
    6        9.462666   0.000000
    7       10.156636   0.000000
    8       10.213867   0.000000
 
 -0.1250000E+00 -0.1250000E+00  0.4166667E-01  0.3472222E-02
    1       -5.817338   1.000000
    2        3.770662   1.000000
    3        4.652167   1.000000
    4        4.708880   1.000000
    5        7.579995   0.000000
    6        9.385800   0.000000
    7        9.600255   0.000000
    8       10.127222   0.000000
 
  0.1250000E+00  0.1250000E+00  0.1250000E+00  0.1157407E-02
    1       -5.996017   1.000000
    2        4.034009   1.000000
    3        5.342654   0.999987
    4        5.342654   0.999987
    5        8.073131   0.000000
    6        8.601269   0.000000
    7        8.601269   0.000000
    8       10.165680   0.000000
 
  0.2083333E+00  0.1250000E+00  0.1250000E+00  0.3472222E-02
    1       -5.819070   1.000000
    2        3.410765   1.000000
    3        4.486509   1.000000
    4        5.414149   0.999890
    5        8.417517   0.000000
    6        8.590077   0.000000
    7        8.860459   0.000000
    8       10.808601   0.000000
 
  0.2916667E+00  0.1250000E+00  0.1250000E+00  0.3472222E-02
    1       -5.470864   1.000000
    2        2.360541   1.000000
    3        3.714723   1.000000
    4        5.202770   1.000000
    5        8.544822   0.000000
    6        8.940168   0.000000
    7        9.222715   0.000000
    8       11.238651   0.000000
 
  0.3750000E+00  0.1250000E+00  0.1250000E+00  0.3472222E-02
    1       -4.968958   1.000000
    2        1.041410   1.000000
    3        3.356592   1.000000
    4        4.863602   1.000000
    5        8.287112   0.000000
    6        9.292670   0.000000
    7        9.468418   0.000000
    8       11.846147   0.000000
 
  0.4583333E+00  0.1250000E+00  0.1250000E+00  0.3472222E-02
    1       -4.363787   1.000000
    2       -0.178826   1.000000
    3        3.213439   1.000000
    4        4.526824   1.000000
    5        8.041250   0.000000
    6        9.328969   0.000000
    7        9.447443   0.000000
    8       12.919727   0.000000
 
 -0.4583333E+00  0.1250000E+00  0.1250000E+00  0.3472222E-02
    1       -3.831777   1.000000
    2       -1.031766   1.000000
    3        3.228002   1.000000
    4        4.258357   1.000000
    5        7.867695   0.000000
    6        9.171515   0.000000
    7        9.553765   0.000000
    8       13.809101   0.000000
 
 -0.3750000E+00  0.1250000E+00  0.1250000E+00  0.3472222E-02
    1       -3.828802   1.000000
    2       -1.037272   1.000000
    3        3.378240   1.000000
    4        4.091822   1.000000
    5        7.793872   0.000000
    6        9.121184   0.000000
    7        9.727451   0.000000
    8       12.943471   0.000000
 
 -0.2916667E+00  0.1250000E+00  0.1250000E+00  0.3472222E-02
    1       -4.358883   1.000000
    2       -0.189823   1.000000
    3        3.645603   1.000000
    4        4.045195   1.000000
    5        7.822063   0.000000
    6        9.178476   0.000000
    7        9.963839   0.000000
    8       11.627999   0.000000
 
 -0.2083333E+00  0.1250000E+00  0.1250000E+00  0.3472222E-02
    1       -4.964823   1.000000
    2        1.037145   1.000000
    3        4.004015   1.000000
    4        4.126876   1.000000
    5        7.883739   0.000000
    6        9.253303   0.000000
    7       10.150663   0.000000
    8       10.663626   0.000000
 
 -0.1250000E+00  0.1250000E+00  0.1250000E+00  0.3472222E-02
    1       -5.467914   1.000000
    2        2.418233   1.000000
    3        4.334981   1.000000
    4        4.399579   1.000000
    5        7.774437   0.000000
    6        9.256703   0.000000
    7       10.060871   0.000000
    8       10.373486   0.000000
 
  0.2083333E+00  0.2083333E+00  0.1250000E+00  0.3472222E-02
    1       -5.701656   1.000000
    2        2.964211   1.000000
    3        4.685598   1.000000
    4        4.881667   1.000000
    5        8.022649   0.000000
    6        8.756372   0.000000
    7        9.512575   0.000000
    8       10.780877   0.000000
 
  0.2916667E+00  0.2083333E+00  0.1250000E+00  0.6944444E-02
    1       -5.410969   1.000000
    2        2.324318   1.000000
    3        3.719472   1.000000
    4        4.812462   1.000000
    5        8.112397   0.000000
    6        9.094682   0.000000
    7        9.997811   0.000000
    8       10.462498   0.000000
 
  0.3750000E+00  0.2083333E+00  0.1250000E+00  0.6944444E-02
    1       -4.959330   1.000000
    2        1.360008   1.000000
    3        2.988828   1.000000
    4        4.543141   1.000000
    5        8.510917   0.000000
    6        9.060081   0.000000
    7       10.306829   0.000000
    8       10.564481   0.000000
 
  0.4583333E+00  0.2083333E+00  0.1250000E+00  0.6944444E-02
    1       -4.380385   1.000000
    2        0.213132   1.000000
    3        2.671872   1.000000
    4        4.195627   1.000000
    5        8.584878   0.000000
    6        8.933726   0.000000
    7       10.664201   0.000000
    8       11.060544   0.000000
 
 -0.4583333E+00  0.2083333E+00  0.1250000E+00  0.6944444E-02
    1       -3.785307   1.000000
    2       -0.759184   1.000000
    3        2.577502   1.000000
    4        3.914466   1.000000
    5        8.400066   0.000000
    6        8.880595   0.000000
    7       10.719209   0.000000
    8       12.281555   0.000000
 
 -0.3750000E+00  0.2083333E+00  0.1250000E+00  0.6944444E-02
    1       -3.551175   1.000000
    2       -1.093873   1.000000
    3        2.618253   1.000000
    4        3.776945   1.000000
    5        8.215434   0.000000
    6        8.978270   0.000000
    7       10.746328   0.000000
    8       12.828252   0.000000
 
 -0.2916667E+00  0.2083333E+00  0.1250000E+00  0.6944444E-02
    1       -3.965094   1.000000
    2       -0.487583   1.000000
    3        2.751468   1.000000
    4        3.824826   1.000000
    5        8.121239   0.000000
    6        9.199120   0.000000
    7       10.817366   0.000000
    8       11.364659   0.000000
 
 -0.2083333E+00  0.2083333E+00  0.1250000E+00  0.6944444E-02
    1       -4.578352   1.000000
    2        0.588258   1.000000
    3        2.977552   1.000000
    4        4.046786   1.000000
    5        8.070708   0.000000
    6        9.470586   0.000000
    7       10.197028   0.000000
    8       10.919493   0.000000
 
 -0.1250000E+00  0.2083333E+00  0.1250000E+00  0.6944444E-02
    1       -5.122564   1.000000
    2        1.775880   1.000000
    3        3.365700   1.000000
    4        4.352064   1.000000
    5        7.850184   0.000000
    6        9.462324   0.000000
    7        9.994386   0.000000
    8       10.718984   0.000000
 