       N       E                     dE             d eps       ncg     rms          rms(c)
DAV:   1     0.264378576743E+01    0.26438E+01   -0.25944E+03  2976   0.523E+02
DAV:   2    -0.108652815837E+02   -0.13509E+02   -0.13060E+02  4584   0.689E+01
DAV:   3    -0.110175615171E+02   -0.15228E+00   -0.15228E+00  3600   0.931E+00
DAV:   4    -0.110181473118E+02   -0.58579E-03   -0.58579E-03  4856   0.622E-01
DAV:   5    -0.110181476614E+02   -0.34957E-06   -0.34950E-06  3592   0.116E-02    0.301E+00
DAV:   6    -0.108937020497E+02    0.12445E+00   -0.82334E-02  3560   0.149E+00    0.178E+00
DAV:   7    -0.108368711598E+02    0.56831E-01   -0.15109E-01  3776   0.215E+00    0.154E-01
DAV:   8    -0.108381762757E+02   -0.13051E-02   -0.40366E-03  3288   0.471E-01    0.250E-02
DAV:   9    -0.108382688926E+02   -0.92617E-04   -0.95358E-05  2400   0.793E-02
   1 F= -.10838269E+02 E0= -.10838237E+02  d E =-.108383E+02
       N       E                     dE             d eps       ncg     rms          rms(c)
DAV:   1    -0.108470213831E+02   -0.88451E-02   -0.24561E-01  3712   0.276E+00    0.314E-01
DAV:   2    -0.108428570348E+02    0.41643E-02   -0.34357E-03  3928   0.380E-01    0.180E-01
DAV:   3    -0.108406760851E+02    0.21809E-02   -0.44285E-03  3504   0.335E-01    0.226E-02
DAV:   4    -0.108406654274E+02    0.10658E-04   -0.49011E-05  1616   0.631E-02
   2 F= -.10840665E+02 E0= -.10840647E+02  d E =-.239653E-02
       N       E                     dE             d eps       ncg     rms          rms(c)
DAV:   1    -0.108438928263E+02   -0.32167E-02   -0.39748E-02  3624   0.112E+00    0.127E-01
DAV:   2    -0.108432258126E+02    0.66701E-03   -0.55015E-04  3784   0.152E-01    0.729E-02
DAV:   3    -0.108428840325E+02    0.34178E-03   -0.69964E-04  2280   0.135E-01
   3 F= -.10842884E+02 E0= -.10842862E+02  d E =-.461514E-02
