unknown system                          
   1.00000000000000     
     0.000000    2.715000    2.715000
     2.715000    0.000000    2.715000
     2.715000    2.715000    0.000000
   Si
     2
Direct
  0.500000  0.500000  0.500000
  0.750000  0.750000  0.750000
 
   32   32   32
 0.87438040983E+00 0.89606400923E+00 0.96226589429E+00 0.10765922741E+01 0.12450146051E+01
 0.14756628066E+01 0.17781246545E+01 0.21617856011E+01 0.26328687352E+01 0.31902855280E+01
 0.38210982245E+01 0.44970543143E+01 0.51738951003E+01 0.57947017181E+01 0.62974791237E+01
 0.66257940312E+01 0.67399826229E+01 0.66257464838E+01 0.62973863046E+01 0.57945746079E+01
 0.51737594848E+01 0.44969477396E+01 0.38210555978E+01 0.31903234062E+01 0.26329790252E+01
 0.21619380352E+01 0.17782738924E+01 0.14757627855E+01 0.12450401830E+01 0.10765539241E+01
 0.96220259918E+00 0.89601919255E+00 0.89606400923E+00 0.93348131998E+00 0.10102610620E+01
 0.11302102709E+01 0.12987295436E+01 0.15224001500E+01 0.18081582670E+01 0.21616865451E+01
 0.25847819953E+01 0.30719040866E+01 0.36067532211E+01 0.41602598492E+01 0.46913921938E+01
 0.51515376479E+01 0.54920610523E+01 0.56734199586E+01 0.56733992694E+01 0.54920041074E+01
 0.51514594398E+01 0.46913178485E+01 0.41602234635E+01 0.36067861133E+01 0.30720133154E+01
 0.25849385595E+01 0.21618404813E+01 0.18082693517E+01 0.15224551485E+01 0.12987349638E+01
 0.11301784485E+01 0.10102081536E+01 0.93343148174E+00 0.89604346620E+00 0.96226589429E+00
 0.10102610620E+01 0.10928506814E+01 0.12136772997E+01 0.13773506426E+01 0.15889171104E+01
 0.18529419875E+01 0.21719546311E+01 0.25441602541E+01 0.29607338245E+01 0.34035444383E+01
 0.38444877028E+01 0.42474181328E+01 0.45729230978E+01 0.47851353603E+01 0.48588813957E+01
 0.47851039273E+01 0.45728810160E+01 0.42473970632E+01 0.38445144632E+01 0.34036269911E+01
 0.29608570365E+01 0.25442935564E+01 0.21720660810E+01 0.18530101724E+01 0.15889361496E+01
 0.13773290784E+01 0.12136332065E+01 0.10928041411E+01 0.10102263596E+01 0.96224847567E+00
 0.94653036033E+00 0.10765922741E+01 0.11302102709E+01 0.12136772997E+01 0.13303174249E+01
 0.14839774154E+01 0.16783865923E+01 0.19161454855E+01 0.21972376585E+01 0.25171297330E+01
 0.28648590023E+01 0.32218608892E+01 0.35624067793E+01 0.38562094042E+01 0.40730353986E+01
 0.41883312275E+01 0.41883162857E+01 0.40730032105E+01 0.38561921364E+01 0.35624378776E+01
 0.32219499072E+01 0.28649791316E+01 0.25172331566E+01 0.21972877861E+01 0.19161369554E+01
 0.16783387971E+01 0.14839156065E+01 0.13302613436E+01 0.12136394607E+01 0.11301945069E+01
 0.10765916967E+01 0.10504173341E+01 0.10504153840E+01 0.12450146051E+01 0.12987295436E+01
 0.13773506426E+01 0.14839774154E+01 0.16219022647E+01 0.17938347220E+01 0.20008231240E+01
 0.22409044121E+01 0.25076644200E+01 0.27891184018E+01 0.30674945195E+01 0.33204587150E+01
 0.35239581152E+01 0.36562566951E+01 0.37021641329E+01 0.36562305452E+01 0.35239277843E+01
 0.33204526591E+01 0.30675281429E+01 0.27891833313E+01 0.25077314222E+01 0.22409371865E+01
 0.20007965994E+01 0.17937500544E+01 0.16217894349E+01 0.14838802816E+01 0.13773017787E+01
 0.12987324302E+01 0.12450456834E+01 0.12138160621E+01 0.12035592969E+01 0.12137895110E+01
 0.14756628066E+01 0.15224001500E+01 0.15889171104E+01 0.16783865923E+01 0.17938347220E+01
 0.19372432503E+01 0.21084932148E+01 0.23042678759E+01 0.25171302956E+01 0.27351213936E+01
 0.29422721721E+01 0.31202748780E+01 0.32511930069E+01 0.33206474240E+01 0.33206333194E+01
 0.32511609352E+01 0.31202468714E+01 0.29422644680E+01 0.27351337685E+01 0.25171484273E+01
 0.23042723604E+01 0.21084671798E+01 0.19371787180E+01 0.17937400461E+01 0.16782899698E+01
 0.15888569036E+01 0.15224018146E+01 0.14757178693E+01 0.14461014928E+01 0.14317192424E+01
 0.14316898986E+01 0.14460349062E+01 0.17781246545E+01 0.18081582670E+01 0.18529419875E+01
 0.19161454855E+01 0.20008231240E+01 0.21084932148E+01 0.22382481568E+01 0.23860169667E+01
 0.25441602025E+01 0.27016519958E+01 0.28450686495E+01 0.29603841452E+01 0.30352496272E+01
 0.30612010271E+01 0.30352328619E+01 0.29603618042E+01 0.28450554687E+01 0.27016555663E+01
 0.25441741479E+01 0.23860232909E+01 0.22382283195E+01 0.21084416532E+01 0.20007540982E+01
 0.19160879697E+01 0.18529250284E+01 0.18081948437E+01 0.17782029211E+01 0.17594637231E+01
 0.17492881424E+01 0.17460522587E+01 0.17492315789E+01 0.17593767568E+01 0.21617856011E+01
 0.21616865451E+01 0.21719546311E+01 0.21972376585E+01 0.22409044121E+01 0.23042678759E+01
 0.23860169667E+01 0.24818995519E+01 0.25847813373E+01 0.26852567615E+01 0.27728710965E+01
 0.28377553917E+01 0.28722712680E+01 0.28722714175E+01 0.28377578385E+01 0.27728802360E+01
 0.26852762216E+01 0.25848112613E+01 0.24819339494E+01 0.23860424237E+01 0.23042698550E+01
 0.22408822441E+01 0.21972148411E+01 0.21719670138E+01 0.21617525666E+01 0.21618878580E+01
 0.21673463941E+01 0.21736772721E+01 0.21776622150E+01 0.21776404748E+01 0.21736119803E+01
 0.21672471884E+01 0.26328687352E+01 0.25847819953E+01 0.25441602541E+01 0.25171297330E+01
 0.25076644200E+01 0.25171302956E+01 0.25441602025E+01 0.25847813373E+01 0.26328686622E+01
 0.26810287292E+01 0.27218262563E+01 0.27490354440E+01 0.27585827749E+01 0.27490584763E+01
 0.27218678474E+01 0.26810828662E+01 0.26329293967E+01 0.25848426500E+01 0.25442176946E+01
 0.25171838711E+01 0.25077172503E+01 0.25171844336E+01 0.25442176430E+01 0.25848419921E+01
 0.26329293237E+01 0.26810833892E+01 0.27218677957E+01 0.27490578579E+01 0.27585827749E+01
 0.27490360624E+01 0.27218263080E+01 0.26810282062E+01 0.31902855280E+01 0.30719040866E+01
 0.29607338245E+01 0.28648590023E+01 0.27891184018E+01 0.27351213936E+01 0.27016519958E+01
 0.26852567615E+01 0.26810287292E+01 0.26836090369E+01 0.26882196307E+01 0.26914189899E+01
 0.26914447564E+01 0.26882882700E+01 0.26837028976E+01 0.26811330270E+01 0.26853598846E+01
 0.27017432764E+01 0.27351990018E+01 0.27891945491E+01 0.28649458753E+01 0.29608227763E+01
 0.30719674798E+01 0.31903026771E+01 0.33052043403E+01 0.34049303366E+01 0.34785107138E+01
 0.35175603769E+01 0.35175719776E+01 0.34785425433E+01 0.34049700770E+01 0.33052280104E+01
 0.38210982245E+01 0.36067532211E+01 0.34035444383E+01 0.32218608892E+01 0.30674945195E+01
 0.29422721721E+01 0.28450686495E+01 0.27728710965E+01 0.27218262563E+01 0.26882196307E+01
 0.26691974001E+01 0.26630667407E+01 0.26692731760E+01 0.26883479974E+01 0.27219767436E+01
 0.27730193317E+01 0.28451990786E+01 0.29423777431E+01 0.30675763024E+01 0.32219220271E+01
 0.34035813720E+01 0.36067560766E+01 0.38210603585E+01 0.40318009162E+01 0.42215072161E+01
 0.43725043851E+01 0.44697889378E+01 0.45033985519E+01 0.44698479131E+01 0.43725983175E+01
 0.42216042287E+01 0.40318757182E+01 0.44970543143E+01 0.41602598492E+01 0.38444877028E+01
 0.35624067793E+01 0.33204587150E+01 0.31202748780E+01 0.29603841452E+01 0.28377553917E+01
 0.27490354440E+01 0.26914189899E+01 0.26630667407E+01 0.26631165315E+01 0.26915540268E+01
 0.27492199315E+01 0.28379476967E+01 0.29605506759E+01 0.31203975773E+01 0.33205340269E+01
 0.35624362389E+01 0.38444684823E+01 0.41601884400E+01 0.44969383578E+01 0.48354832624E+01
 0.51513933069E+01 0.54182191523E+01 0.56116314800E+01 0.57132549479E+01 0.57132862623E+01
 0.56117169189E+01 0.54183406035E+01 0.51515331444E+01 0.48356229209E+01 0.51738951003E+01
 0.46913921938E+01 0.42474181328E+01 0.38562094042E+01 0.35239581152E+01 0.32511930069E+01
 0.30352496272E+01 0.28722712680E+01 0.27585827749E+01 0.26914447564E+01 0.26692731760E+01
 0.26915540268E+01 0.27587699393E+01 0.28724882325E+01 0.30354482885E+01 0.32513353223E+01
 0.35240228616E+01 0.38561967265E+01 0.42473455617E+01 0.46912819051E+01 0.51737630693E+01
 0.56712172802E+01 0.61516313333E+01 0.65780306515E+01 0.69138640131E+01 0.71286944187E+01
 0.72026183848E+01 0.71287489082E+01 0.69139648479E+01 0.65781629814E+01 0.61517773486E+01
 0.56713614918E+01 0.57947017181E+01 0.51515376479E+01 0.45729230978E+01 0.40730353986E+01
 0.36562566951E+01 0.33206474240E+01 0.30612010271E+01 0.28722714175E+01 0.27490584763E+01
 0.26882882700E+01 0.26883479974E+01 0.27492199315E+01 0.28724882325E+01 0.30614154435E+01
 0.33208079434E+01 0.36563291187E+01 0.40730089095E+01 0.45728144788E+01 0.51513888249E+01
 0.57945611065E+01 0.64758228236E+01 0.71561885150E+01 0.77873712240E+01 0.83180132936E+01
 0.87013887894E+01 0.89024137489E+01 0.89024260688E+01 0.87014212411E+01 0.83180562989E+01
 0.77874213192E+01 0.71562565301E+01 0.64759263020E+01 0.62974791237E+01 0.54920610523E+01
 0.47851353603E+01 0.41883312275E+01 0.37021641329E+01 0.33206333194E+01 0.30352328619E+01
 0.28377578385E+01 0.27218678474E+01 0.26837028976E+01 0.27219767436E+01 0.28379476967E+01
 0.30354482885E+01 0.33208079434E+01 0.37022491463E+01 0.41883124227E+01 0.47850297855E+01
 0.54919082113E+01 0.62973309769E+01 0.71746189957E+01 0.80803429436E+01 0.89562358952E+01
 0.97351412924E+01 0.10350078677E+02 0.10744329378E+02 0.10880126695E+02 0.10744263114E+02
 0.10349977453E+02 0.97350478896E+01 0.89561872882E+01 0.80803639122E+01 0.71747151832E+01
 0.66257940312E+01 0.56734199586E+01 0.48588813957E+01 0.41883162857E+01 0.36562305452E+01
 0.32511609352E+01 0.29603618042E+01 0.27728802360E+01 0.26810828662E+01 0.26811330270E+01
 0.27730193317E+01 0.29605506759E+01 0.32513353223E+01 0.36563291187E+01 0.41883124227E+01
 0.48587890528E+01 0.56732798864E+01 0.66256578803E+01 0.76928071304E+01 0.88311792678E+01
 0.99766535520E+01 0.11048614671E+02 0.11958453717E+02 0.12621702429E+02 0.12971706120E+02
 0.12971637717E+02 0.12621533886E+02 0.11958263022E+02 0.11048465965E+02 0.99765777107E+01
 0.88311864429E+01 0.76928924316E+01 0.67399826229E+01 0.56733992694E+01 0.47851039273E+01
 0.40730032105E+01 0.35239277843E+01 0.31202468714E+01 0.28450554687E+01 0.26852762216E+01
 0.26329293967E+01 0.26853598846E+01 0.28451990786E+01 0.31203975773E+01 0.35240228616E+01
 0.40730089095E+01 0.47850297855E+01 0.56732798864E+01 0.67398597517E+01 0.79691751992E+01
 0.93228669267E+01 0.10737385327E+02 0.12124977593E+02 0.13379074894E+02 0.14385430215E+02
 0.15038836991E+02 0.15265059108E+02 0.15038759384E+02 0.14385300864E+02 0.13378928187E+02
 0.12124848530E+02 0.10737310635E+02 0.93228730095E+01 0.79692572149E+01 0.66257464838E+01
 0.54920041074E+01 0.45728810160E+01 0.38561921364E+01 0.33204526591E+01 0.29422644680E+01
 0.27016555663E+01 0.25848112613E+01 0.25848426500E+01 0.27017432764E+01 0.29423777431E+01
 0.33205340269E+01 0.38561967265E+01 0.45728144788E+01 0.54919082113E+01 0.66256578803E+01
 0.79691751992E+01 0.94941711407E+01 0.11144739709E+02 0.12835143100E+02 0.14450232021E+02
 0.15848937267E+02 0.16877068446E+02 0.17419922542E+02 0.17419930653E+02 0.16877078999E+02
 0.15848922868E+02 0.14450182356E+02 0.12835082720E+02 0.11144708731E+02 0.94941900181E+01
 0.79692369191E+01 0.62973863046E+01 0.51514594398E+01 0.42473970632E+01 0.35624378776E+01
 0.30675281429E+01 0.27351337685E+01 0.25441741479E+01 0.24819339494E+01 0.25442176946E+01
 0.27351990018E+01 0.30675763024E+01 0.35624362389E+01 0.42473455617E+01 0.51513888249E+01
 0.62973309769E+01 0.76928071304E+01 0.93228669267E+01 0.11144739709E+02 0.13083645019E+02
 0.15028489455E+02 0.16818914468E+02 0.18257387752E+02 0.19185960020E+02 0.19506578850E+02
 0.19186033644E+02 0.18257508367E+02 0.16819033571E+02 0.15028561313E+02 0.13083659278E+02
 0.11144724710E+02 0.93228597407E+01 0.76928299809E+01 0.57945746079E+01 0.46913178485E+01
 0.38445144632E+01 0.32219499072E+01 0.27891833313E+01 0.25171484273E+01 0.23860232909E+01
 0.23860424237E+01 0.25171838711E+01 0.27891945491E+01 0.32219220271E+01 0.38444684823E+01
 0.46912819051E+01 0.57945611065E+01 0.71746189957E+01 0.88311792678E+01 0.10737385327E+02
 0.12835143100E+02 0.15028489455E+02 0.17158522095E+02 0.18998068188E+02 0.20346276005E+02
 0.21058547415E+02 0.21058609340E+02 0.20346448907E+02 0.18998301116E+02 0.17158727112E+02
 0.15028591341E+02 0.12835137648E+02 0.10737331633E+02 0.88311355485E+01 0.71746054495E+01
 0.51737594848E+01 0.41602234635E+01 0.34036269911E+01 0.28649791316E+01 0.25077314222E+01
 0.23042723604E+01 0.22382283195E+01 0.23042698550E+01 0.25077172503E+01 0.28649458753E+01
 0.34035813720E+01 0.41601884400E+01 0.51737630693E+01 0.64758228236E+01 0.80803429436E+01
 0.99766535520E+01 0.12124977593E+02 0.14450232021E+02 0.16818914468E+02 0.18998068188E+02
 0.20751036582E+02 0.21887390194E+02 0.22281083463E+02 0.21887524047E+02 0.20751249130E+02
 0.18998276763E+02 0.16819048715E+02 0.14450260609E+02 0.12124915246E+02 0.99765461912E+01
 0.80802418859E+01 0.64757654559E+01 0.44969477396E+01 0.36067861133E+01 0.29608570365E+01
 0.25172331566E+01 0.22409371865E+01 0.21084671798E+01 0.21084416532E+01 0.22408822441E+01
 0.25171844336E+01 0.29608227763E+01 0.36067560766E+01 0.44969383578E+01 0.56712172802E+01
 0.71561885150E+01 0.89562358952E+01 0.11048614671E+02 0.13379074894E+02 0.15848937267E+02
 0.18257387752E+02 0.20346276005E+02 0.21887390194E+02 0.22706285474E+02 0.22706326896E+02
 0.21887481361E+02 0.20346356285E+02 0.18257426726E+02 0.15848931939E+02 0.13379011404E+02
 0.11048480759E+02 0.89560634249E+01 0.71560500598E+01 0.56711614044E+01 0.38210555978E+01
 0.30720133154E+01 0.25442935564E+01 0.21972877861E+01 0.20007965994E+01 0.19371787180E+01
 0.20007540982E+01 0.21972148411E+01 0.25442176430E+01 0.30719674798E+01 0.38210603585E+01
 0.48354832624E+01 0.61516313333E+01 0.77873712240E+01 0.97351412924E+01 0.11958453717E+02
 0.14385430215E+02 0.16877068446E+02 0.19185960020E+02 0.21058547415E+02 0.22281083463E+02
 0.22706326896E+02 0.22281064587E+02 0.21058495174E+02 0.19185866983E+02 0.16876942555E+02
 0.14385278972E+02 0.11958281092E+02 0.97349628007E+01 0.77872133629E+01 0.61515175499E+01
 0.48354228857E+01 0.31903234062E+01 0.25849385595E+01 0.21720660810E+01 0.19161369554E+01
 0.17937500544E+01 0.17937400461E+01 0.19160879697E+01 0.21719670138E+01 0.25848419921E+01
 0.31903026771E+01 0.40318009162E+01 0.51513933069E+01 0.65780306515E+01 0.83180132936E+01
 0.10350078677E+02 0.12621702429E+02 0.15038836991E+02 0.17419922542E+02 0.19506578850E+02
 0.21058609340E+02 0.21887524047E+02 0.21887481361E+02 0.21058495174E+02 0.19506417698E+02
 0.17419725819E+02 0.15038608478E+02 0.12621466015E+02 0.10349879817E+02 0.83178716869E+01
 0.65779200962E+01 0.51512900952E+01 0.40317348108E+01 0.26329790252E+01 0.21618404813E+01
 0.18530101724E+01 0.16783387971E+01 0.16217894349E+01 0.16782899698E+01 0.18529250284E+01
 0.21617525666E+01 0.26329293237E+01 0.33052043403E+01 0.42215072161E+01 0.54182191523E+01
 0.69138640131E+01 0.87013887894E+01 0.10744329378E+02 0.12971706120E+02 0.15265059108E+02
 0.17419930653E+02 0.19186033644E+02 0.20346448907E+02 0.20751249130E+02 0.20346356285E+02
 0.19185866983E+02 0.17419725819E+02 0.15264851879E+02 0.12971511287E+02 0.10744148906E+02
 0.87012284961E+01 0.69137346068E+01 0.54181257485E+01 0.42214514737E+01 0.33051972867E+01
 0.21619380352E+01 0.18082693517E+01 0.15889361496E+01 0.14839156065E+01 0.14838802816E+01
 0.15888569036E+01 0.18081948437E+01 0.21618878580E+01 0.26810833892E+01 0.34049303366E+01
 0.43725043851E+01 0.56116314800E+01 0.71286944187E+01 0.89024137489E+01 0.10880126695E+02
 0.12971637717E+02 0.15038759384E+02 0.16877078999E+02 0.18257508367E+02 0.18998301116E+02
 0.18998276763E+02 0.18257426726E+02 0.16876942555E+02 0.15038608478E+02 0.12971511287E+02
 0.10880014973E+02 0.89022808073E+01 0.71285453957E+01 0.56115201116E+01 0.43724664653E+01
 0.34049470368E+01 0.26811193550E+01 0.17782738924E+01 0.15224551485E+01 0.13773290784E+01
 0.13302613436E+01 0.13773017787E+01 0.15224018146E+01 0.17782029211E+01 0.21673463941E+01
 0.27218677957E+01 0.34785107138E+01 0.44697889378E+01 0.57132549479E+01 0.72026183848E+01
 0.89024260688E+01 0.10744263114E+02 0.12621533886E+02 0.14385300864E+02 0.15848922868E+02
 0.16819033571E+02 0.17158727112E+02 0.16819048715E+02 0.15848931939E+02 0.14385278972E+02
 0.12621466015E+02 0.10744148906E+02 0.89022808073E+01 0.72024747948E+01 0.57131517243E+01
 0.44697471629E+01 0.34785261634E+01 0.27219219123E+01 0.21674186554E+01 0.14757627855E+01
 0.12987349638E+01 0.12136332065E+01 0.12136394607E+01 0.12987324302E+01 0.14757178693E+01
 0.17594637231E+01 0.21736772721E+01 0.27490578579E+01 0.35175603769E+01 0.45033985519E+01
 0.57132862623E+01 0.71287489082E+01 0.87014212411E+01 0.10349977453E+02 0.11958263022E+02
 0.13378928187E+02 0.14450182356E+02 0.15028561313E+02 0.15028591341E+02 0.14450260609E+02
 0.13379011404E+02 0.11958281092E+02 0.10349879817E+02 0.87012284961E+01 0.71285453957E+01
 0.57131517243E+01 0.45033546275E+01 0.35175854157E+01 0.27491276755E+01 0.21737718182E+01
 0.17595504886E+01 0.12450401830E+01 0.11301784485E+01 0.10928041411E+01 0.11301945069E+01
 0.12450456834E+01 0.14461014928E+01 0.17492881424E+01 0.21776622150E+01 0.27585827749E+01
 0.35175719776E+01 0.44698479131E+01 0.56117169189E+01 0.69139648479E+01 0.83180562989E+01
 0.97350478896E+01 0.11048465965E+02 0.12124848530E+02 0.12835082720E+02 0.13083659278E+02
 0.12835137648E+02 0.12124915246E+02 0.11048480759E+02 0.97349628007E+01 0.83178716869E+01
 0.69137346068E+01 0.56115201116E+01 0.44697471629E+01 0.35175854157E+01 0.27586805165E+01
 0.21777856673E+01 0.17493817112E+01 0.14461395949E+01 0.10765539241E+01 0.10102081536E+01
 0.10102263596E+01 0.10765916967E+01 0.12138160621E+01 0.14317192424E+01 0.17460522587E+01
 0.21776404748E+01 0.27490360624E+01 0.34785425433E+01 0.43725983175E+01 0.54183406035E+01
 0.65781629814E+01 0.77874213192E+01 0.89561872882E+01 0.99765777107E+01 0.10737310635E+02
 0.11144708731E+02 0.11144724710E+02 0.10737331633E+02 0.99765461912E+01 0.89560634249E+01
 0.77872133629E+01 0.65779200962E+01 0.54181257485E+01 0.43724664653E+01 0.34785261634E+01
 0.27491276755E+01 0.21777856673E+01 0.17461753810E+01 0.14317711633E+01 0.12138017449E+01
 0.96220259918E+00 0.93343148174E+00 0.96224847567E+00 0.10504173341E+01 0.12035592969E+01
 0.14316898986E+01 0.17492315789E+01 0.21736119803E+01 0.27218263080E+01 0.34049700770E+01
 0.42216042287E+01 0.51515331444E+01 0.61517773486E+01 0.71562565301E+01 0.80803639122E+01
 0.88311864429E+01 0.93228730095E+01 0.94941900181E+01 0.93228597407E+01 0.88311355485E+01
 0.80802418859E+01 0.71560500598E+01 0.61515175499E+01 0.51512900952E+01 0.42214514737E+01
 0.34049470368E+01 0.27219219123E+01 0.21737718182E+01 0.17493817112E+01 0.14317711633E+01
 0.12035571437E+01 0.10503655458E+01 0.89601919255E+00 0.89604346620E+00 0.94653036033E+00
 0.10504153840E+01 0.12137895110E+01 0.14460349062E+01 0.17593767568E+01 0.21672471884E+01
 0.26810282062E+01 0.33052280104E+01 0.40318757182E+01 0.48356229209E+01 0.56713614918E+01
 0.64759263020E+01 0.71747151832E+01 0.76928924316E+01 0.79692572149E+01 0.79692369191E+01
 0.76928299809E+01 0.71746054495E+01 0.64757654559E+01 0.56711614044E+01 0.48354228857E+01
 0.40317348108E+01 0.33051972867E+01 0.26811193550E+01 0.21674186554E+01 0.17595504886E+01
 0.14461395949E+01 0.12138017449E+01 0.10503655458E+01 0.94647225816E+00 0.89606464722E+00
 0.93348160533E+00 0.10102611461E+01 0.11302104331E+01 0.12987296989E+01 0.15224000642E+01
 0.18081580452E+01 0.21616864461E+01 0.25847819854E+01 0.30719040504E+01 0.36067533990E+01
 0.41602605892E+01 0.46913934604E+01 0.51515392128E+01 0.54920629223E+01 0.56734221249E+01
 0.56734012453E+01 0.54920052147E+01 0.51514594057E+01 0.46913167369E+01 0.41602213021E+01
 0.36067830910E+01 0.30720101130E+01 0.25849359472E+01 0.21618387038E+01 0.18082682889E+01
 0.15224548180E+01 0.12987353916E+01 0.11301792906E+01 0.10102089667E+01 0.93343220941E+00
 0.89604422951E+00 0.93348160533E+00 0.98033323770E+00 0.10610468938E+01 0.11792703671E+01
 0.13395544664E+01 0.15468126258E+01 0.18054265903E+01 0.21177474343E+01 0.24819003589E+01
 0.28891942377E+01 0.33219326032E+01 0.37527446574E+01 0.41464124032E+01 0.44644752244E+01
 0.46718704735E+01 0.47439515510E+01 0.46718385125E+01 0.44644213538E+01 0.41463618044E+01
 0.37527349747E+01 0.33219948707E+01 0.28893279568E+01 0.24820659255E+01 0.21178883553E+01
 0.18055053907E+01 0.15468294622E+01 0.13395342109E+01 0.11792362007E+01 0.10610087028E+01
 0.98029654561E+00 0.93345753038E+00 0.91812815802E+00 0.10102611461E+01 0.10610468938E+01
 0.11403835061E+01 0.12516200276E+01 0.13984987505E+01 0.15845098168E+01 0.18119561914E+01
 0.20806139211E+01 0.23860169891E+01 0.27177026337E+01 0.30580909923E+01 0.33828185132E+01
 0.36631036894E+01 0.38700774861E+01 0.39801873652E+01 0.39801722213E+01 0.38700429871E+01
 0.36630776152E+01 0.33828317675E+01 0.30581605019E+01 0.27178196895E+01 0.23861486603E+01
 0.20807184758E+01 0.18120044453E+01 0.15844997175E+01 0.13984531345E+01 0.12515692695E+01
 0.11403470085E+01 0.10610275337E+01 0.10102530606E+01 0.98552914212E+00 0.98553127266E+00
 0.11302104331E+01 0.11792703671E+01 0.12516200276E+01 0.13503878470E+01 0.14787245986E+01
 0.16390523175E+01 0.18321210214E+01 0.20558810239E+01 0.23042674209E+01 0.25661995719E+01
 0.28253113922E+01 0.30609562716E+01 0.32507380337E+01 0.33742542943E+01 0.34171457207E+01
 0.33742356715E+01 0.32507159896E+01 0.30609588555E+01 0.28253623530E+01 0.25662931320E+01
 0.23043640843E+01 0.20559359788E+01 0.18321169314E+01 0.16390037420E+01 0.14786577523E+01
 0.13503246744E+01 0.12515773659E+01 0.11792589322E+01 0.11302253885E+01 0.11019013231E+01
 0.10926381122E+01 0.11018826227E+01 0.12987296989E+01 0.13395544664E+01 0.13984987505E+01
 0.14787245986E+01 0.15830861739E+01 0.17133037177E+01 0.18690762259E+01 0.20472136932E+01
 0.22409045044E+01 0.24393549037E+01 0.26281525181E+01 0.27906520418E+01 0.29103765250E+01
 0.29739805686E+01 0.29739741801E+01 0.29103602357E+01 0.27906381433E+01 0.26281619518E+01
 0.24393992834E+01 0.22409666854E+01 0.20472542173E+01 0.18690638723E+01 0.17132385810E+01
 0.15829945383E+01 0.14786389776E+01 0.13984447979E+01 0.13395458599E+01 0.12987612461E+01
 0.12732635058E+01 0.12610201903E+01 0.12609999157E+01 0.12732195531E+01 0.15224000642E+01
 0.15468126258E+01 0.15845098168E+01 0.16390523175E+01 0.17133037177E+01 0.18086077029E+01
 0.19240485790E+01 0.20558813187E+01 0.21972380550E+01 0.23382846401E+01 0.24670197589E+01
 0.25707854138E+01 0.26382966904E+01 0.26617291823E+01 0.26382855375E+01 0.25707733624E+01
 0.24670193359E+01 0.23383007945E+01 0.21972635371E+01 0.20558996839E+01 0.19240420941E+01
 0.18085663717E+01 0.17132323992E+01 0.16389727147E+01 0.15844530935E+01 0.15468030464E+01
 0.15224386499E+01 0.15078591046E+01 0.15002659047E+01 0.14979121524E+01 0.15002214207E+01
 0.15077982230E+01 0.18081580452E+01 0.18054265903E+01 0.18119561914E+01 0.18321210214E+01
 0.18690762259E+01 0.19240485790E+01 0.19958441940E+01 0.20806136649E+01 0.21719543476E+01
 0.22614600179E+01 0.23397584622E+01 0.23979145341E+01 0.24289184005E+01 0.24289192304E+01
 0.23979195795E+01 0.23397733092E+01 0.22614870450E+01 0.21719859631E+01 0.20806328484E+01
 0.19958354680E+01 0.19240106156E+01 0.18690238557E+01 0.18320759490E+01 0.18119361938E+01
 0.18054403802E+01 0.18082034899E+01 0.18154712393E+01 0.18229610077E+01 0.18275177739E+01
 0.18274960270E+01 0.18229063856E+01 0.18154087311E+01 0.21616864461E+01 0.21177474343E+01
 0.20806139211E+01 0.20558810239E+01 0.20472136932E+01 0.20558813187E+01 0.20806136649E+01
 0.21177465990E+01 0.21616858685E+01 0.22057166746E+01 0.22430709364E+01 0.22680268125E+01
 0.22767942026E+01 0.22680510506E+01 0.22431166893E+01 0.22057765319E+01 0.21617454363E+01
 0.21177866819E+01 0.20806200217E+01 0.20558556502E+01 0.20471748578E+01 0.20558542822E+01
 0.20806169031E+01 0.21177825114E+01 0.21617417531E+01 0.22057738835E+01 0.22431145385E+01
 0.22680494246E+01 0.22767937782E+01 0.22680273745E+01 0.22430714365E+01 0.22057168934E+01
 0.25847819854E+01 0.24819003589E+01 0.23860169891E+01 0.23042674209E+01 0.22409045044E+01
 0.21972380550E+01 0.21719543476E+01 0.21616858685E+01 0.21617856013E+01 0.21672477298E+01
 0.21736121998E+01 0.21776407325E+01 0.21776635647E+01 0.21736794541E+01 0.21673483056E+01
 0.21618895027E+01 0.21617545526E+01 0.21719686427E+01 0.21972147453E+01 0.22408805154E+01
 0.23042676307E+01 0.23860398836E+01 0.24819306852E+01 0.25848080714E+01 0.26852744542E+01
 0.27728797508E+01 0.28377575495E+01 0.28722713631E+01 0.28722721933E+01 0.28377568219E+01
 0.27728718658E+01 0.26852570031E+01 0.30719040504E+01 0.28891942377E+01 0.27177026337E+01
 0.25661995719E+01 0.24393549037E+01 0.23382846401E+01 0.22614600179E+01 0.22057166746E+01
 0.21672477298E+01 0.21424843380E+01 0.21287119381E+01 0.21243207387E+01 0.21287856519E+01
 0.21426137288E+01 0.21673934340E+01 0.22058260829E+01 0.22614954194E+01 0.23382529980E+01
 0.24393055910E+01 0.25661827872E+01 0.27177263739E+01 0.28892241600E+01 0.30719025828E+01
 0.32531191540E+01 0.34175489511E+01 0.35493262807E+01 0.36346591142E+01 0.36642103739E+01
 0.36346856432E+01 0.35493755661E+01 0.34176066387E+01 0.32531593412E+01 0.36067533990E+01
 0.33219326032E+01 0.30580909923E+01 0.28253113922E+01 0.26281525181E+01 0.24670197589E+01
 0.23397584622E+01 0.22430709364E+01 0.21736121998E+01 0.21287119381E+01 0.21066757004E+01
 0.21067285421E+01 0.21288534721E+01 0.21737926009E+01 0.22432203673E+01 0.23398211485E+01
 0.24669898756E+01 0.26280759508E+01 0.28252448734E+01 0.30580566415E+01 0.33219111155E+01
 0.36067142147E+01 0.38963632434E+01 0.41696576316E+01 0.44028379816E+01 0.45732758560E+01
 0.46633260657E+01 0.46633534584E+01 0.45733482060E+01 0.44029324545E+01 0.41697496423E+01
 0.38964329870E+01 0.41602605892E+01 0.37527446574E+01 0.33828185132E+01 0.30609562716E+01
 0.27906520418E+01 0.25707854138E+01 0.23979145341E+01 0.22680268125E+01 0.21776407325E+01
 0.21243207387E+01 0.21067285421E+01 0.21244398636E+01 0.21778322717E+01 0.22682083455E+01
 0.23980065707E+01 0.25707621444E+01 0.27905543593E+01 0.30608468233E+01 0.33827261475E+01
 0.37526570870E+01 0.41601599632E+01 0.45862244867E+01 0.50034672178E+01 0.53786872750E+01
 0.56775781270E+01 0.58703981809E+01 0.59370527948E+01 0.58704509189E+01 0.56776643251E+01
 0.53787888621E+01 0.50035772408E+01 0.45863360895E+01 0.46913934604E+01 0.41464124032E+01
 0.36631036894E+01 0.32507380337E+01 0.29103765250E+01 0.26382966904E+01 0.24289184005E+01
 0.22767942026E+01 0.21776635647E+01 0.21287856519E+01 0.21288534721E+01 0.21778322717E+01
 0.22769774972E+01 0.24290266194E+01 0.26382884443E+01 0.29102746896E+01 0.32505966597E+01
 0.36629618185E+01 0.41462789856E+01 0.46912643988E+01 0.52774991142E+01 0.58722958046E+01
 0.64325774132E+01 0.69100732178E+01 0.72588199067E+01 0.74429808101E+01 0.74429969565E+01
 0.72588668405E+01 0.69101470588E+01 0.64326734422E+01 0.58724091491E+01 0.52776234021E+01
 0.51515392128E+01 0.44644752244E+01 0.38700774861E+01 0.33742542943E+01 0.29739805686E+01
 0.26617291823E+01 0.24289192304E+01 0.22680510506E+01 0.21736794541E+01 0.21426137288E+01
 0.21737926009E+01 0.22682083455E+01 0.24290266194E+01 0.26617288551E+01 0.29738815544E+01
 0.33741050592E+01 0.38699154305E+01 0.44643118026E+01 0.51513836444E+01 0.59118633495E+01
 0.67101854551E+01 0.74947887815E+01 0.82027467157E+01 0.87684113715E+01 0.91341985397E+01
 0.92607804170E+01 0.91342034577E+01 0.87684194602E+01 0.82027613438E+01 0.74948252780E+01
 0.67102640007E+01 0.59119891138E+01 0.54920629223E+01 0.46718704735E+01 0.39801873652E+01
 0.34171457207E+01 0.29739741801E+01 0.26382855375E+01 0.23979195795E+01 0.22431166893E+01
 0.21673483056E+01 0.21673934340E+01 0.22432203673E+01 0.23980065707E+01 0.26382884443E+01
 0.29738815544E+01 0.34169987979E+01 0.39800282399E+01 0.46717080613E+01 0.54918963016E+01
 0.64257501436E+01 0.74387896080E+01 0.84747862579E+01 0.94583146496E+01 0.10302868428E+02
 0.10923753847E+02 0.11253092385E+02 0.11253069041E+02 0.10923689569E+02 0.10302782965E+02
 0.94582450738E+01 0.84747778985E+01 0.74388669816E+01 0.64258943315E+01 0.56734221249E+01
 0.47439515510E+01 0.39801722213E+01 0.33742356715E+01 0.29103602357E+01 0.25707733624E+01
 0.23397733092E+01 0.22057765319E+01 0.21618895027E+01 0.22058260829E+01 0.23398211485E+01
 0.25707621444E+01 0.29102746896E+01 0.33741050592E+01 0.39800282399E+01 0.47437993070E+01
 0.56732603538E+01 0.67613743492E+01 0.79794931436E+01 0.92725806844E+01 0.10558413477E+02
 0.11732779263E+02 0.12681907486E+02 0.13301255998E+02 0.13516640100E+02 0.13301177568E+02
 0.12681787463E+02 0.11732664116E+02 0.10558341815E+02 0.92725823257E+01 0.79795787190E+01
 0.67615200161E+01 0.56734012453E+01 0.46718385125E+01 0.38700429871E+01 0.32507159896E+01
 0.27906381433E+01 0.24670193359E+01 0.22614870450E+01 0.21617454363E+01 0.21617545526E+01
 0.22614954194E+01 0.24669898756E+01 0.27905543593E+01 0.32505966597E+01 0.38699154305E+01
 0.46717080613E+01 0.56732603538E+01 0.68781213482E+01 0.82679957027E+01 0.97956671104E+01
 0.11380484225E+02 0.12908700224E+02 0.14241840833E+02 0.15235596755E+02 0.15767794962E+02
 0.15767782172E+02 0.15235561631E+02 0.14241789321E+02 0.12908642607E+02 0.11380446775E+02
 0.97956868434E+01 0.82680873452E+01 0.68782579791E+01 0.54920052147E+01 0.44644213538E+01
 0.36630776152E+01 0.30609588555E+01 0.26281619518E+01 0.23383007945E+01 0.21719859631E+01
 0.21177866819E+01 0.21719686427E+01 0.23382529980E+01 0.26280759508E+01 0.30608468233E+01
 0.36629618185E+01 0.44643118026E+01 0.54918963016E+01 0.67613743492E+01 0.82679957027E+01
 0.99780225908E+01 0.11821270167E+02 0.13686127243E+02 0.15420891366E+02 0.16847453341E+02
 0.17791123354E+02 0.18121703665E+02 0.17791179990E+02 0.16847529851E+02 0.15420943016E+02
 0.13686140169E+02 0.11821273609E+02 0.99780585518E+01 0.82680776264E+01 0.67614811360E+01
 0.51514594057E+01 0.41463618044E+01 0.33828317675E+01 0.28253623530E+01 0.24393992834E+01
 0.21972635371E+01 0.20806328484E+01 0.20806200217E+01 0.21972147453E+01 0.24393055910E+01
 0.28252448734E+01 0.33827261475E+01 0.41462789856E+01 0.51513836444E+01 0.64257501436E+01
 0.79794931436E+01 0.97956671104E+01 0.11821270167E+02 0.13958415337E+02 0.16058108822E+02
 0.17924257960E+02 0.19335205934E+02 0.20095606487E+02 0.20095653256E+02 0.19335332870E+02
 0.17924421517E+02 0.16058244944E+02 0.13958482512E+02 0.11821284555E+02 0.97956823973E+01