unknown system                          
   1.00000000000000     
     0.000000    2.732907    2.732907
     2.732907    0.000000    2.732907
     2.732907    2.732907   -0.000000
   Si
     2
Direct
  0.500000  0.500000  0.500000
  0.750000  0.750000  0.750000
 
   32   32   32
 0.85011538235E+00 0.87145040225E+00 0.93666847909E+00 0.10493816877E+01 0.12155552227E+01
 0.14433131600E+01 0.17422687632E+01 0.21219032124E+01 0.25886317348E+01 0.31416473847E+01
 0.37683356345E+01 0.44407334938E+01 0.51147667913E+01 0.57335630811E+01 0.62350563986E+01
 0.65626867798E+01 0.66766790495E+01 0.65626900356E+01 0.62350592897E+01 0.57335619580E+01
 0.51147619116E+01 0.44407284355E+01 0.37683322805E+01 0.31416436900E+01 0.25886260679E+01
 0.21218981090E+01 0.17422673173E+01 0.14433140680E+01 0.12155552548E+01 0.10493811623E+01
 0.93666984508E+00 0.87145276251E+00 0.87145040225E+00 0.90825089832E+00 0.98382474773E+00
 0.11019844703E+01 0.12681338963E+01 0.14888652018E+01 0.17711530006E+01 0.21207692826E+01
 0.25396662261E+01 0.30225195244E+01 0.35532791387E+01 0.41031158490E+01 0.46311884420E+01
 0.50890035861E+01 0.54279783789E+01 0.56085786118E+01 0.56085802746E+01 0.54279802954E+01
 0.50889985825E+01 0.46311723482E+01 0.41030957166E+01 0.35532707809E+01 0.30225316089E+01
 0.25396883839E+01 0.21207814892E+01 0.17711468581E+01 0.14888510359E+01 0.12681260698E+01
 0.11019853678E+01 0.98382672221E+00 0.90824945960E+00 0.87144888469E+00 0.93666847909E+00
 0.98382474773E+00 0.10650340310E+01 0.11839559024E+01 0.13452225623E+01 0.15539110173E+01
 0.18146347546E+01 0.21300035037E+01 0.24983476533E+01 0.29110143994E+01 0.33500791989E+01
 0.37876522829E+01 0.41877812007E+01 0.45112018938E+01 0.47221420831E+01 0.47954732073E+01
 0.47221429058E+01 0.45112027465E+01 0.41877814740E+01 0.37876519229E+01 0.33500780193E+01
 0.29110118873E+01 0.24983441385E+01 0.21300008910E+01 0.18146349226E+01 0.15539134647E+01
 0.13452247219E+01 0.11839561369E+01 0.10650333015E+01 0.98382471659E+00 0.93666906278E+00
 0.92121978870E+00 0.10493816877E+01 0.11019844703E+01 0.11839559024E+01 0.12986580243E+01
 0.14499813148E+01 0.16417003660E+01 0.18764670477E+01 0.21543353238E+01 0.24708760502E+01
 0.28152714444E+01 0.31691344915E+01 0.35069242965E+01 0.37985229033E+01 0.40138247349E+01
 0.41283523927E+01 0.41283524952E+01 0.40138250808E+01 0.37985254204E+01 0.35069327772E+01
 0.31691478660E+01 0.28152792449E+01 0.24708669454E+01 0.21543114757E+01 0.18764451917E+01
 0.16416957124E+01 0.14499929824E+01 0.12986726751E+01 0.11839628679E+01 0.11019836575E+01
 0.10493786403E+01 0.10237133412E+01 0.10237146856E+01 0.12155552227E+01 0.12681338963E+01
 0.13452225623E+01 0.14499813148E+01 0.15857615425E+01 0.17553238925E+01 0.19597656663E+01
 0.21971858087E+01 0.24612604900E+01 0.27401281873E+01 0.30161615169E+01 0.32671680946E+01
 0.34692089306E+01 0.36006196417E+01 0.36462399749E+01 0.36006193489E+01 0.34692090095E+01
 0.32671682392E+01 0.30161602647E+01 0.27401251458E+01 0.24612576774E+01 0.21971854525E+01
 0.19597671809E+01 0.17553246050E+01 0.15857603717E+01 0.14499799274E+01 0.13452223196E+01
 0.12681336025E+01 0.12155533899E+01 0.11850191367E+01 0.11750114679E+01 0.11850212938E+01
 0.14433131600E+01 0.14888652018E+01 0.15539110173E+01 0.16417003660E+01 0.17553238925E+01
 0.18968127669E+01 0.20660923065E+01 0.22599006603E+01 0.24708766084E+01 0.26871539167E+01
 0.28928563646E+01 0.30697477034E+01 0.31999288220E+01 0.32690265999E+01 0.32690261167E+01
 0.31999280932E+01 0.30697467030E+01 0.28928520589E+01 0.26871438214E+01 0.24708651203E+01
 0.22598985341E+01 0.20661065220E+01 0.18968369887E+01 0.17553415871E+01 0.16416992764E+01
 0.15538943855E+01 0.14888479004E+01 0.14433069555E+01 0.14145133423E+01 0.14005773802E+01
 0.14005743290E+01 0.14145098659E+01 0.17422687632E+01 0.17711530006E+01 0.18146347546E+01
 0.18764670477E+01 0.19597656663E+01 0.20660923065E+01 0.21945771765E+01 0.23411924817E+01
 0.24983476007E+01 0.26550588821E+01 0.27979212453E+01 0.29128943700E+01 0.29875892379E+01
 0.30134975227E+01 0.29875904223E+01 0.29128961050E+01 0.27979228983E+01 0.26550603126E+01
 0.24983489453E+01 0.23411936345E+01 0.21945777788E+01 0.20660922756E+01 0.19597654239E+01
 0.18764670175E+01 0.18146348239E+01 0.17711527264E+01 0.17422680037E+01 0.17244210531E+01
 0.17148414077E+01 0.17118354430E+01 0.17148419823E+01 0.17244219518E+01 0.21219032124E+01
 0.21207692826E+01 0.21300035037E+01 0.21543353238E+01 0.21971858087E+01 0.22599006603E+01
 0.23411924817E+01 0.24368256363E+01 0.25396655708E+01 0.26402751388E+01 0.27281293987E+01
 0.27932608522E+01 0.28279326296E+01 0.28279342979E+01 0.27932651740E+01 0.27281346581E+01
 0.26402801027E+01 0.25396711531E+01 0.24368330054E+01 0.23411977916E+01 0.22598945596E+01
 0.21971634806E+01 0.21543072637E+01 0.21299900266E+01 0.21207798573E+01 0.21219249386E+01
 0.21283029933E+01 0.21353495250E+01 0.21397396159E+01 0.21397433249E+01 0.21353517285E+01
 0.21282908158E+01 0.25886317348E+01 0.25396662261E+01 0.24983476533E+01 0.24708760502E+01
 0.24612604900E+01 0.24708766084E+01 0.24983476007E+01 0.25396655708E+01 0.25886316605E+01
 0.26377318764E+01 0.26793734960E+01 0.27071680242E+01 0.27169185378E+01 0.27071700361E+01
 0.26793759177E+01 0.26377336264E+01 0.25886323636E+01 0.25396640030E+01 0.24983424102E+01
 0.24708686582E+01 0.24612523438E+01 0.24708692165E+01 0.24983423577E+01 0.25396633477E+01
 0.25886322893E+01 0.26377341444E+01 0.26793758652E+01 0.27071694210E+01 0.27169185378E+01
 0.27071686393E+01 0.26793735486E+01 0.26377313583E+01 0.31416473847E+01 0.30225195244E+01
 0.29110143994E+01 0.28152714444E+01 0.27401281873E+01 0.26871539167E+01 0.26550588821E+01
 0.26402751388E+01 0.26377318764E+01 0.26418618930E+01 0.26476623813E+01 0.26514989912E+01
 0.26514998341E+01 0.26476620835E+01 0.26418576952E+01 0.26377266068E+01 0.26402707186E+01
 0.26550504880E+01 0.26871390338E+01 0.27401169029E+01 0.28152773149E+01 0.29110355578E+01
 0.30225378354E+01 0.31416483492E+01 0.32576052734E+01 0.33584534747E+01 0.34329719937E+01
 0.34725508700E+01 0.34725520495E+01 0.34329782469E+01 0.33584668812E+01 0.32576182525E+01
 0.37683356345E+01 0.35532791387E+01 0.33500791989E+01 0.31691344915E+01 0.30161615169E+01
 0.28928563646E+01 0.27979212453E+01 0.27281293987E+01 0.26793734960E+01 0.26476623813E+01
 0.26298842804E+01 0.26241633107E+01 0.26298848713E+01 0.26476592363E+01 0.26793658142E+01
 0.27281216971E+01 0.27979167700E+01 0.28928542757E+01 0.30161611395E+01 0.31691369543E+01
 0.33500841433E+01 0.35532846102E+01 0.37683414904E+01 0.39804228299E+01 0.41717817110E+01
 0.43243670169E+01 0.44227869747E+01 0.44567897138E+01 0.44227891634E+01 0.43243664479E+01
 0.41717764001E+01 0.39804159823E+01 0.44407334938E+01 0.41031158490E+01 0.37876522829E+01
 0.35069242965E+01 0.32671680946E+01 0.30697477034E+01 0.29128943700E+01 0.27932608522E+01
 0.27071680242E+01 0.26514989912E+01 0.26241633107E+01 0.26241625011E+01 0.26514956842E+01
 0.27071615613E+01 0.27932532033E+01 0.29128892739E+01 0.30697486872E+01 0.32671767524E+01
 0.35069370800E+01 0.37876596267E+01 0.41031103386E+01 0.44407205032E+01 0.47811556191E+01
 0.50996564233E+01 0.53692419057E+01 0.55649576676E+01 0.56678746560E+01 0.56678689674E+01
 0.55649417326E+01 0.53692224419E+01 0.50996459908E+01 0.47811610625E+01 0.51147667913E+01
 0.46311884420E+01 0.41877812007E+01 0.37985229033E+01 0.34692089306E+01 0.31999288220E+01
 0.29875892379E+01 0.28279326296E+01 0.27169185378E+01 0.26514998341E+01 0.26298848713E+01
 0.26514956842E+01 0.27169095668E+01 0.28279214998E+01 0.29875816678E+01 0.31999278952E+01
 0.34692127394E+01 0.37985290301E+01 0.41877902216E+01 0.46312007707E+01 0.51147786352E+01
 0.56149590916E+01 0.60993878224E+01 0.65303969736E+01 0.68705113336E+01 0.70883624105E+01
 0.71633597417E+01 0.70883663874E+01 0.68705185186E+01 0.65304043712E+01 0.60993904063E+01
 0.56149534777E+01 0.57335630811E+01 0.50890035861E+01 0.45112018938E+01 0.40138247349E+01
 0.36006196417E+01 0.32690265999E+01 0.30134975227E+01 0.28279342979E+01 0.27071700361E+01
 0.26476620835E+01 0.26476592363E+01 0.27071615613E+01 0.28279214998E+01 0.30134846741E+01
 0.32690195795E+01 0.36006207250E+01 0.40138301622E+01 0.45112080974E+01 0.50890146594E+01
 0.57335861156E+01 0.64186195282E+01 0.71048573927E+01 0.77431966018E+01 0.82810311014E+01
 0.86702333877E+01 0.88745182695E+01 0.88745326921E+01 0.86702669778E+01 0.82810607522E+01
 0.77432017430E+01 0.71048359891E+01 0.64185883036E+01 0.62350563986E+01 0.54279783789E+01
 0.47221420831E+01 0.41283523927E+01 0.36462399749E+01 0.32690261167E+01 0.29875904223E+01
 0.27932651740E+01 0.26793759177E+01 0.26418576952E+01 0.26793658142E+01 0.27932532033E+01
 0.29875816678E+01 0.32690195795E+01 0.36462368483E+01 0.41283579412E+01 0.47221576902E+01
 0.54279991422E+01 0.62350773405E+01 0.71172168410E+01 0.80309002286E+01 0.89170144366E+01
 0.97068655788E+01 0.10331562124E+02 0.10732558487E+02 0.10870785641E+02 0.10732557749E+02
 0.10331565469E+02 0.97068718199E+01 0.89170149960E+01 0.80308900176E+01 0.71171989070E+01
 0.65626867798E+01 0.56085786118E+01 0.47954732073E+01 0.41283524952E+01 0.36006193489E+01
 0.31999280932E+01 0.29128961050E+01 0.27281346581E+01 0.26377336264E+01 0.26377266068E+01
 0.27281216971E+01 0.29128892739E+01 0.31999278952E+01 0.36006207250E+01 0.41283579412E+01
 0.47954894035E+01 0.56086050102E+01 0.65627146724E+01 0.76355870477E+01 0.87839035591E+01
 0.99428131933E+01 0.11029983101E+02 0.11954418176E+02 0.12629149255E+02 0.12985487571E+02
 0.12985471758E+02 0.12629121255E+02 0.11954410111E+02 0.11029999684E+02 0.99428317954E+01
 0.87839044397E+01 0.76355688588E+01 0.66766790495E+01 0.56085802746E+01 0.47221429058E+01
 0.40138250808E+01 0.34692090095E+01 0.30697467030E+01 0.27979228983E+01 0.26402801027E+01
 0.25886323636E+01 0.26402707186E+01 0.27979167700E+01 0.30697486872E+01 0.34692127394E+01
 0.40138301622E+01 0.47221576902E+01 0.56086050102E+01 0.66767023131E+01 0.79121582535E+01
 0.92772831739E+01 0.10708095180E+02 0.12115129298E+02 0.13389081776E+02 0.14412564294E+02
 0.15077894889E+02 0.15308556376E+02 0.15077897640E+02 0.14412574515E+02 0.13389096035E+02
 0.12115137023E+02 0.10708092819E+02 0.92772747415E+01 0.79121436016E+01 0.65626900356E+01
 0.54279802954E+01 0.45112027465E+01 0.37985254204E+01 0.32671682392E+01 0.28928520589E+01
 0.26550603126E+01 0.25396711531E+01 0.25396640030E+01 0.26550504880E+01 0.28928542757E+01
 0.32671767524E+01 0.37985290301E+01 0.45112080974E+01 0.54279991422E+01 0.65627146724E+01
 0.79121582535E+01 0.94492245316E+01 0.11118053996E+02 0.12831443069E+02 0.14471383557E+02
 0.15894271598E+02 0.16942934773E+02 0.17497415152E+02 0.17497426143E+02 0.16942957652E+02
 0.15894285332E+02 0.14471377321E+02 0.12831427720E+02 0.11118045967E+02 0.94492216219E+01
 0.79121449526E+01 0.62350592897E+01 0.50889985825E+01 0.41877814740E+01 0.35069327772E+01
 0.30161602647E+01 0.26871438214E+01 0.24983489453E+01 0.24368330054E+01 0.24983424102E+01
 0.26871390338E+01 0.30161611395E+01 0.35069370800E+01 0.41877902216E+01 0.50890146594E+01
 0.62350773405E+01 0.76355870477E+01 0.92772831739E+01 0.11118053996E+02 0.13082155054E+02
 0.15055829380E+02 0.16877832386E+02 0.18345667537E+02 0.19294493462E+02 0.19622250700E+02
 0.19294482451E+02 0.18345655111E+02 0.16877822749E+02 0.15055818973E+02 0.13082144458E+02
 0.11118048248E+02 0.92772796131E+01 0.76355765427E+01 0.57335619580E+01 0.46311723482E+01
 0.37876519229E+01 0.31691478660E+01 0.27401251458E+01 0.24708651203E+01 0.23411936345E+01
 0.23411977916E+01 0.24708686582E+01 0.27401169029E+01 0.31691369543E+01 0.37876596267E+01
 0.46312007707E+01 0.57335861156E+01 0.71172168410E+01 0.87839035591E+01 0.10708095180E+02
 0.12831443069E+02 0.15055829380E+02 0.17222427601E+02 0.19098920498E+02 0.20476045042E+02
 0.21203892520E+02 0.21203877142E+02 0.20476016187E+02 0.19098903783E+02 0.17222421709E+02
 0.15055817931E+02 0.12831428584E+02 0.10708095022E+02 0.87839159278E+01 0.71172169501E+01
 0.51147619116E+01 0.41030957166E+01 0.33500780193E+01 0.28152792449E+01 0.24612576774E+01
 0.22598985341E+01 0.21945777788E+01 0.22598945596E+01 0.24612523438E+01 0.28152773149E+01
 0.33500841433E+01 0.41031103386E+01 0.51147786352E+01 0.64186195282E+01 0.80309002286E+01
 0.99428131933E+01 0.12115129298E+02 0.14471383557E+02 0.16877832386E+02 0.19098920498E+02
 0.20888296799E+02 0.22048710862E+02 0.22450688082E+02 0.22048699118E+02 0.20888276638E+02
 0.19098898985E+02 0.16877818788E+02 0.14471384366E+02 0.12115142650E+02 0.99428285733E+01
 0.80309057165E+01 0.64186109122E+01 0.44407284355E+01 0.35532707809E+01 0.29110118873E+01
 0.24708669454E+01 0.21971854525E+01 0.20661065220E+01 0.20660922756E+01 0.21971634806E+01
 0.24708692165E+01 0.29110355578E+01 0.35532846102E+01 0.44407205032E+01 0.56149590916E+01
 0.71048573927E+01 0.89170144366E+01 0.11029983101E+02 0.13389081776E+02 0.15894271598E+02
 0.18345667537E+02 0.20476045042E+02 0.22048710862E+02 0.22884326019E+02 0.22884324101E+02
 0.22048693107E+02 0.20476003956E+02 0.18345632413E+02 0.15894278554E+02 0.13389121821E+02
 0.11030012193E+02 0.89170131820E+01 0.71048498249E+01 0.56149667449E+01 0.37683322805E+01
 0.30225316089E+01 0.24983441385E+01 0.21543114757E+01 0.19597671809E+01 0.18968369887E+01
 0.19597654239E+01 0.21543072637E+01 0.24983423577E+01 0.30225378354E+01 0.37683414904E+01
 0.47811556191E+01 0.60993878224E+01 0.77431966018E+01 0.97068655788E+01 0.11954418176E+02
 0.14412564294E+02 0.16942934773E+02 0.19294493462E+02 0.21203892520E+02 0.22450688082E+02
 0.22884324101E+02 0.22450677328E+02 0.21203867385E+02 0.19294463012E+02 0.16942919107E+02
 0.14412572319E+02 0.11954440048E+02 0.97068888399E+01 0.77432163432E+01 0.60993998932E+01
 0.47811551028E+01 0.31416436900E+01 0.25396883839E+01 0.21300008910E+01 0.18764451917E+01
 0.17553246050E+01 0.17553415871E+01 0.18764670175E+01 0.21299900266E+01 0.25396633477E+01
 0.31416483492E+01 0.39804228299E+01 0.50996564233E+01 0.65303969736E+01 0.82810311014E+01
 0.10331562124E+02 0.12629149255E+02 0.15077894889E+02 0.17497415152E+02 0.19622250700E+02
 0.21203877142E+02 0.22048699118E+02 0.22048693107E+02 0.21203867385E+02 0.19622247922E+02
 0.17497413065E+02 0.15077880555E+02 0.12629132838E+02 0.10331574578E+02 0.82810786798E+01
 0.65304388106E+01 0.50996533987E+01 0.39803939677E+01 0.25886260679E+01 0.21207814892E+01
 0.18146349226E+01 0.16416957124E+01 0.15857603717E+01 0.16416992764E+01 0.18146348239E+01
 0.21207798573E+01 0.25886322893E+01 0.32576052734E+01 0.41717817110E+01 0.53692419057E+01
 0.68705113336E+01 0.86702333877E+01 0.10732558487E+02 0.12985487571E+02 0.15308556376E+02
 0.17497426143E+02 0.19294482451E+02 0.20476016187E+02 0.20888276638E+02 0.20476003956E+02
 0.19294463012E+02 0.17497413065E+02 0.15308561864E+02 0.12985508410E+02 0.10732582593E+02
 0.86702567651E+01 0.68705353194E+01 0.53692590345E+01 0.41717820375E+01 0.32575944790E+01
 0.21218981090E+01 0.17711468581E+01 0.15539134647E+01 0.14499929824E+01 0.14499799274E+01
 0.15538943855E+01 0.17711527264E+01 0.21219249386E+01 0.26377341444E+01 0.33584534747E+01
 0.43243670169E+01 0.55649576676E+01 0.70883624105E+01 0.88745182695E+01 0.10870785641E+02
 0.12985471758E+02 0.15077897640E+02 0.16942957652E+02 0.18345655111E+02 0.19098903783E+02
 0.19098898985E+02 0.18345632413E+02 0.16942919107E+02 0.15077880555E+02 0.12985508410E+02
 0.10870852308E+02 0.88745606151E+01 0.70883654098E+01 0.55649554541E+01 0.43243830712E+01
 0.33584672350E+01 0.26377204730E+01 0.17422673173E+01 0.14888510359E+01 0.13452247219E+01
 0.12986726751E+01 0.13452223196E+01 0.14888479004E+01 0.17422680037E+01 0.21283029933E+01
 0.26793758652E+01 0.34329719937E+01 0.44227869747E+01 0.56678746560E+01 0.71633597417E+01
 0.88745326921E+01 0.10732557749E+02 0.12629121255E+02 0.14412574515E+02 0.15894285332E+02
 0.16877822749E+02 0.17222421709E+02 0.16877818788E+02 0.15894278554E+02 0.14412572319E+02
 0.12629132838E+02 0.10732582593E+02 0.88745606151E+01 0.71633828167E+01 0.56678916857E+01
 0.44227967174E+01 0.34329715272E+01 0.26793677453E+01 0.21282959145E+01 0.14433140680E+01
 0.12681260698E+01 0.11839561369E+01 0.11839628679E+01 0.12681336025E+01 0.14433069555E+01
 0.17244210531E+01 0.21353495250E+01 0.27071694210E+01 0.34725508700E+01 0.44567897138E+01
 0.56678689674E+01 0.70883663874E+01 0.86702669778E+01 0.10331565469E+02 0.11954410111E+02
 0.13389096035E+02 0.14471377321E+02 0.15055818973E+02 0.15055817931E+02 0.14471384366E+02
 0.13389121821E+02 0.11954440048E+02 0.10331574578E+02 0.86702567651E+01 0.70883654098E+01
 0.56678916857E+01 0.44568145395E+01 0.34725518164E+01 0.27071537527E+01 0.21353444944E+01
 0.17244323372E+01 0.12155552548E+01 0.11019853678E+01 0.10650333015E+01 0.11019836575E+01
 0.12155533899E+01 0.14145133423E+01 0.17148414077E+01 0.21397396159E+01 0.27169185378E+01
 0.34725520495E+01 0.44227891634E+01 0.55649417326E+01 0.68705185186E+01 0.82810607522E+01
 0.97068718199E+01 0.11029999684E+02 0.12115137023E+02 0.12831427720E+02 0.13082144458E+02
 0.12831428584E+02 0.12115142650E+02 0.11030012193E+02 0.97068888399E+01 0.82810786798E+01
 0.68705353194E+01 0.55649554541E+01 0.44227967174E+01 0.34725518164E+01 0.27169129216E+01
 0.21397333713E+01 0.17148379577E+01 0.14145132603E+01 0.10493811623E+01 0.98382672221E+00
 0.98382471659E+00 0.10493786403E+01 0.11850191367E+01 0.14005773802E+01 0.17118354430E+01
 0.21397433249E+01 0.27071686393E+01 0.34329782469E+01 0.43243664479E+01 0.53692224419E+01
 0.65304043712E+01 0.77432017430E+01 0.89170149960E+01 0.99428317954E+01 0.10708092819E+02
 0.11118045967E+02 0.11118048248E+02 0.10708095022E+02 0.99428285733E+01 0.89170131820E+01
 0.77432163432E+01 0.65304388106E+01 0.53692590345E+01 0.43243830712E+01 0.34329715272E+01
 0.27071537527E+01 0.21397333713E+01 0.17118304117E+01 0.14005734993E+01 0.11850178173E+01
 0.93666984508E+00 0.90824945960E+00 0.93666906278E+00 0.10237133412E+01 0.11750114679E+01
 0.14005743290E+01 0.17148419823E+01 0.21353517285E+01 0.26793735486E+01 0.33584668812E+01
 0.41717764001E+01 0.50996459908E+01 0.60993904063E+01 0.71048359891E+01 0.80308900176E+01
 0.87839044397E+01 0.92772747415E+01 0.94492216219E+01 0.92772796131E+01 0.87839159278E+01
 0.80309057165E+01 0.71048498249E+01 0.60993998932E+01 0.50996533987E+01 0.41717820375E+01
 0.33584672350E+01 0.26793677453E+01 0.21353444944E+01 0.17148379577E+01 0.14005734993E+01
 0.11750117966E+01 0.10237140711E+01 0.87145276251E+00 0.87144888469E+00 0.92121978870E+00
 0.10237146856E+01 0.11850212938E+01 0.14145098659E+01 0.17244219518E+01 0.21282908158E+01
 0.26377313583E+01 0.32576182525E+01 0.39804159823E+01 0.47811610625E+01 0.56149534777E+01
 0.64185883036E+01 0.71171989070E+01 0.76355688588E+01 0.79121436016E+01 0.79121449526E+01
 0.76355765427E+01 0.71172169501E+01 0.64186109122E+01 0.56149667449E+01 0.47811551028E+01
 0.39803939677E+01 0.32575944790E+01 0.26377204730E+01 0.21282959145E+01 0.17244323372E+01
 0.14145132603E+01 0.11850178173E+01 0.10237140711E+01 0.92122543421E+00 0.87145103666E+00
 0.90825118359E+00 0.98382483604E+00 0.11019846363E+01 0.12681340541E+01 0.14888651210E+01
 0.17711527860E+01 0.21207691878E+01 0.25396662155E+01 0.30225194851E+01 0.35532793117E+01
 0.41031165817E+01 0.46311897059E+01 0.50890051653E+01 0.54279802861E+01 0.56085808320E+01
 0.56085823089E+01 0.54279814508E+01 0.50889985678E+01 0.46311712131E+01 0.41030934922E+01
 0.35532676766E+01 0.30225283292E+01 0.25396857151E+01 0.21207796852E+01 0.17711458003E+01
 0.14888507305E+01 0.12681265251E+01 0.11019862292E+01 0.98382754650E+00 0.90825019242E+00
 0.87144964705E+00 0.90825118359E+00 0.95428599880E+00 0.10336556427E+01 0.11500220254E+01
 0.13079542617E+01 0.15123919684E+01 0.17677612403E+01 0.20764903219E+01 0.24368264384E+01
 0.28402471357E+01 0.32692588662E+01 0.36967037598E+01 0.40875587973E+01 0.44035183959E+01
 0.46096244868E+01 0.46812845598E+01 0.46096277307E+01 0.44035141481E+01 0.40875402343E+01
 0.36966801411E+01 0.32692496960E+01 0.28402624984E+01 0.24368546411E+01 0.20765079377E+01
 0.17677560204E+01 0.15123735835E+01 0.13079412899E+01 0.11500214187E+01 0.10336588908E+01
 0.95428399174E+00 0.90824628744E+00 0.89317782239E+00 0.98382483604E+00 0.10336556427E+01
 0.11115817565E+01 0.12209811223E+01 0.13656293793E+01 0.15490521141E+01 0.17735952751E+01
 0.20390981794E+01 0.23411925072E+01 0.26695549117E+01 0.30067809671E+01 0.33286994535E+01
 0.36067115349E+01 0.38120963359E+01 0.39213988283E+01 0.39213992539E+01 0.38120964780E+01
 0.36067096730E+01 0.33286961295E+01 0.30067792778E+01 0.26695575943E+01 0.23411987500E+01
 0.20391035982E+01 0.17735957738E+01 0.15490482019E+01 0.13656258056E+01 0.12209812583E+01
 0.11115833721E+01 0.10336541895E+01 0.98382028093E+00 0.95957273052E+00 0.95957531781E+00
 0.11019846363E+01 0.11500220254E+01 0.12209811223E+01 0.13180335055E+01 0.14443715882E+01
 0.16024532312E+01 0.17930646571E+01 0.20142077174E+01 0.22599002126E+01 0.25191823794E+01
 0.27758394362E+01 0.30093855552E+01 0.31975688567E+01 0.33200935641E+01 0.33626587872E+01
 0.33200983063E+01 0.31975725388E+01 0.30093874188E+01 0.27758451517E+01 0.25191916592E+01
 0.22599020327E+01 0.20141947169E+01 0.17930465043E+01 0.16024470134E+01 0.14443808775E+01
 0.13180451806E+01 0.12209833397E+01 0.11500172525E+01 0.11019817096E+01 0.10742774702E+01
 0.10652323679E+01 0.10742768228E+01 0.12681340541E+01 0.13079542617E+01 0.13656293793E+01
 0.14443715882E+01 0.15470752964E+01 0.16754899332E+01 0.18293428512E+01 0.20054879656E+01
 0.21971859025E+01 0.23937440201E+01 0.25808664820E+01 0.27420185940E+01 0.28608088271E+01
 0.29239424590E+01 0.29239466945E+01 0.28608152341E+01 0.27420181358E+01 0.25808612847E+01
 0.23937434288E+01 0.21971914387E+01 0.20054911748E+01 0.18293388670E+01 0.16754847889E+01
 0.15470758368E+01 0.14443746674E+01 0.13656273309E+01 0.13079472771E+01 0.12681297443E+01
 0.12433160645E+01 0.12314386835E+01 0.12314367836E+01 0.12433145664E+01 0.14888651210E+01
 0.15123919684E+01 0.15490521141E+01 0.16024532312E+01 0.16754899332E+01 0.17695259515E+01
 0.18836678222E+01 0.20142080087E+01 0.21543357196E+01 0.22942856273E+01 0.24221211529E+01
 0.25252301925E+01 0.25923492710E+01 0.26156564019E+01 0.25923488146E+01 0.25252291696E+01
 0.24221191308E+01 0.22942824987E+01 0.21543331692E+01 0.20142095914E+01 0.18836759082E+01
 0.17695378439E+01 0.16754981676E+01 0.16024514427E+01 0.15490410646E+01 0.15123791351E+01
 0.14888579896E+01 0.14749409085E+01 0.14677843357E+01 0.14655986862E+01 0.14677819303E+01
 0.14749409870E+01 0.17711527860E+01 0.17677612403E+01 0.17735952751E+01 0.17930646571E+01
 0.18293428512E+01 0.18836678222E+01 0.19548611740E+01 0.20390979270E+01 0.21300032263E+01
 0.22191897823E+01 0.22972849521E+01 0.23553328113E+01 0.23862931514E+01 0.23862923673E+01
 0.23553315367E+01 0.22972860777E+01 0.22191957712E+01 0.21300123431E+01 0.20391039415E+01
 0.19548591857E+01 0.18836599956E+01 0.18293362012E+01 0.17930631688E+01 0.17735964239E+01
 0.17677607567E+01 0.17711503738E+01 0.17789723873E+01 0.17868899816E+01 0.17916914741E+01
 0.17916907680E+01 0.17868893727E+01 0.17789738581E+01 0.21207691878E+01 0.20764903219E+01
 0.20390981794E+01 0.20142077174E+01 0.20054879656E+01 0.20142080087E+01 0.20390979270E+01
 0.20764894971E+01 0.21207686142E+01 0.21651759754E+01 0.22028762929E+01 0.22280733790E+01
 0.22369195746E+01 0.22280733168E+01 0.22028801996E+01 0.21651877303E+01 0.21207859905E+01
 0.20765025401E+01 0.20390957756E+01 0.20141887574E+01 0.20054612309E+01 0.20141873264E+01
 0.20390925611E+01 0.20764982712E+01 0.21207822236E+01 0.21651850290E+01 0.22028780375E+01
 0.22280717095E+01 0.22369191720E+01 0.22280739540E+01 0.22028768022E+01 0.21651762003E+01
 0.25396662155E+01 0.24368264384E+01 0.23411925072E+01 0.22599002126E+01 0.21971859025E+01
 0.21543357196E+01 0.21300032263E+01 0.21207686142E+01 0.21219032121E+01 0.21282913501E+01
 0.21353519437E+01 0.21397435811E+01 0.21397409644E+01 0.21353517180E+01 0.21283049428E+01
 0.21219266421E+01 0.21207819019E+01 0.21299916987E+01 0.21543071863E+01 0.21971617318E+01
 0.22598922711E+01 0.23411951639E+01 0.24368296630E+01 0.25396679107E+01 0.26402783091E+01
 0.27281341738E+01 0.27932649109E+01 0.28279342767E+01 0.28279335755E+01 0.27932622903E+01
 0.27281301737E+01 0.26402753844E+01 0.30225194851E+01 0.28402471357E+01 0.26695549117E+01
 0.25191823794E+01 0.23937440201E+01 0.22942856273E+01 0.22191897823E+01 0.21651759754E+01
 0.21282913501E+01 0.21048044094E+01 0.20918503398E+01 0.20877170157E+01 0.20918519647E+01
 0.21048156522E+01 0.21283127896E+01 0.21651909543E+01 0.22191778492E+01 0.22942481437E+01
 0.23937096127E+01 0.25191797659E+01 0.26695826114E+01 0.28402767348E+01 0.30225277090E+01
 0.32036750029E+01 0.33683038393E+01 0.35003992880E+01 0.35860021421E+01 0.36156467799E+01
 0.35859957003E+01 0.35003972133E+01 0.33683127872E+01 0.32036848167E+01 0.35532793117E+01
 0.32692588662E+01 0.30067809671E+01 0.27758394362E+01 0.25808664820E+01 0.24221211529E+01
 0.22972849521E+01 0.22028762929E+01 0.21353519437E+01 0.20918503398E+01 0.20705270459E+01
 0.20705323677E+01 0.20918673066E+01 0.21353763931E+01 0.22028911847E+01 0.22972719024E+01
 0.24220833024E+01 0.25808322684E+01 0.27758364439E+01 0.30068086284E+01 0.32692926368E+01
 0.35532988771E+01 0.38427462071E+01 0.41163394766E+01 0.43501095341E+01 0.45211520769E+01
 0.46115650925E+01 0.46115636670E+01 0.45211482014E+01 0.43501054413E+01 0.41163371570E+01
 0.38427405821E+01 0.41031165817E+01 0.36967037598E+01 0.33286994535E+01 0.30093855552E+01
 0.27420185940E+01 0.25252301925E+01 0.23553328113E+01 0.22280733790E+01 0.21397435811E+01
 0.20877170157E+01 0.20705323677E+01 0.20877360037E+01 0.21397739272E+01 0.22280934212E+01
 0.23553193089E+01 0.25251872671E+01 0.27419830218E+01 0.30093906795E+01 0.33287387690E+01
 0.36967412542E+01 0.41031295088E+01 0.45289954589E+01 0.49468819143E+01 0.53233147214E+01
 0.56235619305E+01 0.58174208677E+01 0.58844451353E+01 0.58174178982E+01 0.56235523586E+01
 0.53233029823E+01 0.49468783008E+01 0.45289971083E+01 0.46311897059E+01 0.40875587973E+01
 0.36067115349E+01 0.31975688567E+01 0.28608088271E+01 0.25923492710E+01 0.23862931514E+01
 0.22369195746E+01 0.21397409644E+01 0.20918519647E+01 0.20918673066E+01 0.21397739272E+01
 0.22369395639E+01 0.23862762694E+01 0.25923033651E+01 0.28607718147E+01 0.31975746582E+01
 0.36067581708E+01 0.40876137260E+01 0.46312225941E+01 0.52174066779E+01 0.58134772077E+01
 0.63760427517E+01 0.68562351598E+01 0.72073518289E+01 0.73928869451E+01 0.73928872722E+01
 0.72073544736E+01 0.68562431071E+01 0.63760559561E+01 0.58134886219E+01 0.52174020807E+01
 0.50890051653E+01 0.44035183959E+01 0.38120963359E+01 0.33200935641E+01 0.29239424590E+01
 0.26156564019E+01 0.23862923673E+01 0.22280733168E+01 0.21353517180E+01 0.21048156522E+01
 0.21353763931E+01 0.22280934212E+01 0.23862762694E+01 0.26156054411E+01 0.29238981433E+01
 0.33200994175E+01 0.38121530158E+01 0.44035860345E+01 0.50890474188E+01 0.58497151812E+01
 0.66501717909E+01 0.74385620298E+01 0.81512068457E+01 0.87213961748E+01 0.90904511818E+01
 0.92182273304E+01 0.90904674377E+01 0.87214198201E+01 0.81512269680E+01 0.74385740023E+01
 0.66501753313E+01 0.58497026576E+01 0.54279802861E+01 0.46096244868E+01 0.39213988283E+01
 0.33626587872E+01 0.29239466945E+01 0.25923488146E+01 0.23553315367E+01 0.22028801996E+01
 0.21283049428E+01 0.21283127896E+01 0.22028911847E+01 0.23553193089E+01 0.25923033651E+01
 0.29238981433E+01 0.33626574784E+01 0.39214609537E+01 0.46097089101E+01 0.54280312409E+01
 0.63622927774E+01 0.73784014043E+01 0.84199555794E+01 0.94106955659E+01 0.10262742377E+02
 0.10889817040E+02 0.11222663048E+02 0.11222665747E+02 0.10889822411E+02 0.10262746120E+02
 0.94106999401E+01 0.84199688854E+01 0.73784203901E+01 0.63622902629E+01 0.56085808320E+01
 0.46812845598E+01 0.39213992539E+01 0.33200983063E+01 0.28608152341E+01 0.25252291696E+01
 0.22972860777E+01 0.21651877303E+01 0.21219266421E+01 0.21651909543E+01 0.22972719024E+01
 0.25251872671E+01 0.28607718147E+01 0.33200994175E+01 0.39214609537E+01 0.46813696414E+01
 0.56086354968E+01 0.66972196844E+01 0.79191854392E+01 0.92195701852E+01 0.10515365215E+02
 0.11700763750E+02 0.12659929279E+02 0.13286297038E+02 0.13504219673E+02 0.13286278544E+02
 0.12659913119E+02 0.11700765927E+02 0.10515384937E+02 0.92195993519E+01 0.79192102952E+01
 0.66972146386E+01 0.56085823089E+01 0.46096277307E+01 0.38120964780E+01 0.31975725388E+01
 0.27420181358E+01 0.24221191308E+01 0.22191957712E+01 0.21207859905E+01 0.21207819019E+01
 0.22191778492E+01 0.24220833024E+01 0.27419830218E+01 0.31975746582E+01 0.38121530158E+01
 0.46097089101E+01 0.56086354968E+01 0.68137517705E+01 0.82078468436E+01 0.97441489128E+01
 0.11341443821E+02 0.12884337237E+02 0.14231915267E+02 0.15237207404E+02 0.15775811155E+02
 0.15775812172E+02 0.15237213138E+02 0.14231926877E+02 0.12884350160E+02 0.11341458711E+02
 0.97441733019E+01 0.82078734806E+01 0.68137495706E+01 0.54279814508E+01 0.44035141481E+01
 0.36067096730E+01 0.30093874188E+01 0.25808612847E+01 0.22942824987E+01 0.21300123431E+01
 0.20765025401E+01 0.21299916987E+01 0.22942481437E+01 0.25808322684E+01 0.30093906795E+01
 0.36067581708E+01 0.44035860345E+01 0.54280312409E+01 0.66972196844E+01 0.82078468436E+01
 0.99270766805E+01 0.11784565182E+02 0.13667231101E+02 0.15420767723E+02 0.16863888474E+02
 0.17818923241E+02 0.18153633801E+02 0.17818943141E+02 0.16863912598E+02 0.15420778554E+02
 0.13667228809E+02 0.11784570483E+02 0.99271047808E+01 0.82078801966E+01 0.66972196948E+01
 0.50889985678E+01 0.40875402343E+01 0.33286961295E+01 0.27758451517E+01 0.23937434288E+01
 0.21543331692E+01 0.20391039415E+01 0.20390957756E+01 0.21543071863E+01 0.23937096127E+01
 0.27758364439E+01 0.33287387690E+01 0.40876137260E+01 0.50890474188E+01 0.63622927774E+01
 0.79191854392E+01 0.97441489128E+01 0.11784565182E+02 0.13941502448E+02 0.16063485935E+02
 0.17950991176E+02 0.19379778168E+02 0.20150550746E+02 0.20150543454E+02 0.19379766188E+02
 0.17950988094E+02 0.16063488917E+02 0.13941503744E+02 0.11784574416E+02 0.97441813396E+01