    2    2   15    1
  0.2001288E+02  0.3839590E-09  0.3839590E-09  0.3839590E-09  0.5000000E-15
  1.000000000000000E-004
  CAR 
 unknown system                          
      8     56      8
 
  0.0000000E+00  0.0000000E+00  0.0000000E+00  0.7513148E-03
    1       -6.131765   1.000000
    2        5.831840   0.974797
    3        5.831870   0.974784
    4        5.831870   0.974784
    5        8.401010   0.000000
    6        8.401037   0.000000
    7        8.401037   0.000000
    8        9.206016   0.000000
 
  0.9090909E-01 -0.1591537E-17  0.3465480E-17  0.6010518E-02
    1       -6.023522   1.000000
    2        4.844204   1.000000
    3        5.662638   0.999192
    4        5.662668   0.999191
    5        8.430588   0.000000
    6        8.646663   0.000000
    7        8.646694   0.000000
    8        9.982829   0.000000
 
  0.1818182E+00 -0.3183074E-17  0.6930960E-17  0.6010518E-02
    1       -5.702621   1.000000
    2        3.164789   1.000000
    3        5.321709   1.000000
    4        5.321741   1.000000
    5        8.128408   0.000000
    6        9.121571   0.000000
    7        9.121616   0.000000
    8       11.564569   0.000000
 
  0.2727273E+00  0.1406449E-16  0.1931292E-16  0.6010518E-02
    1       -5.185851   1.000000
    2        1.502232   1.000000
    3        4.997525   1.000000
    4        4.997557   1.000000
    5        7.784413   0.000000
    6        9.368625   0.000000
    7        9.368688   0.000000
    8       13.114964   0.000000
 
  0.3636364E+00 -0.6366148E-17  0.1386192E-16  0.6010518E-02
    1       -4.524089   1.000000
    2        0.043183   1.000000
    3        4.765844   1.000000
    4        4.765876   1.000000
    5        7.525369   0.000000
    6        9.305069   0.000000
    7        9.305138   0.000000
    8       13.725774   0.000000
 
  0.4545455E+00  0.9587941E-18  0.8410920E-17  0.6010518E-02
    1       -3.911369   1.000000
    2       -0.975540   1.000000
    3        4.647645   1.000000
    4        4.647677   1.000000
    5        7.390422   0.000000
    6        9.194842   0.000000
    7        9.194912   0.000000
    8       13.583701   0.000000
 
  0.9090909E-01  0.9090909E-01  0.7557855E-17  0.4507889E-02
    1       -5.987227   1.000000
    2        5.028987   1.000000
    3        5.334955   1.000000
    4        5.334976   1.000000
    5        8.077820   0.000000
    6        9.072717   0.000000
    7        9.072737   0.000000
    8        9.931704   0.000000
 
  0.1818182E+00  0.9090909E-01  0.7213366E-17  0.1803156E-01
    1       -5.736379   1.000000
    2        3.666304   1.000000
    3        4.937607   1.000000
    4        5.124107   1.000000
    5        8.115647   0.000000
    6        9.145901   0.000000
    7        9.668623   0.000000
    8       10.816307   0.000000
 
  0.2727273E+00  0.9090909E-01  0.5717536E-17  0.1803156E-01
    1       -5.282404   1.000000
    2        2.040978   1.000000
    3        4.617941   1.000000
    4        4.750737   1.000000
    5        8.248369   0.000000
    6        9.132658   0.000000
    7       10.018666   0.000000
    8       11.194905   0.000000
 
  0.3636364E+00  0.9090909E-01  0.2306080E-16  0.1803156E-01
    1       -4.659226   1.000000
    2        0.528897   1.000000
    3        4.368336   1.000000
    4        4.431032   1.000000
    5        8.102213   0.000000
    6        9.156856   0.000000
    7        9.945742   0.000000
    8       11.971526   0.000000
 
  0.4545455E+00  0.9090909E-01  0.7687187E-17  0.1803156E-01
    1       -3.987427   1.000000
    2       -0.667875   1.000000
    3        4.068993   1.000000
    4        4.390872   1.000000
    5        7.964428   0.000000
    6        9.109172   0.000000
    7        9.703576   0.000000
    8       13.220195   0.000000
 
 -0.4545455E+00  0.9090909E-01 -0.2682883E-16  0.1803156E-01
    1       -3.716195   1.000000
    2       -1.071035   1.000000
    3        3.890363   1.000000
    4        4.493264   1.000000
    5        7.940906   0.000000
    6        9.162575   0.000000
    7        9.516380   0.000000
    8       13.915073   0.000000
 
 -0.3636364E+00  0.9090909E-01 -0.4663035E-17  0.1803156E-01
    1       -4.201780   1.000000
    2       -0.319186   1.000000
    3        3.853121   1.000000
    4        4.721610   1.000000
    5        8.044156   0.000000
    6        9.354178   0.000000
    7        9.439191   0.000000
    8       13.617966   0.000000
 
 -0.2727273E+00  0.9090909E-01 -0.1011403E-16  0.1803156E-01
    1       -4.883152   1.000000
    2        1.012934   1.000000
    3        3.973614   1.000000
    4        5.047031   1.000000
    5        8.262661   0.000000
    6        9.376961   0.000000
    7        9.572351   0.000000
    8       12.569981   0.000000
 
 -0.1818182E+00  0.9090909E-01 -0.6648554E-17  0.1803156E-01
    1       -5.456067   1.000000
    2        2.567802   1.000000
    3        4.269598   1.000000
    4        5.412563   1.000000
    5        8.559090   0.000000
    6        9.099396   0.000000
    7        9.457635   0.000000
    8       11.697523   0.000000
 
 -0.9090909E-01  0.9090909E-01 -0.3183074E-17  0.9015778E-02
    1       -5.844014   1.000000
    2        4.042028   1.000000
    3        4.834900   1.000000
    4        5.687854   0.998533
    5        8.696854   0.000000
    6        8.794934   0.000000
    7        8.867930   0.000000
    8       10.845759   0.000000
 
  0.1818182E+00  0.1818182E+00  0.1511571E-16  0.4507889E-02
    1       -5.555903   1.000000
    2        3.529994   1.000000
    3        4.502088   1.000000
    4        4.502108   1.000000
    5        7.426674   0.000000
    6        9.972161   0.000000
    7       10.430561   0.000000
    8       10.430583   0.000000
 
  0.2727273E+00  0.1818182E+00  0.6503012E-17  0.1803156E-01
    1       -5.168218   1.000000
    2        2.365620   1.000000
    3        4.085271   1.000000
    4        4.157990   1.000000
    5        7.480042   0.000000
    6        9.543490   0.000000
    7       10.716470   0.000000
    8       11.015562   0.000000
 
  0.3636364E+00  0.1818182E+00  0.1442673E-16  0.1803156E-01
    1       -4.596001   1.000000
    2        0.986923   1.000000
    3        3.553163   1.000000
    4        3.961033   1.000000
    5        7.716787   0.000000
    6        9.905813   0.000000
    7       10.518335   0.000000
    8       11.089687   0.000000
 
  0.4545455E+00  0.1818182E+00  0.2680869E-16  0.1803156E-01
    1       -3.913948   1.000000
    2       -0.256273   1.000000
    3        3.075190   1.000000
    4        3.929198   1.000000
    5        7.755787   0.000000
    6       10.295060   0.000000
    7       10.829162   0.000000
    8       11.121092   0.000000
 
 -0.4545455E+00  0.1818182E+00  0.1012563E-16  0.1803156E-01
    1       -3.428824   1.000000
    2       -0.969778   1.000000
    3        2.737805   1.000000
    4        4.061020   1.000000
    5        7.857746   0.000000
    6       10.162819   0.000000
    7       10.534428   0.000000
    8       12.757114   0.000000
 
 -0.3636364E+00  0.1818182E+00 -0.1329711E-16  0.1803156E-01
    1       -3.715520   1.000000
    2       -0.556204   1.000000
    3        2.582942   1.000000
    4        4.340504   1.000000
    5        8.115081   0.000000
    6       10.150693   0.000000
    7       10.311567   0.000000
    8       13.599223   0.000000
 
 -0.2727273E+00  0.1818182E+00 -0.9151488E-18  0.1803156E-01
    1       -4.389602   1.000000
    2        0.565754   1.000000
    3        2.662467   1.000000
    4        4.729674   1.000000
    5        8.490422   0.000000
    6       10.072232   0.000000
    7       10.196916   0.000000
    8       12.205716   0.000000
 
 -0.1818182E+00  0.1818182E+00 -0.6366148E-17  0.9015778E-02
    1       -5.007582   1.000000
    2        1.761990   1.000000
    3        3.144908   1.000000
    4        5.145149   1.000000
    5        8.829559   0.000000
    6        9.584489   0.000000
    7        9.885735   0.000000
    8       11.523024   0.000000
 
  0.2727273E+00  0.2727273E+00  0.2267357E-16  0.4507889E-02
    1       -4.846567   1.000000
    2        1.906980   1.000000
    3        3.778844   1.000000
    4        3.778863   1.000000
    5        6.831880   0.000000
    6        8.631397   0.000000
    7       12.002492   0.000000
    8       12.002516   0.000000
 
  0.3636364E+00  0.2727273E+00  0.2858693E-16  0.1803156E-01
    1       -4.332063   1.000000
    2        0.948818   1.000000
    3        3.239771   1.000000
    4        3.546867   1.000000
    5        6.964936   0.000000
    6        8.339437   0.000000
    7       12.298910   0.000000
    8       12.465287   0.000000
 
  0.4545455E+00  0.2727273E+00  0.1817462E-16  0.1803156E-01
    1       -3.670804   1.000000
    2       -0.084852   1.000000
    3        2.510299   1.000000
    4        3.485650   1.000000
    5        7.162111   0.000000
    6        9.099271   0.000000
    7       12.142738   0.000000
    8       12.321615   0.000000
 
 -0.4545455E+00  0.2727273E+00  0.1141417E-16  0.1803156E-01
    1       -3.053817   1.000000
    2       -0.891332   1.000000
    3        1.935571   1.000000
    4        3.598784   1.000000
    5        7.296918   0.000000
    6       10.581729   0.000000
    7       11.978566   0.000000
    8       11.990396   0.000000
 
 -0.3636364E+00  0.2727273E+00  0.5824396E-17  0.1803156E-01
    1       -3.109750   1.000000
    2       -0.811951   1.000000
    3        1.648634   1.000000
    4        3.874499   1.000000
    5        7.589969   0.000000
    6       11.641460   0.000000
    7       11.660207   0.000000
    8       12.585004   0.000000
 
 -0.2727273E+00  0.2727273E+00 -0.2738218E-16  0.9015778E-02
    1       -3.747011   1.000000
    2       -0.049219   1.000000
    3        1.809003   1.000000
    4        4.278444   1.000000
    5        8.040555   0.000000
    6       11.046710   0.000000
    7       11.386823   0.000000
    8       12.276305   0.000000
 
  0.3636364E+00  0.3636364E+00  0.3023142E-16  0.4507889E-02
    1       -3.874902   1.000000
    2        0.285721   1.000000
    3        3.271216   1.000000
    4        3.271234   1.000000
    5        6.471370   0.005149
    6        7.486870   0.000000
    7       13.671256   0.000000
    8       13.671279   0.000000
 
  0.4545455E+00  0.3636364E+00  0.3729612E-16  0.1803156E-01
    1       -3.251527   1.000000
    2       -0.530950   1.000000
    3        2.733535   1.000000
    4        3.166009   1.000000
    5        6.678988   0.000027
    6        7.505551   0.000000
    7       13.997015   0.000000
    8       14.008870   0.000000
 
 -0.4545455E+00  0.3636364E+00 -0.2497548E-16  0.1803156E-01
    1       -2.574783   1.000000
    2       -1.249990   1.000000
    3        1.950539   1.000000
    4        3.239552   1.000000
    5        6.848142   0.000000
    6        8.697821   0.000000
    7       13.706520   0.000000
    8       13.876883   0.000000
 
 -0.3636364E+00  0.3636364E+00 -0.1273230E-16  0.9015778E-02
    1       -2.508448   1.000000
    2       -1.283657   1.000000
    3        1.462847   1.000000
    4        3.484636   1.000000
    5        7.128152   0.000000
    6       10.424271   0.000000
    7       13.033956   0.000000
    8       13.574528   0.000000
 
  0.4545455E+00  0.4545455E+00  0.3778928E-16  0.4507889E-02
    1       -2.666700   1.000000
    2       -1.261403   1.000000
    3        3.011906   1.000000
    4        3.011924   1.000000
    5        6.427612   0.012028
    6        6.753399   0.000003
    7       15.381253   0.000000
    8       15.381276   0.000000
 
 -0.4545455E+00  0.4545455E+00 -0.2569921E-16  0.9015778E-02
    1       -2.018908   1.000000
    2       -1.907353   1.000000
    3        2.567152   1.000000
    4        3.037155   1.000000
    5        6.608531   0.000203
    6        7.197151   0.000000
    7       15.311379   0.000000
    8       15.570852   0.000000
 
  0.2727273E+00  0.1818182E+00  0.9090909E-01  0.1803156E-01
    1       -5.417633   1.000000
    2        2.808288   1.000000
    3        3.992766   1.000000
    4        5.009120   1.000000
    5        8.172741   0.000000
    6        9.475003   0.000000
    7       10.221453   0.000000
    8       10.615790   0.000000
 
  0.3636364E+00  0.1818182E+00  0.9090909E-01  0.3606311E-01
    1       -4.903731   1.000000
    2        1.483977   1.000000
    3        3.430780   1.000000
    4        4.688525   1.000000
    5        8.488636   0.000000
    6        9.414845   0.000000
    7       10.538933   0.000000
    8       10.736982   0.000000
 
  0.4545455E+00  0.1818182E+00  0.9090909E-01  0.3606311E-01
    1       -4.243590   1.000000
    2        0.135500   1.000000
    3        3.175496   1.000000
    4        4.342827   1.000000
    5        8.530123   0.000000
    6        9.189893   0.000000
    7       10.645017   0.000000
    8       11.581486   0.000000
 
 -0.4545455E+00  0.1818182E+00  0.9090909E-01  0.3606311E-01
    1       -3.626361   1.000000
    2       -0.850122   1.000000
    3        3.077287   1.000000
    4        4.130830   1.000000
    5        8.514006   0.000000
    6        8.973896   0.000000
    7       10.574917   0.000000
    8       13.059510   0.000000
 
  0.3636364E+00  0.2727273E+00  0.9090909E-01  0.1803156E-01
    1       -4.718185   1.000000
    2        1.519957   1.000000
    3        3.275344   1.000000
    4        3.997303   1.000000
    5        7.606526   0.000000
    6        9.137938   0.000000
    7       10.835006   0.000000
    8       11.883080   0.000000
 
  0.4545455E+00  0.2727273E+00  0.9090909E-01  0.3606311E-01
    1       -4.098997   1.000000
    2        0.435477   1.000000
    3        2.699824   1.000000
    4        3.681565   1.000000
    5        7.967137   0.000000
    6        9.549722   0.000000
    7       10.521241   0.000000
    8       12.273447   0.000000
 
 -0.4545455E+00  0.2727273E+00  0.9090909E-01  0.3606311E-01
    1       -3.423464   1.000000
    2       -0.579307   1.000000
    3        2.314734   1.000000
    4        3.525094   1.000000
    5        8.099603   0.000000
    6       10.107647   0.000000
    7       10.937764   0.000000
    8       12.228308   0.000000
 
 -0.3636364E+00  0.2727273E+00  0.9090909E-01  0.3606311E-01
    1       -3.155082   1.000000
    2       -0.930949   1.000000
    3        2.083858   1.000000
    4        3.615396   1.000000
    5        8.315341   0.000000
    6        9.845614   0.000000
    7       12.111991   0.000000
    8       12.620895   0.000000
 
 -0.2727273E+00  0.2727273E+00  0.9090909E-01  0.3606311E-01
    1       -3.663999   1.000000
    2       -0.237510   1.000000
    3        2.071381   1.000000
    4        3.912342   1.000000
    5        8.681637   0.000000
    6        9.652938   0.000000
    7       11.397257   0.000000
    8       12.032204   0.000000
 
 -0.1818182E+00  0.2727273E+00  0.9090909E-01  0.1803156E-01
    1       -4.341659   1.000000
    2        0.748409   1.000000
    3        2.448508   1.000000
    4        4.329467   1.000000
    5        9.130161   0.000000
    6        9.237035   0.000000
    7       10.495332   0.000000
    8       11.585282   0.000000
 
  0.4545455E+00  0.3636364E+00  0.9090909E-01  0.1803156E-01
    1       -3.765138   1.000000
    2        0.148208   1.000000
    3        2.798605   1.000000
    4        3.191197   1.000000
    5        7.245715   0.000000
    6        8.093724   0.000000
    7       12.219693   0.000000
    8       13.636423   0.000000
 
 -0.4545455E+00  0.3636364E+00  0.9090909E-01  0.3606311E-01
    1       -3.082354   1.000000
    2       -0.676768   1.000000
    3        2.152194   1.000000
    4        3.012184   1.000000
    5        7.588743   0.000000
    6        8.916447   0.000000
    7       11.864521   0.000000
    8       14.004516   0.000000
 
 -0.3636364E+00  0.3636364E+00  0.9090909E-01  0.3606311E-01
    1       -2.610261   1.000000
    2       -1.178507   1.000000
    3        1.627937   1.000000
    4        3.129158   1.000000
    5        7.804729   0.000000
    6       10.489444   0.000000
    7       11.565243   0.000000
    8       13.171935   0.000000
 
 -0.2727273E+00  0.3636364E+00  0.9090909E-01  0.1803156E-01
    1       -2.998122   1.000000
    2       -0.776858   1.000000
    3        1.523065   1.000000
    4        3.453926   1.000000
    5        8.179782   0.000000
    6       10.916707   0.000000
    7       11.663011   0.000000
    8       12.553668   0.000000
 
 -0.4545455E+00  0.4545455E+00  0.9090909E-01  0.1803156E-01
    1       -2.592601   1.000000
    2       -1.258081   1.000000
    3        2.606473   1.000000
    4        2.728115   1.000000
    5        7.173425   0.000000
    6        7.442045   0.000000
    7       13.759329   0.000000
    8       15.205662   0.000000
 
 -0.3636364E+00  0.4545455E+00  0.9090909E-01  0.1803156E-01
    1       -2.084559   1.000000
    2       -1.706846   1.000000
    3        1.941330   1.000000
    4        2.800957   1.000000
    5        7.454179   0.000000
    6        8.709425   0.000000
    7       13.300694   0.000000
    8       13.532815   0.000000
 
 -0.4545455E+00  0.3636364E+00  0.1818182E+00  0.1803156E-01
    1       -3.453214   1.000000
    2       -0.247722   1.000000
    3        2.037706   1.000000
    4        3.213395   1.000000
    5        8.911662   0.000000
    6        9.541020   0.000000
    7       10.153180   0.000000
    8       13.528475   0.000000
 
 -0.3636364E+00  0.3636364E+00  0.1818182E+00  0.3606311E-01
    1       -2.815617   1.000000
    2       -0.951305   1.000000
    3        1.756258   1.000000
    4        2.891400   1.000000
    5        9.275058   0.000000
    6        9.650813   0.000000
    7       10.927691   0.000000
    8       12.804770   0.000000
 
 -0.3636364E+00  0.4545455E+00  0.1818182E+00  0.1803156E-01
    1       -2.404996   1.000000
    2       -1.300937   1.000000
    3        1.986893   1.000000
    4        2.370050   1.000000
    5        8.825366   0.000000
    6        9.030450   0.000000
    7       11.452218   0.000000
    8       13.047132   0.000000
 
 -0.2727273E+00  0.4545455E+00  0.1818182E+00  0.1803156E-01
    1       -2.203582   1.000000
    2       -1.466564   1.000000
    3        1.705006   1.000000
    4        2.406978   1.000000
    5        9.173499   0.000000
    6       10.449944   0.000000
    7       11.224315   0.000000
    8       11.236641   0.000000
