unknown system                          
   1.00000000000000     
     0.000000    3.007729    3.007729
     3.007729    0.000000    3.007729
     3.007729    3.007729    0.000000
   Si
     2
Direct
  0.000000  0.000000  0.000000
  0.250000  0.250000  0.250000
 
   40   40   40
 -9.0394     -7.3081     -2.5823      3.9077      10.603      16.110      19.553      20.719      19.979      18.076    
  15.820      13.632      11.673      10.026      8.7059      7.6837      6.9136      6.3512      5.9650      5.7376    
  5.6623      5.7376      5.9650      6.3512      6.9136      7.6837      8.7059      10.026      11.673      13.632    
  15.820      18.076      19.979      20.719      19.553      16.109      10.603      3.9076     -2.5823     -7.3081    
 -7.3081     -3.9153      1.9383      8.7450      14.946      19.389      21.565      21.607      20.128      17.952    
  15.711      13.631      11.829      10.349      9.1814      8.2863      7.6178      7.1387      6.8262      6.6711    
  6.6711      6.8262      7.1387      7.6179      8.2863      9.1813      10.349      11.830      13.631      15.711    
  17.952      20.128      21.607      21.565      19.389      14.946      8.7450      1.9383     -3.9155     -7.3082    
 -2.5823      1.9383      8.0618      14.245      19.164      22.052      22.794      21.815      19.855      17.650    
  15.533      13.644      12.054      10.774      9.7765      9.0173      8.4553      8.0633      7.8294      7.7513    
  7.8294      8.0633      8.4553      9.0173      9.7766      10.774      12.054      13.644      15.533      17.650    
  19.855      21.815      22.794      22.052      19.164      14.245      8.0618      1.9384     -2.5823     -4.2497    
  3.9077      8.7450      14.245      19.066      22.269      23.512      23.011      21.365      19.295      17.234    
  15.343      13.714      12.376      11.316      10.495      9.8715      9.4146      9.1099      8.9561      8.9561    
  9.1099      9.4146      9.8715      10.495      11.316      12.376      13.714      15.343      17.234      19.295    
  21.365      23.011      23.512      22.269      19.065      14.245      8.7451      3.9078      1.0698      1.0697    
  10.603      14.946      19.164      22.269      23.752      23.631      22.335      20.497      18.587      16.787    
  15.202      13.876      12.808      11.970      11.319      10.822      10.463      10.243      10.168      10.243    
  10.463      10.822      11.319      11.970      12.808      13.876      15.202      16.787      18.587      20.497    
  22.335      23.631      23.753      22.269      19.164      14.946      10.603      7.3294      6.1105      7.3294    
  16.110      19.389      22.052      23.512      23.631      22.670      21.133      19.461      17.841      16.386    
  15.149      14.142      13.342      12.709      12.208      11.821      11.549      11.407      11.407      11.549    
  11.821      12.208      12.709      13.342      14.142      15.149      16.386      17.841      19.461      21.133    
  22.670      23.631      23.512      22.052      19.389      16.109      13.113      11.323      11.323      13.113    
  19.553      21.565      22.794      23.011      22.335      21.133      19.763      18.398      17.150      16.079    
  15.202      14.501      13.940      13.480      13.100      12.802      12.607      12.538      12.607      12.802    
  13.100      13.480      13.940      14.501      15.202      16.079      17.150      18.398      19.763      21.133    
  22.335      23.011      22.794      21.565      19.553      17.316      15.567      14.906      15.567      17.316    
  20.719      21.607      21.815      21.365      20.497      19.461      18.398      17.414      16.569      15.884    
  15.343      14.910      14.543      14.214      13.923      13.695      13.568      13.568      13.695      13.923    
  14.215      14.543      14.910      15.343      15.884      16.569      17.414      18.398      19.461      20.497    
  21.365      21.815      21.607      20.719      19.398      18.092      17.284      17.284      18.092      19.398    
  19.979      20.128      19.855      19.295      18.587      17.841      17.150      16.569      16.120      15.787    
  15.533      15.309      15.081      14.839      14.610      14.442      14.379      14.442      14.610      14.839    
  15.081      15.309      15.533      15.787      16.120      16.569      17.150      17.841      18.587      19.295    
  19.855      20.128      19.979      19.431      18.691      18.064      17.819      18.064      18.691      19.431    
  18.076      17.952      17.650      17.234      16.787      16.386      16.079      15.884      15.787      15.747    
  15.711      15.631      15.488      15.300      15.118      15.005      15.005      15.118      15.300      15.488    
  15.631      15.711      15.747      15.787      15.884      16.079      16.386      16.787      17.234      17.650    
  17.952      18.076      17.974      17.682      17.333      17.101      17.101      17.333      17.681      17.974    
  15.820      15.711      15.533      15.343      15.202      15.149      15.202      15.343      15.533      15.711    
  15.820      15.824      15.727      15.570      15.425      15.366      15.425      15.570      15.727      15.824    
  15.820      15.711      15.533      15.343      15.202      15.149      15.202      15.343      15.533      15.711    
  15.820      15.824      15.727      15.570      15.425      15.366      15.425      15.570      15.727      15.824    
  13.632      13.631      13.644      13.714      13.876      14.142      14.501      14.910      15.309      15.631    
  15.824      15.872      15.794      15.656      15.553      15.553      15.656      15.794      15.872      15.824    
  15.631      15.309      14.910      14.501      14.142      13.876      13.714      13.644      13.632      13.632    
  13.606      13.536      13.431      13.325      13.258      13.258      13.325      13.431      13.536      13.606    
  11.673      11.829      12.054      12.376      12.808      13.342      13.940      14.543      15.081      15.488    
  15.727      15.794      15.728      15.624      15.576      15.624      15.728      15.794      15.727      15.488    
  15.081      14.543      13.940      13.342      12.808      12.376      12.054      11.829      11.673      11.552    
  11.440      11.329      11.225      11.149      11.122      11.149      11.225      11.329      11.441      11.552    
  10.026      10.349      10.774      11.316      11.970      12.709      13.480      14.214      14.839      15.300    
  15.570      15.656      15.624      15.573      15.573      15.624      15.656      15.570      15.300      14.839    
  14.215      13.480      12.709      11.970      11.316      10.774      10.349      10.026      9.7800      9.5856    
  9.4258      9.2952      9.1991      9.1474      9.1474      9.1991      9.2952      9.4258      9.5857      9.7801    
  8.7059      9.1814      9.7765      10.495      11.319      12.208      13.100      13.923      14.610      15.118    
  15.425      15.553      15.576      15.573      15.577      15.553      15.425      15.118      14.610      13.923    
  13.100      12.208      11.319      10.495      9.7765      9.1814      8.7059      8.3335      8.0425      7.8138    
  7.6357      7.5049      7.4237      7.3960      7.4237      7.5049      7.6357      7.8138      8.0425      8.3335    
  7.6837      8.2863      9.0173      9.8715      10.822      11.821      12.802      13.695      14.442      15.005    
  15.366      15.553      15.624      15.624      15.553      15.366      15.005      14.442      13.695      12.802    
  11.821      10.822      9.8715      9.0173      8.2862      7.6838      7.1999      6.8169      6.5159      6.2828    
  6.1095      5.9933      5.9346      5.9347      5.9933      6.1095      6.2829      6.5159      6.8168      7.1998    
  6.9136      7.6178      8.4553      9.4146      10.463      11.549      12.607      13.568      14.379      15.005    
  15.425      15.656      15.728      15.656      15.425      15.005      14.379      13.568      12.607      11.549    
  10.463      9.4146      8.4553      7.6178      6.9136      6.3376      5.8751      5.5085      5.2224      5.0059    
  4.8533      4.7622      4.7318      4.7622      4.8533      5.0059      5.2223      5.5085      5.8750      6.3375    
  6.3512      7.1387      8.0633      9.1099      10.243      11.407      12.538      13.568      14.442      15.118    
  15.570      15.794      15.794      15.570      15.118      14.442      13.568      12.538      11.407      10.243    
  9.1099      8.0633      7.1387      6.3512      5.6992      5.1700      4.7468      4.4135      4.1576      3.9708    
  3.8482      3.7875      3.7875      3.8482      3.9707      4.1575      4.4134      4.7468      5.1701      5.6993    
  5.9650      6.8262      7.8294      8.9561      10.168      11.407      12.607      13.695      14.610      15.300    
  15.727      15.872      15.727      15.300      14.610      13.695      12.607      11.407      10.168      8.9561    
  7.8294      6.8262      5.9650      5.2463      4.6588      4.1858      3.8105      3.5190      3.3011      3.1499    
  3.0608      3.0314      3.0608      3.1499      3.3011      3.5190      3.8105      4.1858      4.6588      5.2463    
  5.7376      6.6711      7.7513      8.9561      10.243      11.549      12.802      13.923      14.839      15.488    
  15.824      15.824      15.488      14.839      13.923      12.802      11.549      10.243      8.9561      7.7512    
  6.6711      5.7376      4.9541      4.3104      3.7898      3.3748      3.0498      2.8029      2.6253      2.5105    
  2.4542      2.4541      2.5104      2.6253      2.8030      3.0499      3.3748      3.7898      4.3103      4.9540    
  5.6623      6.6711      7.8294      9.1099      10.463      11.821      13.100      14.215      15.081      15.631    
  15.820      15.631      15.081      14.215      13.100      11.821      10.463      9.1099      7.8294      6.6711    
  5.6623      4.8102      4.1067      3.5359      3.0792      2.7198      2.4438      2.2406      2.1017      2.0210    
  1.9945      2.0210      2.1017      2.2406      2.4439      2.7198      3.0792      3.5359      4.1067      4.8101    
  5.7376      6.8262      8.0633      9.4146      10.822      12.208      13.480      14.543      15.309      15.711    
  15.711      15.309      14.543      13.480      12.208      10.822      9.4146      8.0633      6.8262      5.7376    
  4.8102      4.0395      3.4114      2.9073      2.5091      2.2013      1.9711      1.8082      1.7045      1.6542    
  1.6542      1.7045      1.8082      1.9711      2.2013      2.5090      2.9072      3.4114      4.0396      4.8102    
  5.9650      7.1387      8.4553      9.8715      11.319      12.709      13.940      14.910      15.533      15.747    
  15.533      14.910      13.940      12.709      11.319      9.8715      8.4553      7.1387      5.9650      4.9541    
  4.1067      3.4114      2.8507      2.4063      2.0610      1.8001      1.6113      1.4843      1.4115      1.3878    
  1.4115      1.4843      1.6113      1.8001      2.0610      2.4062      2.8507      3.4114      4.1067      4.9541    
  6.3512      7.6179      9.0173      10.495      11.970      13.342      14.501      15.343      15.787      15.787    
  15.343      14.501      13.342      11.970      10.495      9.0173      7.6178      6.3512      5.2463      4.3104    
  3.5359      2.9073      2.4063      2.0150      1.7171      1.4982      1.3457      1.2500      1.2040      1.2040    
  1.2500      1.3457      1.4981      1.7171      2.0150      2.4063      2.9072      3.5358      4.3103      5.2463    
  6.9136      8.2863      9.7766      11.316      12.808      14.142      15.202      15.884      16.120      15.884    
  15.202      14.142      12.808      11.316      9.7765      8.2862      6.9136      5.6992      4.6588      3.7898    
  3.0792      2.5091      2.0610      1.7171      1.4613      1.2789      1.1580      1.0892      1.0669      1.0892    
  1.1580      1.2789      1.4613      1.7171      2.0610      2.5091      3.0792      3.7899      4.6588      5.6992    
  7.6837      9.1813      10.774      12.376      13.876      15.149      16.079      16.569      16.569      16.079    
  15.149      13.876      12.376      10.774      9.1814      7.6838      6.3376      5.1700      4.1858      3.3748    
  2.7198      2.2013      1.8001      1.4982      1.2789      1.1281      1.0342     0.98928     0.98928      1.0342    
  1.1281      1.2789      1.4981      1.8001      2.2013      2.7198      3.3748      4.1859      5.1701      6.3376    
  8.7059      10.349      12.054      13.714      15.202      16.386      17.150      17.414      17.150      16.386    
  15.202      13.714      12.054      10.349      8.7059      7.1999      5.8751      4.7468      3.8105      3.0498    
  2.4438      1.9711      1.6113      1.3457      1.1580      1.0342     0.96416     0.94152     0.96416      1.0342    
  1.1580      1.3457      1.6113      1.9711      2.4439      3.0498      3.8105      4.7468      5.8750      7.1999    
  10.026      11.830      13.644      15.343      16.787      17.841      18.398      18.398      17.841      16.787    
  15.343      13.644      11.829      10.026      8.3335      6.8169      5.5085      4.4135      3.5190      2.8029    
  2.2406      1.8082      1.4843      1.2500      1.0892     0.98928     0.94152     0.94152     0.98927      1.0892    
  1.2500      1.4843      1.8082      2.2406      2.8030      3.5190      4.4134      5.5084      6.8168      8.3335    
  11.673      13.631      15.533      17.234      18.587      19.461      19.763      19.461      18.587      17.234    
  15.533      13.632      11.673      9.7800      8.0425      6.5159      5.2224      4.1576      3.3011      2.6253    
  2.1017      1.7045      1.4115      1.2040      1.0669     0.98928     0.96416     0.98927      1.0669      1.2040    
  1.4115      1.7045      2.1017      2.6253      3.3011      4.1576      5.2223      6.5159      8.0425      9.7800    
  13.632      15.711      17.650      19.295      20.497      21.133      21.133      20.497      19.295      17.650    
  15.711      13.632      11.552      9.5856      7.8138      6.2828      5.0059      3.9708      3.1499      2.5105    
  2.0210      1.6542      1.3878      1.2040      1.0892      1.0342      1.0342      1.0892      1.2040      1.3877    
  1.6542      2.0210      2.5104      3.1498      3.9707      5.0059      6.2829      7.8139      9.5857      11.552    
  15.820      17.952      19.855      21.365      22.335      22.670      22.335      21.365      19.855      17.952    
  15.820      13.606      11.440      9.4258      7.6357      6.1095      4.8533      3.8482      3.0608      2.4542    
  1.9945      1.6542      1.4115      1.2500      1.1580      1.1281      1.1580      1.2500      1.4115      1.6542    
  1.9945      2.4541      3.0608      3.8482      4.8533      6.1095      7.6357      9.4258      11.441      13.606    
  18.076      20.128      21.815      23.011      23.631      23.631      23.011      21.815      20.128      18.076    
  15.824      13.536      11.329      9.2952      7.5049      5.9933      4.7622      3.7875      3.0314      2.4541    
  2.0210      1.7045      1.4843      1.3457      1.2789      1.2789      1.3457      1.4843      1.7045      2.0210    
  2.4541      3.0314      3.7875      4.7622      5.9933      7.5049      9.2952      11.329      13.536      15.824    
  19.979      21.607      22.794      23.512      23.753      23.512      22.794      21.607      19.979      17.974    
  15.727      13.431      11.225      9.1991      7.4237      5.9346      4.7318      3.7875      3.0608      2.5104    
  2.1017      1.8082      1.6113      1.4981      1.4613      1.4981      1.6113      1.8082      2.1017      2.5104    
  3.0608      3.7875      4.7318      5.9347      7.4237      9.1992      11.225      13.431      15.727      17.974    
  20.719      21.565      22.052      22.269      22.269      22.052      21.565      20.719      19.431      17.682    
  15.570      13.325      11.149      9.1474      7.3960      5.9347      4.7622      3.8482      3.1499      2.6253    
  2.2406      1.9711      1.8001      1.7171      1.7171      1.8001      1.9711      2.2406      2.6253      3.1498    
  3.8482      4.7622      5.9347      7.3960      9.1474      11.149      13.325      15.570      17.681      19.431    
  19.553      19.389      19.164      19.065      19.164      19.389      19.553      19.398      18.691      17.333    
  15.425      13.258      11.122      9.1474      7.4237      5.9933      4.8533      3.9707      3.3011      2.8030    
  2.4439      2.2013      2.0610      2.0150      2.0610      2.2013      2.4439      2.8030      3.3011      3.9707    
  4.8533      5.9933      7.4237      9.1474      11.121      13.258      15.425      17.333      18.691      19.398    
  16.109      14.946      14.245      14.245      14.946      16.109      17.316      18.092      18.064      17.101    
  15.366      13.258      11.149      9.1991      7.5049      6.1095      5.0059      4.1575      3.5190      3.0499    
  2.7198      2.5090      2.4062      2.4063      2.5091      2.7198      3.0498      3.5190      4.1576      5.0059    
  6.1095      7.5049      9.1992      11.149      13.258      15.366      17.101      18.064      18.092      17.316    
  10.603      8.7450      8.0618      8.7451      10.603      13.113      15.567      17.284      17.819      17.101    
  15.425      13.325      11.225      9.2952      7.6357      6.2829      5.2223      4.4134      3.8105      3.3748    
  3.0792      2.9072      2.8507      2.9072      3.0792      3.3748      3.8105      4.4134      5.2223      6.2829    
  7.6357      9.2952      11.225      13.325      15.425      17.101      17.819      17.284      15.567      13.113    
  3.9076      1.9383      1.9384      3.9078      7.3294      11.323      14.906      17.284      18.064      17.333    
  15.570      13.431      11.329      9.4258      7.8138      6.5159      5.5085      4.7468      4.1858      3.7898    
  3.5359      3.4114      3.4114      3.5358      3.7899      4.1859      4.7468      5.5084      6.5159      7.8139    
  9.4258      11.329      13.431      15.570      17.333      18.064      17.284      14.906      11.323      7.3293    
 -2.5823     -3.9155     -2.5823      1.0698      6.1105      11.323      15.567      18.092      18.691      17.681    
  15.727      13.536      11.441      9.5857      8.0425      6.8168      5.8750      5.1701      4.6588      4.3103    
  4.1067      4.0396      4.1067      4.3103      4.6588      5.1701      5.8750      6.8168      8.0425      9.5857    
  11.441      13.536      15.727      17.681      18.691      18.092      15.567      11.323      6.1105      1.0697    
 -7.3081     -7.3082     -4.2497      1.0697      7.3294      13.113      17.316      19.398      19.431      17.974    
  15.824      13.606      11.552      9.7801      8.3335      7.1998      6.3375      5.6993      5.2463      4.9540    
  4.8101      4.8102      4.9541      5.2463      5.6992      6.3376      7.1999      8.3335      9.7800      11.552    
  13.606      15.824      17.974      19.431      19.398      17.316      13.113      7.3293      1.0697     -4.2495    
 -7.3081     -3.9153      1.9383      8.7450      14.946      19.389      21.565      21.607      20.128      17.952    
  15.711      13.631      11.829      10.349      9.1814      8.2863      7.6178      7.1387      6.8262      6.6711    
  6.6711      6.8262      7.1387      7.6179      8.2863      9.1813      10.349      11.830      13.631      15.711    
  17.952      20.128      21.607      21.565      19.389      14.946      8.7450      1.9383     -3.9155     -7.3082    
 -3.9153     0.82619      7.2565      13.767      18.979      22.091      22.977      22.067      20.115      17.889    
  15.747      13.834      12.221      10.922      9.9098      9.1392      8.5690      8.1714      7.9341      7.8549    
  7.9341      8.1714      8.5690      9.1392      9.9098      10.922      12.221      13.834      15.747      17.889    
  20.115      22.067      22.977      22.091      18.979      13.767      7.2564     0.82597     -3.9155     -5.6636    
  1.9383      7.2565      13.327      18.695      22.344      23.890      23.550      21.945      19.839      17.729    
  15.787      14.110      12.732      11.638      10.791      10.148      9.6766      9.3622      9.2036      9.2036    
  9.3622      9.6766      10.148      10.791      11.638      12.732      14.110      15.787      17.729      19.839    
  21.945      23.550      23.890      22.344      18.695      13.327      7.2564      1.9383     -1.1767     -1.1767    
  8.7450      13.767      18.695      22.417      24.346      24.481      23.271      21.395      19.414      17.540    
  15.884      14.496      13.376      12.495      11.811      11.288      10.910      10.677      10.598      10.677    
  10.910      11.288      11.811      12.495      13.376      14.496      15.884      17.540      19.414      21.395    
  23.271      24.481      24.346      22.417      18.695      13.767      8.7451      4.9769      3.5765      4.9768    
  14.946      18.979      22.344      24.346      24.798      23.967      22.401      20.645      18.937      17.394    
  16.079      15.003      14.146      13.465      12.926      12.507      12.213      12.058      12.058      12.213    
  12.507      12.926      13.465      14.146      15.003      16.079      17.394      18.937      20.645      22.401    
  23.967      24.798      24.346      22.344      18.979      14.946      11.306      9.1423      9.1423      11.306    
  19.389      22.091      23.890      24.481      23.967      22.750      21.297      19.839      18.497      17.339    
  16.386      15.619      15.000      14.490      14.066      13.730      13.508      13.430      13.508      13.730    
  14.065      14.490      15.000      15.619      16.386      17.339      18.497      19.839      21.297      22.750    
  23.967      24.481      23.890      22.091      19.389      16.477      14.230      13.385      14.230      16.477    
  21.565      22.977      23.550      23.271      22.401      21.297      20.151      19.080      18.153      17.394    
  16.787      16.295      15.870      15.485      15.139      14.866      14.713      14.713      14.866      15.139    
  15.485      15.870      16.295      16.787      17.394      18.153      19.080      20.151      21.297      22.401    
  23.271      23.550      22.977      21.565      19.655      17.833      16.722      16.722      17.833      19.655    
  21.607      22.067      21.945      21.395      20.645      19.839      19.080      18.435      17.926      17.540    
  17.234      16.955      16.663      16.351      16.055      15.835      15.753      15.835      16.055      16.351    
  16.663      16.955      17.234      17.540      17.926      18.435      19.080      19.839      20.645      21.394    
  21.945      22.067      21.607      20.641      19.469      18.516      18.150      18.516      19.469      20.641    
  20.128      20.115      19.839      19.414      18.937      18.497      18.153      17.926      17.800      17.729    
  17.650      17.510      17.286      17.001      16.722      16.547      16.547      16.722      17.001      17.286    
  17.510      17.650      17.729      17.800      17.926      18.153      18.497      18.937      19.414      19.839    
  20.115      20.128      19.805      19.228      18.614      18.222      18.222      18.614      19.228      19.805    
  17.952      17.889      17.729      17.540      17.394      17.339      17.394      17.540      17.729      17.889    
  17.952      17.875      17.649      17.334      17.060      16.952      17.060      17.334      17.649      17.875    
  17.952      17.889      17.729      17.540      17.394      17.339      17.394      17.540      17.729      17.889    
  17.952      17.875      17.649      17.334      17.060      16.952      17.060      17.334      17.649      17.875    
  15.711      15.747      15.787      15.884      16.079      16.386      16.787      17.234      17.650      17.952    
  18.076      17.974      17.681      17.333      17.101      17.101      17.333      17.682      17.974      18.076    
  17.952      17.650      17.234      16.787      16.386      16.079      15.884      15.787      15.747      15.711    
  15.631      15.488      15.300      15.118      15.005      15.005      15.118      15.300      15.488      15.631    
  13.631      13.834      14.110      14.496      15.003      15.619      16.295      16.955      17.510      17.875    
  17.974      17.793      17.442      17.112      16.979      17.112      17.442      17.793      17.974      17.875    
  17.510      16.955      16.295      15.619      15.003      14.496      14.110      13.834      13.632      13.463    
  13.298      13.126      12.964      12.845      12.801      12.845      12.964      13.126      13.298      13.463    
  11.829      12.221      12.732      13.376      14.146      15.000      15.870      16.663      17.286      17.649    
  17.681      17.442      17.101      16.862      16.862      17.101      17.442      17.681      17.649      17.286    
  16.663      15.870      15.000      14.146      13.376      12.731      12.221      11.829      11.527      11.281    
  11.072      10.895      10.761      10.687      10.687      10.761      10.895      11.072      11.281      11.527    
  10.349      10.922      11.638      12.495      13.465      14.490      15.485      16.351      17.001      17.334    
  17.333      17.112      16.862      16.756      16.862      17.112      17.333      17.334      17.001      16.351    
  15.485      14.490      13.466      12.495      11.638      10.922      10.349      9.9003      9.5485      9.2693    
  9.0478      8.8814      8.7760      8.7396      8.7759      8.8814      9.0478      9.2693      9.5486      9.9004    
  9.1814      9.9098      10.791      11.811      12.926      14.066      15.139      16.055      16.722      17.060    
  17.101      16.979      16.862      16.862      16.979      17.101      17.060      16.722      16.055      15.139    
  14.066      12.926      11.811      10.791      9.9097      9.1814      8.5975      8.1372      7.7762      7.4955    
  7.2846      7.1412      7.0682      7.0682      7.1412      7.2846      7.4955      7.7762      8.1372      8.5975    
  8.2863      9.1392      10.148      11.288      12.507      13.730      14.866      15.835      16.547      16.952    
  17.101      17.112      17.101      17.112      17.101      16.952      16.547      15.835      14.866      13.730    
  12.507      11.288      10.148      9.1392      8.2863      7.5891      7.0321      6.5930      6.2510      5.9917    
  5.8074      5.6964      5.6592      5.6964      5.8075      5.9917      6.2510      6.5929      7.0319      7.5890    
  7.6178      8.5690      9.6766      10.910      12.213      13.508      14.713      15.753      16.547      17.060    
  17.333      17.442      17.442      17.333      17.060      16.547      15.753      14.713      13.508      12.213    
  10.910      9.6766      8.5691      7.6179      6.8290      6.1911      5.6839      5.2863      4.9811      4.7574    
  4.6098      4.5361      4.5361      4.6097      4.7574      4.9811      5.2863      5.6839      6.1911      6.8290    
  7.1387      8.1714      9.3622      10.677      12.058      13.430      14.713      15.835      16.722      17.334    
  17.682      17.793      17.681      17.334      16.722      15.835      14.713      13.430      12.058      10.677    
  9.3622      8.1714      7.1387      6.2738      5.5681      5.0028      4.5565      4.2105      3.9512      3.7703    
  3.6631      3.6275      3.6631      3.7702      3.9512      4.2104      4.5565      5.0029      5.5682      6.2738    
  6.8262      7.9341      9.2036      10.598      12.058      13.508      14.866      16.055      17.001      17.649    
  17.974      17.974      17.649      17.001      16.055      14.866      13.508      12.058      10.598      9.2036    
  7.9341      6.8262      5.8923      5.1258      4.5083      4.0181      3.6352      3.3439      3.1333      2.9963    
  2.9288      2.9288      2.9963      3.1332      3.3439      3.6352      4.0181      4.5083      5.1258      5.8924    
  6.6711      7.8549      9.2036      10.677      12.213      13.730      15.139      16.351      17.286      17.875    
  18.076      17.875      17.286      16.351      15.139      13.730      12.213      10.677      9.2036      7.8549    
  6.6711      5.6677      4.8401      4.1709      3.6376      3.2188      2.8969      2.6588      2.4952      2.3996    
  2.3681      2.3995      2.4952      2.6589      2.8970      3.2188      3.6376      4.1708      4.8401      5.6677    
  6.6711      7.9341      9.3622      10.910      12.507      14.065      15.485      16.663      17.510      17.952    
  17.952      17.510      16.663      15.485      14.066      12.507      10.910      9.3622      7.9341      6.6711    
  5.5933      4.6994      3.9735      3.3932      2.9359      2.5822      2.3166      2.1277      2.0067      1.9477    
  1.9477      2.0067      2.1277      2.3167      2.5822      2.9360      3.3932      3.9735      4.6994      5.5933    
  6.8262      8.1714      9.6766      11.288      12.926      14.490      15.870      16.955      17.650      17.889    