unknown system                          
   1.00000000000000     
     0.000000    3.007729    3.007729
     3.007729    0.000000    3.007729
     3.007729    3.007729    0.000000
   Si
     2
Direct
  0.000000  0.000000  0.000000
  0.250000  0.250000  0.250000
 
   40   40   40
 -.90393862413E+01 -.73081071321E+01 -.25823008644E+01 0.39076677931E+01 0.10603300153E+02
 0.16109606386E+02 0.19553360835E+02 0.20719337874E+02 0.19978867084E+02 0.18075775935E+02
 0.15819928918E+02 0.13631901893E+02 0.11673264307E+02 0.10026291385E+02 0.87059257010E+01
 0.76837250481E+01 0.69135729026E+01 0.63512400011E+01 0.59650089489E+01 0.57376200982E+01
 0.56623145207E+01 0.57376102383E+01 0.59650026621E+01 0.63512489504E+01 0.69135944615E+01
 0.76837438172E+01 0.87059252083E+01 0.10026268706E+02 0.11673238101E+02 0.13631900329E+02
 0.15819959619E+02 0.18075808033E+02 0.19978851270E+02 0.20719247690E+02 0.19553214584E+02
 0.16109454604E+02 0.10603196445E+02 0.39076401609E+01 -.25822685637E+01 -.73080672403E+01
 -.73081071321E+01 -.39153314707E+01 0.19383109019E+01 0.87449982221E+01 0.14946334999E+02
 0.19389482368E+02 0.21564652619E+02 0.21607287103E+02 0.20128432605E+02 0.17952247217E+02
 0.15710998776E+02 0.13631496447E+02 0.11829486248E+02 0.10349345967E+02 0.91813688970E+01
 0.82862567487E+01 0.76178400724E+01 0.71386535413E+01 0.68262172767E+01 0.66711192352E+01
 0.66710774118E+01 0.68261598561E+01 0.71386719651E+01 0.76179006877E+01 0.82862628334E+01
 0.91813199622E+01 0.10349324954E+02 0.11829509910E+02 0.13631496599E+02 0.15710959417E+02
 0.17952240854E+02 0.20128477190E+02 0.21607279952E+02 0.21564525579E+02 0.19389335325E+02
 0.14946302101E+02 0.87450392694E+01 0.19382679366E+01 -.39154807051E+01 -.73081942967E+01
 -.25823008644E+01 0.19383109019E+01 0.80617890240E+01 0.14244892429E+02 0.19163620401E+02
 0.22051825532E+02 0.22793857162E+02 0.21815276014E+02 0.19854900734E+02 0.17649887448E+02
 0.15532799159E+02 0.13644056101E+02 0.12054097104E+02 0.10774154559E+02 0.97765495974E+01
 0.90173303179E+01 0.84553351940E+01 0.80633139181E+01 0.78293777838E+01 0.77512946296E+01
 0.78293619610E+01 0.80632996572E+01 0.84553353892E+01 0.90173398140E+01 0.97765541347E+01
 0.10774144889E+02 0.12054073840E+02 0.13644029534E+02 0.15532785843E+02 0.17649897008E+02
 0.19854921221E+02 0.21815278592E+02 0.22793821991E+02 0.22051761277E+02 0.19163559923E+02
 0.14244869325E+02 0.80618158691E+01 0.19383682756E+01 -.25822548267E+01 -.42497361414E+01
 0.39076677931E+01 0.87449982221E+01 0.14244892429E+02 0.19065540634E+02 0.22269368025E+02
 0.23512127772E+02 0.23010991310E+02 0.21364818505E+02 0.19295198709E+02 0.17234000007E+02
 0.15343407510E+02 0.13713895596E+02 0.12375935760E+02 0.11315583965E+02 0.10494788942E+02
 0.98714868557E+01 0.94146112822E+01 0.91099155671E+01 0.89561469293E+01 0.89561478823E+01
 0.91099115108E+01 0.94145975198E+01 0.98714773017E+01 0.10494796738E+02 0.11315594599E+02
 0.12375923633E+02 0.13713864113E+02 0.15343386126E+02 0.17233999763E+02 0.19295201163E+02
 0.21364817283E+02 0.23011006117E+02 0.23512155436E+02 0.22269360408E+02 0.19065479883E+02
 0.14244856181E+02 0.87450792507E+01 0.39078288276E+01 0.10697693897E+01 0.10696855005E+01
 0.10603300153E+02 0.14946334999E+02 0.19163620401E+02 0.22269368025E+02 0.23752482253E+02
 0.23630778422E+02 0.22335092295E+02 0.20496900565E+02 0.18587150185E+02 0.16787412832E+02
 0.15201596826E+02 0.13875543267E+02 0.12808425227E+02 0.11969799177E+02 0.11318943692E+02
 0.10822267410E+02 0.10463424824E+02 0.10242708476E+02 0.10167760525E+02 0.10242703606E+02
 0.10463419551E+02 0.10822263483E+02 0.11318940510E+02 0.11969799818E+02 0.12808432652E+02
 0.13875550820E+02 0.15201592260E+02 0.16787393415E+02 0.18587126478E+02 0.20496885717E+02
 0.22335094818E+02 0.23630801025E+02 0.23752517309E+02 0.22269393804E+02 0.19163614662E+02
 0.14946297248E+02 0.10603252666E+02 0.73293960451E+01 0.61105450755E+01 0.73294270458E+01
 0.16109606386E+02 0.19389482368E+02 0.22051825532E+02 0.23512127772E+02 0.23630778422E+02
 0.22669703038E+02 0.21132561944E+02 0.19460659633E+02 0.17841371288E+02 0.16385510667E+02
 0.15149315874E+02 0.14142441360E+02 0.13341762012E+02 0.12708809677E+02 0.12208097189E+02
 0.11820996596E+02 0.11549328886E+02 0.11407289568E+02 0.11407299266E+02 0.11549341955E+02
 0.11820990109E+02 0.12208078352E+02 0.12708807840E+02 0.13341786548E+02 0.14142469490E+02
 0.15149325019E+02 0.16385503511E+02 0.17841357400E+02 0.19460633333E+02 0.21132519678E+02
 0.22669670818E+02 0.23630788590E+02 0.23512168168E+02 0.22051836958E+02 0.19389418954E+02
 0.16109486644E+02 0.13113140733E+02 0.11322545847E+02 0.11322590248E+02 0.13113252334E+02
 0.19553360835E+02 0.21564652619E+02 0.22793857162E+02 0.23010991310E+02 0.22335092295E+02
 0.21132561944E+02 0.19762858086E+02 0.18398172776E+02 0.17149548208E+02 0.16078520319E+02
 0.15201594946E+02 0.14500983366E+02 0.13939808084E+02 0.13480272421E+02 0.13100375293E+02
 0.12802135881E+02 0.12606568614E+02 0.12537888680E+02 0.12606572986E+02 0.12802140407E+02
 0.13100376048E+02 0.13480271573E+02 0.13939813871E+02 0.14501002089E+02 0.15201621556E+02
 0.16078538736E+02 0.17149542700E+02 0.18398140218E+02 0.19762810689E+02 0.21132518720E+02
 0.22335066817E+02 0.23010980949E+02 0.22793842761E+02 0.21564614031E+02 0.19553293893E+02
 0.17316284187E+02 0.15566972001E+02 0.14905679910E+02 0.15567021758E+02 0.17316359026E+02
 0.20719337874E+02 0.21607287103E+02 0.21815276014E+02 0.21364818505E+02 0.20496900565E+02
 0.19460659633E+02 0.18398172776E+02 0.17413769739E+02 0.16569167626E+02 0.15884025037E+02
 0.15343405481E+02 0.14910382399E+02 0.14543292071E+02 0.14214479979E+02 0.13923236330E+02
 0.13695378787E+02 0.13568140361E+02 0.13568132472E+02 0.13695372880E+02 0.13923252657E+02
 0.14214503191E+02 0.14543295993E+02 0.14910377098E+02 0.15343421476E+02 0.15884059622E+02
 0.16569183686E+02 0.17413751992E+02 0.18398146458E+02 0.19460643019E+02 0.20496875922E+02
 0.21364776249E+02 0.21815250334E+02 0.21607304756E+02 0.20719359729E+02 0.19398015451E+02
 0.18092016242E+02 0.17283520663E+02 0.17283568457E+02 0.18092104546E+02 0.19398053956E+02
 0.19978867084E+02 0.20128432605E+02 0.19854900734E+02 0.19295198709E+02 0.18587150185E+02
 0.17841371288E+02 0.17149548208E+02 0.16569167626E+02 0.16119826894E+02 0.15787205694E+02
 0.15532797634E+02 0.15309427516E+02 0.15080879815E+02 0.14839163168E+02 0.14610077940E+02
 0.14441595143E+02 0.14379245005E+02 0.14441603546E+02 0.14610092608E+02 0.14839180211E+02
 0.15080895363E+02 0.15309440730E+02 0.15532811549E+02 0.15787223879E+02 0.16119850569E+02
 0.16569194368E+02 0.17149570361E+02 0.17841380364E+02 0.18587142859E+02 0.19295181417E+02
 0.19854883709E+02 0.20128426722E+02 0.19978877008E+02 0.19431464102E+02 0.18691421185E+02
 0.18064070355E+02 0.17819208626E+02 0.18064048739E+02 0.18691390780E+02 0.19431439749E+02
 0.18075775935E+02 0.17952247217E+02 0.17649887448E+02 0.17234000007E+02 0.16787412832E+02
 0.16385510667E+02 0.16078520319E+02 0.15884025037E+02 0.15787205694E+02 0.15747351700E+02
 0.15710997089E+02 0.15631169728E+02 0.15487770740E+02 0.15299501006E+02 0.15117892442E+02
 0.15004676487E+02 0.15004687009E+02 0.15117916267E+02 0.15299525292E+02 0.15487792565E+02
 0.15631190813E+02 0.15711014908E+02 0.15747366905E+02 0.15787228750E+02 0.15884063751E+02
 0.16078564744E+02 0.16385543321E+02 0.16787434273E+02 0.17234019695E+02 0.17649893916E+02
 0.17952214641E+02 0.18075721737E+02 0.17974492432E+02 0.17681536943E+02 0.17333236460E+02
 0.17100775000E+02 0.17100693395E+02 0.17333066618E+02 0.17681420074E+02 0.17974488718E+02
 0.15819928918E+02 0.15710998776E+02 0.15532799159E+02 0.15343407510E+02 0.15201596826E+02
 0.15149315874E+02 0.15201594946E+02 0.15343405481E+02 0.15532797634E+02 0.15710997089E+02
 0.15819927501E+02 0.15823956099E+02 0.15727092355E+02 0.15570350771E+02 0.15425138479E+02
 0.15366236354E+02 0.15425161303E+02 0.15570387489E+02 0.15727129911E+02 0.15823984180E+02
 0.15819941921E+02 0.15711002398E+02 0.15532805772E+02 0.15343425105E+02 0.15201625122E+02
 0.15149349149E+02 0.15201624565E+02 0.15343425331E+02 0.15532806799E+02 0.15711002905E+02
 0.15819941881E+02 0.15823984848E+02 0.15727131157E+02 0.15570387810E+02 0.15425160526E+02
 0.15366235712E+02 0.15425138047E+02 0.15570349506E+02 0.15727090704E+02 0.15823955847E+02
 0.13631901893E+02 0.13631496447E+02 0.13644056101E+02 0.13713895596E+02 0.13875543267E+02
 0.14142441360E+02 0.14500983366E+02 0.14910382399E+02 0.15309427516E+02 0.15631169728E+02
 0.15823956099E+02 0.15871638075E+02 0.15793768355E+02 0.15655923078E+02 0.15553159076E+02
 0.15553179767E+02 0.15655970095E+02 0.15793814713E+02 0.15871671861E+02 0.15823979056E+02
 0.15631178528E+02 0.15309418610E+02 0.14910370404E+02 0.14500989738E+02 0.14142464921E+02
 0.13875555436E+02 0.13713877492E+02 0.13644033053E+02 0.13631515606E+02 0.13631974214E+02
 0.13606452774E+02 0.13536331852E+02 0.13431272091E+02 0.13324767009E+02 0.13257749904E+02
 0.13257804651E+02 0.13324885827E+02 0.13431359779E+02 0.13536327844E+02 0.13606378460E+02
 0.11673264307E+02 0.11829486248E+02 0.12054097104E+02 0.12375935760E+02 0.12808425227E+02
 0.13341762012E+02 0.13939808084E+02 0.14543292071E+02 0.15080879815E+02 0.15487770740E+02
 0.15727092355E+02 0.15793768355E+02 0.15727955934E+02 0.15624074537E+02 0.15576467552E+02
 0.15624113897E+02 0.15728013597E+02 0.15793819233E+02 0.15727123193E+02 0.15487783041E+02
 0.15080881722E+02 0.14543293668E+02 0.13939813755E+02 0.13341764930E+02 0.12808415665E+02
 0.12375912594E+02 0.12054069912E+02 0.11829465554E+02 0.11673252092E+02 0.11552193244E+02
 0.11440498999E+02 0.11328593448E+02 0.11224903961E+02 0.11149357362E+02 0.11121509133E+02
 0.11149381587E+02 0.11224938606E+02 0.11328622961E+02 0.11440517129E+02 0.11552203920E+02
 0.10026291385E+02 0.10349345967E+02 0.10774154559E+02 0.11315583965E+02 0.11969799177E+02
 0.12708809677E+02 0.13480272421E+02 0.14214479979E+02 0.14839163168E+02 0.15299501006E+02
 0.15570350771E+02 0.15655923078E+02 0.15624074537E+02 0.15573302710E+02 0.15573321878E+02
 0.15624124880E+02 0.15655983748E+02 0.15570395418E+02 0.15299520503E+02 0.14839174607E+02
 0.14214502453E+02 0.13480300455E+02 0.12708819497E+02 0.11969786379E+02 0.11315569944E+02
 0.10774146631E+02 0.10349315576E+02 0.10026215045E+02 0.97800181284E+01 0.95856230705E+01
 0.94257972466E+01 0.92952272264E+01 0.91991325823E+01 0.91474053516E+01 0.91473968675E+01
 0.91991014113E+01 0.92951809338E+01 0.94257782296E+01 0.95856692457E+01 0.97801095366E+01
 0.87059257010E+01 0.91813688970E+01 0.97765495974E+01 0.10494788942E+02 0.11318943692E+02
 0.12208097189E+02 0.13100375293E+02 0.13923236330E+02 0.14610077940E+02 0.15117892442E+02
 0.15425138479E+02 0.15553159076E+02 0.15576467552E+02 0.15573321878E+02 0.15576501303E+02
 0.15553207452E+02 0.15425181322E+02 0.15117921557E+02 0.14610096442E+02 0.13923250986E+02
 0.13100394219E+02 0.12208121835E+02 0.11318961902E+02 0.10494788021E+02 0.97765319128E+01
 0.91813520881E+01 0.87059233577E+01 0.83335221502E+01 0.80424872793E+01 0.78137792642E+01
 0.76357176280E+01 0.75048967228E+01 0.74236889184E+01 0.73960326484E+01 0.74237168357E+01
 0.75049325230E+01 0.76357407166E+01 0.78137830874E+01 0.80424781783E+01 0.83335124981E+01
 0.76837250481E+01 0.82862567487E+01 0.90173303179E+01 0.98714868557E+01 0.10822267410E+02
 0.11820996596E+02 0.12802135881E+02 0.13695378787E+02 0.14441595143E+02 0.15004676487E+02
 0.15366236354E+02 0.15553179767E+02 0.15624113897E+02 0.15624124880E+02 0.15553207452E+02
 0.15366269972E+02 0.15004705878E+02 0.14441612772E+02 0.13695383133E+02 0.12802140132E+02
 0.11821018867E+02 0.10822300562E+02 0.98714995162E+01 0.90173119714E+01 0.82862483404E+01
 0.76837781811E+01 0.71999393825E+01 0.68168649822E+01 0.65159401878E+01 0.62828300303E+01
 0.61094684900E+01 0.59932524953E+01 0.59346449884E+01 0.59346551341E+01 0.59932927875E+01
 0.61095412639E+01 0.62828940104E+01 0.65159345237E+01 0.68167779699E+01 0.71998329132E+01
 0.69135729026E+01 0.76178400724E+01 0.84553351940E+01 0.94146112822E+01 0.10463424824E+02
 0.11549328886E+02 0.12606568614E+02 0.13568140361E+02 0.14379245005E+02 0.15004687009E+02
 0.15425161303E+02 0.15655970095E+02 0.15728013597E+02 0.15655983748E+02 0.15425181322E+02
 0.15004705878E+02 0.14379260767E+02 0.13568154405E+02 0.12606582329E+02 0.11549344663E+02
 0.10463442877E+02 0.94146292079E+01 0.84553490460E+01 0.76178494801E+01 0.69135827629E+01
 0.63375501990E+01 0.58750578859E+01 0.55084821745E+01 0.52223553687E+01 0.50059338136E+01
 0.48533382551E+01 0.47621720676E+01 0.47318057615E+01 0.47621662027E+01 0.48533247453E+01
 0.50059120795E+01 0.52223279389E+01 0.55084539646E+01 0.58750343498E+01 0.63375343289E+01
 0.63512400011E+01 0.71386535413E+01 0.80633139181E+01 0.91099155671E+01 0.10242708476E+02
 0.11407289568E+02 0.12537888680E+02 0.13568132472E+02 0.14441603546E+02 0.15117916267E+02
 0.15570387489E+02 0.15793814713E+02 0.15793819233E+02 0.15570395418E+02 0.15117921557E+02
 0.14441612772E+02 0.13568154405E+02 0.12537914920E+02 0.11407301425E+02 0.10242704523E+02
 0.91099195614E+01 0.80633403904E+01 0.71386751889E+01 0.63512121744E+01 0.56991837381E+01
 0.51700014570E+01 0.47468037048E+01 0.44135064368E+01 0.41575927020E+01 0.39707677246E+01
 0.38482237071E+01 0.37874759297E+01 0.37874736585E+01 0.38482022497E+01 0.39707051058E+01
 0.41575005661E+01 0.44134385130E+01 0.47468109488E+01 0.51700767490E+01 0.56992637190E+01
 0.59650089489E+01 0.68262172767E+01 0.78293777838E+01 0.89561469293E+01 0.10167760525E+02
 0.11407299266E+02 0.12606572986E+02 0.13695372880E+02 0.14610092608E+02 0.15299525292E+02
 0.15727129911E+02 0.15871671861E+02 0.15727123193E+02 0.15299520503E+02 0.14610096442E+02
 0.13695383133E+02 0.12606582329E+02 0.11407301425E+02 0.10167751648E+02 0.89561286566E+01
 0.78293577009E+01 0.68262037216E+01 0.59650017900E+01 0.52463052911E+01 0.46587729537E+01
 0.41857501874E+01 0.38104745076E+01 0.35190142124E+01 0.33011343758E+01 0.31498868062E+01
 0.30608180048E+01 0.30313971851E+01 0.30607978765E+01 0.31498603536E+01 0.33011185330E+01
 0.35190181037E+01 0.38104955159E+01 0.41857768007E+01 0.46587930752E+01 0.52463152795E+01
 0.57376200982E+01 0.66711192352E+01 0.77512946296E+01 0.89561478823E+01 0.10242703606E+02
 0.11549341955E+02 0.12802140407E+02 0.13923252657E+02 0.14839180211E+02 0.15487792565E+02
 0.15823984180E+02 0.15823979056E+02 0.15487783041E+02 0.14839174607E+02 0.13923250986E+02
 0.12802140132E+02 0.11549344663E+02 0.10242704523E+02 0.89561286566E+01 0.77512464905E+01
 0.66710719769E+01 0.57376239511E+01 0.49540919582E+01 0.43103918144E+01 0.37898450273E+01
 0.33747714557E+01 0.30497964168E+01 0.28029298044E+01 0.26252899937E+01 0.25104682663E+01
 0.24541558649E+01 0.24541421991E+01 0.25104427352E+01 0.26252902754E+01 0.28029859879E+01
 0.30498928958E+01 0.33748449383E+01 0.37898400281E+01 0.43103208207E+01 0.49540264046E+01
 0.56623145207E+01 0.66710774118E+01 0.78293619610E+01 0.91099115108E+01 0.10463419551E+02
 0.11820990109E+02 0.13100376048E+02 0.14214503191E+02 0.15080895363E+02 0.15631190813E+02
 0.15819941921E+02 0.15631178528E+02 0.15080881722E+02 0.14214502453E+02 0.13100394219E+02
 0.11821018867E+02 0.10463442877E+02 0.91099195614E+01 0.78293577009E+01 0.66710719769E+01
 0.56623170139E+01 0.48101548487E+01 0.41067197481E+01 0.35358825930E+01 0.30792018214E+01
 0.27197867525E+01 0.24438349772E+01 0.22405720547E+01 0.21016757547E+01 0.20209616398E+01
 0.19945076626E+01 0.20209594764E+01 0.21016782568E+01 0.22405875068E+01 0.24438645244E+01
 0.27198200666E+01 0.30792238222E+01 0.35358857458E+01 0.41067097980E+01 0.48101441567E+01
 0.57376102383E+01 0.68261598561E+01 0.80632996572E+01 0.94145975198E+01 0.10822263483E+02
 0.12208078352E+02 0.13480271573E+02 0.14543295993E+02 0.15309440730E+02 0.15711014908E+02
 0.15711002398E+02 0.15309418610E+02 0.14543293668E+02 0.13480300455E+02 0.12208121835E+02
 0.10822300562E+02 0.94146292079E+01 0.80633403904E+01 0.68262037216E+01 0.57376239511E+01
 0.48101548487E+01 0.40395446026E+01 0.34113787500E+01 0.29072526166E+01 0.25090995059E+01
 0.22013049801E+01 0.19711034156E+01 0.18082017560E+01 0.17044845985E+01 0.16541565412E+01
 0.16541597360E+01 0.17044971530E+01 0.18082202564E+01 0.19711057255E+01 0.22012709057E+01
 0.25090451158E+01 0.29072260103E+01 0.34114097257E+01 0.40396070250E+01 0.48101927520E+01
 0.59650026621E+01 0.71386719651E+01 0.84553353892E+01 0.98714773017E+01 0.11318940510E+02
 0.12708807840E+02 0.13939813871E+02 0.14910377098E+02 0.15532811549E+02 0.15747366905E+02
 0.15532805772E+02 0.14910370404E+02 0.13939813755E+02 0.12708819497E+02 0.11318961902E+02
 0.98714995162E+01 0.84553490460E+01 0.71386751889E+01 0.59650017900E+01 0.49540919582E+01
 0.41067197481E+01 0.34113787500E+01 0.28507256954E+01 0.24062784787E+01 0.20609847901E+01
 0.18001144690E+01 0.16112792110E+01 0.14843197744E+01 0.14114640131E+01 0.13877520691E+01
 0.14114701292E+01 0.14843288554E+01 0.16112844466E+01 0.18001079919E+01 0.20609633998E+01
 0.24062466112E+01 0.28506925164E+01 0.34113525152E+01 0.41067049748E+01 0.49540879818E+01
 0.63512489504E+01 0.76179006877E+01 0.90173398140E+01 0.10494796738E+02 0.11969799818E+02
 0.13341786548E+02 0.14501002089E+02 0.15343421476E+02 0.15787223879E+02 0.15787228750E+02
 0.15343425105E+02 0.14500989738E+02 0.13341764930E+02 0.11969786379E+02 0.10494788021E+02
 0.90173119714E+01 0.76178494801E+01 0.63512121744E+01 0.52463052911E+01 0.43103918144E+01
 0.35358825930E+01 0.29072526166E+01 0.24062784787E+01 0.20150344446E+01 0.17171433363E+01
 0.14981546462E+01 0.13457373230E+01 0.12500011126E+01 0.12039557762E+01 0.12039615816E+01
 0.12500097017E+01 0.13457338420E+01 0.14981398383E+01 0.17171365801E+01 0.20150477955E+01
 0.24062911984E+01 0.29072267345E+01 0.35358111882E+01 0.43103189465E+01 0.52462844142E+01
 0.69135944615E+01 0.82862628334E+01 0.97765541347E+01 0.11315594599E+02 0.12808432652E+02
 0.14142469490E+02 0.15201621556E+02 0.15884059622E+02 0.16119850569E+02 0.15884063751E+02
 0.15201625122E+02 0.14142464921E+02 0.12808415665E+02 0.11315569944E+02 0.97765319128E+01
 0.82862483404E+01 0.69135827629E+01 0.56991837381E+01 0.46587729537E+01 0.37898450273E+01
 0.30792018214E+01 0.25090995059E+01 0.20609847901E+01 0.17171433363E+01 0.14612833984E+01
 0.12789304652E+01 0.11579608171E+01 0.10892010242E+01 0.10669319793E+01 0.10892081351E+01
 0.11579669858E+01 0.12789257864E+01 0.14612650748E+01 0.17171198247E+01 0.20609703502E+01
 0.25091036166E+01 0.30792234361E+01 0.37898746054E+01 0.46587995785E+01 0.56992014529E+01
 0.76837438172E+01 0.91813199622E+01 0.10774144889E+02 0.12375923633E+02 0.13875550820E+02
 0.15149325019E+02 0.16078538736E+02 0.16569183686E+02 0.16569194368E+02 0.16078564744E+02
 0.15149349149E+02 0.13875555436E+02 0.12375912594E+02 0.10774146631E+02 0.91813520881E+01
 0.76837781811E+01 0.63375501990E+01 0.51700014570E+01 0.41857501874E+01 0.33747714557E+01
 0.27197867525E+01 0.22013049801E+01 0.18001144690E+01 0.14981546462E+01 0.12789304652E+01
 0.11280970703E+01 0.10341952196E+01 0.98927542220E+00 0.98927818855E+00 0.10342006782E+01
 0.11281011557E+01 0.12789309318E+01 0.14981458218E+01 0.18000898622E+01 0.22012767204E+01
 0.27197925734E+01 0.33748409650E+01 0.41858614360E+01 0.51700887707E+01 0.63375675702E+01
 0.87059252083E+01 0.10349324954E+02 0.12054073840E+02 0.13713864113E+02 0.15201592260E+02
 0.16385503511E+02 0.17149542700E+02 0.17413751992E+02 0.17149570361E+02 0.16385543321E+02
 0.15201624565E+02 0.13713877492E+02 0.12054069912E+02 0.10349315576E+02 0.87059233577E+01
 0.71999393825E+01 0.58750578859E+01 0.47468037048E+01 0.38104745076E+01 0.30497964168E+01
 0.24438349772E+01 0.19711034156E+01 0.16112792110E+01 0.13457373230E+01 0.11579608171E+01
 0.10341952196E+01 0.96415532348E+00 0.94151939513E+00 0.96415852796E+00 0.10341975423E+01
 0.11579610807E+01 0.13457404197E+01 0.16112912210E+01 0.19711257494E+01 0.24438633146E+01
 0.30498221702E+01 0.38104881676E+01 0.47468008280E+01 0.58750450068E+01 0.71999297172E+01
 0.10026268706E+02 0.11829509910E+02 0.13644029534E+02 0.15343386126E+02 0.16787393415E+02
 0.17841357400E+02 0.18398140218E+02 0.18398146458E+02 0.17841380364E+02 0.16787434273E+02
 0.15343425331E+02 0.13644033053E+02 0.11829465554E+02 0.10026215045E+02 0.83335221502E+01
 0.68168649822E+01 0.55084821745E+01 0.44135064368E+01 0.35190142124E+01 0.28029298044E+01
 0.22405720547E+01 0.18082017560E+01 0.14843197744E+01 0.12500011126E+01 0.10892010242E+01
 0.98927542220E+00 0.94151939513E+00 0.94151583163E+00 0.98926963952E+00 0.10891997800E+01
 0.12500040183E+01 0.14843268478E+01 0.18082243089E+01 0.22406193241E+01 0.28029803243E+01
 0.35190177144E+01 0.44134327559E+01 0.55083658227E+01 0.68167826333E+01 0.83335204882E+01
 0.11673238101E+02 0.13631496599E+02 0.15532785843E+02 0.17233999763E+02 0.18587126478E+02
 0.19460633333E+02 0.19762810689E+02 0.19460643019E+02 0.18587142859E+02 0.17234019695E+02
 0.15532806799E+02 0.13631515606E+02 0.11673252092E+02 0.97800181284E+01 0.80424872793E+01
 0.65159401878E+01 0.52223553687E+01 0.41575927020E+01 0.33011343758E+01 0.26252899937E+01
 0.21016757547E+01 0.17044845985E+01 0.14114640131E+01 0.12039557762E+01 0.10669319793E+01
 0.98927818855E+00 0.96415852796E+00 0.98926963952E+00 0.10669218082E+01 0.12039518550E+01
 0.14114687881E+01 0.17044934757E+01 0.21016804640E+01 0.26252835325E+01 0.33011150861E+01
 0.41575654742E+01 0.52223292417E+01 0.65159217363E+01 0.80424763994E+01 0.97800086452E+01
 0.13631900329E+02 0.15710959417E+02 0.17649897008E+02 0.19295201163E+02 0.20496885717E+02
 0.21132519678E+02 0.21132518720E+02 0.20496875922E+02 0.19295181417E+02 0.17649893916E+02
 0.15711002905E+02 0.13631974214E+02 0.11552193244E+02 0.95856230705E+01 0.78137792642E+01
 0.62828300303E+01 0.50059338136E+01 0.39707677246E+01 0.31498868062E+01 0.25104682663E+01
 0.20209616398E+01 0.16541565412E+01 0.13877520691E+01 0.12039615816E+01 0.10892081351E+01
 0.10342006782E+01 0.10341975423E+01 0.10891997800E+01 0.12039518550E+01 0.13877473701E+01
 0.16541600975E+01 0.20209629964E+01 0.25104446627E+01 0.31498292198E+01 0.39707081742E+01
 0.50059289960E+01 0.62829010700E+01 0.78138759983E+01 0.95856657503E+01 0.11552153659E+02
 0.15819959619E+02 0.17952240854E+02 0.19854921221E+02 0.21364817283E+02 0.22335094818E+02
 0.22669670818E+02 0.22335066817E+02 0.21364776249E+02 0.19854883709E+02 0.17952214641E+02
 0.15819941881E+02 0.13606452774E+02 0.11440498999E+02 0.94257972466E+01 0.76357176280E+01
 0.61094684900E+01 0.48533382551E+01 0.38482237071E+01 0.30608180048E+01 0.24541558649E+01
 0.19945076626E+01 0.16541597360E+01 0.14114701292E+01 0.12500097017E+01 0.11579669858E+01
 0.11281011557E+01 0.11579610807E+01 0.12500040183E+01 0.14114687881E+01 0.16541600975E+01
 0.19945039223E+01 0.24541445748E+01 0.30608006675E+01 0.38482073903E+01 0.48533334400E+01
 0.61094814719E+01 0.76357443463E+01 0.94258259034E+01 0.11440521600E+02 0.13606469953E+02
 0.18075808033E+02 0.20128477190E+02 0.21815278592E+02 0.23011006117E+02 0.23630801025E+02
 0.23630788590E+02 0.23010980949E+02 0.21815250334E+02 0.20128426722E+02 0.18075721737E+02
 0.15823984848E+02 0.13536331852E+02 0.11328593448E+02 0.92952272264E+01 0.75048967228E+01
 0.59932524953E+01 0.47621720676E+01 0.37874759297E+01 0.30313971851E+01 0.24541421991E+01
 0.20209594764E+01 0.17044971530E+01 0.14843288554E+01 0.13457338420E+01 0.12789257864E+01
 0.12789309318E+01 0.13457404197E+01 0.14843268478E+01 0.17044934757E+01 0.20209629964E+01
 0.24541445748E+01 0.30313911225E+01 0.37874805807E+01 0.47622097406E+01 0.59933007673E+01
 0.75049006058E+01 0.92951725141E+01 0.11328540713E+02 0.13536348312E+02 0.15824066731E+02
 0.19978851270E+02 0.21607279952E+02 0.22793821991E+02 0.23512155436E+02 0.23752517309E+02
 0.23512168168E+02 0.22793842761E+02 0.21607304756E+02 0.19978877008E+02 0.17974492432E+02
 0.15727131157E+02 0.13431272091E+02 0.11224903961E+02 0.91991325823E+01 0.74236889184E+01
 0.59346449884E+01 0.47318057615E+01 0.37874736585E+01 0.30607978765E+01 0.25104427352E+01
 0.21016782568E+01 0.18082202564E+01 0.16112844466E+01 0.14981398383E+01 0.14612650748E+01
 0.14981458218E+01 0.16112912210E+01 0.18082243089E+01 0.21016804640E+01 0.25104446627E+01
 0.30608006675E+01 0.37874805807E+01 0.47318209487E+01 0.59346678665E+01 0.74237141441E+01
 0.91991546493E+01 0.11224919774E+02 0.13431277050E+02 0.15727122923E+02 0.17974471914E+02
 0.20719247690E+02 0.21564525579E+02 0.22051761277E+02 0.22269360408E+02 0.22269393804E+02
 0.22051836958E+02 0.21564614031E+02 0.20719359729E+02 0.19431464102E+02 0.17681536943E+02
 0.15570387810E+02 0.13324767009E+02 0.11149357362E+02 0.91474053516E+01 0.73960326484E+01
 0.59346551341E+01 0.47621662027E+01 0.38482022497E+01 0.31498603536E+01 0.26252902754E+01
 0.22405875068E+01 0.19711057255E+01 0.18001079919E+01 0.17171365801E+01 0.17171198247E+01
 0.18000898622E+01 0.19711257494E+01 0.22406193241E+01 0.26252835325E+01 0.31498292198E+01
 0.38482073903E+01 0.47622097406E+01 0.59346678665E+01 0.73959874581E+01 0.91473779210E+01
 0.11149419967E+02 0.13324870363E+02 0.15570413745E+02 0.17681446535E+02 0.19431328701E+02
 0.19553214584E+02 0.19389335325E+02 0.19163559923E+02 0.19065479883E+02 0.19163614662E+02
 0.19389418954E+02 0.19553293893E+02 0.19398015451E+02 0.18691421185E+02 0.17333236460E+02
 0.15425160526E+02 0.13257749904E+02 0.11121509133E+02 0.91473968675E+01 0.74237168357E+01
 0.59932927875E+01 0.48533247453E+01 0.39707051058E+01 0.33011185330E+01 0.28029859879E+01
 0.24438645244E+01 0.22012709057E+01 0.20609633998E+01 0.20150477955E+01 0.20609703502E+01
 0.22012767204E+01 0.24438633146E+01 0.28029803243E+01 0.33011150861E+01 0.39707081742E+01
 0.48533334400E+01 0.59933007673E+01 0.74237141441E+01 0.91473779210E+01 0.11121479674E+02
 0.13257723176E+02 0.15425143375E+02 0.17333221591E+02 0.18691393070E+02 0.19397960858E+02
 0.16109454604E+02 0.14946302101E+02 0.14244869325E+02 0.14244856181E+02 0.14946297248E+02
 0.16109486644E+02 0.17316284187E+02 0.18092016242E+02 0.18064070355E+02 0.17100775000E+02
 0.15366235712E+02 0.13257804651E+02 0.11149381587E+02 0.91991014113E+01 0.75049325230E+01
 0.61095412639E+01 0.50059120795E+01 0.41575005661E+01 0.35190181037E+01 0.30498928958E+01
 0.27198200666E+01 0.25090451158E+01 0.24062466112E+01 0.24062911984E+01 0.25091036166E+01
 0.27197925734E+01 0.30498221702E+01 0.35190177144E+01 0.41575654742E+01 0.50059289960E+01
 0.61094814719E+01 0.75049006058E+01 0.91991546493E+01 0.11149419967E+02 0.13257723176E+02
 0.15366097448E+02 0.17100727243E+02 0.18064134788E+02 0.18092077408E+02 0.17316272249E+02
 0.10603196445E+02 0.87450392694E+01 0.80618158691E+01 0.87450792507E+01 0.10603252666E+02
 0.13113140733E+02 0.15566972001E+02 0.17283520663E+02 0.17819208626E+02 0.17100693395E+02
 0.15425138047E+02 0.13324885827E+02 0.11224938606E+02 0.92951809338E+01 0.76357407166E+01
 0.62828940104E+01 0.52223279389E+01 0.44134385130E+01 0.38104955159E+01 0.33748449383E+01
 0.30792238222E+01 0.29072260103E+01 0.28506925164E+01 0.29072267345E+01 0.30792234361E+01
 0.33748409650E+01 0.38104881676E+01 0.44134327559E+01 0.52223292417E+01 0.62829010700E+01
 0.76357443463E+01 0.92951725141E+01 0.11224919774E+02 0.13324870363E+02 0.15425143375E+02
 0.17100727243E+02 0.17819259006E+02 0.17283559640E+02 0.15566974203E+02 0.13113102330E+02
 0.39076401609E+01 0.19382679366E+01 0.19383682756E+01 0.39078288276E+01 0.73293960451E+01
 0.11322545847E+02 0.14905679910E+02 0.17283568457E+02 0.18064048739E+02 0.17333066618E+02
 0.15570349506E+02 0.13431359779E+02 0.11328622961E+02 0.94257782296E+01 0.78137830874E+01
 0.65159345237E+01 0.55084539646E+01 0.47468109488E+01 0.41857768007E+01 0.37898400281E+01
 0.35358857458E+01 0.34114097257E+01 0.34113525152E+01 0.35358111882E+01 0.37898746054E+01
 0.41858614360E+01 0.47468008280E+01 0.55083658227E+01 0.65159217363E+01 0.78138759983E+01
 0.94258259034E+01 0.11328540713E+02 0.13431277050E+02 0.15570413745E+02 0.17333221591E+02
 0.18064134788E+02 0.17283559640E+02 0.14905668849E+02 0.11322537980E+02 0.73292935852E+01
 -.25822685637E+01 -.39154807051E+01 -.25822548267E+01 0.10697693897E+01 0.61105450755E+01
 0.11322590248E+02 0.15567021758E+02 0.18092104546E+02 0.18691390780E+02 0.17681420074E+02
 0.15727090704E+02 0.13536327844E+02 0.11440517129E+02 0.95856692457E+01 0.80424781783E+01
 0.68167779699E+01 0.58750343498E+01 0.51700767490E+01 0.46587930752E+01 0.43103208207E+01
 0.41067097980E+01 0.40396070250E+01 0.41067049748E+01 0.43103189465E+01 0.46587995785E+01
 0.51700887707E+01 0.58750450068E+01 0.68167826333E+01 0.80424763994E+01 0.95856657503E+01
 0.11440521600E+02 0.13536348312E+02 0.15727122923E+02 0.17681446535E+02 0.18691393070E+02
 0.18092077408E+02 0.15566974203E+02 0.11322537980E+02 0.61105010504E+01 0.10697401615E+01
 -.73080672403E+01 -.73081942967E+01 -.42497361414E+01 0.10696855005E+01 0.73294270458E+01
 0.13113252334E+02 0.17316359026E+02 0.19398053956E+02 0.19431439749E+02 0.17974488718E+02
 0.15823955847E+02 0.13606378460E+02 0.11552203920E+02 0.97801095366E+01 0.83335124981E+01
 0.71998329132E+01 0.63375343289E+01 0.56992637190E+01 0.52463152795E+01 0.49540264046E+01
 0.48101441567E+01 0.48101927520E+01 0.49540879818E+01 0.52462844142E+01 0.56992014529E+01
 0.63375675702E+01 0.71999297172E+01 0.83335204882E+01 0.97800086452E+01 0.11552153659E+02
 0.13606469953E+02 0.15824066731E+02 0.17974471914E+02 0.19431328701E+02 0.19397960858E+02
 0.17316272249E+02 0.13113102330E+02 0.73292935852E+01 0.10697401615E+01 -.42495159130E+01
 -.73081063603E+01 -.39153323942E+01 0.19383092271E+01 0.87449969283E+01 0.14946333698E+02
 0.19389480764E+02 0.21564651927E+02 0.21607288139E+02 0.20128434197E+02 0.17952248126E+02
 0.15710999466E+02 0.13631497443E+02 0.11829486619E+02 0.10349345095E+02 0.91813679610E+01
 0.82862568013E+01 0.76178403566E+01 0.71386532765E+01 0.68262172925E+01 0.66711202257E+01
 0.66710783801E+01 0.68261599346E+01 0.71386720132E+01 0.76179014852E+01 0.82862634763E+01
 0.91813196545E+01 0.10349324594E+02 0.11829510284E+02 0.13631496782E+02 0.15710958582E+02