   2   2   0   0
  0.2720922E+02  0.4253571E-09  0.4253571E-09  0.4253571E-09  0.5000000E-15
  1.000000000000000E-004
  CAR 
 unknown system                          
     12.54629904     -8.95550237  301      3.39428573      1.00000000
     -8.956  0.0000E+00  0.0000E+00
     -8.884  0.0000E+00  0.0000E+00
     -8.812  0.0000E+00  0.0000E+00
     -8.740  0.0000E+00  0.0000E+00
     -8.669  0.0000E+00  0.0000E+00
     -8.597  0.0000E+00  0.0000E+00
     -8.525  0.0000E+00  0.0000E+00
     -8.454  0.0000E+00  0.0000E+00
     -8.382  0.0000E+00  0.0000E+00
     -8.310  0.0000E+00  0.0000E+00
     -8.239  0.0000E+00  0.0000E+00
     -8.167  0.0000E+00  0.0000E+00
     -8.095  0.2824E-17  0.2024E-18
     -8.024  0.1521E-15  0.1110E-16
     -7.952  0.6573E-14  0.4822E-15
     -7.880  0.2206E-12  0.1629E-13
     -7.809  0.5757E-11  0.4289E-12
     -7.737  0.1170E-09  0.8817E-11
     -7.665  0.1856E-08  0.1418E-09
     -7.594  0.2301E-07  0.1791E-08
     -7.522  0.2236E-06  0.1782E-07
     -7.450  0.1710E-05  0.1404E-06
     -7.379  0.1035E-04  0.8819E-06
     -7.307  0.4981E-04  0.4452E-05
     -7.235  0.1923E-03  0.1824E-04
     -7.164  0.6013E-03  0.6134E-04
     -7.092  0.1539E-02  0.1716E-03
     -7.020  0.3268E-02  0.4059E-03
     -6.949  0.5859E-02  0.8258E-03
     -6.877  0.9073E-02  0.1476E-02
     -6.805  0.1250E-01  0.2372E-02
     -6.734  0.1582E-01  0.3506E-02
     -6.662  0.1885E-01  0.4857E-02
     -6.590  0.2146E-01  0.6395E-02
     -6.519  0.2363E-01  0.8088E-02
     -6.447  0.2570E-01  0.9930E-02
     -6.375  0.2807E-01  0.1194E-01
     -6.304  0.3060E-01  0.1414E-01
     -6.232  0.3264E-01  0.1647E-01
     -6.160  0.3402E-01  0.1891E-01
     -6.089  0.3537E-01  0.2145E-01
     -6.017  0.3743E-01  0.2413E-01
     -5.945  0.4030E-01  0.2702E-01
     -5.874  0.4354E-01  0.3014E-01
     -5.802  0.4641E-01  0.3347E-01
     -5.730  0.4833E-01  0.3693E-01
     -5.659  0.4950E-01  0.4048E-01
     -5.587  0.5139E-01  0.4416E-01
     -5.515  0.5572E-01  0.4816E-01
     -5.444  0.6248E-01  0.5263E-01
     -5.372  0.6945E-01  0.5761E-01
     -5.300  0.7417E-01  0.6293E-01
     -5.229  0.7573E-01  0.6836E-01
     -5.157  0.7428E-01  0.7368E-01
     -5.085  0.7029E-01  0.7872E-01
     -5.014  0.6544E-01  0.8341E-01
     -4.942  0.6286E-01  0.8791E-01
     -4.870  0.6435E-01  0.9252E-01
     -4.798  0.6767E-01  0.9737E-01
     -4.727  0.6789E-01  0.1022E+00
     -4.655  0.6217E-01  0.1067E+00
     -4.583  0.5226E-01  0.1104E+00
     -4.512  0.4254E-01  0.1135E+00
     -4.440  0.3661E-01  0.1161E+00
     -4.368  0.3571E-01  0.1187E+00
     -4.297  0.3865E-01  0.1214E+00
     -4.225  0.4202E-01  0.1245E+00
     -4.153  0.4156E-01  0.1274E+00
     -4.082  0.3508E-01  0.1299E+00
     -4.010  0.2441E-01  0.1317E+00
     -3.938  0.1381E-01  0.1327E+00
     -3.867  0.6662E-02  0.1332E+00
     -3.795  0.4115E-02  0.1335E+00
     -3.723  0.6300E-02  0.1339E+00
     -3.652  0.1331E-01  0.1349E+00
     -3.580  0.2409E-01  0.1366E+00
     -3.508  0.3495E-01  0.1391E+00
     -3.437  0.4106E-01  0.1420E+00
     -3.365  0.4045E-01  0.1449E+00
     -3.293  0.3582E-01  0.1475E+00
     -3.222  0.3198E-01  0.1498E+00
     -3.150  0.3247E-01  0.1521E+00
     -3.078  0.3849E-01  0.1549E+00
     -3.007  0.4951E-01  0.1584E+00
     -2.935  0.6329E-01  0.1630E+00
     -2.863  0.7598E-01  0.1684E+00
     -2.792  0.8356E-01  0.1744E+00
     -2.720  0.8425E-01  0.1804E+00
     -2.648  0.7932E-01  0.1861E+00
     -2.577  0.7152E-01  0.1913E+00
     -2.505  0.6313E-01  0.1958E+00
     -2.433  0.5565E-01  0.1998E+00
     -2.362  0.5039E-01  0.2034E+00
     -2.290  0.4777E-01  0.2068E+00
     -2.218  0.4660E-01  0.2101E+00
     -2.147  0.4520E-01  0.2134E+00
     -2.075  0.4308E-01  0.2165E+00
     -2.003  0.4075E-01  0.2194E+00
     -1.932  0.3830E-01  0.2221E+00
     -1.860  0.3516E-01  0.2247E+00
     -1.788  0.3125E-01  0.2269E+00
     -1.717  0.2744E-01  0.2289E+00
     -1.645  0.2484E-01  0.2306E+00
     -1.573  0.2373E-01  0.2323E+00
     -1.502  0.2365E-01  0.2340E+00
     -1.430  0.2413E-01  0.2358E+00
     -1.358  0.2464E-01  0.2375E+00
     -1.287  0.2430E-01  0.2393E+00
     -1.215  0.2266E-01  0.2409E+00
     -1.143  0.2063E-01  0.2424E+00
     -1.072  0.1946E-01  0.2438E+00
     -1.000  0.1911E-01  0.2451E+00
     -0.928  0.1845E-01  0.2465E+00
     -0.856  0.1672E-01  0.2477E+00
     -0.785  0.1428E-01  0.2487E+00
     -0.713  0.1218E-01  0.2496E+00
     -0.641  0.1138E-01  0.2504E+00
     -0.570  0.1197E-01  0.2512E+00
     -0.498  0.1310E-01  0.2522E+00
     -0.426  0.1386E-01  0.2532E+00
     -0.355  0.1407E-01  0.2542E+00
     -0.283  0.1418E-01  0.2552E+00
     -0.211  0.1471E-01  0.2562E+00
     -0.140  0.1670E-01  0.2574E+00
     -0.068  0.2225E-01  0.2590E+00
      0.004  0.3360E-01  0.2614E+00
      0.075  0.5091E-01  0.2651E+00
      0.147  0.7116E-01  0.2702E+00
      0.219  0.8924E-01  0.2766E+00
      0.290  0.1005E+00  0.2838E+00
      0.362  0.1032E+00  0.2912E+00
      0.434  0.9991E-01  0.2983E+00
      0.505  0.9545E-01  0.3052E+00
      0.577  0.9349E-01  0.3119E+00
      0.649  0.9491E-01  0.3187E+00
      0.720  0.9890E-01  0.3258E+00
      0.792  0.1045E+00  0.3333E+00
      0.864  0.1108E+00  0.3412E+00
      0.935  0.1161E+00  0.3495E+00
      1.007  0.1197E+00  0.3581E+00
      1.079  0.1225E+00  0.3669E+00
      1.150  0.1258E+00  0.3759E+00
      1.222  0.1287E+00  0.3851E+00
      1.294  0.1291E+00  0.3944E+00
      1.365  0.1272E+00  0.4035E+00
      1.437  0.1257E+00  0.4125E+00
      1.509  0.1260E+00  0.4215E+00
      1.580  0.1257E+00  0.4306E+00
      1.652  0.1215E+00  0.4393E+00
      1.724  0.1144E+00  0.4475E+00
      1.795  0.1093E+00  0.4553E+00
      1.867  0.1094E+00  0.4631E+00
      1.939  0.1122E+00  0.4712E+00
      2.010  0.1120E+00  0.4792E+00
      2.082  0.1054E+00  0.4868E+00
      2.154  0.9439E-01  0.4935E+00
      2.225  0.8382E-01  0.4995E+00
      2.297  0.7638E-01  0.5050E+00
      2.369  0.7017E-01  0.5100E+00
      2.440  0.6194E-01  0.5145E+00
      2.512  0.5164E-01  0.5182E+00
      2.584  0.4228E-01  0.5212E+00
      2.655  0.3599E-01  0.5238E+00
      2.727  0.3182E-01  0.5261E+00
      2.799  0.2765E-01  0.5280E+00
      2.870  0.2264E-01  0.5297E+00
      2.942  0.1746E-01  0.5309E+00
      3.014  0.1288E-01  0.5318E+00
      3.086  0.9071E-02  0.5325E+00
      3.157  0.5879E-02  0.5329E+00
      3.229  0.3345E-02  0.5332E+00
      3.301  0.1621E-02  0.5333E+00
      3.372  0.7131E-03  0.5333E+00
      3.444  0.4540E-03  0.5334E+00
      3.516  0.6484E-03  0.5334E+00
      3.587  0.1145E-02  0.5335E+00
      3.659  0.1848E-02  0.5336E+00
      3.731  0.2820E-02  0.5338E+00
      3.802  0.4413E-02  0.5341E+00
      3.874  0.7093E-02  0.5346E+00
      3.946  0.1101E-01  0.5354E+00
      4.017  0.1580E-01  0.5366E+00
      4.089  0.2092E-01  0.5381E+00
      4.161  0.2604E-01  0.5399E+00
      4.232  0.3133E-01  0.5422E+00
      4.304  0.3779E-01  0.5449E+00
      4.376  0.4719E-01  0.5483E+00
      4.447  0.6049E-01  0.5526E+00
      4.519  0.7595E-01  0.5580E+00
      4.591  0.8994E-01  0.5645E+00
      4.662  0.1002E+00  0.5717E+00
      4.734  0.1079E+00  0.5794E+00
      4.806  0.1157E+00  0.5877E+00
      4.877  0.1238E+00  0.5966E+00
      4.949  0.1297E+00  0.6059E+00
      5.021  0.1301E+00  0.6152E+00
      5.092  0.1244E+00  0.6241E+00
      5.164  0.1152E+00  0.6324E+00
      5.236  0.1060E+00  0.6400E+00
      5.307  0.9905E-01  0.6471E+00
      5.379  0.9446E-01  0.6538E+00
      5.451  0.9151E-01  0.6604E+00
      5.522  0.8943E-01  0.6668E+00
      5.594  0.8688E-01  0.6730E+00
      5.666  0.8264E-01  0.6790E+00
      5.737  0.7750E-01  0.6845E+00
      5.809  0.7459E-01  0.6899E+00
      5.881  0.7675E-01  0.6954E+00
      5.952  0.8433E-01  0.7014E+00
      6.024  0.9559E-01  0.7083E+00
      6.096  0.1082E+00  0.7160E+00
      6.167  0.1195E+00  0.7246E+00
      6.239  0.1268E+00  0.7337E+00
      6.311  0.1288E+00  0.7429E+00
      6.382  0.1270E+00  0.7520E+00
      6.454  0.1242E+00  0.7609E+00
      6.526  0.1224E+00  0.7697E+00
      6.597  0.1215E+00  0.7784E+00
      6.669  0.1199E+00  0.7870E+00
      6.741  0.1167E+00  0.7953E+00
      6.812  0.1115E+00  0.8033E+00
      6.884  0.1039E+00  0.8108E+00
      6.956  0.9336E-01  0.8175E+00
      7.028  0.8288E-01  0.8234E+00
      7.099  0.7840E-01  0.8290E+00
      7.171  0.8435E-01  0.8351E+00
      7.243  0.9949E-01  0.8422E+00
      7.314  0.1178E+00  0.8506E+00
      7.386  0.1322E+00  0.8601E+00
      7.458  0.1379E+00  0.8700E+00
      7.529  0.1337E+00  0.8796E+00
      7.601  0.1215E+00  0.8883E+00
      7.673  0.1059E+00  0.8959E+00
      7.744  0.9237E-01  0.9025E+00
      7.816  0.8548E-01  0.9086E+00
      7.888  0.8745E-01  0.9149E+00
      7.959  0.9638E-01  0.9218E+00
      8.031  0.1069E+00  0.9295E+00
      8.103  0.1131E+00  0.9376E+00
      8.174  0.1119E+00  0.9456E+00
      8.246  0.1034E+00  0.9530E+00
      8.318  0.9014E-01  0.9595E+00
      8.389  0.7651E-01  0.9649E+00
      8.461  0.6744E-01  0.9698E+00
      8.533  0.6505E-01  0.9744E+00
      8.604  0.6778E-01  0.9793E+00
      8.676  0.7294E-01  0.9845E+00
      8.748  0.7889E-01  0.9902E+00
      8.819  0.8438E-01  0.9962E+00
      8.891  0.8763E-01  0.1003E+01
      8.963  0.8680E-01  0.1009E+01
      9.034  0.8102E-01  0.1015E+01
      9.106  0.7101E-01  0.1020E+01
      9.178  0.5928E-01  0.1024E+01
      9.249  0.4904E-01  0.1027E+01
      9.321  0.4201E-01  0.1030E+01
      9.393  0.3806E-01  0.1033E+01
      9.464  0.3702E-01  0.1036E+01
      9.536  0.3945E-01  0.1039E+01
      9.608  0.4460E-01  0.1042E+01
      9.679  0.4901E-01  0.1045E+01
      9.751  0.4873E-01  0.1049E+01
      9.823  0.4288E-01  0.1052E+01
      9.894  0.3411E-01  0.1054E+01
      9.966  0.2608E-01  0.1056E+01
     10.038  0.2111E-01  0.1058E+01
     10.109  0.1927E-01  0.1059E+01
     10.181  0.1880E-01  0.1060E+01
     10.253  0.1762E-01  0.1062E+01
     10.324  0.1514E-01  0.1063E+01
     10.396  0.1257E-01  0.1064E+01
     10.468  0.1102E-01  0.1064E+01
     10.539  0.1007E-01  0.1065E+01
     10.611  0.8531E-02  0.1066E+01
     10.683  0.6076E-02  0.1066E+01
     10.754  0.3475E-02  0.1067E+01
     10.826  0.1569E-02  0.1067E+01
     10.898  0.5556E-03  0.1067E+01
     10.970  0.1540E-03  0.1067E+01
     11.041  0.3337E-04  0.1067E+01
     11.113  0.5650E-05  0.1067E+01
     11.185  0.7467E-06  0.1067E+01
     11.256  0.7699E-07  0.1067E+01
     11.328  0.6189E-08  0.1067E+01
     11.400  0.3877E-09  0.1067E+01
     11.471  0.1891E-10  0.1067E+01
     11.543  0.7179E-12  0.1067E+01
     11.615  0.2120E-13  0.1067E+01
     11.686  0.4841E-15  0.1067E+01
     11.758  0.9681E-17  0.1067E+01
     11.830  0.0000E+00  0.1067E+01
     11.901  0.0000E+00  0.1067E+01
     11.973  0.0000E+00  0.1067E+01
     12.045  0.0000E+00  0.1067E+01
     12.116  0.0000E+00  0.1067E+01
     12.188  0.0000E+00  0.1067E+01
     12.260  0.0000E+00  0.1067E+01
     12.331  0.0000E+00  0.1067E+01
     12.403  0.0000E+00  0.1067E+01
     12.475  0.0000E+00  0.1067E+01
     12.546  0.0000E+00  0.1067E+01
