    2    2   15    1
  0.2720922E+02  0.4253571E-09  0.4253571E-09  0.4253571E-09  0.5000000E-15
  1.000000000000000E-004
  CAR 
 unknown system                          
      8     60      8
 
  0.6250000E-01  0.6250000E-01  0.6250000E-01  0.3906250E-02
    1       -6.955502   1.000000
    2        2.318537   1.000000
    3        3.065857   0.989893
    4        3.065857   0.989893
    5        3.973976   0.000021
    6        5.600388   0.000000
    7        5.600388   0.000000
    8        5.642298   0.000000
 
  0.1875000E+00  0.6250000E-01  0.6250000E-01  0.1171875E-01
    1       -6.750510   1.000000
    2        0.940912   1.000000
    3        2.478709   1.000000
    4        2.957993   0.998982
    5        4.520577   0.000000
    6        5.802003   0.000000
    7        5.916562   0.000000
    8        6.639827   0.000000
 
  0.3125000E+00  0.6250000E-01  0.6250000E-01  0.1171875E-01
    1       -6.262613   1.000000
    2       -0.782809   1.000000
    3        2.053719   1.000000
    4        2.598477   1.000000
    5        4.306664   0.000000
    6        6.271907   0.000000
    7        6.484192   0.000000
    8        8.132437   0.000000
 
  0.4375000E+00  0.6250000E-01  0.6250000E-01  0.1171875E-01
    1       -5.612443   1.000000
    2       -2.197783   1.000000
    3        1.844869   1.000000
    4        2.282173   1.000000
    5        4.065082   0.000001
    6        6.488484   0.000000
    7        6.514675   0.000000
    8        9.714273   0.000000
 
 -0.4375000E+00  0.6250000E-01  0.6250000E-01  0.1171875E-01
    1       -5.317914   1.000000
    2       -2.688466   1.000000
    3        1.858293   1.000000
    4        2.122326   1.000000
    5        4.007671   0.000007
    6        6.395707   0.000000
    7        6.592089   0.000000
    8       10.182585   0.000000
 
 -0.3125000E+00  0.6250000E-01  0.6250000E-01  0.1171875E-01
    1       -5.828869   1.000000
    2       -1.787783   1.000000
    3        2.078026   1.000000
    4        2.157592   1.000000
    5        4.158348   0.000000
    6        6.292080   0.000000
    7        6.700233   0.000000
    8        9.068250   0.000000
 
 -0.1875000E+00  0.6250000E-01  0.6250000E-01  0.1171875E-01
    1       -6.452345   1.000000
    2       -0.221596   1.000000
    3        2.391282   1.000000
    4        2.454870   1.000000
    5        4.462275   0.000000
    6        5.936896   0.000000
    7        6.560421   0.000000
    8        7.573231   0.000000
 
 -0.6250000E-01  0.6250000E-01  0.6250000E-01  0.1171875E-01
    1       -6.852242   1.000000
    2        1.539317   1.000000
    3        2.767074   0.999995
    4        2.827154   0.999970
    5        4.576498   0.000000
    6        5.401245   0.000000
    7        6.021276   0.000000
    8        6.135994   0.000000
 
  0.1875000E+00  0.1875000E+00  0.6250000E-01  0.1171875E-01
    1       -6.646869   1.000000
    2        0.672070   1.000000
    3        2.355168   1.000000
    4        2.362263   1.000000
    5        5.045691   0.000000
    6        5.335191   0.000000
    7        6.673305   0.000000
    8        6.809572   0.000000
 
  0.3125000E+00  0.1875000E+00  0.6250000E-01  0.2343750E-01
    1       -6.248454   1.000000
    2       -0.529004   1.000000
    3        1.616300   1.000000
    4        2.161579   1.000000
    5        5.135271   0.000000
    6        5.654625   0.000000
    7        7.298971   0.000000
    8        7.407173   0.000000
 
  0.4375000E+00  0.1875000E+00  0.6250000E-01  0.2343750E-01
    1       -5.624890   1.000000
    2       -1.884764   1.000000
    3        1.145100   1.000000
    4        1.875208   1.000000
    5        5.015480   0.000000
    6        6.237733   0.000000
    7        7.435812   0.000000
    8        7.967745   0.000000
 
 -0.4375000E+00  0.1875000E+00  0.6250000E-01  0.2343750E-01
    1       -5.107392   1.000000
    2       -2.727684   1.000000
    3        0.891320   1.000000
    4        1.812412   1.000000
    5        4.919121   0.000000
    6        6.378557   0.000000
    7        7.374583   0.000000
    8        9.359039   0.000000
 
 -0.3125000E+00  0.1875000E+00  0.6250000E-01  0.2343750E-01
    1       -5.412650   1.000000
    2       -2.253674   1.000000
    3        0.878792   1.000000
    4        2.011929   1.000000
    5        4.997392   0.000000
    6        6.400115   0.000000
    7        7.274658   0.000000
    8        8.769340   0.000000
 
 -0.1875000E+00  0.1875000E+00  0.6250000E-01  0.2343750E-01
    1       -6.064437   1.000000
    2       -1.003650   1.000000
    3        1.205082   1.000000
    4        2.376386   1.000000
    5        5.183111   0.000000
    6        6.033776   0.000000
    7        7.107517   0.000000
    8        7.655989   0.000000
 
 -0.6250000E-01  0.1875000E+00  0.6250000E-01  0.2343750E-01
    1       -6.548328   1.000000
    2        0.217915   1.000000
    3        2.047066   1.000000
    4        2.647233   1.000000
    5        4.929651   0.000000
    6        5.590075   0.000000
    7        6.538741   0.000000
    8        7.201811   0.000000
 
  0.3125000E+00  0.3125000E+00  0.6250000E-01  0.1171875E-01
    1       -5.940267   1.000000
    2       -1.068064   1.000000
    3        1.507582   1.000000
    4        1.596429   1.000000
    5        4.468255   0.000000
    6        5.654510   0.000000
    7        8.090068   0.000000
    8        8.249195   0.000000
 
  0.4375000E+00  0.3125000E+00  0.6250000E-01  0.2343750E-01
    1       -5.374794   1.000000
    2       -2.035141   1.000000
    3        0.938101   1.000000
    4        1.343514   1.000000
    5        4.721167   0.000000
    6        5.639299   0.000000
    7        8.074634   0.000000
    8        9.012777   0.000000
 
 -0.4375000E+00  0.3125000E+00  0.6250000E-01  0.2343750E-01
    1       -4.736010   1.000000
    2       -2.903034   1.000000
    3        0.325266   1.000000
    4        1.316562   1.000000
    5        4.890055   0.000000
    6        6.918402   0.000000
    7        7.812493   0.000000
    8        8.960258   0.000000
 
 -0.3125000E+00  0.3125000E+00  0.6250000E-01  0.2343750E-01
    1       -4.801864   1.000000
    2       -2.820077   1.000000
    3        0.089931   1.000000
    4        1.564694   1.000000
    5        5.103930   0.000000
    6        7.480092   0.000000
    7        8.293561   0.000000
    8        8.727016   0.000000
 
 -0.1875000E+00  0.3125000E+00  0.6250000E-01  0.2343750E-01
    1       -5.448091   1.000000
    2       -2.028774   1.000000
    3        0.499492   1.000000
    4        1.985282   1.000000
    5        5.290505   0.000000
    6        6.659218   0.000000
    7        7.636634   0.000000
    8        8.073662   0.000000
 
 -0.6250000E-01  0.3125000E+00  0.6250000E-01  0.2343750E-01
    1       -5.983965   1.000000
    2       -1.345637   1.000000
    3        1.617006   1.000000
    4        2.295254   1.000000
    5        4.666557   0.000000
    6        6.177084   0.000000
    7        6.896406   0.000000
    8        8.250639   0.000000
 
  0.4375000E+00  0.4375000E+00  0.6250000E-01  0.1171875E-01
    1       -4.870978   1.000000
    2       -2.726876   1.000000
    3        0.994264   1.000000
    4        1.132820   1.000000
    5        4.219609   0.000000
    6        4.834434   0.000000
    7        9.774202   0.000000
    8        9.906164   0.000000
 
 -0.4375000E+00  0.4375000E+00  0.6250000E-01  0.2343750E-01
    1       -4.194030   1.000000
    2       -3.493890   1.000000
    3        0.621930   1.000000
    4        0.973352   1.000000
    5        4.571121   0.000000
    6        5.129137   0.000000
    7        9.666136   0.000000
    8       10.210785   0.000000
 
 -0.3125000E+00  0.4375000E+00  0.6250000E-01  0.2343750E-01
    1       -4.320560   1.000000
    2       -3.328444   1.000000
    3        0.126397   1.000000
    4        1.207320   1.000000
    5        4.807001   0.000000
    6        6.867829   0.000000
    7        8.550996   0.000000
    8        9.234386   0.000000
 
 -0.1875000E+00  0.4375000E+00  0.6250000E-01  0.2343750E-01
    1       -4.908223   1.000000
    2       -2.813385   1.000000
    3        0.394671   1.000000
    4        1.647537   1.000000
    5        5.093038   0.000000
    6        6.808662   0.000000
    7        7.968187   0.000000
    8        9.096120   0.000000
 
 -0.6250000E-01  0.4375000E+00  0.6250000E-01  0.2343750E-01
    1       -5.358920   1.000000
    2       -2.520654   1.000000
    3        1.425859   1.000000
    4        2.056236   1.000000
    5        4.474585   0.000000
    6        6.342384   0.000000
    7        6.860900   0.000000
    8        9.633263   0.000000
 
 -0.4375000E+00 -0.4375000E+00  0.6250000E-01  0.1171875E-01
    1       -4.218798   1.000000
    2       -3.498660   1.000000
    3        0.889473   1.000000
    4        1.037570   1.000000
    5        4.255206   0.000000
    6        4.540690   0.000000
    7       10.499488   0.000000
    8       10.546299   0.000000
 
 -0.3125000E+00 -0.4375000E+00  0.6250000E-01  0.2343750E-01
    1       -4.816119   1.000000
    2       -2.778299   1.000000
    3        0.729209   1.000000
    4        1.097055   1.000000
    5        4.610134   0.000000
    6        5.326987   0.000000
    7        8.854177   0.000000
    8        9.824719   0.000000
 
 -0.1875000E+00 -0.4375000E+00  0.6250000E-01  0.2343750E-01
    1       -5.199666   1.000000
    2       -2.402810   1.000000
    3        0.687839   1.000000
    4        1.538141   1.000000
    5        5.013196   0.000000
    6        6.681736   0.000000
    7        7.528259   0.000000
    8        8.279214   0.000000
 
 -0.3125000E+00 -0.3125000E+00  0.6250000E-01  0.1171875E-01
    1       -5.447785   1.000000
    2       -1.912713   1.000000
    3        1.201869   1.000000
    4        1.320961   1.000000
    5        4.289341   0.000000
    6        5.245539   0.000000
    7        8.910467   0.000000
    8        9.088196   0.000000
 
 -0.1875000E+00 -0.3125000E+00  0.6250000E-01  0.2343750E-01
    1       -5.855176   1.000000
    2       -1.282190   1.000000
    3        1.238595   1.000000
    4        1.705890   1.000000
    5        4.911392   0.000000
    6        5.863976   0.000000
    7        7.507718   0.000000
    8        8.155081   0.000000
 
 -0.1875000E+00 -0.1875000E+00  0.6250000E-01  0.1171875E-01
    1       -6.341674   1.000000
    2       -0.203080   1.000000
    3        1.901695   1.000000
    4        1.948468   1.000000
    5        4.737241   0.000000
    6        5.765746   0.000000
    7        7.423240   0.000000
    8        7.434062   0.000000
 
  0.1875000E+00  0.1875000E+00  0.1875000E+00  0.3906250E-02
    1       -6.650591   1.000000
    2        0.420002   1.000000
    3        2.731209   0.999999
    4        2.731209   0.999999
    5        4.207767   0.000000
    6        6.090989   0.000000
    7        6.090989   0.000000
    8        6.983614   0.000000
 
  0.3125000E+00  0.1875000E+00  0.1875000E+00  0.1171875E-01
    1       -6.352991   1.000000
    2       -0.379355   1.000000
    3        1.620146   1.000000
    4        2.713643   0.999999
    5        4.860557   0.000000
    6        6.209469   0.000000
    7        6.368105   0.000000
    8        7.613061   0.000000
 
  0.4375000E+00  0.1875000E+00  0.1875000E+00  0.1171875E-01
    1       -5.794809   1.000000
    2       -1.516918   1.000000
    3        0.813121   1.000000
    4        2.338270   1.000000
    5        5.077115   0.000000
    6        6.825432   0.000000
    7        6.924219   0.000000
    8        7.974617   0.000000
 
 -0.4375000E+00  0.1875000E+00  0.1875000E+00  0.1171875E-01
    1       -5.162007   1.000000
    2       -2.573521   1.000000
    3        0.609745   1.000000
    4        1.947041   1.000000
    5        4.909349   0.000000
    6        6.845512   0.000000
    7        7.287706   0.000000
    8        9.443919   0.000000
 
 -0.3125000E+00  0.1875000E+00  0.1875000E+00  0.1171875E-01
    1       -5.147333   1.000000
    2       -2.597239   1.000000
    3        0.805650   1.000000
    4        1.718802   1.000000
    5        4.840556   0.000000
    6        6.697837   0.000000
    7        7.587276   0.000000
    8        8.390425   0.000000
 
 -0.1875000E+00  0.1875000E+00  0.1875000E+00  0.1171875E-01
    1       -5.776555   1.000000
    2       -1.525309   1.000000
    3        1.292521   1.000000
    4        1.716995   1.000000
    5        4.899005   0.000000
    6        6.179612   0.000000
    7        7.526639   0.000000
    8        7.751747   0.000000
 
  0.3125000E+00  0.3125000E+00  0.1875000E+00  0.1171875E-01
    1       -6.159149   1.000000
    2       -0.874899   1.000000
    3        1.870580   1.000000
    4        2.035585   1.000000
    5        4.894302   0.000000
    6        5.879808   0.000000
    7        7.125523   0.000000
    8        7.683393   0.000000
 
  0.4375000E+00  0.3125000E+00  0.1875000E+00  0.2343750E-01
    1       -5.688576   1.000000
    2       -1.629336   1.000000
    3        0.856525   1.000000
    4        1.873940   1.000000
    5        5.507541   0.000000
    6        5.986662   0.000000
    7        7.290392   0.000000
    8        8.049895   0.000000
 
 -0.4375000E+00  0.3125000E+00  0.1875000E+00  0.2343750E-01
    1       -5.037265   1.000000
    2       -2.530288   1.000000
    3        0.294314   1.000000
    4        1.484373   1.000000
    5        5.745883   0.000000
    6        6.502063   0.000000
    7        7.495952   0.000000
    8        8.864520   0.000000
 
 -0.3125000E+00  0.3125000E+00  0.1875000E+00  0.2343750E-01
    1       -4.699268   1.000000
    2       -2.960366   1.000000
    3        0.262690   1.000000
    4        1.268489   1.000000
    5        5.552570   0.000000
    6        6.687032   0.000000
    7        8.059213   0.000000
    8        8.815241   0.000000
 
 -0.1875000E+00  0.3125000E+00  0.1875000E+00  0.2343750E-01
    1       -5.234186   1.000000
    2       -2.254823   1.000000
    3        0.599280   1.000000
    4        1.390383   1.000000
    5        5.435806   0.000000
    6        6.212114   0.000000
    7        7.222644   0.000000
    8        8.949116   0.000000
 
  0.4375000E+00  0.4375000E+00  0.1875000E+00  0.1171875E-01
    1       -5.313303   1.000000
    2       -2.176861   1.000000
    3        0.816050   1.000000
    4        1.462644   1.000000
    5        4.709957   0.000000
    6        6.224969   0.000000
    7        7.894655   0.000000
    8        8.424624   0.000000
 
 -0.4375000E+00  0.4375000E+00  0.1875000E+00  0.2343750E-01
    1       -4.714443   1.000000
    2       -2.880452   1.000000
    3        0.443339   1.000000
    4        1.013304   1.000000
    5        5.324323   0.000000
    6        6.118273   0.000000
    7        7.746613   0.000000
    8        9.662818   0.000000
 
 -0.3125000E+00  0.4375000E+00  0.1875000E+00  0.2343750E-01
    1       -4.129243   1.000000
    2       -3.486137   1.000000
    3        0.246862   1.000000
    4        0.669527   1.000000
    5        6.190865   0.000000
    6        6.968960   0.000000
    7        7.417141   0.000000
    8        8.201408   0.000000
 
 -0.1875000E+00  0.4375000E+00  0.1875000E+00  0.2343750E-01
    1       -4.582133   1.000000
    2       -3.023038   1.000000
    3        0.214082   1.000000
    4        1.006031   1.000000
    5        6.159056   0.000000
    6        6.590070   0.000000
    7        7.271107   0.000000
    8        9.027932   0.000000
 
 -0.4375000E+00 -0.4375000E+00  0.1875000E+00  0.1171875E-01
    1       -4.235619   1.000000
    2       -3.437102   1.000000
    3        0.313001   1.000000
    4        1.197420   1.000000
    5        4.449100   0.000000
    6        5.913055   0.000000
    7        9.544323   0.000000
    8        9.684491   0.000000
 
 -0.3125000E+00 -0.4375000E+00  0.1875000E+00  0.2343750E-01
    1       -4.157030   1.000000
    2       -3.488600   1.000000
    3        0.380698   1.000000
    4        0.799167   1.000000
    5        5.266192   0.000000
    6        5.992844   0.000000
    7        8.520264   0.000000
    8        9.334523   0.000000
 
 -0.3125000E+00 -0.3125000E+00  0.1875000E+00  0.1171875E-01
    1       -4.784239   1.000000
    2       -2.827724   1.000000
    3        0.482987   1.000000
    4        1.286928   1.000000
    5        4.541872   0.000000
    6        6.039620   0.000000
    7        8.688876   0.000000
    8        9.115369   0.000000
 
  0.3125000E+00  0.3125000E+00  0.3125000E+00  0.3906250E-02
    1       -6.085307   1.000000
    2       -1.294698   1.000000
    3        2.398025   1.000000
    4        2.398025   1.000000
    5        3.888313   0.000239
    6        6.427722   0.000000
    7        6.427722   0.000000
    8        8.861322   0.000000
 
  0.4375000E+00  0.3125000E+00  0.3125000E+00  0.1171875E-01
    1       -5.730574   1.000000
    2       -1.819310   1.000000
    3        1.247445   1.000000
    4        2.321881   1.000000
    5        4.674919   0.000000
    6        6.627667   0.000000
    7        6.652642   0.000000
    8        8.808129   0.000000
 
 -0.4375000E+00  0.3125000E+00  0.3125000E+00  0.1171875E-01
    1       -5.146291   1.000000
    2       -2.432789   1.000000
    3        0.231882   1.000000
    4        1.902899   1.000000
    5        5.007835   0.000000
    6        7.584450   0.000000
    7        7.640844   0.000000
    8        8.522000   0.000000
 
 -0.3125000E+00  0.3125000E+00  0.3125000E+00  0.1171875E-01
    1       -4.552495   1.000000
    2       -3.093489   1.000000
    3        0.026715   1.000000
    4        1.499350   1.000000
    5        4.728394   0.000000
    6        7.815124   0.000000
    7        8.570630   0.000000
    8        8.623407   0.000000
 
  0.4375000E+00  0.4375000E+00  0.3125000E+00  0.1171875E-01
    1       -5.507626   1.000000
    2       -2.225167   1.000000
    3        1.436315   1.000000
    4        1.920268   1.000000
    5        4.649294   0.000000
    6        6.286806   0.000000
    7        7.091610   0.000000
    8        8.728383   0.000000
 
 -0.4375000E+00  0.4375000E+00  0.3125000E+00  0.2343750E-01
    1       -5.054116   1.000000
    2       -2.636386   1.000000
    3        0.541232   1.000000
    4        1.599488   1.000000
    5        5.401014   0.000000
    6        6.325974   0.000000
    7        7.916060   0.000000
    8        8.602438   0.000000
 
 -0.3125000E+00  0.4375000E+00  0.3125000E+00  0.2343750E-01
    1       -4.442381   1.000000
    2       -3.182212   1.000000
    3        0.096227   1.000000
    4        1.095327   1.000000
    5        5.537212   0.000000
    6        7.359306   0.000000
    7        7.991035   0.000000
    8        8.282209   0.000000
 
 -0.4375000E+00 -0.4375000E+00  0.3125000E+00  0.1171875E-01
    1       -4.796717   1.000000
    2       -2.898571   1.000000
    3        0.306419   1.000000
    4        1.574357   1.000000
    5        4.792388   0.000000
    6        7.410250   0.000000
    7        8.146150   0.000000
    8        8.208387   0.000000
 
  0.4375000E+00  0.4375000E+00  0.4375000E+00  0.3906250E-02
    1       -5.463085   1.000000
    2       -2.511035   1.000000
    3        2.213764   1.000000
    4        2.213764   1.000000
    5        3.676236   0.023093
    6        6.455233   0.000000
    7        6.455233   0.000000
    8       10.176749   0.000000
 
 -0.4375000E+00  0.4375000E+00  0.4375000E+00  0.1171875E-01
    1       -5.213424   1.000000
    2       -2.698847   1.000000
    3        1.209136   1.000000
    4        2.026088   1.000000
    5        4.566573   0.000000
    6        6.451467   0.000000
    7        6.888173   0.000000
    8       10.018960   0.000000
