   2   2   0   0
  0.2001288E+02  0.3839590E-09  0.3839590E-09  0.3839590E-09  0.5000000E-15
  1.000000000000000E-004
  CAR 
 unknown system                          
     16.56186784     -8.11731270  301      6.12650615      1.00000000
     -8.117  0.0000E+00  0.0000E+00
     -8.035  0.0000E+00  0.0000E+00
     -7.953  0.0000E+00  0.0000E+00
     -7.871  0.0000E+00  0.0000E+00
     -7.788  0.0000E+00  0.0000E+00
     -7.706  0.0000E+00  0.0000E+00
     -7.624  0.0000E+00  0.0000E+00
     -7.541  0.0000E+00  0.0000E+00
     -7.459  0.0000E+00  0.0000E+00
     -7.377  0.0000E+00  0.0000E+00
     -7.295  0.7198E-18  0.5921E-19
     -7.212  0.6190E-16  0.5151E-17
     -7.130  0.5099E-14  0.4246E-15
     -7.048  0.2996E-12  0.2507E-13
     -6.966  0.1261E-10  0.1063E-11
     -6.883  0.3806E-09  0.3237E-10
     -6.801  0.8237E-08  0.7100E-09
     -6.719  0.1279E-06  0.1123E-07
     -6.637  0.1426E-05  0.1285E-06
     -6.554  0.1142E-04  0.1068E-05
     -6.472  0.6568E-04  0.6471E-05
     -6.390  0.2717E-03  0.2882E-04
     -6.308  0.8080E-03  0.9529E-04
     -6.225  0.1729E-02  0.2376E-03
     -6.143  0.2668E-02  0.4570E-03
     -6.061  0.3001E-02  0.7040E-03
     -5.978  0.2680E-02  0.9244E-03
     -5.896  0.2858E-02  0.1160E-02
     -5.814  0.5594E-02  0.1620E-02
     -5.732  0.1249E-01  0.2647E-02
     -5.649  0.2250E-01  0.4498E-02
     -5.567  0.3131E-01  0.7074E-02
     -5.485  0.3446E-01  0.9908E-02
     -5.403  0.3075E-01  0.1244E-01
     -5.320  0.2231E-01  0.1427E-01
     -5.238  0.1292E-01  0.1534E-01
     -5.156  0.6099E-02  0.1584E-01
     -5.074  0.3785E-02  0.1615E-01
     -4.991  0.6917E-02  0.1672E-01
     -4.909  0.1589E-01  0.1803E-01
     -4.827  0.2788E-01  0.2032E-01
     -4.744  0.3547E-01  0.2324E-01
     -4.662  0.3324E-01  0.2597E-01
     -4.580  0.2595E-01  0.2811E-01
     -4.498  0.2637E-01  0.3028E-01
     -4.415  0.4379E-01  0.3388E-01
     -4.333  0.7286E-01  0.3987E-01
     -4.251  0.9305E-01  0.4753E-01
     -4.169  0.8672E-01  0.5466E-01
     -4.086  0.5858E-01  0.5948E-01
     -4.004  0.2866E-01  0.6184E-01
     -3.922  0.1019E-01  0.6268E-01
     -3.840  0.2898E-02  0.6291E-01
     -3.757  0.2205E-02  0.6310E-01
     -3.675  0.7378E-02  0.6370E-01
     -3.593  0.2237E-01  0.6554E-01
     -3.511  0.4923E-01  0.6959E-01
     -3.428  0.7807E-01  0.7601E-01
     -3.346  0.8973E-01  0.8340E-01
     -3.264  0.7703E-01  0.8973E-01
     -3.181  0.5684E-01  0.9441E-01
     -3.099  0.5137E-01  0.9864E-01
     -3.017  0.6269E-01  0.1038E+00
     -2.935  0.7215E-01  0.1097E+00
     -2.852  0.6359E-01  0.1150E+00
     -2.770  0.4081E-01  0.1183E+00
     -2.688  0.1892E-01  0.1199E+00
     -2.606  0.6540E-02  0.1204E+00
     -2.523  0.2812E-02  0.1206E+00
     -2.441  0.5104E-02  0.1211E+00
     -2.359  0.1296E-01  0.1221E+00
     -2.277  0.2481E-01  0.1242E+00
     -2.194  0.3427E-01  0.1270E+00
     -2.112  0.3408E-01  0.1298E+00
     -2.030  0.2450E-01  0.1318E+00
     -1.948  0.1331E-01  0.1329E+00
     -1.865  0.7815E-02  0.1335E+00
     -1.783  0.1073E-01  0.1344E+00
     -1.701  0.2070E-01  0.1361E+00
     -1.618  0.3178E-01  0.1387E+00
     -1.536  0.3545E-01  0.1417E+00
     -1.454  0.2848E-01  0.1440E+00
     -1.372  0.1650E-01  0.1454E+00
     -1.289  0.7151E-02  0.1460E+00
     -1.207  0.3785E-02  0.1463E+00
     -1.125  0.7739E-02  0.1469E+00
     -1.043  0.2260E-01  0.1488E+00
     -0.960  0.5173E-01  0.1530E+00
     -0.878  0.8972E-01  0.1604E+00
     -0.796  0.1199E+00  0.1703E+00
     -0.714  0.1257E+00  0.1806E+00
     -0.631  0.1065E+00  0.1894E+00
     -0.549  0.7811E-01  0.1958E+00
     -0.467  0.5786E-01  0.2005E+00
     -0.385  0.4834E-01  0.2045E+00
     -0.302  0.4056E-01  0.2079E+00
     -0.220  0.2875E-01  0.2102E+00
     -0.138  0.1580E-01  0.2115E+00
     -0.055  0.6536E-02  0.2121E+00
      0.027  0.2045E-02  0.2122E+00
      0.109  0.7623E-03  0.2123E+00
      0.191  0.1815E-02  0.2124E+00
      0.274  0.7057E-02  0.2130E+00
      0.356  0.2054E-01  0.2147E+00
      0.438  0.4305E-01  0.2182E+00
      0.520  0.6493E-01  0.2236E+00
      0.603  0.7048E-01  0.2294E+00
      0.685  0.5506E-01  0.2339E+00
      0.767  0.3095E-01  0.2365E+00
      0.849  0.1253E-01  0.2375E+00
      0.932  0.3760E-02  0.2378E+00
      1.014  0.1455E-02  0.2379E+00
      1.096  0.3059E-02  0.2382E+00
      1.179  0.9006E-02  0.2389E+00
      1.261  0.1978E-01  0.2405E+00
      1.343  0.3140E-01  0.2431E+00
      1.425  0.3658E-01  0.2461E+00
      1.508  0.3385E-01  0.2489E+00
      1.590  0.3307E-01  0.2516E+00
      1.672  0.4677E-01  0.2555E+00
      1.754  0.7477E-01  0.2616E+00
      1.837  0.9917E-01  0.2698E+00
      1.919  0.9932E-01  0.2780E+00
      2.001  0.7393E-01  0.2840E+00
      2.083  0.4241E-01  0.2875E+00
      2.166  0.2517E-01  0.2896E+00
      2.248  0.2971E-01  0.2921E+00
      2.330  0.4978E-01  0.2961E+00
      2.412  0.6879E-01  0.3018E+00
      2.495  0.7144E-01  0.3077E+00
      2.577  0.6153E-01  0.3127E+00
      2.659  0.6134E-01  0.3178E+00
      2.742  0.8594E-01  0.3249E+00
      2.824  0.1217E+00  0.3349E+00
      2.906  0.1394E+00  0.3463E+00
      2.988  0.1327E+00  0.3573E+00
      3.071  0.1277E+00  0.3678E+00
      3.153  0.1428E+00  0.3795E+00
      3.235  0.1591E+00  0.3926E+00
      3.317  0.1454E+00  0.4046E+00
      3.400  0.1008E+00  0.4129E+00
      3.482  0.5264E-01  0.4172E+00
      3.564  0.2439E-01  0.4192E+00
      3.646  0.2141E-01  0.4209E+00
      3.729  0.3822E-01  0.4241E+00
      3.811  0.6311E-01  0.4293E+00
      3.893  0.8139E-01  0.4360E+00
      3.975  0.8767E-01  0.4432E+00
      4.058  0.8959E-01  0.4506E+00
      4.140  0.9187E-01  0.4581E+00
      4.222  0.8892E-01  0.4654E+00
      4.305  0.7734E-01  0.4718E+00
      4.387  0.6133E-01  0.4768E+00
      4.469  0.4659E-01  0.4807E+00
      4.551  0.3886E-01  0.4839E+00
      4.634  0.4182E-01  0.4873E+00
      4.716  0.5049E-01  0.4915E+00
      4.798  0.5504E-01  0.4960E+00
      4.880  0.5324E-01  0.5004E+00
      4.963  0.5076E-01  0.5046E+00
      5.045  0.5074E-01  0.5087E+00
      5.127  0.5249E-01  0.5130E+00
      5.209  0.5527E-01  0.5176E+00
      5.292  0.5522E-01  0.5221E+00
      5.374  0.4643E-01  0.5260E+00
      5.456  0.3011E-01  0.5284E+00
      5.539  0.1472E-01  0.5296E+00
      5.621  0.6323E-02  0.5302E+00
      5.703  0.4737E-02  0.5305E+00
      5.785  0.6718E-02  0.5311E+00
      5.868  0.8719E-02  0.5318E+00
      5.950  0.8387E-02  0.5325E+00
      6.032  0.5940E-02  0.5330E+00
      6.114  0.3619E-02  0.5333E+00
      6.197  0.3678E-02  0.5336E+00
      6.279  0.7141E-02  0.5342E+00
      6.361  0.1293E-01  0.5352E+00
      6.443  0.1745E-01  0.5367E+00
      6.526  0.1751E-01  0.5381E+00
      6.608  0.1471E-01  0.5393E+00
      6.690  0.1501E-01  0.5406E+00
      6.772  0.2222E-01  0.5424E+00
      6.855  0.3278E-01  0.5451E+00
      6.937  0.3882E-01  0.5483E+00
      7.019  0.3757E-01  0.5514E+00
      7.102  0.3446E-01  0.5542E+00
      7.184  0.3502E-01  0.5571E+00
      7.266  0.3935E-01  0.5603E+00
      7.348  0.4630E-01  0.5641E+00
      7.431  0.5763E-01  0.5689E+00
      7.513  0.7423E-01  0.5750E+00
      7.595  0.9024E-01  0.5824E+00
      7.677  0.9680E-01  0.5904E+00
      7.760  0.9440E-01  0.5981E+00
      7.842  0.9296E-01  0.6058E+00
      7.924  0.9464E-01  0.6136E+00
      8.006  0.8936E-01  0.6209E+00
      8.089  0.7118E-01  0.6268E+00
      8.171  0.4687E-01  0.6306E+00
      8.253  0.2690E-01  0.6328E+00
      8.335  0.1607E-01  0.6342E+00
      8.418  0.1276E-01  0.6352E+00
      8.500  0.1367E-01  0.6363E+00
      8.582  0.1842E-01  0.6379E+00
      8.665  0.2776E-01  0.6401E+00
      8.747  0.3856E-01  0.6433E+00
      8.829  0.4615E-01  0.6471E+00
      8.911  0.5227E-01  0.6514E+00
      8.994  0.6560E-01  0.6568E+00
      9.076  0.9434E-01  0.6646E+00
      9.158  0.1368E+00  0.6758E+00
      9.240  0.1726E+00  0.6900E+00
      9.323  0.1739E+00  0.7043E+00
      9.405  0.1393E+00  0.7158E+00
      9.487  0.1020E+00  0.7242E+00
      9.569  0.9079E-01  0.7316E+00
      9.652  0.1023E+00  0.7401E+00
      9.734  0.1174E+00  0.7497E+00
      9.816  0.1274E+00  0.7602E+00
      9.898  0.1316E+00  0.7710E+00
      9.981  0.1274E+00  0.7815E+00
     10.063  0.1167E+00  0.7911E+00
     10.145  0.1116E+00  0.8003E+00
     10.228  0.1199E+00  0.8102E+00
     10.310  0.1340E+00  0.8212E+00
     10.392  0.1429E+00  0.8329E+00
     10.474  0.1462E+00  0.8450E+00
     10.557  0.1519E+00  0.8574E+00
     10.639  0.1652E+00  0.8710E+00
     10.721  0.1778E+00  0.8857E+00
     10.803  0.1701E+00  0.8997E+00
     10.886  0.1332E+00  0.9106E+00
     10.968  0.8266E-01  0.9174E+00
     11.050  0.4516E-01  0.9211E+00
     11.132  0.3562E-01  0.9241E+00
     11.215  0.4974E-01  0.9282E+00
     11.297  0.6928E-01  0.9339E+00
     11.379  0.7607E-01  0.9401E+00
     11.462  0.6796E-01  0.9457E+00
     11.544  0.5631E-01  0.9503E+00
     11.626  0.4794E-01  0.9543E+00
     11.708  0.4077E-01  0.9576E+00
     11.791  0.3422E-01  0.9605E+00
     11.873  0.3034E-01  0.9629E+00
     11.955  0.2716E-01  0.9652E+00
     12.037  0.2089E-01  0.9669E+00
     12.120  0.1234E-01  0.9679E+00
     12.202  0.5355E-02  0.9684E+00
     12.284  0.1681E-02  0.9685E+00
     12.366  0.3803E-03  0.9685E+00
     12.449  0.6186E-04  0.9685E+00
     12.531  0.7231E-05  0.9685E+00
     12.613  0.6078E-06  0.9685E+00
     12.695  0.5725E-07  0.9685E+00
     12.778  0.4126E-06  0.9685E+00
     12.860  0.5865E-05  0.9685E+00
     12.942  0.6012E-04  0.9685E+00
     13.025  0.4430E-03  0.9686E+00
     13.107  0.2351E-02  0.9688E+00
     13.189  0.9019E-02  0.9695E+00
     13.271  0.2520E-01  0.9716E+00
     13.354  0.5220E-01  0.9759E+00
     13.436  0.8311E-01  0.9827E+00
     13.518  0.1080E+00  0.9916E+00
     13.600  0.1221E+00  0.1002E+01
     13.683  0.1224E+00  0.1012E+01
     13.765  0.1067E+00  0.1020E+01
     13.847  0.8191E-01  0.1027E+01
     13.929  0.6089E-01  0.1032E+01
     14.012  0.4664E-01  0.1036E+01
     14.094  0.3467E-01  0.1039E+01
     14.176  0.2611E-01  0.1041E+01
     14.258  0.2712E-01  0.1043E+01
     14.341  0.3840E-01  0.1046E+01
     14.423  0.5229E-01  0.1051E+01
     14.505  0.5935E-01  0.1056E+01
     14.588  0.5490E-01  0.1060E+01
     14.670  0.4075E-01  0.1064E+01
     14.752  0.2361E-01  0.1065E+01
     14.834  0.1037E-01  0.1066E+01
     14.917  0.3372E-02  0.1067E+01
     14.999  0.8017E-03  0.1067E+01
     15.081  0.1382E-03  0.1067E+01
     15.163  0.1718E-04  0.1067E+01
     15.246  0.1538E-05  0.1067E+01
     15.328  0.9895E-07  0.1067E+01
     15.410  0.4570E-08  0.1067E+01
     15.492  0.1514E-09  0.1067E+01
     15.575  0.3596E-11  0.1067E+01
     15.657  0.6119E-13  0.1067E+01
     15.739  0.7601E-15  0.1067E+01
     15.821  0.0000E+00  0.1067E+01
     15.904  0.0000E+00  0.1067E+01
     15.986  0.0000E+00  0.1067E+01
     16.068  0.0000E+00  0.1067E+01
     16.151  0.0000E+00  0.1067E+01
     16.233  0.0000E+00  0.1067E+01
     16.315  0.0000E+00  0.1067E+01
     16.397  0.0000E+00  0.1067E+01
     16.480  0.0000E+00  0.1067E+01
     16.562  0.0000E+00  0.1067E+01
