<?xml version="1.0" encoding="ISO-8859-1"?>
<modeling>
 <generator>
  <i name="program" type="string">vasp </i>
  <i name="version" type="string">5.4.4.18Apr17-6-g9f103f2a35  </i>
  <i name="subversion" type="string">(build Dec 09 2018 21:25:21) complex            parallel </i>
  <i name="platform" type="string">IFC18.0.1.163_CrayMPICH7.7.0_MKL18.0.1.163 </i>
  <i name="date" type="string">2019 03 19 </i>
  <i name="time" type="string">13:24:16 </i>
 </generator>
 <incar>
  <i type="string" name="PREC">normal</i>
  <i type="int" name="IBRION">     2</i>
  <i name="EDIFF">      0.00040000</i>
  <i name="EDIFFG">     -0.01000000</i>
  <i type="int" name="NSW">    15</i>
  <i type="int" name="ISIF">     2</i>
  <i name="ENCUT">    150.00000000</i>
  <i type="int" name="NBANDS">     8</i>
  <i type="logical" name="LREAL"> F  </i>
  <i type="int" name="ISMEAR">     0</i>
  <i name="SIGMA">      0.20000000</i>
  <v type="int" name="KPOINT_BSE">    -1     0     0     0</v>
 </incar>
 <structure name="primitive_cell" >
  <crystal>
   <varray name="basis" >
    <v>       0.00000000       2.71500000       2.71500000 </v>
    <v>       2.71500000       0.00000000       2.71500000 </v>
    <v>       2.71500000       2.71500000       0.00000000 </v>
   </varray>
   <i name="volume">     40.02575175 </i>
   <varray name="rec_basis" >
    <v>      -0.18416206       0.18416206       0.18416206 </v>
    <v>       0.18416206      -0.18416206       0.18416206 </v>
    <v>       0.18416206       0.18416206      -0.18416206 </v>
   </varray>
  </crystal>
  <varray name="positions" >
   <v>      -0.50000000      -0.50000000      -0.50000000 </v>
   <v>      -0.25000000      -0.25000000      -0.25000000 </v>
  </varray>
 </structure>
 <varray name="primitive_index" >
  <v type="int" >        1 </v>
  <v type="int" >        2 </v>
 </varray>
 <kpoints>
  <generation param="Monkhorst-Pack">
   <v type="int" name="divisions">      11       11       11 </v>
   <v name="usershift">      0.00000000       0.00000000       0.00000000 </v>
   <v name="genvec1">      0.09090909       0.00000000      -0.00000000 </v>
   <v name="genvec2">      0.00000000       0.09090909       0.00000000 </v>
   <v name="genvec3">     -0.00000000      -0.00000000       0.09090909 </v>
   <v name="shift">      0.00000000       0.00000000       0.00000000 </v>
  </generation>
  <varray name="kpointlist" >
   <v>       0.00000000       0.00000000       0.00000000 </v>
   <v>       0.09090909      -0.00000000       0.00000000 </v>
   <v>       0.18181818      -0.00000000       0.00000000 </v>
   <v>       0.27272727       0.00000000       0.00000000 </v>
   <v>       0.36363636      -0.00000000       0.00000000 </v>
   <v>       0.45454545       0.00000000       0.00000000 </v>
   <v>       0.09090909       0.09090909       0.00000000 </v>
   <v>       0.18181818       0.09090909       0.00000000 </v>
   <v>       0.27272727       0.09090909       0.00000000 </v>
   <v>       0.36363636       0.09090909       0.00000000 </v>
   <v>       0.45454545       0.09090909       0.00000000 </v>
   <v>      -0.45454545       0.09090909      -0.00000000 </v>
   <v>      -0.36363636       0.09090909      -0.00000000 </v>
   <v>      -0.27272727       0.09090909      -0.00000000 </v>
   <v>      -0.18181818       0.09090909      -0.00000000 </v>
   <v>      -0.09090909       0.09090909      -0.00000000 </v>
   <v>       0.18181818       0.18181818       0.00000000 </v>
   <v>       0.27272727       0.18181818       0.00000000 </v>
   <v>       0.36363636       0.18181818       0.00000000 </v>
   <v>       0.45454545       0.18181818       0.00000000 </v>
   <v>      -0.45454545       0.18181818       0.00000000 </v>
   <v>      -0.36363636       0.18181818      -0.00000000 </v>
   <v>      -0.27272727       0.18181818      -0.00000000 </v>
   <v>      -0.18181818       0.18181818      -0.00000000 </v>
   <v>       0.27272727       0.27272727       0.00000000 </v>
   <v>       0.36363636       0.27272727       0.00000000 </v>
   <v>       0.45454545       0.27272727       0.00000000 </v>
   <v>      -0.45454545       0.27272727       0.00000000 </v>
   <v>      -0.36363636       0.27272727       0.00000000 </v>
   <v>      -0.27272727       0.27272727      -0.00000000 </v>
   <v>       0.36363636       0.36363636       0.00000000 </v>
   <v>       0.45454545       0.36363636       0.00000000 </v>
   <v>      -0.45454545       0.36363636      -0.00000000 </v>
   <v>      -0.36363636       0.36363636      -0.00000000 </v>
   <v>       0.45454545       0.45454545       0.00000000 </v>
   <v>      -0.45454545       0.45454545      -0.00000000 </v>
   <v>       0.27272727       0.18181818       0.09090909 </v>
   <v>       0.36363636       0.18181818       0.09090909 </v>
   <v>       0.45454545       0.18181818       0.09090909 </v>
   <v>      -0.45454545       0.18181818       0.09090909 </v>
   <v>       0.36363636       0.27272727       0.09090909 </v>
   <v>       0.45454545       0.27272727       0.09090909 </v>
   <v>      -0.45454545       0.27272727       0.09090909 </v>
   <v>      -0.36363636       0.27272727       0.09090909 </v>
   <v>      -0.27272727       0.27272727       0.09090909 </v>
   <v>      -0.18181818       0.27272727       0.09090909 </v>
   <v>       0.45454545       0.36363636       0.09090909 </v>
   <v>      -0.45454545       0.36363636       0.09090909 </v>
   <v>      -0.36363636       0.36363636       0.09090909 </v>
   <v>      -0.27272727       0.36363636       0.09090909 </v>
   <v>      -0.45454545       0.45454545       0.09090909 </v>
   <v>      -0.36363636       0.45454545       0.09090909 </v>
   <v>      -0.45454545       0.36363636       0.18181818 </v>
   <v>      -0.36363636       0.36363636       0.18181818 </v>
   <v>      -0.36363636       0.45454545       0.18181818 </v>
   <v>      -0.27272727       0.45454545       0.18181818 </v>
  </varray>
  <varray name="weights" >
   <v>       0.00075131 </v>
   <v>       0.00601052 </v>
   <v>       0.00601052 </v>
   <v>       0.00601052 </v>
   <v>       0.00601052 </v>
   <v>       0.00601052 </v>
   <v>       0.00450789 </v>
   <v>       0.01803156 </v>
   <v>       0.01803156 </v>
   <v>       0.01803156 </v>
   <v>       0.01803156 </v>
   <v>       0.01803156 </v>
   <v>       0.01803156 </v>
   <v>       0.01803156 </v>
   <v>       0.01803156 </v>
   <v>       0.00901578 </v>
   <v>       0.00450789 </v>
   <v>       0.01803156 </v>
   <v>       0.01803156 </v>
   <v>       0.01803156 </v>
   <v>       0.01803156 </v>
   <v>       0.01803156 </v>
   <v>       0.01803156 </v>
   <v>       0.00901578 </v>
   <v>       0.00450789 </v>
   <v>       0.01803156 </v>
   <v>       0.01803156 </v>
   <v>       0.01803156 </v>
   <v>       0.01803156 </v>
   <v>       0.00901578 </v>
   <v>       0.00450789 </v>
   <v>       0.01803156 </v>
   <v>       0.01803156 </v>
   <v>       0.00901578 </v>
   <v>       0.00450789 </v>
   <v>       0.00901578 </v>
   <v>       0.01803156 </v>
   <v>       0.03606311 </v>
   <v>       0.03606311 </v>
   <v>       0.03606311 </v>
   <v>       0.01803156 </v>
   <v>       0.03606311 </v>
   <v>       0.03606311 </v>
   <v>       0.03606311 </v>
   <v>       0.03606311 </v>
   <v>       0.01803156 </v>
   <v>       0.01803156 </v>
   <v>       0.03606311 </v>
   <v>       0.03606311 </v>
   <v>       0.01803156 </v>
   <v>       0.01803156 </v>
   <v>       0.01803156 </v>
   <v>       0.01803156 </v>
   <v>       0.03606311 </v>
   <v>       0.01803156 </v>
   <v>       0.01803156 </v>
  </varray>
 </kpoints>
 <parameters>
  <separator name="general" >
   <i type="string" name="SYSTEM">unknown system</i>
   <i type="logical" name="LCOMPAT"> F  </i>
  </separator>
  <separator name="electronic" >
   <i type="string" name="PREC">normal</i>
   <i name="ENMAX">    150.00000000</i>
   <i name="ENAUG">    322.06900000</i>
   <i name="EDIFF">      0.00040000</i>
   <i type="int" name="IALGO">    38</i>
   <i type="int" name="IWAVPR">    11</i>
   <i type="int" name="NBANDS">     8</i>
   <i name="NELECT">      8.00000000</i>
   <i type="int" name="TURBO">     0</i>
   <i type="int" name="IRESTART">     0</i>
   <i type="int" name="NREBOOT">     0</i>
   <i type="int" name="NMIN">     0</i>
   <i name="EREF">      0.00000000</i>
   <separator name="electronic smearing" >
    <i type="int" name="ISMEAR">     0</i>
    <i name="SIGMA">      0.20000000</i>
    <i name="KSPACING">      0.50000000</i>
    <i type="logical" name="KGAMMA"> T  </i>
   </separator>
   <separator name="electronic projectors" >
    <i type="logical" name="LREAL"> F  </i>
    <v name="ROPT">      0.00000000</v>
    <i type="int" name="LMAXPAW">  -100</i>
    <i type="int" name="LMAXMIX">     2</i>
    <i type="logical" name="NLSPLINE"> F  </i>
   </separator>
   <separator name="electronic startup" >
    <i type="int" name="ISTART">     1</i>
    <i type="int" name="ICHARG">     0</i>
    <i type="int" name="INIWAV">     1</i>
   </separator>
   <separator name="electronic spin" >
    <i type="int" name="ISPIN">     1</i>
    <i type="logical" name="LNONCOLLINEAR"> F  </i>
    <v name="MAGMOM">      1.00000000      1.00000000</v>
    <i name="NUPDOWN">     -1.00000000</i>
    <i type="logical" name="LSORBIT"> F  </i>
    <v name="SAXIS">      0.00000000      0.00000000      1.00000000</v>
    <i type="logical" name="LSPIRAL"> F  </i>
    <v name="QSPIRAL">      0.00000000      0.00000000      0.00000000</v>
    <i type="logical" name="LZEROZ"> F  </i>
   </separator>
   <separator name="electronic exchange-correlation" >
    <i type="logical" name="LASPH"> F  </i>
    <i type="logical" name="LMETAGGA"> F  </i>
   </separator>
   <separator name="electronic convergence" >
    <i type="int" name="NELM">    60</i>
    <i type="int" name="NELMDL">     0</i>
    <i type="int" name="NELMIN">     2</i>
    <i name="ENINI">    150.00000000</i>
    <separator name="electronic convergence detail" >
     <i type="logical" name="LDIAG"> T  </i>
     <i type="logical" name="LSUBROT"> F  </i>
     <i name="WEIMIN">      0.00100000</i>
     <i name="EBREAK">      0.00001250</i>
     <i name="DEPER">      0.30000000</i>
     <i type="int" name="NRMM">     4</i>
     <i name="TIME">      0.40000000</i>
    </separator>
   </separator>
   <separator name="electronic mixer" >
    <i name="AMIX">      0.40000000</i>
    <i name="BMIX">      1.00000000</i>
    <i name="AMIN">      0.10000000</i>
    <i name="AMIX_MAG">      1.60000000</i>
    <i name="BMIX_MAG">      1.00000000</i>
    <separator name="electronic mixer details" >
     <i type="int" name="IMIX">     4</i>
     <i type="logical" name="MIXFIRST"> F  </i>
     <i type="int" name="MAXMIX">   -45</i>
     <i name="WC">    100.00000000</i>
     <i type="int" name="INIMIX">     1</i>
     <i type="int" name="MIXPRE">     1</i>
     <i type="int" name="MREMOVE">     5</i>
    </separator>
   </separator>
   <separator name="electronic dipolcorrection" >
    <i type="logical" name="LDIPOL"> F  </i>
    <i type="logical" name="LMONO"> F  </i>
    <i type="int" name="IDIPOL">     0</i>
    <i name="EPSILON">      1.00000000</i>
    <v name="DIPOL">   -100.00000000   -100.00000000   -100.00000000</v>
    <i name="EFIELD">      0.00000000</i>
   </separator>
  </separator>
  <separator name="grids" >
   <i type="int" name="NGX">    12</i>
   <i type="int" name="NGY">    12</i>
   <i type="int" name="NGZ">    12</i>
   <i type="int" name="NGXF">    24</i>
   <i type="int" name="NGYF">    24</i>
   <i type="int" name="NGZF">    24</i>
   <i type="logical" name="ADDGRID"> F  </i>
  </separator>
  <separator name="ionic" >
   <i type="int" name="NSW">    15</i>
   <i type="int" name="IBRION">     2</i>
   <i type="int" name="MDALGO">     0</i>
   <i type="int" name="ISIF">     2</i>
   <i name="PSTRESS">      0.00000000</i>
   <i name="EDIFFG">     -0.01000000</i>
   <i type="int" name="NFREE">     1</i>
   <i name="POTIM">      0.50000000</i>
   <i name="SMASS">     -3.00000000</i>
   <i name="SCALEE">      1.00000000</i>
  </separator>
  <separator name="ionic md" >
   <i name="TEBEG">      0.00010000</i>
   <i name="TEEND">      0.00010000</i>
   <i type="int" name="NBLOCK">     1</i>
   <i type="int" name="KBLOCK">    15</i>
   <i type="int" name="NPACO">   256</i>
   <i name="APACO">     16.00000000</i>
  </separator>
  <separator name="symmetry" >
   <i type="int" name="ISYM">     2</i>
   <i name="SYMPREC">      0.00001000</i>
  </separator>
  <separator name="dos" >
   <i type="int" name="LORBIT">     0</i>
   <v name="RWIGS">     -1.00000000</v>
   <i type="int" name="NEDOS">   301</i>
   <i name="EMIN">     10.00000000</i>
   <i name="EMAX">    -10.00000000</i>
   <i name="EFERMI">      0.00000000</i>
  </separator>
  <separator name="writing" >
   <i type="int" name="NWRITE">     2</i>
   <i type="logical" name="LWAVE"> T  </i>
   <i type="logical" name="LDOWNSAMPLE"> F  </i>
   <i type="logical" name="LCHARG"> T  </i>
   <i type="logical" name="LPARD"> F  </i>
   <i type="logical" name="LVTOT"> F  </i>
   <i type="logical" name="LVHAR"> F  </i>
   <i type="logical" name="LELF"> F  </i>
   <i type="logical" name="LOPTICS"> F  </i>
   <v name="STM">      0.00000000      0.00000000      0.00000000      0.00000000      0.00000000      0.00000000      0.00000000</v>
  </separator>
  <separator name="performance" >
   <i type="int" name="NPAR">     8</i>
   <i type="int" name="NSIM">     4</i>
   <i type="int" name="NBLK">    -1</i>
   <i type="logical" name="LPLANE"> T  </i>
   <i type="logical" name="LSCALAPACK"> T  </i>
   <i type="logical" name="LSCAAWARE"> F  </i>
   <i type="logical" name="LSCALU"> F  </i>
   <i type="logical" name="LASYNC"> F  </i>
   <i type="logical" name="LORBITALREAL"> F  </i>
  </separator>
  <separator name="miscellaneous" >
   <i type="int" name="IDIOT">     3</i>
   <i type="int" name="ISPECIAL">     0</i>
   <i type="logical" name="LMUSIC"> F  </i>
   <v name="POMASS">     28.08500000</v>
   <v name="DARWINR">      0.00000000</v>
   <v name="DARWINV">      1.00000000</v>
   <i type="logical" name="LCORR"> T  </i>
  </separator>
  <i type="logical" name="GGA_COMPAT"> T  </i>
  <i type="logical" name="LBERRY"> F  </i>
  <i type="int" name="ICORELEVEL">     0</i>
  <i type="logical" name="LDAU"> F  </i>
  <i type="int" name="I_CONSTRAINED_M">     0</i>
  <separator name="electronic exchange-correlation" >
   <i type="string" name="GGA">--</i>
   <i type="int" name="VOSKOWN">     0</i>
   <i type="logical" name="LHFCALC"> F  </i>
   <i type="string" name="PRECFOCK"></i>
   <i type="logical" name="LSYMGRAD"> F  </i>
   <i type="logical" name="LHFONE"> F  </i>
   <i type="logical" name="LRHFCALC"> F  </i>
   <i type="logical" name="LTHOMAS"> F  </i>
   <i type="logical" name="LMODELHF"> F  </i>
   <i name="ENCUT4O">     -1.00000000</i>
   <i type="int" name="EXXOEP">     0</i>
   <i type="int" name="FOURORBIT">     0</i>
   <i name="AEXX">      0.00000000</i>
   <i name="HFALPHA">      0.00000000</i>
   <i name="MCALPHA">      0.00000000</i>
   <i name="ALDAX">      1.00000000</i>
   <i name="AGGAX">      1.00000000</i>
   <i name="ALDAC">      1.00000000</i>
   <i name="AGGAC">      1.00000000</i>
   <i type="int" name="NKREDX">     1</i>
   <i type="int" name="NKREDY">     1</i>
   <i type="int" name="NKREDZ">     1</i>
   <i type="logical" name="SHIFTRED"> F  </i>
   <i type="logical" name="ODDONLY"> F  </i>
   <i type="logical" name="EVENONLY"> F  </i>
   <i type="int" name="LMAXFOCK">     0</i>
   <i type="int" name="NMAXFOCKAE">     0</i>
   <i type="logical" name="LFOCKAEDFT"> F  </i>
   <i name="HFSCREEN">      0.00000000</i>
   <i name="HFSCREENC">      0.00000000</i>
   <i type="int" name="NBANDSGWLOW">     0</i>
  </separator>
  <separator name="vdW DFT" >
   <i type="logical" name="LUSE_VDW"> F  </i>
   <i name="Zab_VDW">     -0.84910000</i>
   <i name="PARAM1">      0.12340000</i>
   <i name="PARAM2">      1.00000000</i>
   <i name="PARAM3">      0.00000000</i>
  </separator>
  <separator name="model GW" >
   <i type="int" name="MODEL_GW">     0</i>
   <i name="MODEL_EPS0">     12.00772552</i>
   <i name="MODEL_ALPHA">      1.00000000</i>
  </separator>
  <separator name="linear response parameters" >
   <i type="logical" name="LEPSILON"> F  </i>
   <i type="logical" name="LRPA"> F  </i>
   <i type="logical" name="LNABLA"> F  </i>
   <i type="logical" name="LVEL"> F  </i>
   <i type="int" name="KINTER">     0</i>
   <i name="CSHIFT">      0.10000000</i>
   <i name="OMEGAMAX">     -1.00000000</i>
   <i name="DEG_THRESHOLD">      0.00200000</i>
   <i name="RTIME">     -0.10000000</i>
   <i name="WPLASMAI">      0.00000000</i>
   <v name="DFIELD">      0.00000000      0.00000000      0.00000000</v>
   <v name="WPLASMA">      0.00000000      0.00000000      0.00000000      0.00000000      0.00000000      0.00000000      0.00000000      0.00000000      0.00000000</v>
  </separator>
  <separator name="orbital magnetization" >
   <i type="logical" name="NUCIND"> F  </i>
   <v name="MAGPOS">      0.00000000      0.00000000      0.00000000</v>
   <i type="logical" name="LNICSALL"> T  </i>
   <i type="logical" name="ORBITALMAG"> F  </i>
   <i type="logical" name="LMAGBLOCH"> F  </i>
   <i type="logical" name="LCHIMAG"> F  </i>
   <i type="logical" name="LGAUGE"> T  </i>
   <i type="int" name="MAGATOM">     0</i>
   <v name="MAGDIPOL">      0.00000000      0.00000000      0.00000000</v>
   <v name="AVECCONST">      0.00000000      0.00000000      0.00000000</v>
  </separator>
  <separator name="response functions" >
   <i type="logical" name="LADDER"> F  </i>
   <i type="logical" name="LRPAFORCE"> F  </i>
   <i type="logical" name="LFXC"> F  </i>
   <i type="logical" name="LHARTREE"> T  </i>
   <i type="int" name="IBSE">     0</i>
   <v type="int" name="KPOINT">    -1     0     0     0</v>
   <i type="logical" name="LTCTE"> F  </i>
   <i type="logical" name="LTETE"> F  </i>
   <i type="logical" name="LTRIPLET"> F  </i>
   <i type="logical" name="LFXCEPS"> F  </i>
   <i type="logical" name="LFXHEG"> F  </i>
   <i type="int" name="NATURALO">     2</i>
   <i type="logical" name="L2ORDER"> F  </i>
   <i type="logical" name="LMP2LT"> F  </i>
   <i type="logical" name="LUSEW"> F  </i>
   <i name="ENCUTGW">     -2.00000000</i>
   <i name="ENCUTGWSOFT">     -2.00000000</i>
   <i name="ENCUTLF">     -1.00000000</i>
   <i type="int" name="LMAXMP2">    -1</i>
   <i name="SCISSOR">      0.00000000</i>
   <i type="int" name="NOMEGA">     0</i>
   <i type="int" name="NOMEGAR">     0</i>
   <i type="int" name="NBANDSGW">    -1</i>
   <i type="int" name="NBANDSO">    -1</i>
   <i type="int" name="NBANDSV">    -1</i>
   <i type="int" name="NELM">     1</i>
   <i type="int" name="NELMHF">     1</i>
   <i type="int" name="DIM">     3</i>
   <i type="int" name="ANTIRES">     0</i>
   <i name="OMEGAMAX">    -30.00000000</i>
   <i name="OMEGAMIN">    -30.00000000</i>
   <i name="OMEGATL">   -200.00000000</i>
   <i type="int" name="OMEGAGRID">   140</i>
   <i name="CSHIFT">     -0.10000000</i>
   <i type="logical" name="SELFENERGY"> F  </i>
   <i type="logical" name="LSPECTRAL"> F  </i>
   <i type="logical" name="LSPECTRALGW"> F  </i>
   <i type="logical" name="LSINGLES"> F  </i>
   <i type="logical" name="LFERMIGW"> F  </i>
   <i type="logical" name="ODDONLYGW"> F  </i>
   <i type="logical" name="EVENONLYGW"> F  </i>
   <i type="int" name="NKREDLFX">     1</i>
   <i type="int" name="NKREDLFY">     1</i>
   <i type="int" name="NKREDLFZ">     1</i>
   <i type="int" name="MAXMEM">  2800</i>
   <i type="int" name="TELESCOPE">     0</i>
   <i type="int" name="TAUPAR">     1</i>
   <i type="int" name="OMEGAPAR">    -1</i>
   <i name="LAMBDA">      1.00000000</i>
  </separator>
  <separator name="External order field" >
   <i name="OFIELD_KAPPA">      0.00000000</i>
   <v name="OFIELD_K">      0.00000000      0.00000000      0.00000000</v>
   <i name="OFIELD_Q6_NEAR">      0.00000000</i>
   <i name="OFIELD_Q6_FAR">      0.00000000</i>
   <i name="OFIELD_A">      0.00000000</i>
  </separator>
 </parameters>
 <atominfo>
  <atoms>       2 </atoms>
  <types>       1 </types>
  <array name="atoms" >
   <dimension dim="1">ion</dimension>
   <field type="string">element</field>
   <field type="int">atomtype</field>
   <set>
    <rc><c>Si</c><c>   1</c></rc>
    <rc><c>Si</c><c>   1</c></rc>
   </set>
  </array>
  <array name="atomtypes" >
   <dimension dim="1">type</dimension>
   <field type="int">atomspertype</field>
   <field type="string">element</field>
   <field>mass</field>
   <field>valence</field>
   <field type="string">pseudopotential</field>
   <set>
    <rc><c>   2</c><c>Si</c><c>     28.08500000</c><c>      4.00000000</c><c> PAW_PBE Si 05Jan2001                   </c></rc>
   </set>
  </array>
 </atominfo>
 <structure name="initialpos" >
  <crystal>
   <varray name="basis" >
    <v>       0.00000000       2.71500000       2.71500000 </v>
    <v>       2.71500000       0.00000000       2.71500000 </v>
    <v>       2.71500000       2.71500000       0.00000000 </v>
   </varray>
   <i name="volume">     40.02575175 </i>
   <varray name="rec_basis" >
    <v>      -0.18416206       0.18416206       0.18416206 </v>
    <v>       0.18416206      -0.18416206       0.18416206 </v>
    <v>       0.18416206       0.18416206      -0.18416206 </v>
   </varray>
  </crystal>
  <varray name="positions" >
   <v>       0.50000000       0.50000000       0.50000000 </v>
   <v>       0.75000000       0.75000000       0.75000000 </v>
  </varray>
 </structure>
 <calculation>
  <scstep>
   <time name="dav">    0.24    0.24</time>
   <time name="total">    0.29    0.35</time>
   <energy>
    <i name="alphaZ">      3.36414203 </i>
    <i name="ewald">   -228.56352493 </i>
    <i name="hartreedc">    -14.88332910 </i>
    <i name="XCdc">    -17.92420565 </i>
    <i name="pawpsdc">     76.67627394 </i>
    <i name="pawaedc">    -41.72796085 </i>
    <i name="eentropy">     -0.00009356 </i>
    <i name="bandstr">      6.22212186 </i>
    <i name="atom">    206.09183643 </i>
    <i name="e_fr_energy">    -10.74473984 </i>
    <i name="e_wo_entrp">    -10.74464628 </i>
    <i name="e_0_energy">    -10.74469306 </i>
   </energy>
  </scstep>
  <scstep>
   <time name="dav">    0.23    0.23</time>
   <time name="total">    0.26    0.27</time>
   <energy>
    <i name="alphaZ">      3.36414203 </i>
    <i name="ewald">   -228.56352493 </i>
    <i name="hartreedc">    -14.88325880 </i>
    <i name="XCdc">    -17.92418530 </i>
    <i name="pawpsdc">     76.67505997 </i>
    <i name="pawaedc">    -41.72669781 </i>
    <i name="eentropy">     -0.00009346 </i>
    <i name="bandstr">      6.22198191 </i>
    <i name="atom">    206.09183643 </i>
    <i name="e_fr_energy">    -10.74473998 </i>
    <i name="e_wo_entrp">    -10.74464651 </i>
    <i name="e_0_energy">    -10.74469324 </i>
   </energy>
  </scstep>
  <structure>
   <crystal>
    <varray name="basis" >
     <v>       0.00000000       2.71500000       2.71500000 </v>
     <v>       2.71500000       0.00000000       2.71500000 </v>
     <v>       2.71500000       2.71500000       0.00000000 </v>
    </varray>
    <i name="volume">     40.02575175 </i>
    <varray name="rec_basis" >
     <v>      -0.18416206       0.18416206       0.18416206 </v>
     <v>       0.18416206      -0.18416206       0.18416206 </v>
     <v>       0.18416206       0.18416206      -0.18416206 </v>
    </varray>
   </crystal>
   <varray name="positions" >
    <v>       0.50000000       0.50000000       0.50000000 </v>
    <v>       0.75000000       0.75000000       0.75000000 </v>
   </varray>
  </structure>
  <varray name="forces" >
   <v>      -0.00000000      -0.00000000       0.00000000 </v>
   <v>       0.00000000       0.00000000      -0.00000000 </v>
  </varray>
  <varray name="stress" >
   <v>      19.32793589       0.00000000       0.00000000 </v>
   <v>      -0.00000000      19.32793589       0.00000000 </v>
   <v>       0.00000000       0.00000000      19.32793589 </v>
  </varray>
  <energy>
   <i name="e_fr_energy">    -10.74473998 </i>
   <i name="e_wo_entrp">    -10.74469324 </i>
   <i name="e_0_energy">     -0.00009346 </i>
  </energy>
  <time name="totalsc">    1.18    1.76</time>
  <eigenvalues>
   <array>
    <dimension dim="1">band</dimension>
    <dimension dim="2">kpoint</dimension>
    <dimension dim="3">spin</dimension>
    <field>eigene</field>
    <field>occ</field>
    <set>
     <set comment="spin 1">
      <set comment="kpoint 1">
       <r>   -6.1349    1.0000 </r>
       <r>    5.8767    0.9802 </r>
       <r>    5.8767    0.9802 </r>
       <r>    5.8770    0.9801 </r>
       <r>    8.4550    0.0000 </r>
       <r>    8.4550    0.0000 </r>
       <r>    8.4552    0.0000 </r>
       <r>    9.1978    0.0000 </r>
      </set>
      <set comment="kpoint 2">
       <r>   -6.0265    1.0000 </r>
       <r>    4.8781    1.0000 </r>
       <r>    5.7057    0.9995 </r>
       <r>    5.7060    0.9995 </r>
       <r>    8.4796    0.0000 </r>
       <r>    8.7058    0.0000 </r>
       <r>    8.7060    0.0000 </r>
       <r>    9.9940    0.0000 </r>
      </set>
      <set comment="kpoint 3">
       <r>   -5.7054    1.0000 </r>
       <r>    3.1849    1.0000 </r>
       <r>    5.3553    1.0000 </r>
       <r>    5.3556    1.0000 </r>
       <r>    8.1813    0.0000 </r>
       <r>    9.1888    0.0000 </r>
       <r>    9.1891    0.0000 </r>
       <r>   11.5937    0.0000 </r>
      </set>
      <set comment="kpoint 4">
       <r>   -5.1879    1.0000 </r>
       <r>    1.5154    1.0000 </r>
       <r>    5.0265    1.0000 </r>
       <r>    5.0268    1.0000 </r>
       <r>    7.8409    0.0000 </r>
       <r>    9.4529    0.0000 </r>
       <r>    9.4533    0.0000 </r>
       <r>   13.1512    0.0000 </r>
      </set>
      <set comment="kpoint 5">
       <r>   -4.5255    1.0000 </r>
       <r>    0.0492    1.0000 </r>
       <r>    4.7911    1.0000 </r>
       <r>    4.7913    1.0000 </r>
       <r>    7.5665    0.0000 </r>
       <r>    9.4075    0.0000 </r>
       <r>    9.4079    0.0000 </r>
       <r>   13.7708    0.0000 </r>
      </set>
      <set comment="kpoint 6">
       <r>   -3.9115    1.0000 </r>
       <r>   -0.9736    1.0000 </r>
       <r>    4.6693    1.0000 </r>
       <r>    4.6695    1.0000 </r>
       <r>    7.4302    0.0000 </r>
       <r>    9.3014    0.0000 </r>
       <r>    9.3017    0.0000 </r>
       <r>   13.6328    0.0000 </r>
      </set>
      <set comment="kpoint 7">
       <r>   -5.9902    1.0000 </r>
       <r>    5.0639    1.0000 </r>
       <r>    5.3740    1.0000 </r>
       <r>    5.3742    1.0000 </r>
       <r>    8.1328    0.0000 </r>
       <r>    9.1383    0.0000 </r>
       <r>    9.1385    0.0000 </r>
       <r>    9.9344    0.0000 </r>
      </set>
      <set comment="kpoint 8">
       <r>   -5.7392    1.0000 </r>
       <r>    3.6903    1.0000 </r>
       <r>    4.9682    1.0000 </r>
       <r>    5.1581    1.0000 </r>
       <r>    8.1759    0.0000 </r>
       <r>    9.2004    0.0000 </r>
       <r>    9.7459    0.0000 </r>
       <r>   10.8791    0.0000 </r>
      </set>
      <set comment="kpoint 9">
       <r>   -5.2846    1.0000 </r>
       <r>    2.0556    1.0000 </r>
       <r>    4.6438    1.0000 </r>
       <r>    4.7804    1.0000 </r>
       <r>    8.3153    0.0000 </r>
       <r>    9.1954    0.0000 </r>
       <r>   10.1082    0.0000 </r>
       <r>   11.3236    0.0000 </r>
      </set>
      <set comment="kpoint 10">
       <r>   -4.6604    1.0000 </r>
       <r>    0.5374    1.0000 </r>
       <r>    4.3949    1.0000 </r>
       <r>    4.4528    1.0000 </r>
       <r>    8.1679    0.0000 </r>
       <r>    9.2391    0.0000 </r>
       <r>   10.0478    0.0000 </r>
       <r>   12.1098    0.0000 </r>
      </set>
      <set comment="kpoint 11">
       <r>   -3.9878    1.0000 </r>
       <r>   -0.6646    1.0000 </r>
       <r>    4.0892    1.0000 </r>
       <r>    4.4099    1.0000 </r>
       <r>    8.0143    0.0000 </r>
       <r>    9.1991    0.0000 </r>
       <r>    9.8080    0.0000 </r>
       <r>   13.3291    0.0000 </r>
      </set>
      <set comment="kpoint 12">
       <r>   -3.7158    1.0000 </r>
       <r>   -1.0691    1.0000 </r>
       <r>    3.9083    1.0000 </r>
       <r>    4.5158    1.0000 </r>
       <r>    7.9886    0.0000 </r>
       <r>    9.2585    0.0000 </r>
       <r>    9.6267    0.0000 </r>
       <r>   13.9683    0.0000 </r>
      </set>
      <set comment="kpoint 13">
       <r>   -4.2026    1.0000 </r>
       <r>   -0.3145    1.0000 </r>
       <r>    3.8719    1.0000 </r>
       <r>    4.7455    1.0000 </r>
       <r>    8.0907    0.0000 </r>
       <r>    9.4508    0.0000 </r>
       <r>    9.5412    0.0000 </r>
       <r>   13.6895    0.0000 </r>
      </set>
      <set comment="kpoint 14">
       <r>   -4.8849    1.0000 </r>
       <r>    1.0232    1.0000 </r>
       <r>    3.9966    1.0000 </r>
       <r>    5.0767    1.0000 </r>
       <r>    8.3206    0.0000 </r>
       <r>    9.4641    0.0000 </r>
       <r>    9.6674    0.0000 </r>
       <r>   12.6569    0.0000 </r>
      </set>
      <set comment="kpoint 15">
       <r>   -5.4585    1.0000 </r>
       <r>    2.5852    1.0000 </r>
       <r>    4.2956    1.0000 </r>
       <r>    5.4471    1.0000 </r>
       <r>    8.6142    0.0000 </r>
       <r>    9.1651    0.0000 </r>
       <r>    9.5410    0.0000 </r>
       <r>   11.7615    0.0000 </r>
      </set>
      <set comment="kpoint 16">
       <r>   -5.8469    1.0000 </r>
       <r>    4.0687    1.0000 </r>
       <r>    4.8652    1.0000 </r>
       <r>    5.7301    0.9990 </r>
       <r>    8.7547    0.0000 </r>
       <r>    8.8401    0.0000 </r>
       <r>    8.9365    0.0000 </r>
       <r>   10.8746    0.0000 </r>
      </set>
      <set comment="kpoint 17">
       <r>   -5.5585    1.0000 </r>
       <r>    3.5536    1.0000 </r>
       <r>    4.5254    1.0000 </r>
       <r>    4.5256    1.0000 </r>
       <r>    7.4844    0.0000 </r>
       <r>   10.0548    0.0000 </r>
       <r>   10.5167    0.0000 </r>
       <r>   10.5169    0.0000 </r>
      </set>
      <set comment="kpoint 18">
       <r>   -5.1703    1.0000 </r>
       <r>    2.3817    1.0000 </r>
       <r>    4.1077    1.0000 </r>
       <r>    4.1780    1.0000 </r>
       <r>    7.5412    0.0000 </r>
       <r>    9.6369    0.0000 </r>
       <r>   10.8142    0.0000 </r>
       <r>   11.1141    0.0000 </r>
      </set>
      <set comment="kpoint 19">
       <r>   -4.5971    1.0000 </r>
       <r>    0.9982    1.0000 </r>
       <r>    3.5749    1.0000 </r>
       <r>    3.9798    1.0000 </r>
       <r>    7.7874    0.0000 </r>
       <r>    9.9898    0.0000 </r>
       <r>   10.6198    0.0000 </r>
       <r>   11.1994    0.0000 </r>
      </set>
      <set comment="kpoint 20">
       <r>   -3.9138    1.0000 </r>
       <r>   -0.2506    1.0000 </r>
       <r>    3.0938    1.0000 </r>
       <r>    3.9466    1.0000 </r>
       <r>    7.8272    0.0000 </r>
       <r>   10.3751    0.0000 </r>
       <r>   10.9466    0.0000 </r>
       <r>   11.2275    0.0000 </r>
      </set>
      <set comment="kpoint 21">
       <r>   -3.4277    1.0000 </r>
       <r>   -0.9675    1.0000 </r>
       <r>    2.7523    1.0000 </r>
       <r>    4.0780    1.0000 </r>
       <r>    7.9265    0.0000 </r>
       <r>   10.2401    0.0000 </r>
       <r>   10.6481    0.0000 </r>
       <r>   12.8742    0.0000 </r>
      </set>
      <set comment="kpoint 22">
       <r>   -3.7152    1.0000 </r>
       <r>   -0.5515    1.0000 </r>
       <r>    2.5977    1.0000 </r>
       <r>    4.3625    1.0000 </r>
       <r>    8.1873    0.0000 </r>
       <r>   10.2347    0.0000 </r>
       <r>   10.4199    0.0000 </r>
       <r>   13.6961    0.0000 </r>
      </set>
      <set comment="kpoint 23">
       <r>   -4.3903    1.0000 </r>
       <r>    0.5752    1.0000 </r>
       <r>    2.6788    1.0000 </r>
       <r>    4.7563    1.0000 </r>
       <r>    8.5624    0.0000 </r>
       <r>   10.1610    0.0000 </r>
       <r>   10.3008    0.0000 </r>
       <r>   12.2800    0.0000 </r>
      </set>
      <set comment="kpoint 24">
       <r>   -5.0094    1.0000 </r>
       <r>    1.7742    1.0000 </r>
       <r>    3.1643    1.0000 </r>
       <r>    5.1753    1.0000 </r>
       <r>    8.8925    0.0000 </r>
       <r>    9.6569    0.0000 </r>
       <r>    9.9849    0.0000 </r>
       <r>   11.5947    0.0000 </r>
      </set>
      <set comment="kpoint 25">
       <r>   -4.8481    1.0000 </r>
       <r>    1.9216    1.0000 </r>
       <r>    3.7953    1.0000 </r>
       <r>    3.7955    1.0000 </r>
       <r>    6.8929    0.0000 </r>
       <r>    8.7326    0.0000 </r>
       <r>   12.1093    0.0000 </r>
       <r>   12.1096    0.0000 </r>
      </set>
      <set comment="kpoint 26">
       <r>   -4.3328    1.0000 </r>
       <r>    0.9605    1.0000 </r>
       <r>    3.2547    1.0000 </r>
       <r>    3.5610    1.0000 </r>
       <r>    7.0328    0.0000 </r>
       <r>    8.4230    0.0000 </r>
       <r>   12.4069    0.0000 </r>
       <r>   12.5904    0.0000 </r>
      </set>
      <set comment="kpoint 27">
       <r>   -3.6707    1.0000 </r>
       <r>   -0.0773    1.0000 </r>
       <r>    2.5234    1.0000 </r>
       <r>    3.4973    1.0000 </r>
       <r>    7.2335    0.0000 </r>
       <r>    9.1846    0.0000 </r>
       <r>   12.2273    0.0000 </r>
       <r>   12.4481    0.0000 </r>
      </set>
      <set comment="kpoint 28">
       <r>   -3.0527    1.0000 </r>
       <r>   -0.8876    1.0000 </r>
       <r>    1.9464    1.0000 </r>
       <r>    3.6100    1.0000 </r>
       <r>    7.3686    0.0000 </r>
       <r>   10.6912    0.0000 </r>
       <r>   12.0456    0.0000 </r>
       <r>   12.1131    0.0000 </r>
      </set>
      <set comment="kpoint 29">
       <r>   -3.1087    1.0000 </r>
       <r>   -0.8085    1.0000 </r>
       <r>    1.6592    1.0000 </r>
       <r>    3.8868    1.0000 </r>
       <r>    7.6624    0.0000 </r>
       <r>   11.7489    0.0000 </r>
       <r>   11.7841    0.0000 </r>
       <r>   12.6718    0.0000 </r>
      </set>
      <set comment="kpoint 30">
       <r>   -3.7469    1.0000 </r>
       <r>   -0.0437    1.0000 </r>
       <r>    1.8212    1.0000 </r>
       <r>    4.2971    1.0000 </r>
       <r>    8.1190    0.0000 </r>
       <r>   11.1339    0.0000 </r>
       <r>   11.5240    0.0000 </r>
       <r>   12.3182    0.0000 </r>
      </set>
      <set comment="kpoint 31">
       <r>   -3.8752    1.0000 </r>
       <r>    0.2935    1.0000 </r>
       <r>    3.2814    1.0000 </r>
       <r>    3.2815    1.0000 </r>
       <r>    6.5412    0.0041 </r>
       <r>    7.5595    0.0000 </r>
       <r>   13.7926    0.0000 </r>
       <r>   13.7929    0.0000 </r>
      </set>
      <set comment="kpoint 32">
       <r>   -3.2507    1.0000 </r>
       <r>   -0.5245    1.0000 </r>
       <r>    2.7441    1.0000 </r>
       <r>    3.1753    1.0000 </r>
       <r>    6.7494    0.0000 </r>
       <r>    7.5770    0.0000 </r>
       <r>   14.1193    0.0000 </r>
       <r>   14.1304    0.0000 </r>
      </set>
      <set comment="kpoint 33">
       <r>   -2.5730    1.0000 </r>
       <r>   -1.2460    1.0000 </r>
       <r>    1.9607    1.0000 </r>
       <r>    3.2480    1.0000 </r>
       <r>    6.9176    0.0000 </r>
       <r>    8.7743    0.0000 </r>
       <r>   13.8321    0.0000 </r>
       <r>   13.9733    0.0000 </r>
      </set>
      <set comment="kpoint 34">
       <r>   -2.5065    1.0000 </r>
       <r>   -1.2797    1.0000 </r>
       <r>    1.4721    1.0000 </r>
       <r>    3.4946    1.0000 </r>
       <r>    7.1990    0.0000 </r>
       <r>   10.5297    0.0000 </r>
       <r>   13.1343    0.0000 </r>
       <r>   13.7016    0.0000 </r>
      </set>
      <set comment="kpoint 35">
       <r>   -2.6638    1.0000 </r>
       <r>   -1.2563    1.0000 </r>
       <r>    3.0202    1.0000 </r>
       <r>    3.0203    1.0000 </r>
       <r>    6.5038    0.0088 </r>
       <r>    6.8219    0.0000 </r>
       <r>   15.5191    0.0000 </r>
       <r>   15.5192    0.0000 </r>
      </set>
      <set comment="kpoint 36">
       <r>   -2.0163    1.0000 </r>
       <r>   -1.9049    1.0000 </r>
       <r>    2.5754    1.0000 </r>
       <r>    3.0441    1.0000 </r>
       <r>    6.6768    0.0002 </r>
       <r>    7.2626    0.0000 </r>
       <r>   15.3932    0.0000 </r>
       <r>   15.6267    0.0000 </r>
      </set>
      <set comment="kpoint 37">
       <r>   -5.4200    1.0000 </r>
       <r>    2.8275    1.0000 </r>
       <r>    4.0165    1.0000 </r>
       <r>    5.0386    1.0000 </r>
       <r>    8.2364    0.0000 </r>
       <r>    9.5324    0.0000 </r>
       <r>   10.3095    0.0000 </r>
       <r>   10.7353    0.0000 </r>
      </set>
      <set comment="kpoint 38">
       <r>   -4.9054    1.0000 </r>
       <r>    1.4959    1.0000 </r>
       <r>    3.4506    1.0000 </r>
       <r>    4.7143    1.0000 </r>
       <r>    8.5590    0.0000 </r>
       <r>    9.4828    0.0000 </r>
       <r>   10.6365    0.0000 </r>
       <r>   10.8572    0.0000 </r>
      </set>
      <set comment="kpoint 39">
       <r>   -4.2441    1.0000 </r>
       <r>    0.1428    1.0000 </r>
       <r>    3.1938    1.0000 </r>
       <r>    4.3667    1.0000 </r>
       <r>    8.6019    0.0000 </r>
       <r>    9.2768    0.0000 </r>
       <r>   10.7451    0.0000 </r>
       <r>   11.7096    0.0000 </r>
      </set>
      <set comment="kpoint 40">
       <r>   -3.6259    1.0000 </r>
       <r>   -0.8473    1.0000 </r>
       <r>    3.0927    1.0000 </r>
       <r>    4.1505    1.0000 </r>
       <r>    8.5736    0.0000 </r>
       <r>    9.0637    0.0000 </r>
       <r>   10.6817    0.0000 </r>
       <r>   13.1838    0.0000 </r>
      </set>
      <set comment="kpoint 41">
       <r>   -4.7195    1.0000 </r>
       <r>    1.5335    1.0000 </r>
       <r>    3.2930    1.0000 </r>
       <r>    4.0177    1.0000 </r>
       <r>    7.6746    0.0000 </r>
       <r>    9.2345    0.0000 </r>
       <r>   10.9309    0.0000 </r>
       <r>   11.9940    0.0000 </r>
      </set>
      <set comment="kpoint 42">
       <r>   -4.0994    1.0000 </r>
       <r>    0.4444    1.0000 </r>
       <r>    2.7147    1.0000 </r>
       <r>    3.6973    1.0000 </r>
       <r>    8.0399    0.0000 </r>
       <r>    9.6388    0.0000 </r>
       <r>   10.6098    0.0000 </r>
       <r>   12.3894    0.0000 </r>
      </set>
      <set comment="kpoint 43">
       <r>   -3.4225    1.0000 </r>
       <r>   -0.5746    1.0000 </r>
       <r>    2.3291    1.0000 </r>
       <r>    3.5409    1.0000 </r>
       <r>    8.1782    0.0000 </r>
       <r>   10.2042    0.0000 </r>
       <r>   11.0299    0.0000 </r>
       <r>   12.3482    0.0000 </r>
      </set>
      <set comment="kpoint 44">
       <r>   -3.1538    1.0000 </r>
       <r>   -0.9284    1.0000 </r>
       <r>    2.0959    1.0000 </r>
       <r>    3.6310    1.0000 </r>
       <r>    8.3906    0.0000 </r>
       <r>    9.9333    0.0000 </r>
       <r>   12.2253    0.0000 </r>
       <r>   12.7471    0.0000 </r>
      </set>
      <set comment="kpoint 45">
       <r>   -3.6637    1.0000 </r>
       <r>   -0.2318    1.0000 </r>
       <r>    2.0842    1.0000 </r>
       <r>    3.9297    1.0000 </r>
       <r>    8.7604    0.0000 </r>
       <r>    9.7423    0.0000 </r>
       <r>   11.4913    0.0000 </r>
       <r>   12.1654    0.0000 </r>
      </set>
      <set comment="kpoint 46">
       <r>   -4.3426    1.0000 </r>
       <r>    0.7587    1.0000 </r>
       <r>    2.4630    1.0000 </r>
       <r>    4.3518    1.0000 </r>
       <r>    9.2049    0.0000 </r>
       <r>    9.3195    0.0000 </r>
       <r>   10.6034    0.0000 </r>
       <r>   11.6945    0.0000 </r>
      </set>
      <set comment="kpoint 47">
       <r>   -3.7655    1.0000 </r>
       <r>    0.1559    1.0000 </r>
       <r>    2.8103    1.0000 </r>
       <r>    3.2035    1.0000 </r>
       <r>    7.3146    0.0000 </r>
       <r>    8.1676    0.0000 </r>
       <r>   12.3228    0.0000 </r>
       <r>   13.7577    0.0000 </r>
      </set>
      <set comment="kpoint 48">
       <r>   -3.0814    1.0000 </r>
       <r>   -0.6711    1.0000 </r>
       <r>    2.1636    1.0000 </r>
       <r>    3.0240    1.0000 </r>
       <r>    7.6619    0.0000 </r>
       <r>    8.9981    0.0000 </r>
       <r>   11.9622    0.0000 </r>
       <r>   14.1245    0.0000 </r>
      </set>
      <set comment="kpoint 49">
       <r>   -2.6082    1.0000 </r>
       <r>   -1.1748    1.0000 </r>
       <r>    1.6382    1.0000 </r>
       <r>    3.1423    1.0000 </r>
       <r>    7.8811    0.0000 </r>
       <r>   10.5923    0.0000 </r>
       <r>   11.6570    0.0000 </r>
       <r>   13.2710    0.0000 </r>
      </set>
      <set comment="kpoint 50">
       <r>   -2.9967    1.0000 </r>
       <r>   -0.7732    1.0000 </r>
       <r>    1.5334    1.0000 </r>
       <r>    3.4686    1.0000 </r>
       <r>    8.2580    0.0000 </r>
       <r>   11.0264    0.0000 </r>
       <r>   11.7630    0.0000 </r>
       <r>   12.6735    0.0000 </r>
      </set>
      <set comment="kpoint 51">
       <r>   -2.5907    1.0000 </r>
       <r>   -1.2538    1.0000 </r>
       <r>    2.6162    1.0000 </r>
       <r>    2.7381    1.0000 </r>
       <r>    7.2442    0.0000 </r>
       <r>    7.5118    0.0000 </r>
       <r>   13.8738    0.0000 </r>
       <r>   15.2832    0.0000 </r>
      </set>
      <set comment="kpoint 52">
       <r>   -2.0813    1.0000 </r>
       <r>   -1.7032    1.0000 </r>
       <r>    1.9521    1.0000 </r>
       <r>    2.8116    1.0000 </r>
       <r>    7.5279    0.0000 </r>
       <r>    8.7897    0.0000 </r>
       <r>   13.4142    0.0000 </r>
       <r>   13.6426    0.0000 </r>
      </set>
      <set comment="kpoint 53">
       <r>   -3.4525    1.0000 </r>
       <r>   -0.2408    1.0000 </r>
       <r>    2.0499    1.0000 </r>
       <r>    3.2289    1.0000 </r>
       <r>    8.9952    0.0000 </r>
       <r>    9.6428    0.0000 </r>
       <r>   10.2264    0.0000 </r>
       <r>   13.6589    0.0000 </r>
      </set>
      <set comment="kpoint 54">
       <r>   -2.8138    1.0000 </r>
       <r>   -0.9479    1.0000 </r>
       <r>    1.7677    1.0000 </r>
       <r>    2.9060    1.0000 </r>
       <r>    9.3654    0.0000 </r>
       <r>    9.7345    0.0000 </r>
       <r>   11.0194    0.0000 </r>
       <r>   12.9142    0.0000 </r>
      </set>
      <set comment="kpoint 55">
       <r>   -2.4026    1.0000 </r>
       <r>   -1.2962    1.0000 </r>
       <r>    1.9983    1.0000 </r>
       <r>    2.3824    1.0000 </r>
       <r>    8.9109    0.0000 </r>
       <r>    9.1181    0.0000 </r>
       <r>   11.5484    0.0000 </r>
       <r>   13.1556    0.0000 </r>
      </set>
      <set comment="kpoint 56">
       <r>   -2.2010    1.0000 </r>
       <r>   -1.4639    1.0000 </r>
       <r>    1.7157    1.0000 </r>
       <r>    2.4195    1.0000 </r>
       <r>    9.2609    0.0000 </r>
       <r>   10.5572    0.0000 </r>
       <r>   11.3147    0.0000 </r>
       <r>   11.3165    0.0000 </r>
      </set>
     </set>
    </set>
   </array>
  </eigenvalues>
  <separator name="orbital magnetization" >
   <v name="MAGDIPOLOUT">      0.00000000      0.00000000      0.00000000</v>
  </separator>
  <dos>
   <i name="efermi">      6.16786000 </i>
   <total>
    <array>
     <dimension dim="1">gridpoints</dimension>
     <dimension dim="2">spin</dimension>
     <field>energy</field>
     <field>total</field>
     <field>integrated</field>
     <set>
      <set comment="spin 1">
       <r>    -8.1349     0.0000     0.0000 </r>
       <r>    -8.0491     0.0000     0.0000 </r>
       <r>    -7.9632     0.0000     0.0000 </r>
       <r>    -7.8773     0.0000     0.0000 </r>
       <r>    -7.7915     0.0000     0.0000 </r>
       <r>    -7.7056     0.0000     0.0000 </r>
       <r>    -7.6197     0.0000     0.0000 </r>
       <r>    -7.5338     0.0000     0.0000 </r>
       <r>    -7.4480     0.0000     0.0000 </r>
       <r>    -7.3621     0.0000     0.0000 </r>
       <r>    -7.2762     0.0000     0.0000 </r>
       <r>    -7.1903     0.0000     0.0000 </r>
       <r>    -7.1045     0.0000     0.0000 </r>
       <r>    -7.0186     0.0000     0.0000 </r>
       <r>    -6.9327     0.0000     0.0000 </r>
       <r>    -6.8469     0.0000     0.0000 </r>
       <r>    -6.7610     0.0000     0.0000 </r>
       <r>    -6.6751     0.0000     0.0000 </r>
       <r>    -6.5892     0.0000     0.0000 </r>
       <r>    -6.5034     0.0001     0.0000 </r>
       <r>    -6.4175     0.0008     0.0001 </r>
       <r>    -6.3316     0.0036     0.0004 </r>
       <r>    -6.2458     0.0121     0.0014 </r>
       <r>    -6.1599     0.0308     0.0041 </r>
       <r>    -6.0740     0.0607     0.0093 </r>
       <r>    -5.9881     0.0980     0.0177 </r>
       <r>    -5.9023     0.1389     0.0296 </r>
       <r>    -5.8164     0.1793     0.0450 </r>
       <r>    -5.7305     0.2088     0.0629 </r>
       <r>    -5.6447     0.2236     0.0821 </r>
       <r>    -5.5588     0.2421     0.1029 </r>
       <r>    -5.4729     0.2798     0.1270 </r>
       <r>    -5.3870     0.3195     0.1544 </r>
       <r>    -5.3012     0.3365     0.1833 </r>
       <r>    -5.2153     0.3305     0.2117 </r>
       <r>    -5.1294     0.3226     0.2394 </r>
       <r>    -5.0435     0.3425     0.2688 </r>
       <r>    -4.9577     0.4007     0.3032 </r>
       <r>    -4.8718     0.4611     0.3428 </r>
       <r>    -4.7859     0.4800     0.3840 </r>
       <r>    -4.7001     0.4603     0.4236 </r>
       <r>    -4.6142     0.4303     0.4605 </r>
       <r>    -4.5283     0.4171     0.4963 </r>
       <r>    -4.4424     0.4538     0.5353 </r>
       <r>    -4.3566     0.5481     0.5824 </r>
       <r>    -4.2707     0.6464     0.6379 </r>
       <r>    -4.1848     0.6828     0.6965 </r>
       <r>    -4.0990     0.6490     0.7522 </r>
       <r>    -4.0131     0.5942     0.8033 </r>
       <r>    -3.9272     0.5816     0.8532 </r>
       <r>    -3.8413     0.6578     0.9097 </r>
       <r>    -3.7555     0.8105     0.9793 </r>
       <r>    -3.6696     0.9403     1.0600 </r>
       <r>    -3.5837     0.9462     1.1413 </r>
       <r>    -3.4979     0.8439     1.2138 </r>
       <r>    -3.4120     0.7240     1.2759 </r>
       <r>    -3.3261     0.6497     1.3317 </r>
       <r>    -3.2402     0.6546     1.3879 </r>
       <r>    -3.1544     0.7273     1.4504 </r>
       <r>    -3.0685     0.7744     1.5169 </r>
       <r>    -2.9826     0.7119     1.5780 </r>
       <r>    -2.8967     0.5802     1.6278 </r>
       <r>    -2.8109     0.4887     1.6698 </r>
       <r>    -2.7250     0.4903     1.7119 </r>
       <r>    -2.6391     0.5471     1.7589 </r>
       <r>    -2.5533     0.5723     1.8080 </r>
       <r>    -2.4674     0.5085     1.8517 </r>
       <r>    -2.3815     0.3878     1.8850 </r>
       <r>    -2.2956     0.2890     1.9098 </r>
       <r>    -2.2098     0.2517     1.9314 </r>
       <r>    -2.1239     0.2543     1.9533 </r>
       <r>    -2.0380     0.2524     1.9749 </r>
       <r>    -1.9522     0.2250     1.9943 </r>
       <r>    -1.8663     0.1865     2.0103 </r>
       <r>    -1.7804     0.1613     2.0241 </r>
       <r>    -1.6945     0.1550     2.0374 </r>
       <r>    -1.6087     0.1622     2.0514 </r>
       <r>    -1.5228     0.1945     2.0681 </r>
       <r>    -1.4369     0.2797     2.0921 </r>
       <r>    -1.3511     0.4268     2.1287 </r>
       <r>    -1.2652     0.5959     2.1799 </r>
       <r>    -1.1793     0.7271     2.2423 </r>
       <r>    -1.0934     0.8238     2.3131 </r>
       <r>    -1.0076     0.9460     2.3943 </r>
       <r>    -0.9217     1.0856     2.4875 </r>
       <r>    -0.8358     1.1506     2.5863 </r>
       <r>    -0.7499     1.1051     2.6812 </r>
       <r>    -0.6641     1.0046     2.7675 </r>
       <r>    -0.5782     0.8846     2.8435 </r>
       <r>    -0.4923     0.7417     2.9072 </r>
       <r>    -0.4065     0.6206     2.9605 </r>
       <r>    -0.3206     0.5871     3.0109 </r>
       <r>    -0.2347     0.6108     3.0633 </r>
       <r>    -0.1488     0.5963     3.1145 </r>
       <r>    -0.0630     0.5263     3.1597 </r>
       <r>     0.0229     0.4663     3.1998 </r>
       <r>     0.1088     0.4469     3.2381 </r>
       <r>     0.1946     0.4290     3.2750 </r>
       <r>     0.2805     0.3907     3.3085 </r>
       <r>     0.3664     0.3718     3.3405 </r>
       <r>     0.4523     0.3957     3.3744 </r>
       <r>     0.5381     0.4152     3.4101 </r>
       <r>     0.6240     0.3818     3.4429 </r>
       <r>     0.7099     0.3157     3.4700 </r>
       <r>     0.7957     0.2749     3.4936 </r>
       <r>     0.8816     0.2880     3.5183 </r>
       <r>     0.9675     0.3242     3.5461 </r>
       <r>     1.0534     0.3183     3.5735 </r>
       <r>     1.1392     0.2464     3.5946 </r>
       <r>     1.2251     0.1693     3.6092 </r>
       <r>     1.3110     0.1810     3.6247 </r>
       <r>     1.3968     0.3293     3.6530 </r>
       <r>     1.4827     0.5728     3.7022 </r>
       <r>     1.5686     0.8015     3.7710 </r>
       <r>     1.6545     0.9255     3.8505 </r>
       <r>     1.7403     0.9450     3.9316 </r>
       <r>     1.8262     0.9379     4.0122 </r>
       <r>     1.9121     0.9933     4.0975 </r>
       <r>     1.9980     1.1162     4.1933 </r>
       <r>     2.0838     1.1953     4.2960 </r>
       <r>     2.1697     1.1357     4.3935 </r>
       <r>     2.2556     0.9965     4.4790 </r>
       <r>     2.3414     0.9115     4.5573 </r>
       <r>     2.4273     0.9251     4.6368 </r>
       <r>     2.5132     1.0012     4.7227 </r>
       <r>     2.5991     1.1148     4.8185 </r>
       <r>     2.6849     1.2358     4.9246 </r>
       <r>     2.7708     1.2966     5.0359 </r>
       <r>     2.8567     1.2692     5.1449 </r>
       <r>     2.9425     1.2423     5.2516 </r>
       <r>     3.0284     1.3330     5.3661 </r>
       <r>     3.1143     1.5150     5.4962 </r>
       <r>     3.2002     1.6138     5.6347 </r>
       <r>     3.2860     1.5202     5.7653 </r>
       <r>     3.3719     1.3488     5.8811 </r>
       <r>     3.4578     1.2904     5.9919 </r>
       <r>     3.5436     1.3520     6.1080 </r>
       <r>     3.6295     1.3745     6.2260 </r>
       <r>     3.7154     1.2854     6.3364 </r>
       <r>     3.8013     1.2007     6.4395 </r>
       <r>     3.8871     1.2491     6.5468 </r>
       <r>     3.9730     1.3843     6.6657 </r>
       <r>     4.0589     1.4479     6.7900 </r>
       <r>     4.1448     1.3731     6.9079 </r>
       <r>     4.2306     1.2470     7.0150 </r>
       <r>     4.3165     1.1714     7.1156 </r>
       <r>     4.4024     1.1260     7.2123 </r>
       <r>     4.4882     1.0372     7.3013 </r>
       <r>     4.5741     0.9326     7.3814 </r>
       <r>     4.6600     0.8950     7.4583 </r>
       <r>     4.7459     0.9034     7.5359 </r>
       <r>     4.8317     0.8642     7.6101 </r>
       <r>     4.9176     0.7672     7.6760 </r>
       <r>     5.0035     0.6777     7.7342 </r>
       <r>     5.0893     0.6088     7.7864 </r>
       <r>     5.1752     0.5214     7.8312 </r>
       <r>     5.2611     0.4170     7.8670 </r>
       <r>     5.3470     0.3344     7.8957 </r>
       <r>     5.4328     0.2803     7.9198 </r>
       <r>     5.5187     0.2319     7.9397 </r>
       <r>     5.6046     0.1886     7.9559 </r>
       <r>     5.6904     0.1625     7.9699 </r>
       <r>     5.7763     0.1413     7.9820 </r>
       <r>     5.8622     0.1060     7.9911 </r>
       <r>     5.9481     0.0623     7.9965 </r>
       <r>     6.0339     0.0282     7.9989 </r>
       <r>     6.1198     0.0103     7.9998 </r>
       <r>     6.2057     0.0051     8.0002 </r>
       <r>     6.2916     0.0097     8.0010 </r>
       <r>     6.3774     0.0261     8.0033 </r>
       <r>     6.4633     0.0570     8.0082 </r>
       <r>     6.5492     0.1027     8.0170 </r>
       <r>     6.6350     0.1597     8.0307 </r>
       <r>     6.7209     0.2197     8.0496 </r>
       <r>     6.8068     0.2689     8.0726 </r>
       <r>     6.8927     0.2984     8.0983 </r>
       <r>     6.9785     0.3143     8.1253 </r>
       <r>     7.0644     0.3416     8.1546 </r>
       <r>     7.1503     0.4100     8.1898 </r>
       <r>     7.2361     0.5158     8.2341 </r>
       <r>     7.3220     0.6205     8.2874 </r>
       <r>     7.4079     0.7138     8.3487 </r>
       <r>     7.4938     0.8239     8.4194 </r>
       <r>     7.5796     0.9393     8.5001 </r>
       <r>     7.6655     1.0006     8.5860 </r>
       <r>     7.7514     0.9963     8.6716 </r>
       <r>     7.8372     0.9916     8.7567 </r>
       <r>     7.9231     1.0516     8.8470 </r>
       <r>     8.0090     1.1881     8.9490 </r>
       <r>     8.0949     1.3581     9.0657 </r>
       <r>     8.1807     1.4709     9.1920 </r>
       <r>     8.2666     1.4494     9.3164 </r>
       <r>     8.3525     1.3297     9.4306 </r>
       <r>     8.4384     1.2407     9.5372 </r>
       <r>     8.5242     1.2541     9.6449 </r>
       <r>     8.6101     1.3063     9.7570 </r>
       <r>     8.6960     1.2976     9.8685 </r>
       <r>     8.7818     1.2192     9.9732 </r>
       <r>     8.8677     1.1472    10.0717 </r>
       <r>     8.9536     1.1710    10.1722 </r>
       <r>     9.0395     1.3443    10.2877 </r>
       <r>     9.1253     1.6391    10.4284 </r>
       <r>     9.2112     1.9183    10.5931 </r>
       <r>     9.2971     2.0212    10.7667 </r>
       <r>     9.3829     1.9355    10.9329 </r>
       <r>     9.4688     1.8081    11.0882 </r>
       <r>     9.5547     1.7504    11.2385 </r>
       <r>     9.6406     1.7211    11.3863 </r>
       <r>     9.7264     1.6076    11.5243 </r>
       <r>     9.8123     1.3780    11.6427 </r>
       <r>     9.8982     1.1343    11.7401 </r>
       <r>     9.9840     0.9974    11.8257 </r>
       <r>    10.0699     0.9921    11.9109 </r>
       <r>    10.1558     1.0596    12.0019 </r>
       <r>    10.2417     1.1111    12.0973 </r>
       <r>    10.3275     1.0961    12.1914 </r>
       <r>    10.4134     1.0913    12.2852 </r>
       <r>    10.4993     1.2431    12.3919 </r>
       <r>    10.5852     1.5505    12.5250 </r>
       <r>    10.6710     1.7998    12.6796 </r>
       <r>    10.7569     1.8114    12.8352 </r>
       <r>    10.8428     1.6439    12.9763 </r>
       <r>    10.9286     1.4591    13.1016 </r>
       <r>    11.0145     1.3090    13.2140 </r>
       <r>    11.1004     1.1529    13.3130 </r>
       <r>    11.1863     0.9841    13.3975 </r>
       <r>    11.2721     0.8445    13.4700 </r>
       <r>    11.3580     0.7647    13.5357 </r>
       <r>    11.4439     0.7625    13.6012 </r>
       <r>    11.5297     0.8545    13.6746 </r>
       <r>    11.6156     1.0101    13.7613 </r>
       <r>    11.7015     1.1277    13.8581 </r>
       <r>    11.7874     1.1106    13.9535 </r>
       <r>    11.8732     0.9903    14.0386 </r>
       <r>    11.9591     0.9119    14.1169 </r>
       <r>    12.0450     0.9691    14.2001 </r>
       <r>    12.1308     1.1216    14.2964 </r>
       <r>    12.2167     1.2697    14.4054 </r>
       <r>    12.3026     1.3263    14.5193 </r>
       <r>    12.3885     1.2432    14.6261 </r>
       <r>    12.4743     1.0504    14.7163 </r>
       <r>    12.5602     0.8639    14.7905 </r>
       <r>    12.6461     0.7739    14.8569 </r>
       <r>    12.7319     0.7476    14.9211 </r>
       <r>    12.8178     0.7025    14.9814 </r>
       <r>    12.9037     0.6200    15.0347 </r>
       <r>    12.9896     0.5490    15.0818 </r>
       <r>    13.0754     0.5504    15.1291 </r>
       <r>    13.1613     0.6262    15.1829 </r>
       <r>    13.2472     0.6892    15.2420 </r>
       <r>    13.3331     0.6542    15.2982 </r>
       <r>    13.4189     0.5469    15.3452 </r>
       <r>    13.5048     0.4840    15.3867 </r>
       <r>    13.5907     0.5517    15.4341 </r>
       <r>    13.6765     0.7074    15.4949 </r>
       <r>    13.7624     0.8204    15.5653 </r>
       <r>    13.8483     0.8197    15.6357 </r>
       <r>    13.9342     0.7531    15.7004 </r>
       <r>    14.0200     0.6924    15.7598 </r>
       <r>    14.1059     0.6341    15.8143 </r>
       <r>    14.1918     0.5207    15.8590 </r>
       <r>    14.2776     0.3433    15.8885 </r>
       <r>    14.3635     0.1697    15.9030 </r>
       <r>    14.4494     0.0607    15.9082 </r>
       <r>    14.5353     0.0154    15.9096 </r>
       <r>    14.6211     0.0028    15.9098 </r>
       <r>    14.7070     0.0004    15.9098 </r>
       <r>    14.7929     0.0001    15.9099 </r>
       <r>    14.8787     0.0008    15.9099 </r>
       <r>    14.9646     0.0044    15.9103 </r>
       <r>    15.0505     0.0173    15.9118 </r>
       <r>    15.1364     0.0482    15.9159 </r>
       <r>    15.2222     0.0971    15.9243 </r>
       <r>    15.3081     0.1457    15.9368 </r>
       <r>    15.3940     0.1708    15.9514 </r>
       <r>    15.4799     0.1678    15.9658 </r>
       <r>    15.5657     0.1469    15.9785 </r>
       <r>    15.6516     0.1149    15.9883 </r>
       <r>    15.7375     0.0758    15.9948 </r>
       <r>    15.8233     0.0394    15.9982 </r>
       <r>    15.9092     0.0154    15.9995 </r>
       <r>    15.9951     0.0044    15.9999 </r>
       <r>    16.0810     0.0009    16.0000 </r>
       <r>    16.1668     0.0001    16.0000 </r>
       <r>    16.2527     0.0000    16.0000 </r>
       <r>    16.3386     0.0000    16.0000 </r>
       <r>    16.4244     0.0000    16.0000 </r>
       <r>    16.5103     0.0000    16.0000 </r>
       <r>    16.5962     0.0000    16.0000 </r>
       <r>    16.6821     0.0000    16.0000 </r>
       <r>    16.7679     0.0000    16.0000 </r>
       <r>    16.8538     0.0000    16.0000 </r>
       <r>    16.9397     0.0000    16.0000 </r>
       <r>    17.0255     0.0000    16.0000 </r>
       <r>    17.1114     0.0000    16.0000 </r>
       <r>    17.1973     0.0000    16.0000 </r>
       <r>    17.2832     0.0000    16.0000 </r>
       <r>    17.3690     0.0000    16.0000 </r>
       <r>    17.4549     0.0000    16.0000 </r>
       <r>    17.5408     0.0000    16.0000 </r>
       <r>    17.6267     0.0000    16.0000 </r>
      </set>
     </set>
    </array>
   </total>
  </dos>
 </calculation>
 <structure name="finalpos" >
  <crystal>
   <varray name="basis" >
    <v>       0.00000000       2.71500000       2.71500000 </v>
    <v>       2.71500000       0.00000000       2.71500000 </v>
    <v>       2.71500000       2.71500000       0.00000000 </v>
   </varray>
   <i name="volume">     40.02575175 </i>
   <varray name="rec_basis" >
    <v>      -0.18416206       0.18416206       0.18416206 </v>
    <v>       0.18416206      -0.18416206       0.18416206 </v>
    <v>       0.18416206       0.18416206      -0.18416206 </v>
   </varray>
  </crystal>
  <varray name="positions" >
   <v>       0.50000000       0.50000000       0.50000000 </v>
   <v>       0.75000000       0.75000000       0.75000000 </v>
  </varray>
 </structure>
</modeling>
