unknown system                          
   1.00000000000000     
    -2.317014    2.317014    1.390547
     2.317014   -2.317014    1.390547
     2.317014    2.317014   -1.390547
   Si
     2
Direct
  0.250000  0.750000  0.500000
  0.000000  0.000000  0.000000
 
   28   28   28
 -5.5898     -4.0580     -.69597E-01  4.8620      9.0503      11.374      11.641      10.459      8.7669      7.1542    
  5.8001      4.7669      4.0545      3.6408      3.5054      3.6408      4.0545      4.7669      5.8002      7.1542    
  8.7669      10.459      11.641      11.374      9.0502      4.8619     -.69622E-01 -4.0581     -4.0581     -4.8614    
 -2.7233      1.5039      6.2295      9.8855      11.587      11.372      9.9687      8.2769      6.7311      5.4672    
  4.5268      3.9010      3.5664      3.5054      3.7139      4.2026      4.9935      6.1060      7.5296      9.1821    
  10.837      11.792      11.147      8.4493      4.0997     -.62945     -.69622E-01 -2.7233     -2.8067     -.29427    
  3.7980      7.9269      10.752      11.679      10.960      9.3929      7.7410      6.2853      5.1264      4.2866    
  3.7503      3.4947      3.5053      3.7817      4.3370      5.1934      6.3662      7.8341      9.4979      11.089    
  11.861      11.004      8.2309      4.0997      4.8619      1.5039     -.29427     0.21340      2.8035      6.4013    
  9.6274      11.447      11.565      10.410      8.7711      7.1893      5.8415      4.7960      4.0587      3.6101    
  3.4293      3.5053      3.8407      4.4502      5.3549      6.5648      8.0485      9.6953      11.214      11.880    
  11.004      8.4493      9.0502      6.2295      3.7980      2.8035      3.6886      6.0555      8.8781      11.031    
  11.817      11.216      9.7637      8.1377      6.6510      5.4227      4.4924      3.8542      3.4872      3.3734    
  3.5054      3.8878      4.5359      5.4682      6.6892      8.1593      9.7624      11.214      11.861      11.147    
  11.374      9.8855      7.9269      6.4013      6.0555      7.0731      8.9711      10.864      11.930      11.799    
  10.664      9.0873      7.5256      6.1528      5.0480      4.2287      3.6817      3.3868      3.3296      3.5055    
  3.9206      4.5892      5.5266      6.7316      8.1593      9.6953      11.089      11.792      11.641      11.587    
  10.752      9.6274      8.8781      8.9711      9.9006      11.185      12.141      12.254      11.432      9.9999    
  8.4317      6.9657      5.7170      4.7326      4.0150      3.5476      3.3127      3.2995      3.5057      3.9374    
  4.6073      5.5266      6.6892      8.0485      9.4979      10.837      10.459      11.372      11.679      11.447    
  11.031      10.864      11.185      11.875      12.522      12.666      12.069      10.837      9.3328      7.8345    
  6.4847      5.3611      4.4878      3.8583      3.4561      3.2673      3.2842      3.5057      3.9374      4.5892    
  5.4682      6.5648      7.8341      9.1821      8.7669      9.9687      10.960      11.565      11.817      11.930    
  12.141      12.522      12.912      13.009      12.565      11.551      10.185      8.7251      7.3302      6.1046    
  5.0983      4.3210      3.7627      3.4098      3.2521      3.2842      3.5057      3.9206      4.5359      5.3549    
  6.3662      7.5296      7.1542      8.2770      9.3929      10.410      11.216      11.799      12.254      12.666    
  13.009      13.131      12.846      12.078      10.928      9.5911      8.2229      6.9477      5.8420      4.9373    
  4.2365      3.7306      3.4098      3.2673      3.2995      3.5055      3.8878      4.4502      5.1934      6.1060    
  5.8002      6.7311      7.7410      8.7711      9.7637      10.664      11.432      12.069      12.565      12.846    
  12.796      12.332      11.485      10.368      9.1177      7.8648      6.7091      5.7079      4.8831      4.2365    
  3.7627      3.4561      3.3127      3.3296      3.5054      3.8407      4.3370      4.9935      4.7669      5.4672    
  6.2853      7.1893      8.1377      9.0873      9.9999      10.837      11.551      12.078      12.332      12.237    
  11.771      10.977      9.9500      8.8130      7.6785      6.6280      5.7079      4.9373      4.3210      3.8583    
  3.5476      3.3868      3.3734      3.5053      3.7817      4.2026      4.0545      4.5268      5.1264      5.8415    
  6.6510      7.5256      8.4317      9.3328      10.185      10.928      11.485      11.771      11.726      11.334    
  10.638      9.7267      8.7079      7.6785      6.7091      5.8420      5.0983      4.4878      4.0150      3.6817    
  3.4872      3.4293      3.5053      3.7139      3.6408      3.9010      4.2866      4.7960      5.4227      6.1528    
  6.9657      7.8345      8.7251      9.5911      10.368      10.977      11.334      11.379      11.095      10.519    
  9.7267      8.8130      7.8648      6.9477      6.1046      5.3611      4.7326      4.2287      3.8542      3.6101    
  3.4947      3.5054      3.5054      3.5664      3.7502      4.0587      4.4923      5.0479      5.7169      6.4847    
  7.3301      8.2228      9.1177      9.9500      10.638      11.095      11.256      11.095      10.638      9.9500    
  9.1177      8.2229      7.3302      6.4847      5.7170      5.0480      4.4924      4.0587      3.7503      3.5664    
  3.6408      3.5054      3.4946      3.6101      3.8541      4.2287      4.7326      5.3611      6.1046      6.9477    
  7.8648      8.8130      9.7267      10.519      11.095      11.379      11.334      10.977      10.368      9.5911    
  8.7251      7.8345      6.9657      6.1528      5.4227      4.7960      4.2866      3.9010      4.0545      3.7138    
  3.5053      3.4292      3.4871      3.6816      4.0150      4.4878      5.0983      5.8420      6.7091      7.6785    
  8.7079      9.7267      10.638      11.334      11.726      11.771      11.485      10.928      10.185      9.3328    
  8.4317      7.5256      6.6510      5.8415      5.1264      4.5268      4.7669      4.2026      3.7816      3.5053    
  3.3734      3.3867      3.5475      3.8582      4.3209      4.9373      5.7079      6.6280      7.6785      8.8130    
  9.9500      10.977      11.771      12.237      12.332      12.078      11.551      10.837      9.9999      9.0873    
  8.1377      7.1893      6.2853      5.4672      5.8001      4.9934      4.3370      3.8406      3.5054      3.3295    
  3.3126      3.4561      3.7627      4.2365      4.8831      5.7079      6.7091      7.8648      9.1177      10.368    
  11.485      12.332      12.796      12.846      12.565      12.069      11.432      10.664      9.7637      8.7711    
  7.7410      6.7311      7.1542      6.1059      5.1934      4.4502      3.8877      3.5055      3.2994      3.2673    
  3.4098      3.7306      4.2365      4.9373      5.8420      6.9477      8.2228      9.5911      10.928      12.078    
  12.846      13.131      13.009      12.666      12.254      11.799      11.216      10.410      9.3929      8.2769    
  8.7669      7.5295      6.3662      5.3548      4.5358      3.9205      3.5056      3.2841      3.2520      3.4098    
  3.7627      4.3209      5.0983      6.1046      7.3301      8.7251      10.185      11.551      12.565      13.009    
  12.912      12.522      12.141      11.930      11.817      11.565      10.960      9.9687      10.459      9.1821    
  7.8340      6.5647      5.4682      4.5891      3.9374      3.5057      3.2841      3.2673      3.4561      3.8582    
  4.4878      5.3611      6.4847      7.8345      9.3328      10.837      12.069      12.666      12.522      11.875    
  11.185      10.864      11.031      11.447      11.679      11.372      11.641      10.837      9.4979      8.0485    
  6.6891      5.5266      4.6073      3.9374      3.5056      3.2994      3.3126      3.5475      4.0150      4.7326    
  5.7169      6.9657      8.4317      9.9999      11.432      12.254      12.141      11.185      9.9006      8.9711    
  8.8781      9.6274      10.752      11.587      11.374      11.792      11.089      9.6953      8.1593      6.7315    
  5.5266      4.5891      3.9205      3.5055      3.3295      3.3867      3.6816      4.2287      5.0479      6.1528    
  7.5256      9.0873      10.664      11.799      11.930      10.864      8.9711      7.0731      6.0555      6.4013    
  7.9269      9.8855      9.0503      11.147      11.861      11.214      9.7624      8.1593      6.6891      5.4682    
  4.5358      3.8877      3.5054      3.3734      3.4871      3.8541      4.4923      5.4227      6.6510      8.1377    
  9.7637      11.216      11.817      11.031      8.8781      6.0555      3.6886      2.8035      3.7980      6.2295    
  4.8620      8.4493      11.004      11.880      11.214      9.6953      8.0485      6.5647      5.3548      4.4502    
  3.8406      3.5053      3.4292      3.6101      4.0587      4.7960      5.8415      7.1893      8.7711      10.410    
  11.565      11.447      9.6274      6.4013      2.8035     0.21340     -.29427      1.5039     -.69597E-01  4.0997    
  8.2309      11.004      11.861      11.089      9.4979      7.8340      6.3662      5.1934      4.3370      3.7816    
  3.5053      3.4946      3.7502      4.2866      5.1264      6.2853      7.7410      9.3929      10.960      11.679    
  10.752      7.9269      3.7980     -.29427     -2.8067     -2.7233     -4.0580     -.62942      4.0997      8.4493    
  11.147      11.792      10.837      9.1821      7.5295      6.1059      4.9934      4.2026      3.7138      3.5054    
  3.5664      3.9010      4.5268      5.4672      6.7311      8.2770      9.9687      11.372      11.587      9.8855    
  6.2295      1.5039     -2.7233     -4.8614     -4.0579     -2.9422     0.54182      5.0450      8.9744      11.209    
  11.490      10.345      8.6666      7.0519      5.6857      4.6334      3.8974      3.4549      3.2840      3.3750    
  3.7336      4.3791      5.3353      6.6087      8.1529      9.8245      11.158      11.272      9.5090      5.9237    
  1.4539     -2.3631     -2.9422     -4.0579     -2.3631      1.4539      5.9237      9.5090      11.272      11.158    
  9.8245      8.1528      6.6086      5.3352      4.3791      3.7336      3.3750      3.2840      3.4549      3.8974    
  4.6335      5.6858      7.0520      8.6666      10.345      11.490      11.209      8.9744      5.0450     0.54182    
 0.65514     -2.2418     -2.7232     -.61455      3.2092      7.2695      10.195      11.297      10.731      9.2381    
  7.6075      6.1545      4.9882      4.1363      3.5851      3.3114      3.2994      3.5474      4.0687      4.8867    
  6.0213      7.4604      9.1207      10.776      11.747      11.198      8.7493      4.8298      5.3371      1.7797    
 -.38710     -.29421      1.9840      5.4726      8.7973      10.842      11.197      10.201      8.6209      7.0582    
  5.7127      4.6617      3.9165      3.4589      3.2672      3.3295      3.6482      4.2390      5.1255      6.3231    
  7.8099      9.4885      11.102      11.952      11.301      8.9145      9.4505      6.4729      3.7081      2.2905    
  2.8035      4.9770      7.8352      10.205      11.277      10.916      9.5906      8.0037      6.5310      5.3038    
  4.3706      3.7297      3.3606      3.2444      3.3735      3.7530      4.4000      5.3367      6.5732      8.0787    
  9.7461      11.309      12.110      11.527      11.829      10.242      8.0128      6.0885      5.3293      6.0555    
  7.8763      9.9082      11.245      11.395      10.452      8.9498      7.4141      6.0493      4.9454      4.1271    
  3.5836      3.2944      3.2445      3.4294      3.8566      4.5431      5.5081      6.7559      8.2482      9.8748    
  11.386      12.204      12.198      12.119      11.107      9.6573      8.5061      8.2412      8.9711      10.267    
  11.408      11.780      11.179      9.8627      8.3299      6.8780      5.6331      4.6514      3.9401      3.4834    
  3.2629      3.2672      3.4949      3.9541      4.6605      5.6291      6.8584      8.3055      9.8628      11.316    
  11.092      12.051      12.290      11.847      11.103      10.577      10.616      11.185      11.888      12.208    
  11.807      10.706      9.2449      7.7633      6.4189      5.2983      4.4321      3.8157      3.4324      3.2669    
  3.3115      3.5666      4.0402      4.7450      5.6915      6.8729      8.2448      9.7077      9.4172      10.714    
  11.732      12.251      12.293      12.114      12.030      12.202      12.522      12.676      12.353      11.444    
  10.118      8.6709      7.2804      6.0571      5.0573      4.2940      3.7572      3.4315      3.3057      3.3751    
  3.6410      4.1099      4.7912      5.6905      6.7973      8.0685      7.7879      9.0097      10.201      11.234    
  11.955      12.355      12.570      12.753      12.942      13.009      12.748      12.023      10.889      9.5530    
  8.1840      6.9089      5.8087      4.9184      4.2410      3.7655      3.4801      3.3774      3.4549      3.7140    
  4.1590      4.7957      5.6255      6.6357      6.3989      7.4217      8.5120      9.5944      10.591      11.419    
  12.037      12.487      12.806      12.962      12.846      12.353      11.479      10.343      9.0807      7.8232    
  6.6718      5.6856      4.8866      4.2742      3.8399      3.5761      3.4790      3.5473      3.7817      4.1844    
  4.7577      5.5001      5.3225      6.1027      6.9949      7.9568      8.9335      9.8685      10.716      11.435    
  12.000      12.382      12.517      12.332      11.797      10.956      9.9022      8.7528      7.6201      6.5858    
  5.6949      4.9637      4.3927      3.9780      3.7164      3.6066      3.6481      3.8406      4.1844      4.6794    
  4.5655      5.1043      5.7668      6.5349      7.3787      8.2588      9.1330      9.9617      10.706      11.321    
  11.746      11.914      11.771      11.307      10.565      9.6297      8.6083      7.5958      6.6599      5.8388    
  5.1484      4.5937      4.1760      3.8963      3.7553      3.7527      3.8876      4.1589      4.1098      4.4236    
  4.8596      5.4123      6.0696      6.8110      7.6087      8.4306      9.2416      10.001      10.656      11.139    
  11.382      11.334      10.983      10.368      9.5666      8.6690      7.7583      6.8946      6.1141      5.4362    
  4.8719      4.4282      4.1099      3.9192      3.8564      3.9204      3.9372      4.0400      4.2622      4.6030    
  5.0595      5.6241      6.2831      7.0171      7.8019      8.6073      9.3934      10.105      10.671      11.019    
  11.095      10.880      10.403      9.7288      8.9369      8.1021      7.2811      6.5118      5.8187      5.2193    
  4.7265      4.3489      4.0910      3.9539      4.0400      3.9372      3.9539      4.0910      4.3490      4.7266    
  5.2194      5.8188      6.5118      7.2811      8.1021      8.9369      9.7288      10.403      10.880      11.095    
  11.019      10.671      10.105      9.3934      8.6073      7.8019      7.0171      6.2830      5.6240      5.0595    
  4.6030      4.2622      4.4236      4.1098      3.9204      3.8565      3.9193      4.1099      4.4283      4.8720    
  5.4363      6.1141      6.8946      7.7583      8.6690      9.5666      10.368      10.983      11.334      11.382    
  11.139      10.656      10.001      9.2416      8.4305      7.6087      6.8110      6.0696      5.4123      4.8596    
  5.1044      4.5656      4.1590      3.8877      3.7528      3.7554      3.8964      4.1760      4.5937      5.1485    
  5.8388      6.6600      7.5958      8.6083      9.6297      10.565      11.307      11.771      11.914      11.746    
  11.321      10.706      9.9617      9.1330      8.2588      7.3787      6.5349      5.7668      6.1027      5.3226    
  4.6794      4.1844      3.8406      3.6481      3.6066      3.7164      3.9780      4.3927      4.9637      5.6949    
  6.5858      7.6201      8.7528      9.9022      10.956      11.797      12.332      12.517      12.382      12.000    
  11.435      10.716      9.8685      8.9335      7.9568      6.9949      7.4218      6.3989      5.5002      4.7578    
  4.1844      3.7817      3.5473      3.4790      3.5761      3.8398      4.2741      4.8866      5.6856      6.6718    
  7.8232      9.0807      10.343      11.479      12.353      12.846      12.962      12.806      12.487      12.037    
  11.419      10.591      9.5944      8.5121      9.0098      7.7879      6.6358      5.6255      4.7958      4.1590    
  3.7139      3.4549      3.3774      3.4801      3.7655      4.2409      4.9184      5.8087      6.9088      8.1840    
  9.5530      10.889      12.023      12.748      13.009      12.942      12.753      12.570      12.355      11.955    
  11.234      10.201      10.714      9.4173      8.0686      6.7973      5.6906      4.7913      4.1099      3.6409    
  3.3750      3.3057      3.4315      3.7571      4.2940      5.0573      6.0571      7.2804      8.6709      10.118    
  11.444      12.353      12.676      12.522      12.202      12.030      12.114      12.293      12.251      11.732    
  12.051      11.092      9.7077      8.2448      6.8729      5.6915      4.7450      4.0401      3.5666      3.3114    
  3.2668      3.4323      3.8157      4.4320      5.2983      6.4189      7.7633      9.2449      10.706      11.807    
  12.208      11.888      11.185      10.616      10.577      11.103      11.847      12.290      12.119      12.198    
  11.316      9.8628      8.3055      6.8584      5.6291      4.6604      3.9540      3.4948      3.2671      3.2628    
  3.4833      3.9401      4.6514      5.6330      6.8780      8.3299      9.8627      11.179      11.780      11.408    
  10.267      8.9711      8.2411      8.5061      9.6573      11.107      10.242      11.829      12.204      11.386    
  9.8748      8.2482      6.7558      5.5080      4.5430      3.8565      3.4293      3.2444      3.2943      3.5835    
  4.1270      4.9454      6.0493      7.4141      8.9498      10.452      11.394      11.245      9.9082      7.8762    
  6.0555      5.3293      6.0885      8.0128      6.4729      9.4505      11.527      12.110      11.309      9.7461    
  8.0786      6.5731      5.3366      4.3999      3.7529      3.3734      3.2443      3.3604      3.7296      4.3706    
  5.3038      6.5310      8.0037      9.5906      10.916      11.277      10.205      7.8352      4.9770      2.8036    
  2.2905      3.7081      1.7798      5.3371      8.9145      11.301      11.952      11.102      9.4885      7.8099    
  6.3230      5.1253      4.2389      3.6481      3.3295      3.2671      3.4588      3.9165      4.6617      5.7127    
  7.0582      8.6209      10.201      11.197      10.842      8.7973      5.4726      1.9840     -.29417     -.38706    
 -2.2417     0.65517      4.8298      8.7493      11.198      11.747      10.776      9.1207      7.4603      6.0212    
  4.8866      4.0686      3.5473      3.2993      3.3114      3.5851      4.1363      4.9882      6.1546      7.6075    
  9.2382      10.731      11.297      10.195      7.2695      3.2093     -.61450     -2.7232     -.69326E-01 0.65533    
  3.3483      6.9209      10.025      11.685      11.663      10.419      8.7395      7.1350      5.7707      4.7091    
  3.9524      3.4791      3.2673      3.3058      3.5974      4.1581      5.0101      6.1651      7.5937      9.1894    
  10.661      11.292      10.424      7.9572      4.5536      1.4541     0.54201     -.62914     0.54200      3.5619    
  7.2064      10.132      11.486      11.194      9.8274      8.1763      6.6499      5.3832      4.4220      3.7611    
  3.3775      3.2521      3.3775      3.7611      4.4221      5.3832      6.6499      8.1763      9.8274      11.193    
  11.486      10.132      7.2064      3.5619      3.3483     0.65533     -.69332E-01  1.4541      4.5536      7.9572    
  10.424      11.292      10.661      9.1895      7.5937      6.1651      5.0101      4.1581      3.5975      3.3058    
  3.2673      3.4792      3.9525      4.7091      5.7708      7.1350      8.7395      10.419      11.663      11.685    
  10.025      6.9209      7.1954      3.9730      1.7799      1.5041      3.2094      6.1080      8.9774      10.766    
  11.040      10.067      8.5391      7.0201      5.7036      4.6683      3.9286      3.4683      3.2669      3.3127    
  3.6068      4.1636      5.0064      6.1539      7.5950      9.2524      10.932      12.071      11.935      10.189    
  10.631      7.9969      5.3257      3.7082      3.7982      5.4727      7.9079      10.021      11.009      10.680    
  9.4276      7.9049      6.4802      5.2851      4.3721      3.7428      3.3790      3.2629      3.3867      3.7555    
  4.3855      5.2996      6.5122      8.0031      9.6830      11.341      12.411      12.248      12.588      11.275    
  9.1721      7.1520      6.0885      6.4014      7.8352      9.6118      10.858      11.045      10.196      8.7805    
  7.3114      5.9955      4.9261      4.1327      3.6080      3.3333      3.2943      3.4872      3.9193      4.6078    
  5.5732      6.8244      8.3326      10.001      11.617      12.661      12.783      12.884      11.980      10.485    
  9.1139      8.5061      8.8781      9.9082      10.934      11.328      10.827      9.6189      8.1680      6.7804    
  5.5838      4.6394      3.9589      3.5292      3.3332      3.3604      3.6101      4.0910      4.8193      5.8115    
  7.0701      8.5593      10.179      11.734      11.671      12.735      13.046      12.579      11.676      10.869    
  10.577      10.864      11.408      11.706      11.382      10.392      9.0224      7.6156      6.3314      5.2592    
  4.4343      3.8560      3.5090      3.3788      3.4587      3.7503      4.2622      5.0080      5.9992      7.2316    
  8.6645      10.200      10.059      11.420      12.485      12.993      12.924      12.523      12.147      12.030    
  12.141      12.208      11.908      11.081      9.8418      8.4705      7.1473      5.9815      5.0324      4.3168    
  3.8268      3.5474      3.4681      3.5850      3.9010      4.4235      5.1622      6.1230      7.2958      8.6379    
  8.4796      9.7633      10.995      12.028      12.679      12.920      12.894      12.805      12.753      12.666    
  12.353      11.654      10.576      9.3016      7.9988      6.7863      5.7446      4.9108      4.2899      3.8713    
  3.6427      3.5972      3.7335      4.0545      4.5655      5.2717      6.1735      7.2567      7.1162      8.2006    
  9.3344      10.429      11.391      12.115      12.556      12.773      12.851      12.806      12.565      12.023    
  11.151      10.047      8.8376      7.6411      6.5530      5.6314      4.8987      4.3539      3.9875      3.7910    
  3.7608      3.8972      4.2026      4.6793      5.3286      6.1463      6.0430      6.8845      7.8218      8.8042    
  9.7654      10.637      11.364      11.905      12.255      12.423      12.382      12.077      11.479      10.626    
  9.5976      8.4976      7.4276      6.4639      5.6490      4.9973      4.5069      4.1716      3.9870      3.9522    
  4.0684      4.3369      4.7577      5.3287      5.2719      5.8709      6.5788      7.3711      8.2105      9.0492    
  9.8373      10.532      11.102      11.517      11.746      11.746      11.485      10.956      10.199      9.2899    
  8.3218      7.3813      6.5298      5.8006      5.2053      4.7450      4.4179      4.2236      4.1634      4.2388    
  4.4501      4.7958      4.7913      5.1625      5.6426      6.2208      6.8795      7.5926      8.3264      9.0446    
  9.7122      10.296      10.758      11.055      11.139      10.977      10.565      9.9395      9.1702      8.3381    
  7.5158      6.7549      6.0846      5.5184      5.0620      4.7189      4.4924      4.3854      4.3998      4.5357    
  4.5891      4.7451      5.0082      5.3737      5.8342      6.3778      6.9868      7.6382      8.3056      8.9602    
  9.5693      10.092      10.476      10.671      10.638      10.368      9.8919      9.2655      8.5583      7.8329    
  7.1353      6.4948      5.9288      5.4491      5.0647      4.7826      4.6078      4.5430      4.6605      4.6073    
  4.6605      4.8194      5.0815      5.4421      5.8935      6.4242      7.0189      7.6592      8.3220      8.9766    
  9.5794      10.075      10.403      10.519      10.403      10.075      9.5794      8.9766      8.3221      7.6592    
  7.0189      6.4241      5.8934      5.4420      5.0814      4.8194      5.0082      4.7451      4.5892      4.5431    
  4.6079      4.7827      5.0647      5.4491      5.9288      6.4948      7.1353      7.8328      8.5583      9.2655    
  9.8919      10.368      10.638      10.671      10.476      10.092      9.5693      8.9603      8.3056      7.6382    
  6.9868      6.3778      5.8342      5.3737      5.6426      5.1625      4.7914      4.5358      4.3999      4.3855    
  4.4925      4.7189      5.0620      5.5185      6.0847      6.7549      7.5158      8.3381      9.1702      9.9394    
  10.565      10.977      11.139      11.055      10.758      10.296      9.7122      9.0446      8.3264      7.5926    
  6.8795      6.2208      6.5788      5.8710      5.2720      4.7958      4.4502      4.2389      4.1635      4.2237    
  4.4179      4.7450      5.2054      5.8006      6.5298      7.3813      8.3218      9.2899      10.199      10.956    
  11.485      11.746      11.746      11.517      11.102      10.532      9.8373      9.0492      8.2105      7.3711    
  7.8218      6.8846      6.0431      5.3288      4.7578      4.3370      4.0685      3.9523      3.9870      4.1716    
  4.5069      4.9973      5.6491      6.4639      7.4276      8.4976      9.5976      10.626      11.479      12.077    
  12.382      12.423      12.255      11.905      11.364      10.637      9.7655      8.8042      9.3345      8.2006    
  7.1162      6.1465      5.3287      4.6794      4.2026      3.8973      3.7609      3.7911      3.9875      4.3539    
  4.8987      5.6314      6.5530      7.6411      8.8376      10.047      11.151      12.023      12.565      12.806    
  12.851      12.773      12.556      12.115      11.391      10.429      10.995      9.7634      8.4796      7.2567    
  6.1736      5.2718      4.5656      4.0545      3.7335      3.5972      3.6428      3.8713      4.2899      4.9108    
  5.7446      6.7863      7.9988      9.3016      10.576      11.654      12.353      12.666      12.753      12.805    
  12.894      12.919      12.679      12.028      12.485      11.420      10.059      8.6379      7.2959      6.1231    
  5.1623      4.4236      3.9010      3.5850      3.4681      3.5475      3.8268      4.3168      5.0324      5.9815    
  7.1473      8.4705      9.8418      11.081      11.908      12.208      12.141      12.029      12.146      12.523    
  12.923      12.992      13.046      12.735      11.671      10.200      8.6645      7.2316      5.9992      5.0080    
  4.2622      3.7503      3.4588      3.3788      3.5089      3.8560      4.4343      5.2592      6.3314      7.6156    
  9.0224      10.392      11.382      11.706      11.408      10.864      10.577      10.869      11.676      12.579    
  11.980      12.884      12.783      11.734      10.179      8.5593      7.0701      5.8115      4.8193      4.0910    
  3.6101      3.3604      3.3332      3.5292      3.9589      4.6394      5.5838      6.7804      8.1680      9.6189    
  10.827      11.328      10.934      9.9081      8.8780      8.5060      9.1138      10.485      9.1721      11.275    
  12.588      12.661      11.617      10.001      8.3326      6.8244      5.5732      4.6078      3.9193      3.4872    
  3.2943      3.3332      3.6080      4.1327      4.9261      5.9955      7.3114      8.7805      10.195      11.044    
  10.858      9.6117      7.8351      6.4013      6.0885      7.1520      5.3257      7.9969      10.631      12.248    
  12.411      11.341      9.6830      8.0031      6.5122      5.2995      4.3855      3.7555      3.3867      3.2628    
  3.3789      3.7427      4.3720      5.2851      6.4802      7.9049      9.4275      10.680      11.009      10.021    
  7.9079      5.4727      3.7982      3.7082      1.7799      3.9730      7.1954      10.189      11.935      12.071    
  10.932      9.2524      7.5950      6.1539      5.0063      4.1636      3.6067      3.3126      3.2669      3.4683    
  3.9286      4.6683      5.7036      7.0201      8.5391      10.067      11.040      10.765      8.9773      6.1080    
  3.2094      1.5041      4.8622      5.3373      7.1954      9.6403      11.652      12.494      12.017      10.627    
  8.9678      7.3980      6.0563      4.9974      4.2237      3.7165      3.4561      3.4315      3.6429      4.1011    
  4.8241      5.8256      7.0910      8.5474      10.032      11.100      11.162      9.9925      7.9572      5.9239    
  5.0451      4.0999      4.8299      6.9209      9.4531      11.383      12.045      11.406      9.9599      8.3447    
  6.8571      5.6152      4.6601      3.9871      3.5762      3.4098      3.4802      3.7912      4.3575      5.1987    
  6.3248      7.7086      9.2541      10.737      11.587      11.241      9.6022      7.2064      6.9209      4.8300    
  4.1000      5.0451      7.2064      9.6022      11.241      11.587      10.737      9.2541      7.7086      6.3249    
  5.1987      4.3575      3.7912      3.4802      3.4098      3.5762      3.9872      4.6601      5.6152      6.8570    
  8.3446      9.9599      11.406      12.045      11.383      9.4531      9.6403      7.1954      5.3373      4.8622    
  5.9239      7.9572      9.9925      11.162      11.100      10.032      8.5473      7.0910      5.8256      4.8241    