   2   2   0   0
  0.1529437E+02  0.3691622E-09  0.3691622E-09  0.3691622E-09  0.5000000E-15
  1.000000000000000E-004
  CAR 
 unknown system                          
     21.75718918     -6.57434228  301      9.12172718      1.00000000
     -6.574  0.0000E+00  0.0000E+00
     -6.480  0.0000E+00  0.0000E+00
     -6.385  0.0000E+00  0.0000E+00
     -6.291  0.0000E+00  0.0000E+00
     -6.197  0.0000E+00  0.0000E+00
     -6.102  0.0000E+00  0.0000E+00
     -6.008  0.0000E+00  0.0000E+00
     -5.913  0.0000E+00  0.0000E+00
     -5.819  0.0000E+00  0.0000E+00
     -5.724  0.1161E-16  0.1097E-17
     -5.630  0.2177E-14  0.2067E-15
     -5.536  0.2780E-12  0.2646E-13
     -5.441  0.2287E-10  0.2187E-11
     -5.347  0.1215E-08  0.1169E-09
     -5.252  0.4168E-07  0.4053E-08
     -5.158  0.9246E-06  0.9137E-07
     -5.063  0.1328E-04  0.1345E-05
     -4.969  0.1236E-03  0.1302E-04
     -4.874  0.7467E-03  0.8353E-04
     -4.780  0.2929E-02  0.3602E-03
     -4.686  0.7470E-02  0.1066E-02
     -4.591  0.1239E-01  0.2236E-02
     -4.497  0.1337E-01  0.3499E-02
     -4.402  0.9394E-02  0.4386E-02
     -4.308  0.4293E-02  0.4791E-02
     -4.213  0.1276E-02  0.4912E-02
     -4.119  0.2462E-03  0.4935E-02
     -4.025  0.3085E-04  0.4938E-02
     -3.930  0.2514E-05  0.4938E-02
     -3.836  0.3765E-06  0.4938E-02
     -3.741  0.5163E-05  0.4939E-02
     -3.647  0.7044E-04  0.4945E-02
     -3.552  0.6234E-03  0.5004E-02
     -3.458  0.3581E-02  0.5342E-02
     -3.363  0.1336E-01  0.6604E-02
     -3.269  0.3240E-01  0.9664E-02
     -3.175  0.5112E-01  0.1449E-01
     -3.080  0.5249E-01  0.1945E-01
     -2.986  0.3507E-01  0.2276E-01
     -2.891  0.1524E-01  0.2420E-01
     -2.797  0.4307E-02  0.2461E-01
     -2.702  0.7907E-03  0.2468E-01
     -2.608  0.9420E-04  0.2469E-01
     -2.513  0.7307E-05  0.2469E-01
     -2.419  0.1230E-05  0.2469E-01
     -2.325  0.1600E-04  0.2469E-01
     -2.230  0.1945E-03  0.2471E-01
     -2.136  0.1571E-02  0.2486E-01
     -2.041  0.8506E-02  0.2566E-01
     -1.947  0.3116E-01  0.2861E-01
     -1.852  0.7783E-01  0.3596E-01
     -1.758  0.1331E+00  0.4852E-01
     -1.664  0.1555E+00  0.6320E-01
     -1.569  0.1235E+00  0.7486E-01
     -1.475  0.6606E-01  0.8110E-01
     -1.380  0.2360E-01  0.8333E-01
     -1.286  0.5587E-02  0.8386E-01
     -1.191  0.8699E-03  0.8394E-01
     -1.097  0.8865E-04  0.8395E-01
     -1.002  0.5888E-05  0.8395E-01
     -0.908  0.2541E-06  0.8395E-01
     -0.814  0.7108E-08  0.8395E-01
     -0.719  0.1286E-09  0.8395E-01
     -0.625  0.1504E-11  0.8395E-01
     -0.530  0.1136E-13  0.8395E-01
     -0.436  0.4644E-16  0.8395E-01
     -0.341  0.0000E+00  0.8395E-01
     -0.247  0.0000E+00  0.8395E-01
     -0.153  0.3948E-15  0.8395E-01
     -0.058  0.6797E-13  0.8395E-01
      0.036  0.7637E-11  0.8395E-01
      0.131  0.5580E-09  0.8395E-01
      0.225  0.2658E-07  0.8395E-01
      0.320  0.8283E-06  0.8395E-01
      0.414  0.1694E-04  0.8395E-01
      0.509  0.2281E-03  0.8397E-01
      0.603  0.2031E-02  0.8417E-01
      0.697  0.1201E-01  0.8530E-01
      0.792  0.4738E-01  0.8977E-01
      0.886  0.1250E+00  0.1016E+00
      0.981  0.2213E+00  0.1225E+00
      1.075  0.2632E+00  0.1473E+00
      1.170  0.2103E+00  0.1672E+00
      1.264  0.1128E+00  0.1778E+00
      1.358  0.4125E-01  0.1817E+00
      1.453  0.1439E-01  0.1831E+00
      1.547  0.1789E-01  0.1848E+00
      1.642  0.3672E-01  0.1883E+00
      1.736  0.5313E-01  0.1933E+00
      1.831  0.5023E-01  0.1980E+00
      1.925  0.3091E-01  0.2009E+00
      2.020  0.1237E-01  0.2021E+00
      2.114  0.3220E-02  0.2024E+00
      2.208  0.5567E-03  0.2025E+00
      2.303  0.1943E-03  0.2025E+00
      2.397  0.9274E-03  0.2026E+00
      2.492  0.4110E-02  0.2030E+00
      2.586  0.1192E-01  0.2041E+00
      2.681  0.2275E-01  0.2062E+00
      2.775  0.2995E-01  0.2091E+00
      2.870  0.3271E-01  0.2122E+00
      2.964  0.4174E-01  0.2161E+00
      3.058  0.6090E-01  0.2218E+00
      3.153  0.7439E-01  0.2289E+00
      3.247  0.6681E-01  0.2352E+00
      3.342  0.4333E-01  0.2393E+00
      3.436  0.2020E-01  0.2412E+00
      3.531  0.6657E-02  0.2418E+00
      3.625  0.1514E-02  0.2420E+00
      3.719  0.2325E-03  0.2420E+00
      3.814  0.2389E-04  0.2420E+00
      3.908  0.6135E-05  0.2420E+00
      4.003  0.6344E-04  0.2420E+00
      4.097  0.5721E-03  0.2420E+00
      4.192  0.3356E-02  0.2424E+00
      4.286  0.1283E-01  0.2436E+00
      4.381  0.3223E-01  0.2466E+00
      4.475  0.5421E-01  0.2517E+00
      4.569  0.6388E-01  0.2578E+00
      4.664  0.5749E-01  0.2632E+00
      4.758  0.4329E-01  0.2673E+00
      4.853  0.2724E-01  0.2698E+00
      4.947  0.1308E-01  0.2711E+00
      5.042  0.4558E-02  0.2715E+00
      5.136  0.2533E-02  0.2718E+00
      5.230  0.9212E-02  0.2726E+00
      5.325  0.3537E-01  0.2760E+00
      5.419  0.9285E-01  0.2847E+00
      5.514  0.1661E+00  0.3004E+00
      5.608  0.2042E+00  0.3197E+00
      5.703  0.1732E+00  0.3361E+00
      5.797  0.1010E+00  0.3456E+00
      5.892  0.4016E-01  0.3494E+00
      5.986  0.1080E-01  0.3504E+00
      6.080  0.2185E-02  0.3506E+00
      6.175  0.2010E-02  0.3508E+00
      6.269  0.8072E-02  0.3516E+00
      6.364  0.2401E-01  0.3538E+00
      6.458  0.4894E-01  0.3585E+00
      6.553  0.7530E-01  0.3656E+00
      6.647  0.1036E+00  0.3754E+00
      6.741  0.1377E+00  0.3884E+00
      6.836  0.1600E+00  0.4035E+00
      6.930  0.1575E+00  0.4184E+00
      7.025  0.1460E+00  0.4321E+00
      7.119  0.1290E+00  0.4443E+00
      7.214  0.9289E-01  0.4531E+00
      7.308  0.4936E-01  0.4578E+00
      7.403  0.2299E-01  0.4599E+00
      7.497  0.1575E-01  0.4614E+00
      7.591  0.1395E-01  0.4627E+00
      7.686  0.9999E-02  0.4637E+00
      7.780  0.7157E-02  0.4644E+00
      7.875  0.1302E-01  0.4656E+00
      7.969  0.3429E-01  0.4688E+00
      8.064  0.7115E-01  0.4755E+00
      8.158  0.1124E+00  0.4862E+00
      8.252  0.1373E+00  0.4991E+00
      8.347  0.1258E+00  0.5110E+00
      8.441  0.8208E-01  0.5188E+00
      8.536  0.3650E-01  0.5222E+00
      8.630  0.1080E-01  0.5232E+00
      8.725  0.2192E-02  0.5234E+00
      8.819  0.1184E-02  0.5236E+00
      8.914  0.5658E-02  0.5241E+00
      9.008  0.2246E-01  0.5262E+00
      9.102  0.5819E-01  0.5317E+00
      9.197  0.9805E-01  0.5410E+00
      9.291  0.1075E+00  0.5511E+00
      9.386  0.7671E-01  0.5584E+00
      9.480  0.3561E-01  0.5617E+00
      9.575  0.1083E-01  0.5627E+00
      9.669  0.2933E-02  0.5630E+00
      9.764  0.5452E-02  0.5635E+00
      9.858  0.2118E-01  0.5655E+00
      9.952  0.5632E-01  0.5709E+00
     10.047  0.9875E-01  0.5802E+00
     10.141  0.1179E+00  0.5913E+00
     10.236  0.1054E+00  0.6013E+00
     10.330  0.8469E-01  0.6093E+00
     10.425  0.6727E-01  0.6156E+00
     10.519  0.5075E-01  0.6204E+00
     10.613  0.4843E-01  0.6250E+00
     10.708  0.7499E-01  0.6321E+00
     10.802  0.1113E+00  0.6426E+00
     10.897  0.1168E+00  0.6536E+00
     10.991  0.8255E-01  0.6614E+00
     11.086  0.3943E-01  0.6651E+00
     11.180  0.1288E-01  0.6663E+00
     11.275  0.2914E-02  0.6666E+00
     11.369  0.5543E-03  0.6667E+00
     11.463  0.8725E-03  0.6668E+00
     11.558  0.4463E-02  0.6672E+00
     11.652  0.1582E-01  0.6687E+00
     11.747  0.3749E-01  0.6722E+00
     11.841  0.6293E-01  0.6782E+00
     11.936  0.8529E-01  0.6862E+00
     12.030  0.1072E+00  0.6963E+00
     12.124  0.1201E+00  0.7077E+00
     12.219  0.1025E+00  0.7174E+00
     12.313  0.6026E-01  0.7230E+00
     12.408  0.2344E-01  0.7253E+00
     12.502  0.5956E-02  0.7258E+00
     12.597  0.9845E-03  0.7259E+00
     12.691  0.1056E-03  0.7259E+00
     12.786  0.7348E-05  0.7259E+00
     12.880  0.3576E-06  0.7259E+00
     12.974  0.8256E-06  0.7259E+00
     13.069  0.1606E-04  0.7259E+00
     13.163  0.2048E-03  0.7259E+00
     13.258  0.1692E-02  0.7261E+00
     13.352  0.9078E-02  0.7270E+00
     13.447  0.3163E-01  0.7300E+00
     13.541  0.7168E-01  0.7367E+00
     13.635  0.1057E+00  0.7467E+00
     13.730  0.1014E+00  0.7563E+00
     13.824  0.6359E-01  0.7623E+00
     13.919  0.2788E-01  0.7649E+00
     14.013  0.1618E-01  0.7664E+00
     14.108  0.2766E-01  0.7691E+00
     14.202  0.5096E-01  0.7739E+00
     14.297  0.7298E-01  0.7808E+00
     14.391  0.9342E-01  0.7896E+00
     14.485  0.1172E+00  0.8006E+00
     14.580  0.1302E+00  0.8129E+00
     14.674  0.1191E+00  0.8242E+00
     14.769  0.9488E-01  0.8332E+00
     14.863  0.7050E-01  0.8398E+00
     14.958  0.5387E-01  0.8449E+00
     15.052  0.5268E-01  0.8499E+00
     15.146  0.5865E-01  0.8554E+00
     15.241  0.5466E-01  0.8606E+00
     15.335  0.4282E-01  0.8646E+00
     15.430  0.3708E-01  0.8681E+00
     15.524  0.3997E-01  0.8719E+00
     15.619  0.4798E-01  0.8764E+00
     15.713  0.5807E-01  0.8819E+00
     15.808  0.6118E-01  0.8877E+00
     15.902  0.5722E-01  0.8931E+00
     15.996  0.6630E-01  0.8994E+00
     16.091  0.9460E-01  0.9083E+00
     16.185  0.1107E+00  0.9187E+00
     16.280  0.8849E-01  0.9271E+00
     16.374  0.4705E-01  0.9315E+00
     16.469  0.1947E-01  0.9334E+00
     16.563  0.1661E-01  0.9350E+00
     16.658  0.3630E-01  0.9384E+00
     16.752  0.7412E-01  0.9454E+00
     16.846  0.1120E+00  0.9560E+00
     16.941  0.1228E+00  0.9676E+00
     17.035  0.1058E+00  0.9775E+00
     17.130  0.8566E-01  0.9856E+00
     17.224  0.7327E-01  0.9926E+00
     17.319  0.6621E-01  0.9988E+00
     17.413  0.6463E-01  0.1005E+01
     17.507  0.5985E-01  0.1011E+01
     17.602  0.4258E-01  0.1015E+01
     17.696  0.2169E-01  0.1017E+01
     17.791  0.1220E-01  0.1018E+01
     17.885  0.2012E-01  0.1020E+01
     17.980  0.4184E-01  0.1024E+01
     18.074  0.6318E-01  0.1030E+01
     18.169  0.6833E-01  0.1036E+01
     18.263  0.5565E-01  0.1041E+01
     18.357  0.3514E-01  0.1045E+01
     18.452  0.1682E-01  0.1046E+01
     18.546  0.5780E-02  0.1047E+01
     18.641  0.1362E-02  0.1047E+01
     18.735  0.2136E-03  0.1047E+01
     18.830  0.2199E-04  0.1047E+01
     18.924  0.1474E-05  0.1047E+01
     19.018  0.8204E-07  0.1047E+01
     19.113  0.5294E-06  0.1047E+01
     19.207  0.1003E-04  0.1047E+01
     19.302  0.1234E-03  0.1047E+01
     19.396  0.9849E-03  0.1047E+01
     19.491  0.5102E-02  0.1048E+01
     19.585  0.1717E-01  0.1049E+01
     19.680  0.3758E-01  0.1053E+01
     19.774  0.5350E-01  0.1058E+01
     19.868  0.4956E-01  0.1062E+01
     19.963  0.2988E-01  0.1065E+01
     20.057  0.1172E-01  0.1066E+01
     20.152  0.2987E-02  0.1067E+01
     20.246  0.4945E-03  0.1067E+01
     20.341  0.5312E-04  0.1067E+01
     20.435  0.3698E-05  0.1067E+01
     20.529  0.1667E-06  0.1067E+01
     20.624  0.4859E-08  0.1067E+01
     20.718  0.9150E-10  0.1067E+01
     20.813  0.1112E-11  0.1067E+01
     20.907  0.8708E-14  0.1067E+01
     21.002  0.4644E-16  0.1067E+01
     21.096  0.0000E+00  0.1067E+01
     21.191  0.0000E+00  0.1067E+01
     21.285  0.0000E+00  0.1067E+01
     21.379  0.0000E+00  0.1067E+01
     21.474  0.0000E+00  0.1067E+01
     21.568  0.0000E+00  0.1067E+01
     21.663  0.0000E+00  0.1067E+01
     21.757  0.0000E+00  0.1067E+01
