    2    2   15    1
  0.1529437E+02  0.3691622E-09  0.3691622E-09  0.3691622E-09  0.5000000E-15
  1.000000000000000E-004
  CAR 
 unknown system                          
      8      6      8
 
  0.0000000E+00  0.0000000E+00  0.0000000E+00  0.3703704E-01
    1       -4.614346   1.000000
    2        6.192166   1.000000
    3        6.303817   1.000000
    4        6.303829   1.000000
    5       10.609642   0.000000
    6       16.952359   0.000000
    7       17.376626   0.000000
    8       17.376643   0.000000
 
  0.3333333E+00 -0.7127914E-16  0.7127914E-16  0.2962963E+00
    1       -1.503109   1.000000
    2        5.359565   1.000000
    3        6.803241   1.000000
    4        7.475427   1.000000
    5       10.284444   0.000000
    6       12.706064   0.000000
    7       13.046277   0.000000
    8       14.034629   0.000000
 
  0.3333333E+00  0.3333333E+00  0.1273482E-15  0.2962963E+00
    1        1.047463   1.000000
    2        1.065924   1.000000
    3        6.281682   1.000000
    4        8.246522   0.999626
    5        8.818547   0.250373
    6       10.966864   0.000000
    7       15.509320   0.000000
    8       16.535370   0.000000
 
 -0.3333333E+00  0.3333333E+00  0.6449678E-17  0.1481481E+00
    1       -3.295935   1.000000
    2        0.570233   1.000000
    3        7.536195   1.000000
    4        9.384994   0.000001
    5       11.219147   0.000000
    6       13.110702   0.000000
    7       16.528056   0.000000
    8       18.935264   0.000000
 
 -0.3333333E+00  0.3333333E+00  0.3333333E+00  0.1481481E+00
    1       -2.009700   1.000000
    2        1.111890   1.000000
    3        2.896330   1.000000
    4        5.958091   1.000000
    5       15.241252   0.000000
    6       16.829757   0.000000
    7       18.088866   0.000000
    8       19.043820   0.000000
 
 -0.3333333E+00 -0.3333333E+00  0.3333333E+00  0.7407407E-01
    1        2.779166   1.000000
    2        2.877535   1.000000
    3        4.608784   1.000000
    4        4.608785   1.000000
    5        5.180655   1.000000
    6       15.153519   0.000000
    7       16.002999   0.000000
    8       16.003020   0.000000
