 running on    8 total cores
 distrk:  each k-point on    8 cores,    1 groups
 distr:  one band on    1 cores,    8 groups
 using from now: INCAR     
 vasp.5.4.4.18Apr17-6-g9f103f2a35 (build Dec 09 2018 21:25:21) complex          
  
 POSCAR found type information on POSCAR  Si
 POSCAR found :  1 types and       2 ions
 scaLAPACK will be used

 ----------------------------------------------------------------------------- 
|                                                                             |
|           W    W    AA    RRRRR   N    N  II  N    N   GGGG   !!!           |
|           W    W   A  A   R    R  NN   N  II  NN   N  G    G  !!!           |
|           W    W  A    A  R    R  N N  N  II  N N  N  G       !!!           |
|           W WW W  AAAAAA  RRRRR   N  N N  II  N  N N  G  GGG   !            |
|           WW  WW  A    A  R   R   N   NN  II  N   NN  G    G                |
|           W    W  A    A  R    R  N    N  II  N    N   GGGG   !!!           |
|                                                                             |
|      For optimal performance we recommend to set                            |
|        NCORE= 4 - approx SQRT( number of cores)                             |
|      NCORE specifies how many cores store one orbital (NPAR=cpu/NCORE).     |
|      This setting can  greatly improve the performance of VASP for DFT.     |
|      The default,   NCORE=1            might be grossly inefficient         |
|      on modern multi-core architectures or massively parallel machines.     |
|      Do your own testing !!!!                                               |
|      Unfortunately you need to use the default for GW and RPA calculations. |
|      (for HF NCORE is supported but not extensively tested yet)             |
|                                                                             |
 ----------------------------------------------------------------------------- 

 LDA part: xc-table for Pade appr. of Perdew
 POSCAR, INCAR and KPOINTS ok, starting setup
 FFT: planning ...
 WAVECAR not read
 entering main loop
       N       E                     dE             d eps       ncg     rms          rms(c)
DAV:   1    -0.147503246122E+01   -0.14750E+01   -0.21250E+03   104   0.381E+02
DAV:   2    -0.990830464274E+01   -0.84333E+01   -0.68323E+01   152   0.475E+01
DAV:   3    -0.996754735246E+01   -0.59243E-01   -0.59243E-01   112   0.536E+00
DAV:   4    -0.996760896228E+01   -0.61610E-04   -0.61609E-04   160   0.184E-01
DAV:   5    -0.996760896578E+01   -0.35026E-08   -0.37839E-08   112   0.126E-03    0.160E+00
DAV:   6    -0.996127609669E+01    0.63329E-02   -0.21383E-03   144   0.328E-01    0.100E+00
DAV:   7    -0.995617074970E+01    0.51053E-02   -0.63979E-03   112   0.588E-01    0.374E-02
DAV:   8    -0.995614806740E+01    0.22682E-04   -0.11064E-04    80   0.772E-02
   1 F= -.99561481E+01 E0= -.99427648E+01  d E =-.995615E+01
 curvature:   0.00 expect dE= 0.000E+00 dE for cont linesearch  0.000E+00
 trial: gam= 0.00000 g(F)=  0.938E-46 g(S)=  0.591E+00 ort = 0.000E+00 (trialstep = 0.100E+01)
 search vector abs. value=  0.591E+00
 bond charge predicted
       N       E                     dE             d eps       ncg     rms          rms(c)
DAV:   1    -0.102313238785E+02   -0.27515E+00   -0.13948E+01   152   0.219E+01    0.215E+00
DAV:   2    -0.101013045795E+02    0.13002E+00   -0.26780E-01   104   0.392E+00    0.123E+00
DAV:   3    -0.100360990965E+02    0.65205E-01   -0.17231E-01   144   0.222E+00    0.111E-01
DAV:   4    -0.100363788238E+02   -0.27973E-03   -0.42672E-03    96   0.515E-01    0.954E-02
DAV:   5    -0.100363626600E+02    0.16164E-04   -0.13629E-04    48   0.750E-02
   2 F= -.10036363E+02 E0= -.10023036E+02  d E =-.802146E-01
 trial-energy change:   -0.080215  1 .order   -0.102094   -0.591239    0.387050
 step:   0.5715(harm=  0.6044)  dis= 0.00000  next Energy=   -10.121010 (dE=-0.165E+00)
 bond charge predicted
       N       E                     dE             d eps       ncg     rms          rms(c)
DAV:   1    -0.101493636068E+02   -0.11298E+00   -0.23900E+00   136   0.887E+00    0.870E-01
DAV:   2    -0.101302392313E+02    0.19124E-01   -0.47211E-02   104   0.166E+00    0.501E-01
DAV:   3    -0.101196428664E+02    0.10596E-01   -0.28289E-02   128   0.917E-01    0.476E-02
DAV:   4    -0.101196864609E+02   -0.43595E-04   -0.88951E-04    88   0.232E-01
   3 F= -.10119686E+02 E0= -.10106371E+02  d E =-.163538E+00
 curvature:  -0.30 expect dE=-0.594E-03 dE for cont linesearch -0.125E-04
 ZBRENT: interpolating
 opt :   0.5769  next Energy=   -10.119700 (dE=-0.164E+00)
 bond charge predicted
       N       E                     dE             d eps       ncg     rms          rms(c)
DAV:   1    -0.101196802359E+02   -0.37370E-04   -0.28300E-04    64   0.100E-01    0.181E-02
DAV:   2    -0.101196798231E+02    0.41283E-06   -0.10642E-05    48   0.259E-02
   4 F= -.10119680E+02 E0= -.10106364E+02  d E =-.163532E+00
 curvature:  -0.32 expect dE=-0.564E-03 dE for cont linesearch -0.310E-05
 ZBRENT: interpolating
 opt :   0.5752  next Energy=   -10.119682 (dE=-0.164E+00)
 bond charge predicted
       N       E                     dE             d eps       ncg     rms          rms(c)
DAV:   1    -0.101196866171E+02   -0.63812E-05   -0.61907E-05    48   0.460E-02    0.377E-03
DAV:   2    -0.101196863839E+02    0.23322E-06   -0.25520E-06    48   0.132E-02
   5 F= -.10119686E+02 E0= -.10106371E+02  d E =-.163538E+00
 curvature:  -0.22 expect dE=-0.376E-03 dE for cont linesearch -0.136E-05
 ZBRENT: bisectioning
 opt :   0.5733  next Energy=   -10.119689 (dE=-0.164E+00)
 bond charge predicted
       N       E                     dE             d eps       ncg     rms          rms(c)
DAV:   1    -0.101196901269E+02   -0.35098E-05   -0.38365E-05    48   0.363E-02    0.368E-03
DAV:   2    -0.101196897985E+02    0.32835E-06   -0.14070E-06    48   0.952E-03
   6 F= -.10119690E+02 E0= -.10106374E+02  d E =-.163542E+00
 curvature:  -0.49 expect dE=-0.833E-03 dE for cont linesearch -0.145E-07
 trial: gam= 0.00307 g(F)=  0.973E-47 g(S)=  0.168E-02 ort =-0.132E-03 (trialstep = 0.915E+00)
 search vector abs. value=  0.169E-02
 bond charge predicted
       N       E                     dE             d eps       ncg     rms          rms(c)
DAV:   1    -0.101205421330E+02   -0.85201E-03   -0.20692E-02   112   0.819E-01    0.926E-02
DAV:   2    -0.101202899896E+02    0.25214E-03   -0.15828E-04    88   0.950E-02
   7 F= -.10120290E+02 E0= -.10106974E+02  d E =-.600191E-03
 trial-energy change:   -0.000600  1 .order   -0.000767   -0.001540    0.000006
 step:   0.9112(harm=  0.9112)  dis= 0.00000  next Energy=   -10.120457 (dE=-0.767E-03)
 bond charge predicted
       N       E                     dE             d eps       ncg     rms          rms(c)
DAV:   1    -0.101201440006E+02    0.39813E-03   -0.19550E-04    48   0.817E-02    0.360E-03
DAV:   2    -0.101201434187E+02    0.58189E-06   -0.60115E-06    48   0.234E-02
   8 F= -.10120143E+02 E0= -.10106828E+02  d E =-.453620E-03
 curvature:  -0.46 expect dE=-0.143E-03 dE for cont linesearch -0.116E-03
 ZBRENT: interpolating
 opt :   0.6558  next Energy=   -10.120227 (dE=-0.537E-03)
 bond charge predicted
       N       E                     dE             d eps       ncg     rms          rms(c)
DAV:   1    -0.101202589044E+02   -0.11490E-03   -0.16310E-03   104   0.230E-01    0.259E-02
DAV:   2    -0.101202396817E+02    0.19223E-04   -0.12972E-05    48   0.278E-02
   9 F= -.10120240E+02 E0= -.10106924E+02  d E =-.549883E-03
 curvature:  -0.33 expect dE=-0.148E-04 dE for cont linesearch -0.749E-05
 ZBRENT: interpolating
 opt :   0.5582  next Energy=   -10.120250 (dE=-0.560E-03)
 bond charge predicted
       N       E                     dE             d eps       ncg     rms          rms(c)
DAV:   1    -0.101202237895E+02    0.35115E-04   -0.14542E-04    48   0.710E-02    0.101E-02
DAV:   2    -0.101202212731E+02    0.25164E-05   -0.48140E-06    48   0.178E-02
  10 F= -.10120221E+02 E0= -.10106906E+02  d E =-.531475E-03
 curvature:  -0.46 expect dE=-0.162E-04 dE for cont linesearch -0.845E-05
 ZBRENT: interpolating
 opt :   0.6043  next Energy=   -10.120225 (dE=-0.536E-03)
 bond charge predicted
       N       E                     dE             d eps       ncg     rms          rms(c)
DAV:   1    -0.101202294270E+02   -0.56375E-05   -0.66872E-05    48   0.470E-02    0.425E-03
DAV:   2    -0.101202290308E+02    0.39620E-06   -0.14289E-06    48   0.105E-02
  11 F= -.10120229E+02 E0= -.10106913E+02  d E =-.539232E-03
 curvature:  -0.22 expect dE=-0.795E-05 dE for cont linesearch -0.282E-05
 ZBRENT: bisectioning
 opt :   0.6301  next Energy=   -10.120233 (dE=-0.543E-03)
 bond charge predicted
       N       E                     dE             d eps       ncg     rms          rms(c)
DAV:   1    -0.101202311678E+02   -0.17408E-05   -0.13375E-05    48   0.212E-02    0.284E-03
DAV:   2    -0.101202308901E+02    0.27767E-06   -0.44930E-07    48   0.547E-03
  12 F= -.10120231E+02 E0= -.10106915E+02  d E =-.541092E-03
 curvature:  -0.28 expect dE=-0.791E-05 dE for cont linesearch -0.872E-06
 ZBRENT: bisectioning
 opt :   0.6430  next Energy=   -10.120232 (dE=-0.542E-03)
 bond charge predicted
       N       E                     dE             d eps       ncg     rms          rms(c)
DAV:   1    -0.101202311264E+02    0.41345E-07   -0.31020E-06    48   0.103E-02    0.144E-03
DAV:   2    -0.101202310312E+02    0.95188E-07   -0.11795E-07    48   0.276E-03
  13 F= -.10120231E+02 E0= -.10106915E+02  d E =-.541233E-03
 curvature:  -0.22 expect dE=-0.600E-05 dE for cont linesearch -0.123E-06
 ZBRENT: bisectioning
 opt :   0.6494  next Energy=   -10.120231 (dE=-0.541E-03)
 bond charge predicted
       N       E                     dE             d eps       ncg     rms          rms(c)
DAV:   1    -0.101202309921E+02    0.13428E-06   -0.78080E-07    48   0.517E-03    0.726E-04
DAV:   2    -0.101202309578E+02    0.34386E-07   -0.29863E-08    48   0.138E-03
  14 F= -.10120231E+02 E0= -.10106915E+02  d E =-.541159E-03
 curvature:  -0.23 expect dE=-0.631E-05 dE for cont linesearch -0.123E-07
 ZBRENT: interpolating
 opt :   0.6519  next Energy=   -10.120231 (dE=-0.541E-03)
 bond charge predicted
       N       E                     dE             d eps       ncg     rms          rms(c)
DAV:   1    -0.101202309003E+02    0.91873E-07   -0.11304E-07    48   0.199E-03    0.296E-04
DAV:   2    -0.101202308880E+02    0.12257E-07   -0.49166E-09    48   0.553E-04
  15 F= -.10120231E+02 E0= -.10106915E+02  d E =-.541089E-03
 curvature:  -0.26 expect dE=-0.692E-05 dE for cont linesearch -0.590E-11
 trial: gam= 0.02325 g(F)=  0.165E-46 g(S)=  0.271E-04 ort = 0.198E-06 (trialstep = 0.862E+00)
 search vector abs. value=  0.280E-04
 writing wavefunctions
