<?xml version="1.0" encoding="ISO-8859-1"?>
<modeling>
 <generator>
  <i name="program" type="string">vasp </i>
  <i name="version" type="string">5.4.4.18Apr17-6-g9f103f2a35  </i>
  <i name="subversion" type="string">(build Dec 09 2018 21:25:21) complex            parallel </i>
  <i name="platform" type="string">IFC18.0.1.163_CrayMPICH7.7.0_MKL18.0.1.163 </i>
  <i name="date" type="string">2019 03 19 </i>
  <i name="time" type="string">13:07:24 </i>
 </generator>
 <incar>
  <i type="string" name="PREC">normal</i>
  <i type="int" name="IBRION">     2</i>
  <i name="EDIFF">      0.00040000</i>
  <i name="EDIFFG">     -0.01000000</i>
  <i type="int" name="NSW">    15</i>
  <i type="int" name="ISIF">     2</i>
  <i name="ENCUT">    200.00000000</i>
  <i type="int" name="NBANDS">     8</i>
  <i type="logical" name="LREAL"> F  </i>
  <i type="int" name="ISMEAR">     0</i>
  <i name="SIGMA">      0.20000000</i>
  <v type="int" name="KPOINT_BSE">    -1     0     0     0</v>
 </incar>
 <structure name="primitive_cell" >
  <crystal>
   <varray name="basis" >
    <v>      -2.45000000       2.45000000       1.27400000 </v>
    <v>       2.45000000      -2.45000000       1.27400000 </v>
    <v>       2.45000000       2.45000000      -1.27400000 </v>
   </varray>
   <i name="volume">     30.58874000 </i>
   <varray name="rec_basis" >
    <v>       0.00000000       0.20408163       0.39246468 </v>
    <v>       0.20408163       0.00000000       0.39246468 </v>
    <v>       0.20408163       0.20408163      -0.00000000 </v>
   </varray>
  </crystal>
  <varray name="positions" >
   <v>       0.25000000      -0.25000000      -0.50000000 </v>
   <v>       0.00000000       0.00000000       0.00000000 </v>
  </varray>
 </structure>
 <varray name="primitive_index" >
  <v type="int" >        1 </v>
  <v type="int" >        2 </v>
 </varray>
 <kpoints>
  <generation param="Monkhorst-Pack">
   <v type="int" name="divisions">       3        3        3 </v>
   <v name="usershift">      0.00000000       0.00000000       0.00000000 </v>
   <v name="genvec1">      0.33333333      -0.00000000       0.00000000 </v>
   <v name="genvec2">     -0.00000000       0.33333333       0.00000000 </v>
   <v name="genvec3">     -0.00000000      -0.00000000       0.33333333 </v>
   <v name="shift">      0.00000000       0.00000000       0.00000000 </v>
  </generation>
  <varray name="kpointlist" >
   <v>       0.00000000       0.00000000       0.00000000 </v>
   <v>       0.33333333      -0.00000000       0.00000000 </v>
   <v>       0.33333333       0.33333333       0.00000000 </v>
   <v>      -0.33333333       0.33333333       0.00000000 </v>
   <v>      -0.33333333       0.33333333       0.33333333 </v>
   <v>      -0.33333333      -0.33333333       0.33333333 </v>
  </varray>
  <varray name="weights" >
   <v>       0.03703704 </v>
   <v>       0.29629630 </v>
   <v>       0.29629630 </v>
   <v>       0.14814815 </v>
   <v>       0.14814815 </v>
   <v>       0.07407407 </v>
  </varray>
 </kpoints>
 <parameters>
  <separator name="general" >
   <i type="string" name="SYSTEM">unknown system</i>
   <i type="logical" name="LCOMPAT"> F  </i>
  </separator>
  <separator name="electronic" >
   <i type="string" name="PREC">normal</i>
   <i name="ENMAX">    200.00000000</i>
   <i name="ENAUG">    322.06900000</i>
   <i name="EDIFF">      0.00040000</i>
   <i type="int" name="IALGO">    38</i>
   <i type="int" name="IWAVPR">    11</i>
   <i type="int" name="NBANDS">     8</i>
   <i name="NELECT">      8.00000000</i>
   <i type="int" name="TURBO">     0</i>
   <i type="int" name="IRESTART">     0</i>
   <i type="int" name="NREBOOT">     0</i>
   <i type="int" name="NMIN">     0</i>
   <i name="EREF">      0.00000000</i>
   <separator name="electronic smearing" >
    <i type="int" name="ISMEAR">     0</i>
    <i name="SIGMA">      0.20000000</i>
    <i name="KSPACING">      0.50000000</i>
    <i type="logical" name="KGAMMA"> T  </i>
   </separator>
   <separator name="electronic projectors" >
    <i type="logical" name="LREAL"> F  </i>
    <v name="ROPT">      0.00000000</v>
    <i type="int" name="LMAXPAW">  -100</i>
    <i type="int" name="LMAXMIX">     2</i>
    <i type="logical" name="NLSPLINE"> F  </i>
   </separator>
   <separator name="electronic startup" >
    <i type="int" name="ISTART">     1</i>
    <i type="int" name="ICHARG">     0</i>
    <i type="int" name="INIWAV">     1</i>
   </separator>
   <separator name="electronic spin" >
    <i type="int" name="ISPIN">     1</i>
    <i type="logical" name="LNONCOLLINEAR"> F  </i>
    <v name="MAGMOM">      1.00000000      1.00000000</v>
    <i name="NUPDOWN">     -1.00000000</i>
    <i type="logical" name="LSORBIT"> F  </i>
    <v name="SAXIS">      0.00000000      0.00000000      1.00000000</v>
    <i type="logical" name="LSPIRAL"> F  </i>
    <v name="QSPIRAL">      0.00000000      0.00000000      0.00000000</v>
    <i type="logical" name="LZEROZ"> F  </i>
   </separator>
   <separator name="electronic exchange-correlation" >
    <i type="logical" name="LASPH"> F  </i>
    <i type="logical" name="LMETAGGA"> F  </i>
   </separator>
   <separator name="electronic convergence" >
    <i type="int" name="NELM">    60</i>
    <i type="int" name="NELMDL">     0</i>
    <i type="int" name="NELMIN">     2</i>
    <i name="ENINI">    200.00000000</i>
    <separator name="electronic convergence detail" >
     <i type="logical" name="LDIAG"> T  </i>
     <i type="logical" name="LSUBROT"> F  </i>
     <i name="WEIMIN">      0.00100000</i>
     <i name="EBREAK">      0.00001250</i>
     <i name="DEPER">      0.30000000</i>
     <i type="int" name="NRMM">     4</i>
     <i name="TIME">      0.40000000</i>
    </separator>
   </separator>
   <separator name="electronic mixer" >
    <i name="AMIX">      0.40000000</i>
    <i name="BMIX">      1.00000000</i>
    <i name="AMIN">      0.10000000</i>
    <i name="AMIX_MAG">      1.60000000</i>
    <i name="BMIX_MAG">      1.00000000</i>
    <separator name="electronic mixer details" >
     <i type="int" name="IMIX">     4</i>
     <i type="logical" name="MIXFIRST"> F  </i>
     <i type="int" name="MAXMIX">   -45</i>
     <i name="WC">    100.00000000</i>
     <i type="int" name="INIMIX">     1</i>
     <i type="int" name="MIXPRE">     1</i>
     <i type="int" name="MREMOVE">     5</i>
    </separator>
   </separator>
   <separator name="electronic dipolcorrection" >
    <i type="logical" name="LDIPOL"> F  </i>
    <i type="logical" name="LMONO"> F  </i>
    <i type="int" name="IDIPOL">     0</i>
    <i name="EPSILON">      1.00000000</i>
    <v name="DIPOL">   -100.00000000   -100.00000000   -100.00000000</v>
    <i name="EFIELD">      0.00000000</i>
   </separator>
  </separator>
  <separator name="grids" >
   <i type="int" name="NGX">    14</i>
   <i type="int" name="NGY">    14</i>
   <i type="int" name="NGZ">    14</i>
   <i type="int" name="NGXF">    28</i>
   <i type="int" name="NGYF">    28</i>
   <i type="int" name="NGZF">    28</i>
   <i type="logical" name="ADDGRID"> F  </i>
  </separator>
  <separator name="ionic" >
   <i type="int" name="NSW">    15</i>
   <i type="int" name="IBRION">     2</i>
   <i type="int" name="MDALGO">     0</i>
   <i type="int" name="ISIF">     2</i>
   <i name="PSTRESS">      0.00000000</i>
   <i name="EDIFFG">     -0.01000000</i>
   <i type="int" name="NFREE">     1</i>
   <i name="POTIM">      0.50000000</i>
   <i name="SMASS">     -3.00000000</i>
   <i name="SCALEE">      1.00000000</i>
  </separator>
  <separator name="ionic md" >
   <i name="TEBEG">      0.00010000</i>
   <i name="TEEND">      0.00010000</i>
   <i type="int" name="NBLOCK">     1</i>
   <i type="int" name="KBLOCK">    15</i>
   <i type="int" name="NPACO">   256</i>
   <i name="APACO">     16.00000000</i>
  </separator>
  <separator name="symmetry" >
   <i type="int" name="ISYM">     2</i>
   <i name="SYMPREC">      0.00001000</i>
  </separator>
  <separator name="dos" >
   <i type="int" name="LORBIT">     0</i>
   <v name="RWIGS">     -1.00000000</v>
   <i type="int" name="NEDOS">   301</i>
   <i name="EMIN">     10.00000000</i>
   <i name="EMAX">    -10.00000000</i>
   <i name="EFERMI">      0.00000000</i>
  </separator>
  <separator name="writing" >
   <i type="int" name="NWRITE">     2</i>
   <i type="logical" name="LWAVE"> T  </i>
   <i type="logical" name="LDOWNSAMPLE"> F  </i>
   <i type="logical" name="LCHARG"> T  </i>
   <i type="logical" name="LPARD"> F  </i>
   <i type="logical" name="LVTOT"> F  </i>
   <i type="logical" name="LVHAR"> F  </i>
   <i type="logical" name="LELF"> F  </i>
   <i type="logical" name="LOPTICS"> F  </i>
   <v name="STM">      0.00000000      0.00000000      0.00000000      0.00000000      0.00000000      0.00000000      0.00000000</v>
  </separator>
  <separator name="performance" >
   <i type="int" name="NPAR">     8</i>
   <i type="int" name="NSIM">     4</i>
   <i type="int" name="NBLK">    -1</i>
   <i type="logical" name="LPLANE"> T  </i>
   <i type="logical" name="LSCALAPACK"> T  </i>
   <i type="logical" name="LSCAAWARE"> F  </i>
   <i type="logical" name="LSCALU"> F  </i>
   <i type="logical" name="LASYNC"> F  </i>
   <i type="logical" name="LORBITALREAL"> F  </i>
  </separator>
  <separator name="miscellaneous" >
   <i type="int" name="IDIOT">     3</i>
   <i type="int" name="ISPECIAL">     0</i>
   <i type="logical" name="LMUSIC"> F  </i>
   <v name="POMASS">     28.08500000</v>
   <v name="DARWINR">      0.00000000</v>
   <v name="DARWINV">      1.00000000</v>
   <i type="logical" name="LCORR"> T  </i>
  </separator>
  <i type="logical" name="GGA_COMPAT"> T  </i>
  <i type="logical" name="LBERRY"> F  </i>
  <i type="int" name="ICORELEVEL">     0</i>
  <i type="logical" name="LDAU"> F  </i>
  <i type="int" name="I_CONSTRAINED_M">     0</i>
  <separator name="electronic exchange-correlation" >
   <i type="string" name="GGA">--</i>
   <i type="int" name="VOSKOWN">     0</i>
   <i type="logical" name="LHFCALC"> F  </i>
   <i type="string" name="PRECFOCK"></i>
   <i type="logical" name="LSYMGRAD"> F  </i>
   <i type="logical" name="LHFONE"> F  </i>
   <i type="logical" name="LRHFCALC"> F  </i>
   <i type="logical" name="LTHOMAS"> F  </i>
   <i type="logical" name="LMODELHF"> F  </i>
   <i name="ENCUT4O">     -1.00000000</i>
   <i type="int" name="EXXOEP">     0</i>
   <i type="int" name="FOURORBIT">     0</i>
   <i name="AEXX">      0.00000000</i>
   <i name="HFALPHA">      0.00000000</i>
   <i name="MCALPHA">      0.00000000</i>
   <i name="ALDAX">      1.00000000</i>
   <i name="AGGAX">      1.00000000</i>
   <i name="ALDAC">      1.00000000</i>
   <i name="AGGAC">      1.00000000</i>
   <i type="int" name="NKREDX">     1</i>
   <i type="int" name="NKREDY">     1</i>
   <i type="int" name="NKREDZ">     1</i>
   <i type="logical" name="SHIFTRED"> F  </i>
   <i type="logical" name="ODDONLY"> F  </i>
   <i type="logical" name="EVENONLY"> F  </i>
   <i type="int" name="LMAXFOCK">     0</i>
   <i type="int" name="NMAXFOCKAE">     0</i>
   <i type="logical" name="LFOCKAEDFT"> F  </i>
   <i name="HFSCREEN">      0.00000000</i>
   <i name="HFSCREENC">      0.00000000</i>
   <i type="int" name="NBANDSGWLOW">     0</i>
  </separator>
  <separator name="vdW DFT" >
   <i type="logical" name="LUSE_VDW"> F  </i>
   <i name="Zab_VDW">     -0.84910000</i>
   <i name="PARAM1">      0.12340000</i>
   <i name="PARAM2">      1.00000000</i>
   <i name="PARAM3">      0.00000000</i>
  </separator>
  <separator name="model GW" >
   <i type="int" name="MODEL_GW">     0</i>
   <i name="MODEL_EPS0">      9.17662200</i>
   <i name="MODEL_ALPHA">      1.00000000</i>
  </separator>
  <separator name="linear response parameters" >
   <i type="logical" name="LEPSILON"> F  </i>
   <i type="logical" name="LRPA"> F  </i>
   <i type="logical" name="LNABLA"> F  </i>
   <i type="logical" name="LVEL"> F  </i>
   <i type="int" name="KINTER">     0</i>
   <i name="CSHIFT">      0.10000000</i>
   <i name="OMEGAMAX">     -1.00000000</i>
   <i name="DEG_THRESHOLD">      0.00200000</i>
   <i name="RTIME">     -0.10000000</i>
   <i name="WPLASMAI">      0.00000000</i>
   <v name="DFIELD">      0.00000000      0.00000000      0.00000000</v>
   <v name="WPLASMA">      0.00000000      0.00000000      0.00000000      0.00000000      0.00000000      0.00000000      0.00000000      0.00000000      0.00000000</v>
  </separator>
  <separator name="orbital magnetization" >
   <i type="logical" name="NUCIND"> F  </i>
   <v name="MAGPOS">      0.00000000      0.00000000      0.00000000</v>
   <i type="logical" name="LNICSALL"> T  </i>
   <i type="logical" name="ORBITALMAG"> F  </i>
   <i type="logical" name="LMAGBLOCH"> F  </i>
   <i type="logical" name="LCHIMAG"> F  </i>
   <i type="logical" name="LGAUGE"> T  </i>
   <i type="int" name="MAGATOM">     0</i>
   <v name="MAGDIPOL">      0.00000000      0.00000000      0.00000000</v>
   <v name="AVECCONST">      0.00000000      0.00000000      0.00000000</v>
  </separator>
  <separator name="response functions" >
   <i type="logical" name="LADDER"> F  </i>
   <i type="logical" name="LRPAFORCE"> F  </i>
   <i type="logical" name="LFXC"> F  </i>
   <i type="logical" name="LHARTREE"> T  </i>
   <i type="int" name="IBSE">     0</i>
   <v type="int" name="KPOINT">    -1     0     0     0</v>
   <i type="logical" name="LTCTE"> F  </i>
   <i type="logical" name="LTETE"> F  </i>
   <i type="logical" name="LTRIPLET"> F  </i>
   <i type="logical" name="LFXCEPS"> F  </i>
   <i type="logical" name="LFXHEG"> F  </i>
   <i type="int" name="NATURALO">     2</i>
   <i type="logical" name="L2ORDER"> F  </i>
   <i type="logical" name="LMP2LT"> F  </i>
   <i type="logical" name="LUSEW"> F  </i>
   <i name="ENCUTGW">     -2.00000000</i>
   <i name="ENCUTGWSOFT">     -2.00000000</i>
   <i name="ENCUTLF">     -1.00000000</i>
   <i type="int" name="LMAXMP2">    -1</i>
   <i name="SCISSOR">      0.00000000</i>
   <i type="int" name="NOMEGA">     0</i>
   <i type="int" name="NOMEGAR">     0</i>
   <i type="int" name="NBANDSGW">    -1</i>
   <i type="int" name="NBANDSO">    -1</i>
   <i type="int" name="NBANDSV">    -1</i>
   <i type="int" name="NELM">     1</i>
   <i type="int" name="NELMHF">     1</i>
   <i type="int" name="DIM">     3</i>
   <i type="int" name="ANTIRES">     0</i>
   <i name="OMEGAMAX">    -30.00000000</i>
   <i name="OMEGAMIN">    -30.00000000</i>
   <i name="OMEGATL">   -200.00000000</i>
   <i type="int" name="OMEGAGRID">   140</i>
   <i name="CSHIFT">     -0.10000000</i>
   <i type="logical" name="SELFENERGY"> F  </i>
   <i type="logical" name="LSPECTRAL"> F  </i>
   <i type="logical" name="LSPECTRALGW"> F  </i>
   <i type="logical" name="LSINGLES"> F  </i>
   <i type="logical" name="LFERMIGW"> F  </i>
   <i type="logical" name="ODDONLYGW"> F  </i>
   <i type="logical" name="EVENONLYGW"> F  </i>
   <i type="int" name="NKREDLFX">     1</i>
   <i type="int" name="NKREDLFY">     1</i>
   <i type="int" name="NKREDLFZ">     1</i>
   <i type="int" name="MAXMEM">  2800</i>
   <i type="int" name="TELESCOPE">     0</i>
   <i type="int" name="TAUPAR">     1</i>
   <i type="int" name="OMEGAPAR">    -1</i>
   <i name="LAMBDA">      1.00000000</i>
  </separator>
  <separator name="External order field" >
   <i name="OFIELD_KAPPA">      0.00000000</i>
   <v name="OFIELD_K">      0.00000000      0.00000000      0.00000000</v>
   <i name="OFIELD_Q6_NEAR">      0.00000000</i>
   <i name="OFIELD_Q6_FAR">      0.00000000</i>
   <i name="OFIELD_A">      0.00000000</i>
  </separator>
 </parameters>
 <atominfo>
  <atoms>       2 </atoms>
  <types>       1 </types>
  <array name="atoms" >
   <dimension dim="1">ion</dimension>
   <field type="string">element</field>
   <field type="int">atomtype</field>
   <set>
    <rc><c>Si</c><c>   1</c></rc>
    <rc><c>Si</c><c>   1</c></rc>
   </set>
  </array>
  <array name="atomtypes" >
   <dimension dim="1">type</dimension>
   <field type="int">atomspertype</field>
   <field type="string">element</field>
   <field>mass</field>
   <field>valence</field>
   <field type="string">pseudopotential</field>
   <set>
    <rc><c>   2</c><c>Si</c><c>     28.08500000</c><c>      4.00000000</c><c> PAW_PBE Si 05Jan2001                   </c></rc>
   </set>
  </array>
 </atominfo>
 <structure name="initialpos" >
  <crystal>
   <varray name="basis" >
    <v>      -2.45000000       2.45000000       1.27400000 </v>
    <v>       2.45000000      -2.45000000       1.27400000 </v>
    <v>       2.45000000       2.45000000      -1.27400000 </v>
   </varray>
   <i name="volume">     30.58874000 </i>
   <varray name="rec_basis" >
    <v>       0.00000000       0.20408163       0.39246468 </v>
    <v>       0.20408163       0.00000000       0.39246468 </v>
    <v>       0.20408163       0.20408163      -0.00000000 </v>
   </varray>
  </crystal>
  <varray name="positions" >
   <v>       0.25000000       0.75000000       0.50000000 </v>
   <v>       0.00000000       0.00000000       0.00000000 </v>
  </varray>
 </structure>
 <calculation>
  <scstep>
   <time name="dav">    0.04    0.05</time>
   <time name="total">    0.08    0.12</time>
   <energy>
    <i name="alphaZ">      4.40202223 </i>
    <i name="ewald">   -265.18101312 </i>
    <i name="hartreedc">     -2.51608593 </i>
    <i name="XCdc">    -17.54990561 </i>
    <i name="pawpsdc">     71.14782076 </i>
    <i name="pawaedc">    -36.06627661 </i>
    <i name="eentropy">     -0.02676636 </i>
    <i name="bandstr">     29.72158311 </i>
    <i name="atom">    206.11247263 </i>
    <i name="e_fr_energy">     -9.95614890 </i>
    <i name="e_wo_entrp">     -9.92938254 </i>
    <i name="e_0_energy">     -9.94276572 </i>
   </energy>
  </scstep>
  <scstep>
   <time name="dav">    0.05    0.05</time>
   <time name="total">    0.08    0.09</time>
   <energy>
    <i name="alphaZ">      4.40202223 </i>
    <i name="ewald">   -265.18101312 </i>
    <i name="hartreedc">     -2.51625438 </i>
    <i name="XCdc">    -17.54987413 </i>
    <i name="pawpsdc">     71.14814465 </i>
    <i name="pawaedc">    -36.06660578 </i>
    <i name="eentropy">     -0.02676636 </i>
    <i name="bandstr">     29.72172532 </i>
    <i name="atom">    206.11247263 </i>
    <i name="e_fr_energy">     -9.95614893 </i>
    <i name="e_wo_entrp">     -9.92938257 </i>
    <i name="e_0_energy">     -9.94276575 </i>
   </energy>
  </scstep>
  <structure>
   <crystal>
    <varray name="basis" >
     <v>      -2.45000000       2.45000000       1.27400000 </v>
     <v>       2.45000000      -2.45000000       1.27400000 </v>
     <v>       2.45000000       2.45000000      -1.27400000 </v>
    </varray>
    <i name="volume">     30.58874000 </i>
    <varray name="rec_basis" >
     <v>       0.00000000       0.20408163       0.39246468 </v>
     <v>       0.20408163       0.00000000       0.39246468 </v>
     <v>       0.20408163       0.20408163      -0.00000000 </v>
    </varray>
   </crystal>
   <varray name="positions" >
    <v>       0.25000000       0.75000000       0.50000000 </v>
    <v>       0.00000000       0.00000000       0.00000000 </v>
   </varray>
  </structure>
  <varray name="forces" >
   <v>      -0.00000000      -0.00000000       0.00000000 </v>
   <v>       0.00000000       0.00000000      -0.00000000 </v>
  </varray>
  <varray name="stress" >
   <v>    -117.77275194      -0.00000000       0.00000000 </v>
   <v>      -0.00000000    -117.77275194       0.00000000 </v>
   <v>       0.00000000      -0.00000000     198.53693375 </v>
  </varray>
  <energy>
   <i name="e_fr_energy">     -9.95614893 </i>
   <i name="e_wo_entrp">     -9.94276575 </i>
   <i name="e_0_energy">     -0.02676636 </i>
  </energy>
  <time name="totalsc">    0.76    1.24</time>
  <eigenvalues>
   <array>
    <dimension dim="1">band</dimension>
    <dimension dim="2">kpoint</dimension>
    <dimension dim="3">spin</dimension>
    <field>eigene</field>
    <field>occ</field>
    <set>
     <set comment="spin 1">
      <set comment="kpoint 1">
       <r>   -4.6141    1.0000 </r>
       <r>    6.1922    1.0000 </r>
       <r>    6.3041    1.0000 </r>
       <r>    6.3041    1.0000 </r>
       <r>   10.6104    0.0000 </r>
       <r>   16.9527    0.0000 </r>
       <r>   17.3768    0.0000 </r>
       <r>   17.3768    0.0000 </r>
      </set>
      <set comment="kpoint 2">
       <r>   -1.5028    1.0000 </r>
       <r>    5.3597    1.0000 </r>
       <r>    6.8036    1.0000 </r>
       <r>    7.4756    1.0000 </r>
       <r>   10.2846    0.0000 </r>
       <r>   12.7065    0.0000 </r>
       <r>   13.0465    0.0000 </r>
       <r>   14.0349    0.0000 </r>
      </set>
      <set comment="kpoint 3">
       <r>    1.0477    1.0000 </r>
       <r>    1.0662    1.0000 </r>
       <r>    6.2819    1.0000 </r>
       <r>    8.2468    0.9996 </r>
       <r>    8.8188    0.2504 </r>
       <r>   10.9671    0.0000 </r>
       <r>   15.5096    0.0000 </r>
       <r>   16.5356    0.0000 </r>
      </set>
      <set comment="kpoint 4">
       <r>   -3.2957    1.0000 </r>
       <r>    0.5705    1.0000 </r>
       <r>    7.5364    1.0000 </r>
       <r>    9.3853    0.0000 </r>
       <r>   11.2194    0.0000 </r>
       <r>   13.1110    0.0000 </r>
       <r>   16.5285    0.0000 </r>
       <r>   18.9340    0.0000 </r>
      </set>
      <set comment="kpoint 5">
       <r>   -2.0094    1.0000 </r>
       <r>    1.1120    1.0000 </r>
       <r>    2.8968    1.0000 </r>
       <r>    5.9584    1.0000 </r>
       <r>   15.2414    0.0000 </r>
       <r>   16.8300    0.0000 </r>
       <r>   18.0891    0.0000 </r>
       <r>   19.0444    0.0000 </r>
      </set>
      <set comment="kpoint 6">
       <r>    2.7793    1.0000 </r>
       <r>    2.8777    1.0000 </r>
       <r>    4.6092    1.0000 </r>
       <r>    4.6092    1.0000 </r>
       <r>    5.1809    1.0000 </r>
       <r>   15.1536    0.0000 </r>
       <r>   16.0033    0.0000 </r>
       <r>   16.0033    0.0000 </r>
      </set>
     </set>
    </set>
   </array>
  </eigenvalues>
  <separator name="orbital magnetization" >
   <v name="MAGDIPOLOUT">      0.00000000      0.00000000      0.00000000</v>
  </separator>
  <dos>
   <i name="efermi">      8.72359072 </i>
   <total>
    <array>
     <dimension dim="1">gridpoints</dimension>
     <dimension dim="2">spin</dimension>
     <field>energy</field>
     <field>total</field>
     <field>integrated</field>
     <set>
      <set comment="spin 1">
       <r>    -6.6141     0.0000     0.0000 </r>
       <r>    -6.5219     0.0000     0.0000 </r>
       <r>    -6.4297     0.0000     0.0000 </r>
       <r>    -6.3375     0.0000     0.0000 </r>
       <r>    -6.2453     0.0000     0.0000 </r>
       <r>    -6.1531     0.0000     0.0000 </r>
       <r>    -6.0609     0.0000     0.0000 </r>
       <r>    -5.9687     0.0000     0.0000 </r>
       <r>    -5.8765     0.0000     0.0000 </r>
       <r>    -5.7843     0.0000     0.0000 </r>
       <r>    -5.6921     0.0000     0.0000 </r>
       <r>    -5.5999     0.0000     0.0000 </r>
       <r>    -5.5077     0.0000     0.0000 </r>
       <r>    -5.4155     0.0000     0.0000 </r>
       <r>    -5.3233     0.0000     0.0000 </r>
       <r>    -5.2311     0.0000     0.0000 </r>
       <r>    -5.1390     0.0001     0.0000 </r>
       <r>    -5.0468     0.0008     0.0001 </r>
       <r>    -4.9546     0.0056     0.0006 </r>
       <r>    -4.8624     0.0253     0.0029 </r>
       <r>    -4.7702     0.0765     0.0100 </r>
       <r>    -4.6780     0.1533     0.0241 </r>
       <r>    -4.5858     0.2038     0.0429 </r>
       <r>    -4.4936     0.1797     0.0595 </r>
       <r>    -4.4014     0.1051     0.0692 </r>
       <r>    -4.3092     0.0408     0.0729 </r>
       <r>    -4.2170     0.0105     0.0739 </r>
       <r>    -4.1248     0.0018     0.0741 </r>
       <r>    -4.0326     0.0002     0.0741 </r>
       <r>    -3.9404     0.0000     0.0741 </r>
       <r>    -3.8482     0.0001     0.0741 </r>
       <r>    -3.7560     0.0017     0.0742 </r>
       <r>    -3.6638     0.0130     0.0754 </r>
       <r>    -3.5716     0.0671     0.0816 </r>
       <r>    -3.4794     0.2294     0.1028 </r>
       <r>    -3.3873     0.5198     0.1507 </r>
       <r>    -3.2951     0.7813     0.2227 </r>
       <r>    -3.2029     0.7792     0.2946 </r>
       <r>    -3.1107     0.5156     0.3421 </r>
       <r>    -3.0185     0.2263     0.3630 </r>
       <r>    -2.9263     0.0659     0.3690 </r>
       <r>    -2.8341     0.0127     0.3702 </r>
       <r>    -2.7419     0.0016     0.3704 </r>
       <r>    -2.6497     0.0001     0.3704 </r>
       <r>    -2.5575     0.0002     0.3704 </r>
       <r>    -2.4653     0.0019     0.3706 </r>
       <r>    -2.3731     0.0142     0.3719 </r>
       <r>    -2.2809     0.0720     0.3785 </r>
       <r>    -2.1887     0.2411     0.4007 </r>
       <r>    -2.0965     0.5354     0.4501 </r>
       <r>    -2.0043     0.7898     0.5229 </r>
       <r>    -1.9121     0.7819     0.5950 </r>
       <r>    -1.8199     0.5679     0.6474 </r>
       <r>    -1.7277     0.4941     0.6929 </r>
       <r>    -1.6356     0.8207     0.7686 </r>
       <r>    -1.5434     1.3821     0.8960 </r>
       <r>    -1.4512     1.6428     1.0474 </r>
       <r>    -1.3590     1.3043     1.1677 </r>
       <r>    -1.2668     0.6876     1.2311 </r>
       <r>    -1.1746     0.2404     1.2533 </r>
       <r>    -1.0824     0.0557     1.2584 </r>
       <r>    -0.9902     0.0085     1.2592 </r>
       <r>    -0.8980     0.0009     1.2593 </r>
       <r>    -0.8058     0.0001     1.2593 </r>
       <r>    -0.7136     0.0000     1.2593 </r>
       <r>    -0.6214     0.0000     1.2593 </r>
       <r>    -0.5292     0.0000     1.2593 </r>
       <r>    -0.4370     0.0000     1.2593 </r>
       <r>    -0.3448     0.0000     1.2593 </r>
       <r>    -0.2526     0.0000     1.2593 </r>
       <r>    -0.1604     0.0000     1.2593 </r>
       <r>    -0.0682     0.0000     1.2593 </r>
       <r>     0.0240     0.0002     1.2593 </r>
       <r>     0.1161     0.0019     1.2595 </r>
       <r>     0.2083     0.0147     1.2608 </r>
       <r>     0.3005     0.0737     1.2676 </r>
       <r>     0.3927     0.2451     1.2902 </r>
       <r>     0.4849     0.5410     1.3401 </r>
       <r>     0.5771     0.7955     1.4134 </r>
       <r>     0.6693     0.8060     1.4877 </r>
       <r>     0.7615     0.7115     1.5533 </r>
       <r>     0.8537     1.0347     1.6487 </r>
       <r>     0.9459     2.1479     1.8467 </r>
       <r>     1.0381     3.5537     2.1744 </r>
       <r>     1.1303     4.0278     2.5457 </r>
       <r>     1.2225     3.0701     2.8288 </r>
       <r>     1.3147     1.5717     2.9737 </r>
       <r>     1.4069     0.5407     3.0235 </r>
       <r>     1.4991     0.1250     3.0350 </r>
       <r>     1.5913     0.0194     3.0368 </r>
       <r>     1.6835     0.0020     3.0370 </r>
       <r>     1.7757     0.0001     3.0370 </r>
       <r>     1.8678     0.0000     3.0370 </r>
       <r>     1.9600     0.0000     3.0370 </r>
       <r>     2.0522     0.0000     3.0370 </r>
       <r>     2.1444     0.0000     3.0370 </r>
       <r>     2.2366     0.0001     3.0370 </r>
       <r>     2.3288     0.0012     3.0372 </r>
       <r>     2.4210     0.0100     3.0381 </r>
       <r>     2.5132     0.0556     3.0432 </r>
       <r>     2.6054     0.2158     3.0631 </r>
       <r>     2.6976     0.5887     3.1174 </r>
       <r>     2.7898     1.1312     3.2217 </r>
       <r>     2.8820     1.5249     3.3622 </r>
       <r>     2.9742     1.4290     3.4940 </r>
       <r>     3.0664     0.9208     3.5789 </r>
       <r>     3.1586     0.4038     3.6161 </r>
       <r>     3.2508     0.1195     3.6271 </r>
       <r>     3.3430     0.0237     3.6293 </r>
       <r>     3.4352     0.0031     3.6296 </r>
       <r>     3.5274     0.0003     3.6296 </r>
       <r>     3.6195     0.0000     3.6296 </r>
       <r>     3.7117     0.0000     3.6296 </r>
       <r>     3.8039     0.0000     3.6296 </r>
       <r>     3.8961     0.0000     3.6296 </r>
       <r>     3.9883     0.0000     3.6296 </r>
       <r>     4.0805     0.0003     3.6297 </r>
       <r>     4.1727     0.0030     3.6299 </r>
       <r>     4.2649     0.0207     3.6318 </r>
       <r>     4.3571     0.0960     3.6407 </r>
       <r>     4.4493     0.2949     3.6679 </r>
       <r>     4.5415     0.6008     3.7233 </r>
       <r>     4.6337     0.8121     3.7981 </r>
       <r>     4.7259     0.7292     3.8654 </r>
       <r>     4.8181     0.4410     3.9060 </r>
       <r>     4.9103     0.2118     3.9256 </r>
       <r>     5.0025     0.1987     3.9439 </r>
       <r>     5.0947     0.4356     3.9840 </r>
       <r>     5.1869     0.9124     4.0682 </r>
       <r>     5.2791     1.4994     4.2064 </r>
       <r>     5.3712     1.8444     4.3765 </r>
       <r>     5.4634     1.6232     4.5261 </r>
       <r>     5.5556     0.9921     4.6176 </r>
       <r>     5.6478     0.4433     4.6584 </r>
       <r>     5.7400     0.2642     4.6828 </r>
       <r>     5.8322     0.4305     4.7225 </r>
       <r>     5.9244     0.7623     4.7928 </r>
       <r>     6.0166     1.0673     4.8912 </r>
       <r>     6.1088     1.3843     5.0188 </r>
       <r>     6.2010     1.8749     5.1916 </r>
       <r>     6.2932     2.2765     5.4015 </r>
       <r>     6.3854     2.0712     5.5925 </r>
       <r>     6.4776     1.3482     5.7168 </r>
       <r>     6.5698     0.7916     5.7898 </r>
       <r>     6.6620     0.8549     5.8686 </r>
       <r>     6.7542     1.3466     5.9927 </r>
       <r>     6.8464     1.6457     6.1444 </r>
       <r>     6.9386     1.3584     6.2697 </r>
       <r>     7.0308     0.7501     6.3388 </r>
       <r>     7.1229     0.3112     6.3675 </r>
       <r>     7.2151     0.2667     6.3921 </r>
       <r>     7.3073     0.6841     6.4552 </r>
       <r>     7.3995     1.5128     6.5947 </r>
       <r>     7.4917     2.2804     6.8049 </r>
       <r>     7.5839     2.3174     7.0186 </r>
       <r>     7.6761     1.5891     7.1651 </r>
       <r>     7.7683     0.7378     7.2331 </r>
       <r>     7.8605     0.2480     7.2560 </r>
       <r>     7.9527     0.1490     7.2697 </r>
       <r>     8.0449     0.3793     7.3047 </r>
       <r>     8.1371     0.9152     7.3890 </r>
       <r>     8.2293     1.4900     7.5264 </r>
       <r>     8.3215     1.6117     7.6750 </r>
       <r>     8.4137     1.1670     7.7826 </r>
       <r>     8.5059     0.6226     7.8400 </r>
       <r>     8.5981     0.4678     7.8831 </r>
       <r>     8.6903     0.8230     7.9590 </r>
       <r>     8.7825     1.3991     8.0880 </r>
       <r>     8.8746     1.6397     8.2392 </r>
       <r>     8.9668     1.2828     8.3574 </r>
       <r>     9.0590     0.6904     8.4211 </r>
       <r>     9.1512     0.3505     8.4534 </r>
       <r>     9.2434     0.4018     8.4904 </r>
       <r>     9.3356     0.6660     8.5518 </r>
       <r>     9.4278     0.8218     8.6276 </r>
       <r>     9.5200     0.6795     8.6903 </r>
       <r>     9.6122     0.3731     8.7247 </r>
       <r>     9.7044     0.1360     8.7372 </r>
       <r>     9.7966     0.0345     8.7404 </r>
       <r>     9.8888     0.0199     8.7422 </r>
       <r>     9.9810     0.0863     8.7502 </r>
       <r>    10.0732     0.3316     8.7807 </r>
       <r>    10.1654     0.8502     8.8591 </r>
       <r>    10.2576     1.4483     8.9926 </r>
       <r>    10.3498     1.6494     9.1447 </r>
       <r>    10.4420     1.2864     9.2633 </r>
       <r>    10.5342     0.7542     9.3328 </r>
       <r>    10.6263     0.4442     9.3738 </r>
       <r>    10.7185     0.4330     9.4137 </r>
       <r>    10.8107     0.7381     9.4818 </r>
       <r>    10.9029     1.3070     9.6023 </r>
       <r>    10.9951     1.7832     9.7667 </r>
       <r>    11.0873     1.8229     9.9347 </r>
       <r>    11.1795     1.5302    10.0758 </r>
       <r>    11.2717     1.1480    10.1816 </r>
       <r>    11.3639     0.7345    10.2493 </r>
       <r>    11.4561     0.3562    10.2822 </r>
       <r>    11.5483     0.1208    10.2933 </r>
       <r>    11.6405     0.0277    10.2959 </r>
       <r>    11.7327     0.0042    10.2963 </r>
       <r>    11.8249     0.0004    10.2963 </r>
       <r>    11.9171     0.0000    10.2963 </r>
       <r>    12.0093     0.0000    10.2963 </r>
       <r>    12.1015     0.0001    10.2963 </r>
       <r>    12.1937     0.0009    10.2964 </r>
       <r>    12.2859     0.0085    10.2972 </r>
       <r>    12.3780     0.0555    10.3023 </r>
       <r>    12.4702     0.2399    10.3244 </r>
       <r>    12.5624     0.6883    10.3879 </r>
       <r>    12.6546     1.3208    10.5096 </r>
       <r>    12.7468     1.7470    10.6707 </r>
       <r>    12.8390     1.7912    10.8358 </r>
       <r>    12.9312     1.8767    11.0089 </r>
       <r>    13.0234     2.2769    11.2188 </r>
       <r>    13.1156     2.4777    11.4472 </r>
       <r>    13.2078     1.9751    11.6293 </r>
       <r>    13.3000     1.0844    11.7293 </r>
       <r>    13.3922     0.4045    11.7666 </r>
       <r>    13.4844     0.1024    11.7760 </r>
       <r>    13.5766     0.0209    11.7779 </r>
       <r>    13.6688     0.0291    11.7806 </r>
       <r>    13.7610     0.1388    11.7934 </r>
       <r>    13.8532     0.4695    11.8367 </r>
       <r>    13.9454     1.0540    11.9339 </r>
       <r>    14.0376     1.5696    12.0786 </r>
       <r>    14.1297     1.5508    12.2216 </r>
       <r>    14.2219     1.0167    12.3153 </r>
       <r>    14.3141     0.4422    12.3561 </r>
       <r>    14.4063     0.1275    12.3678 </r>
       <r>    14.4985     0.0244    12.3701 </r>
       <r>    14.5907     0.0031    12.3704 </r>
       <r>    14.6829     0.0010    12.3704 </r>
       <r>    14.7751     0.0067    12.3711 </r>
       <r>    14.8673     0.0401    12.3748 </r>
       <r>    14.9595     0.1635    12.3898 </r>
       <r>    15.0517     0.4603    12.4323 </r>
       <r>    15.1439     0.9076    12.5160 </r>
       <r>    15.2361     1.3078    12.6365 </r>
       <r>    15.3283     1.5361    12.7781 </r>
       <r>    15.4205     1.7195    12.9367 </r>
       <r>    15.5127     1.8518    13.1074 </r>
       <r>    15.6049     1.6363    13.2583 </r>
       <r>    15.6971     1.0702    13.3569 </r>
       <r>    15.7893     0.6025    13.4125 </r>
       <r>    15.8814     0.5427    13.4625 </r>
       <r>    15.9736     0.7396    13.5307 </r>
       <r>    16.0658     0.8232    13.6066 </r>
       <r>    16.1580     0.6519    13.6667 </r>
       <r>    16.2502     0.4908    13.7119 </r>
       <r>    16.3424     0.7402    13.7802 </r>
       <r>    16.4346     1.5167    13.9200 </r>
       <r>    16.5268     2.3521    14.1369 </r>
       <r>    16.6190     2.5447    14.3715 </r>
       <r>    16.7112     2.0735    14.5626 </r>
       <r>    16.8034     1.5385    14.7045 </r>
       <r>    16.8956     1.1935    14.8145 </r>
       <r>    16.9878     0.8606    14.8939 </r>
       <r>    17.0800     0.5060    14.9405 </r>
       <r>    17.1722     0.2889    14.9671 </r>
       <r>    17.2644     0.2829    14.9932 </r>
       <r>    17.3566     0.3817    15.0284 </r>
       <r>    17.4488     0.4059    15.0658 </r>
       <r>    17.5410     0.2937    15.0929 </r>
       <r>    17.6331     0.1432    15.1061 </r>
       <r>    17.7253     0.0593    15.1116 </r>
       <r>    17.8175     0.0814    15.1191 </r>
       <r>    17.9097     0.2422    15.1414 </r>
       <r>    18.0019     0.5352    15.1908 </r>
       <r>    18.0941     0.7885    15.2635 </r>
       <r>    18.1863     0.7711    15.3346 </r>
       <r>    18.2785     0.5003    15.3807 </r>
       <r>    18.3707     0.2154    15.4005 </r>
       <r>    18.4629     0.0628    15.4063 </r>
       <r>    18.5551     0.0229    15.4084 </r>
       <r>    18.6473     0.0652    15.4144 </r>
       <r>    18.7395     0.2451    15.4371 </r>
       <r>    18.8317     0.6458    15.4966 </r>
       <r>    18.9239     1.1814    15.6055 </r>
       <r>    19.0161     1.5147    15.7452 </r>
       <r>    19.1083     1.3675    15.8712 </r>
       <r>    19.2005     0.8677    15.9512 </r>
       <r>    19.2927     0.3838    15.9866 </r>
       <r>    19.3848     0.1171    15.9974 </r>
       <r>    19.4770     0.0243    15.9997 </r>
       <r>    19.5692     0.0034    16.0000 </r>
       <r>    19.6614     0.0003    16.0000 </r>
       <r>    19.7536     0.0000    16.0000 </r>
       <r>    19.8458     0.0000    16.0000 </r>
       <r>    19.9380     0.0000    16.0000 </r>
       <r>    20.0302     0.0000    16.0000 </r>
       <r>    20.1224     0.0000    16.0000 </r>
       <r>    20.2146     0.0000    16.0000 </r>
       <r>    20.3068     0.0000    16.0000 </r>
       <r>    20.3990     0.0000    16.0000 </r>
       <r>    20.4912     0.0000    16.0000 </r>
       <r>    20.5834     0.0000    16.0000 </r>
       <r>    20.6756     0.0000    16.0000 </r>
       <r>    20.7678     0.0000    16.0000 </r>
       <r>    20.8600     0.0000    16.0000 </r>
       <r>    20.9522     0.0000    16.0000 </r>
       <r>    21.0444     0.0000    16.0000 </r>
      </set>
     </set>
    </array>
   </total>
  </dos>
 </calculation>
 <structure name="finalpos" >
  <crystal>
   <varray name="basis" >
    <v>      -2.45000000       2.45000000       1.27400000 </v>
    <v>       2.45000000      -2.45000000       1.27400000 </v>
    <v>       2.45000000       2.45000000      -1.27400000 </v>
   </varray>
   <i name="volume">     30.58874000 </i>
   <varray name="rec_basis" >
    <v>       0.00000000       0.20408163       0.39246468 </v>
    <v>       0.20408163       0.00000000       0.39246468 </v>
    <v>       0.20408163       0.20408163      -0.00000000 </v>
   </varray>
  </crystal>
  <varray name="positions" >
   <v>       0.25000000       0.75000000       0.50000000 </v>
   <v>       0.00000000       0.00000000       0.00000000 </v>
  </varray>
 </structure>
</modeling>
