unknown system                          
           1
    -2.450000    2.450000    1.274000
     2.450000   -2.450000    1.274000
     2.450000    2.450000   -1.274000
   Si
   2
Direct configuration=     1
   0.25000000  0.75000000  0.50000000
   0.00000000  0.00000000  0.00000000
unknown system                          
           1
    -2.317014    2.317014    1.390547
     2.317014   -2.317014    1.390547
     2.317014    2.317014   -1.390547
   Si
   2
Direct configuration=     2
   0.25000000  0.75000000  0.50000000
   0.00000000  0.00000000  0.00000000
unknown system                          
           1
    -2.373999    2.373999    1.340607
     2.373999   -2.373999    1.340607
     2.373999    2.373999   -1.340607
   Si
   2
Direct configuration=     3
   0.25000000  0.75000000  0.50000000
   0.00000000  0.00000000  0.00000000
unknown system                          
           1
    -2.373277    2.373277    1.341239
     2.373277   -2.373277    1.341239
     2.373277    2.373277   -1.341239
   Si
   2
Direct configuration=     4
   0.25000000  0.75000000  0.50000000
   0.00000000  0.00000000  0.00000000
unknown system                          
           1
    -2.373511    2.373511    1.341034
     2.373511   -2.373511    1.341034
     2.373511    2.373511   -1.341034
   Si
   2
Direct configuration=     5
   0.25000000  0.75000000  0.50000000
   0.00000000  0.00000000  0.00000000
unknown system                          
           1
    -2.373755    2.373755    1.340820
     2.373755   -2.373755    1.340820
     2.373755    2.373755   -1.340820
   Si
   2
Direct configuration=     6
   0.25000000  0.75000000  0.50000000
   0.00000000  0.00000000  0.00000000
unknown system                          
           1
    -2.380916    2.380916    1.346165
     2.380916   -2.380916    1.346165
     2.380916    2.380916   -1.346165
   Si
   2
Direct configuration=     7
   0.25000000  0.75000000  0.50000000
   0.00000000 -0.00000000  0.00000000
unknown system                          
           1
    -2.380888    2.380888    1.346145
     2.380888   -2.380888    1.346145
     2.380888    2.380888   -1.346145
   Si
   2
Direct configuration=     8
   0.25000000  0.75000000  0.50000000
   0.00000000 -0.00000000  0.00000000
unknown system                          
           1
    -2.378889    2.378889    1.344653
     2.378889   -2.378889    1.344653
     2.378889    2.378889   -1.344653
   Si
   2
Direct configuration=     9
   0.25000000  0.75000000  0.50000000
   0.00000000 -0.00000000  0.00000000
unknown system                          
           1
    -2.378125    2.378125    1.344082
     2.378125   -2.378125    1.344082
     2.378125    2.378125   -1.344082
   Si
   2
Direct configuration=    10
   0.25000000  0.75000000  0.50000000
   0.00000000  0.00000000  0.00000000
unknown system                          
           1
    -2.378486    2.378486    1.344351
     2.378486   -2.378486    1.344351
     2.378486    2.378486   -1.344351
   Si
   2
Direct configuration=    11
   0.25000000  0.75000000  0.50000000
   0.00000000  0.00000000  0.00000000
unknown system                          
           1
    -2.378688    2.378688    1.344502
     2.378688   -2.378688    1.344502
     2.378688    2.378688   -1.344502
   Si
   2
Direct configuration=    12
   0.25000000  0.75000000  0.50000000
   0.00000000 -0.00000000  0.00000000
unknown system                          
           1
    -2.378788    2.378788    1.344577
     2.378788   -2.378788    1.344577
     2.378788    2.378788   -1.344577
   Si
   2
Direct configuration=    13
   0.25000000  0.75000000  0.50000000
   0.00000000 -0.00000000  0.00000000
unknown system                          
           1
    -2.378839    2.378839    1.344615
     2.378839   -2.378839    1.344615
     2.378839    2.378839   -1.344615
   Si
   2
Direct configuration=    14
   0.25000000  0.75000000  0.50000000
   0.00000000 -0.00000000  0.00000000
unknown system                          
           1
    -2.378859    2.378859    1.344630
     2.378859   -2.378859    1.344630
     2.378859    2.378859   -1.344630
   Si
   2
Direct configuration=    15
   0.25000000  0.75000000  0.50000000
   0.00000000 -0.00000000  0.00000000
