unknown system                          
   1.00000000000000     
     0.000000    2.761642    2.761642
     2.761642    0.000000    2.761642
     2.761642    2.761642    0.000000
   Si
     2
Direct
  0.000000  0.000000  0.000000
  0.250000  0.250000  0.250000
 
   36   36   36
 -7.6517     -6.1788     -2.1658      3.3229      8.9493      13.538      16.386      17.363      16.824      15.401    
  13.721      12.066      10.564      9.2910      8.2726      7.5059      6.9753      6.6641      6.5617      6.6642    
  6.9753      7.5059      8.2725      9.2910      10.564      12.066      13.721      15.401      16.824      17.363    
  16.385      13.538      8.9492      3.3229     -2.1656     -6.1787     -6.1788     -3.2469      1.7894      7.6030    
  12.848      16.569      18.387      18.476      17.380      15.769      14.087      12.495      11.090      9.9204    
  9.0017      8.3279      7.8870      7.6690      7.6690      7.8870      8.3279      9.0017      9.9204      11.090    
  12.495      14.087      15.769      17.380      18.476      18.386      16.568      12.848      7.6030      1.7894    
 -3.2469     -6.1788     -2.1658      1.7894      7.1095      12.429      16.618      19.070      19.751      19.066    
  17.637      16.013      14.410      12.937      11.663      10.618      9.8103      9.2373      8.8946      8.7805    
  8.8947      9.2374      9.8103      10.618      11.663      12.937      14.410      16.013      17.637      19.066    
  19.751      19.069      16.618      12.429      7.1094      1.7894     -2.1658     -3.6300      3.3229      7.6030    
  12.429      16.625      19.413      20.558      20.297      19.150      17.676      16.153      14.698      13.387    
  12.266      11.354      10.660      10.191      9.9540      9.9540      10.191      10.660      11.354      12.266    
  13.387      14.698      16.153      17.676      19.150      20.297      20.558      19.412      16.625      12.429    
  7.6031      3.3229     0.79765     0.79761      8.9493      12.848      16.618      19.413      20.835      20.948    
  20.138      18.905      17.557      16.214      14.954      13.827      12.863      12.080      11.495      11.131    
  11.007      11.131      11.495      12.080      12.863      13.827      14.954      16.214      17.558      18.905    
  20.138      20.949      20.835      19.413      16.618      12.848      8.9493      5.9940      4.8901      5.9940    
  13.538      16.569      19.070      20.558      20.948      20.482      19.560      18.472      17.332      16.214    
  15.167      14.222      13.401      12.731      12.249      11.994      11.994      12.249      12.731      13.401    
  14.222      15.167      16.214      17.332      18.472      19.560      20.482      20.949      20.558      19.070    
  16.568      13.538      10.774      9.1190      9.1190      10.774      16.386      18.387      19.751      20.297    
  20.138      19.560      18.790      17.926      17.033      16.153      15.309      14.521      13.816      13.241    
  12.859      12.724      12.859      13.242      13.816      14.521      15.309      16.153      17.033      17.926    
  18.790      19.560      20.138      20.297      19.751      18.387      16.386      14.227      12.555      11.924    
  12.555      14.228      17.363      18.476      19.066      19.150      18.905      18.472      17.926      17.317    
  16.676      16.013      15.337      14.667      14.050      13.557      13.278      13.278      13.557      14.050    
  14.668      15.337      16.013      16.676      17.317      17.926      18.472      18.905      19.150      19.066    
  18.476      17.363      15.937      14.594      13.778      13.778      14.594      15.937      16.824      17.380    
  17.637      17.676      17.557      17.332      17.033      16.676      16.257      15.769      15.213      14.617    
  14.049      13.629      13.473      13.629      14.049      14.617      15.213      15.769      16.257      16.676    
  17.033      17.332      17.558      17.676      17.637      17.379      16.824      16.001      15.093      14.377    
  14.105      14.377      15.093      16.001      15.401      15.769      16.013      16.153      16.214      16.214    
  16.153      16.013      15.769      15.401      14.908      14.335      13.809      13.491      13.492      13.810    
  14.335      14.908      15.401      15.769      16.013      16.153      16.214      16.214      16.153      16.013    
  15.769      15.401      14.908      14.335      13.810      13.492      13.491      13.809      14.335      14.908    
  13.721      14.087      14.410      14.698      14.954      15.167      15.309      15.337      15.213      14.908    
  14.428      13.878      13.435      13.266      13.436      13.878      14.428      14.908      15.213      15.337    
  15.309      15.168      14.954      14.698      14.410      14.087      13.721      13.309      12.875      12.474    
  12.183      12.076      12.183      12.474      12.875      13.309      12.066      12.495      12.937      13.387    
  13.827      14.222      14.521      14.667      14.617      14.335      13.878      13.403      13.102      13.102    
  13.403      13.878      14.335      14.617      14.667      14.521      14.222      13.827      13.387      12.937    
  12.495      12.066      11.647      11.245      10.881      10.597      10.439      10.439      10.597      10.881    
  11.245      11.647      10.564      11.090      11.663      12.266      12.863      13.401      13.816      14.050    
  14.049      13.809      13.435      13.102      12.969      13.102      13.436      13.809      14.049      14.050    
  13.816      13.401      12.863      12.266      11.663      11.090      10.564      10.091      9.6703      9.3068    
  9.0172      8.8269      8.7603      8.8270      9.0172      9.3068      9.6703      10.091      9.2910      9.9204    
  10.618      11.354      12.080      12.731      13.241      13.557      13.629      13.491      13.266      13.102    
  13.102      13.266      13.492      13.629      13.557      13.241      12.731      12.080      11.354      10.618    
  9.9204      9.2910      8.7411      8.2713      7.8793      7.5679      7.3473      7.2318      7.2318      7.3473    
  7.5679      7.8794      8.2714      8.7413      8.2726      9.0017      9.8103      10.660      11.495      12.249    
  12.859      13.278      13.473      13.492      13.436      13.403      13.436      13.492      13.473      13.278    
  12.859      12.249      11.495      10.660      9.8103      9.0017      8.2726      7.6410      7.1095      6.6732    
  6.3277      6.0732      5.9157      5.8621      5.9157      6.0733      6.3278      6.6734      7.1095      7.6410    
  7.5059      8.3279      9.2373      10.191      11.131      11.994      12.724      13.278      13.629      13.810    
  13.878      13.878      13.809      13.629      13.278      12.725      11.994      11.132      10.191      9.2373    
  8.3278      7.5060      6.7944      6.1983      5.7119      5.3263      5.0357      4.8391      4.7395      4.7395    
  4.8393      5.0358      5.3264      5.7118      6.1982      6.7943      6.9753      7.8870      8.8946      9.9540    
  11.007      11.994      12.859      13.557      14.049      14.335      14.428      14.335      14.049      13.557    
  12.859      11.994      11.008      9.9541      8.8947      7.8869      6.9752      6.1850      5.5234      4.9845    
  4.5566      4.2292      3.9962      3.8557      3.8087      3.8558      3.9962      4.2292      4.5565      4.9843    
  5.5233      6.1850      6.6641      7.6690      8.7805      9.9540      11.131      12.249      13.242      14.050    
  14.617      14.908      14.908      14.617      14.050      13.241      12.249      11.132      9.9541      8.7806    
  7.6691      6.6641      5.7924      5.0620      4.4669      3.9938      3.6286      3.3604      3.1834      3.0951    
  3.0951      3.1833      3.3604      3.6284      3.9937      4.4668      5.0620      5.7925      6.5617      7.6690    
  8.8947      10.191      11.495      12.731      13.816      14.668      15.213      15.401      15.213      14.667    
  13.816      12.731      11.495      10.191      8.8947      7.6691      6.5617      5.6004      4.7938      4.1357    
  3.6116      3.2047      2.9006      2.6888      2.5636      2.5221      2.5635      2.6887      2.9004      3.2047    
  3.6116      4.1357      4.7938      5.6004      6.6642      7.8870      9.2374      10.660      12.080      13.401    
  14.521      15.337      15.769      15.769      15.337      14.521      13.401      12.080      10.660      9.2373    
  7.8869      6.6641      5.6004      4.7058      3.9743      3.3901      2.9345      2.5899      2.3423      2.1821    
  2.1033      2.1033      2.1820      2.3422      2.5899      2.9346      3.3902      3.9743      4.7058      5.6004    
  6.9753      8.3279      9.8103      11.354      12.863      14.222      15.309      16.013      16.257      16.013    
  15.309      14.222      12.863      11.354      9.8103      8.3278      6.9752      5.7924      4.7938      3.9743    
  3.3176      2.8030      2.4102      2.1222      1.9259      1.8117      1.7743      1.8117      1.9258      2.1223    
  2.4103      2.8030      3.3177      3.9743      4.7938      5.7925      7.5059      9.0017      10.618      12.266    
  13.827      15.167      16.153      16.676      16.676      16.153      15.168      13.827      12.266      10.618    
  9.0017      7.5060      6.1850      5.0620      4.1357      3.3901      2.8030      2.3514      2.0153      1.7783    
  1.6276      1.5546      1.5546      1.6276      1.7783      2.0154      2.3515      2.8030      3.3902      4.1357    
  5.0620      6.1850      8.2725      9.9204      11.663      13.387      14.954      16.214      17.033      17.317    
  17.033      16.214      14.954      13.387      11.663      9.9204      8.2726      6.7944      5.5234      4.4669    
  3.6116      2.9345      2.4102      2.0153      1.7301      1.5386      1.4289      1.3932      1.4289      1.5387    
  1.7302      2.0154      2.4102      2.9346      3.6116      4.4668      5.5233      6.7943      9.2910      11.090    
  12.937      14.698      16.214      17.332      17.926      17.926      17.332      16.214      14.698      12.937    
  11.090      9.2910      7.6410      6.1983      4.9845      3.9938      3.2047      2.5899      2.1222      1.7783    
  1.5386      1.3880      1.3155      1.3155      1.3880      1.5387      1.7783      2.1222      2.5899      3.2047    
  3.9937      4.9843      6.1982      7.6410      10.564      12.495      14.410      16.153      17.558      18.472    
  18.790      18.472      17.558      16.153      14.410      12.495      10.564      8.7411      7.1095      5.7119    
  4.5566      3.6286      2.9006      2.3423      1.9259      1.6276      1.4289      1.3155      1.2787      1.3155    
  1.4289      1.6276      1.9258      2.3422      2.9004      3.6284      4.5565      5.7118      7.1095      8.7413    
  12.066      14.087      16.013      17.676      18.905      19.560      19.560      18.905      17.676      16.013    
  14.087      12.066      10.091      8.2713      6.6732      5.3263      4.2292      3.3604      2.6888      2.1821    
  1.8117      1.5546      1.3932      1.3155      1.3155      1.3932      1.5546      1.8117      2.1820      2.6887    
  3.3604      4.2293      5.3264      6.6734      8.2714      10.091      13.721      15.769      17.637      19.150    
  20.138      20.482      20.138      19.150      17.637      15.769      13.721      11.647      9.6703      7.8793    
  6.3277      5.0357      3.9962      3.1834      2.5636      2.1033      1.7743      1.5546      1.4289      1.3880    
  1.4289      1.5546      1.7742      2.1033      2.5635      3.1834      3.9962      5.0358      6.3278      7.8794    
  9.6703      11.647      15.401      17.380      19.066      20.297      20.949      20.949      20.297      19.066    
  17.379      15.401      13.309      11.245      9.3068      7.5679      6.0732      4.8391      3.8557      3.0951    
  2.5221      2.1033      1.8117      1.6276      1.5387      1.5387      1.6276      1.8117      2.1033      2.5221    
  3.0951      3.8558      4.8393      6.0733      7.5679      9.3068      11.245      13.309      16.824      18.476    
  19.751      20.558      20.835      20.558      19.751      18.476      16.824      14.908      12.875      10.881    
  9.0172      7.3473      5.9157      4.7395      3.8087      3.0951      2.5635      2.1820      1.9258      1.7783    
  1.7302      1.7783      1.9258      2.1820      2.5635      3.0951      3.8088      4.7395      5.9157      7.3472    
  9.0171      10.881      12.875      14.908      17.363      18.386      19.069      19.412      19.413      19.070    
  18.387      17.363      16.001      14.335      12.474      10.597      8.8269      7.2318      5.8621      4.7395    
  3.8558      3.1833      2.6887      2.3422      2.1223      2.0154      2.0154      2.1222      2.3422      2.6887    
  3.1834      3.8558      4.7395      5.8621      7.2317      8.8269      10.597      12.474      14.335      16.001    
  16.385      16.568      16.618      16.625      16.618      16.568      16.386      15.937      15.093      13.810    
  12.183      10.439      8.7603      7.2318      5.9157      4.8393      3.9962      3.3604      2.9004      2.5899    
  2.4103      2.3515      2.4102      2.5899      2.9004      3.3604      3.9962      4.8393      5.9157      7.2317    
  8.7602      10.439      12.183      13.809      15.093      15.936      13.538      12.848      12.429      12.429    
  12.848      13.538      14.227      14.594      14.377      13.492      12.076      10.439      8.8270      7.3473    
  6.0733      5.0358      4.2292      3.6284      3.2047      2.9346      2.8030      2.8030      2.9346      3.2047    
  3.6284      4.2293      5.0358      6.0733      7.3472      8.8269      10.439      12.076      13.492      14.377    
  14.594      14.227      8.9492      7.6030      7.1094      7.6031      8.9493      10.774      12.555      13.778    
  14.105      13.491      12.183      10.597      9.0172      7.5679      6.3278      5.3264      4.5565      3.9937    
  3.6116      3.3902      3.3177      3.3902      3.6116      3.9937      4.5565      5.3264      6.3278      7.5679    
  9.0171      10.597      12.183      13.492      14.106      13.778      12.555      10.774      3.3229      1.7894    
  1.7894      3.3229      5.9940      9.1190      11.924      13.778      14.377      13.809      12.474      10.881    
  9.3068      7.8794      6.6734      5.7118      4.9843      4.4668      4.1357      3.9743      3.9743      4.1357    
  4.4668      4.9843      5.7118      6.6734      7.8794      9.3068      10.881      12.474      13.809      14.377    
  13.778      11.924      9.1189      5.9940     -2.1656     -3.2469     -2.1658     0.79765      4.8901      9.1190    
  12.555      14.594      15.093      14.335      12.875      11.245      9.6703      8.2714      7.1095      6.1982    
  5.5233      5.0620      4.7938      4.7058      4.7938      5.0620      5.5233      6.1982      7.1095      8.2714    
  9.6703      11.245      12.875      14.335      15.093      14.594      12.555      9.1189      4.8901     0.79781    
 -6.1787     -6.1788     -3.6300     0.79761      5.9940      10.774      14.228      15.937      16.001      14.908    
  13.309      11.647      10.091      8.7413      7.6410      6.7943      6.1850      5.7925      5.6004      5.6004    
  5.7925      6.1850      6.7943      7.6410      8.7413      10.091      11.647      13.309      14.908      16.001    
  15.936      14.227      10.774      5.9940     0.79781     -3.6297     -6.1788     -3.2469      1.7894      7.6030    
  12.848      16.569      18.387      18.476      17.380      15.769      14.087      12.495      11.090      9.9204    
  9.0017      8.3279      7.8870      7.6690      7.6690      7.8870      8.3279      9.0017      9.9204      11.090    
  12.495      14.087      15.769      17.380      18.476      18.386      16.568      12.848      7.6030      1.7894    
 -3.2469     -6.1788     -3.2469     0.90612      6.4969      12.099      16.534      19.167      19.960      19.324    
  17.898      16.257      14.633      13.139      11.844      10.781      9.9588      9.3756      9.0268      8.9106    
  9.0268      9.3756      9.9588      10.781      11.844      13.139      14.633      16.257      17.898      19.324    
  19.960      19.167      16.533      12.099      6.4967     0.90596     -3.2470     -4.7839      1.7894      6.4969    
  11.820      16.478      19.630      21.013      20.871      19.745      18.240      16.676      15.176      13.821    
  12.658      11.711      10.990      10.502      10.256      10.256      10.502      10.990      11.711      12.658    
  13.821      15.176      16.676      18.240      19.746      20.871      21.013      19.630      16.478      11.820    
  6.4968      1.7893     -.98508     -.98505      7.6030      12.099      16.478      19.784      21.562      21.869    
  21.114      19.845      18.440      17.033      15.706      14.514      13.490      12.655      12.032      11.644    
  11.511      11.644      12.032      12.655      13.490      14.514      15.706      17.033      18.440      19.845    
  21.114      21.870      21.563      19.784      16.478      12.099      7.6030      4.2052      2.9372      4.2051    
  12.848      16.534      19.630      21.562      22.215      21.843      20.895      19.745      18.531      17.332    
  16.200      15.171      14.273      13.537      13.006      12.725      12.725      13.006      13.537      14.273    
  15.171      16.200      17.332      18.531      19.745      20.896      21.844      22.216      21.563      19.630    
  16.534      12.848      9.5117      7.5205      7.5206      9.5118      16.569      19.167      21.013      21.869    
  21.843      21.261      20.440      19.507      18.531      17.557      16.614      15.724      14.924      14.268    
  13.828      13.672      13.828      14.268      14.924      15.724      16.614      17.557      18.531      19.507    
  20.440      21.261      21.844      21.870      21.013      19.167      16.568      13.813      11.693      10.896    
  11.694      13.813      18.387      19.960      20.871      21.114      20.895      20.440      19.846      19.169    
  18.440      17.676      16.884      16.092      15.344      14.736      14.390      14.390      14.737      15.344    
  16.092      16.884      17.676      18.440      19.168      19.846      20.440      20.895      21.114      20.871    
  19.960      18.387      16.438      14.634      13.544      13.544      14.634      16.439      18.476      19.324    
  19.745      19.845      19.745      19.507      19.169      18.747      18.240      17.637      16.937      16.156    
  15.396      14.830      14.619      14.830      15.396      16.156      16.937      17.637      18.240      18.747    
  19.169      19.507      19.745      19.845      19.745      19.324      18.476      17.270      15.969      14.957    
  14.574      14.957      15.969      17.270      17.380      17.898      18.240      18.440      18.531      18.531    
  18.440      18.240      17.898      17.380      16.656      15.808      15.033      14.566      14.566      15.033    
  15.808      16.656      17.379      17.898      18.240      18.440      18.531      18.531      18.440      18.240    
  17.898      17.379      16.656      15.808      15.033      14.566      14.566      15.033      15.808      16.656    
  15.769      16.257      16.676      17.033      17.332      17.557      17.676      17.637      17.380      16.824    
  16.001      15.093      14.377      14.105      14.377      15.093      16.001      16.824      17.379      17.637    
  17.676      17.558      17.332      17.033      16.676      16.257      15.769      15.213      14.617      14.049    
  13.629      13.473      13.629      14.049      14.617      15.213      14.087      14.633      15.176      15.706    
  16.200      16.614      16.884      16.937      16.656      16.001      15.100      14.226      13.687      13.687    
  14.226      15.100      16.001      16.656      16.936      16.884      16.614      16.200      15.706      15.176    
  14.633      14.087      13.541      13.007      12.520      12.136      11.923      11.923      12.136      12.520    
  13.007      13.541      12.495      13.139      13.821      14.514      15.171      15.724      16.092      16.156    
  15.808      15.093      14.226      13.520      13.248      13.520      14.226      15.093      15.807      16.155    
  16.091      15.724      15.171      14.514      13.821      13.139      12.495      11.901      11.362      10.890    
  10.511      10.260      10.172      10.260      10.511      10.890      11.362      11.901      11.090      11.844    
  12.658      13.490      14.273      14.924      15.344      15.396      15.033      14.377      13.687      13.248    
  13.248      13.687      14.377      15.033      15.396      15.344      14.923      14.273      13.489      12.658    
  11.844      11.090      10.417      9.8337      9.3412      8.9468      8.6660      8.5185      8.5186      8.6660    
  8.9468      9.3412      9.8337      10.417      9.9204      10.781      11.711      12.655      13.537      14.268    
  14.736      14.830      14.566      14.105      13.687      13.520      13.687      14.105      14.566      14.830    
  14.736      14.268      13.537      12.655      11.711      10.781      9.9204      9.1612      8.5140      7.9786    
  7.5524      7.2377      7.0424      6.9760      7.0424      7.2377      7.5525      7.9787      8.5141      9.1612    
  9.0017      9.9588      10.990      12.032      13.006      13.828      14.390      14.619      14.566      14.377    
  14.226      14.226      14.377      14.566      14.619      14.390      13.828      13.006      12.032      10.990    
  9.9587      9.0017      8.1576      7.4418      6.8539      6.3865      6.0339      5.7953      5.6743      5.6743    
  5.7954      6.0341      6.3867      6.8539      7.4418      8.1575      8.3279      9.3756      10.502      11.644    
  12.725      13.672      14.390      14.830      15.033      15.093      15.100      15.093      15.033      14.830    
  14.390      13.672      12.725      11.644      10.502      9.3755      8.3278      7.4023      6.6179      5.9747    
  5.4629      5.0711      4.7921      4.6240      4.5677      4.6241      4.7922      5.0712      5.4629      5.9746    
  6.6178      7.4023      7.8870      9.0268      10.256      11.511      12.725      13.828      14.737      15.396    
  15.808      16.001      16.001      15.807      15.396      14.736      13.828      12.725      11.512      10.256    
  9.0268      7.8869      6.8794      6.0250      5.3244      4.7661      4.3347      4.0178      3.8084      3.7038    
  3.7038      3.8084      4.0178      4.3346      4.7659      5.3243      6.0250      6.8795      7.6690      8.9106    
  10.256      11.644      13.006      14.268      15.344      16.156      16.656      16.824      16.656      16.155    
  15.344      14.268      13.006      11.644      10.256      8.9107      7.6690      6.5729      5.6428      4.8797    
  4.2706      3.7974      3.4432      3.1962      3.0497      3.0011      3.0497      3.1961      3.4431      3.7973    
  4.2706      4.8797      5.6429      6.5729      7.6690      9.0268      10.502      12.032      13.537      14.924    
  16.092      16.937      17.379      17.379      16.936      16.091      14.923      13.537      12.032      10.502    
  9.0268      7.6690      6.4719      5.4558      4.6210      3.9534      3.4327      3.0384      2.7544      2.5699    
  2.4790      2.4789      2.5699      2.7543      3.0384      3.4327      3.9535      4.6210      5.4558      6.4718    
  7.8870      9.3756      10.990      12.655      14.273      15.724      16.884      17.637      17.898      17.637    
  16.884      15.724      14.273      12.655      10.990      9.3755      7.8869      6.5729      5.4558      4.5361    
  3.7988      3.2213      2.7804      2.4564      2.2345      2.1049      2.0623      2.1049      2.2345      2.4564    
  2.7805      3.2213      3.7988      4.5361      5.4558      6.5729      8.3279      9.9588      11.711      13.490    
  15.171      16.614      17.676      18.240      18.240      17.676      16.614      15.171      13.489      11.711    
  9.9587      8.3278      6.8794      5.6428      4.6210      3.7988      3.1520      2.6548      2.2842      2.0219    
  1.8543      1.7726      1.7726      1.8542      2.0219      2.2843      2.6549      3.1520      3.7988      4.6210    
  5.6429      6.8795      9.0017      10.781      12.658      14.514      16.200      17.557      18.440      18.747    
  18.440      17.558      16.200      14.514      12.658      10.781      9.0017      7.4023      6.0250      4.8797    
  3.9534      3.2213      2.6548      2.2279      1.9187      1.7102      1.5902      1.5510      1.5902      1.7102    
  1.9187      2.2279      2.6549      3.2213      3.9535      4.8797      6.0250      7.4023      9.9204      11.844    
  13.821      15.706      17.332      18.531      19.168      19.169      18.531      17.332      15.706      13.821    
  11.844      9.9204      8.1576      6.6179      5.3244      4.2706      3.4327      2.7804      2.2842      1.9187    
  1.6632      1.5022      1.4245      1.4245      1.5022      1.6633      1.9187      2.2843      2.7804      3.4327    
  4.2705      5.3243      6.6178      8.1575      11.090      13.139      15.176      17.033      18.531      19.507    
  19.846      19.507      18.531      17.033      15.176      13.139      11.090      9.1612      7.4418      5.9747    
  4.7661      3.7974      3.0384      2.4564      2.0219      1.7102      1.5022      1.3833      1.3448      1.3834    
  1.5022      1.7102      2.0219      2.4564      3.0384      3.7973      4.7659      5.9746      7.4418      9.1612    
  12.495      14.633      16.676      18.440      19.745      20.440      20.440      19.745      18.440      16.676    
  14.633      12.495      10.417      8.5140      6.8539      5.4629      4.3347      3.4432      2.7544      2.2345    
  1.8543      1.5902      1.4245      1.3448      1.3448      1.4245      1.5902      1.8542      2.2344      2.7543    
  3.4431      4.3346      5.4629      6.8539      8.5141      10.417      14.087      16.257      18.240      19.845    
  20.896      21.261      20.895      19.845      18.240      16.257      14.087      11.901      9.8337      7.9786    
  6.3865      5.0711      4.0178      3.1962      2.5699      2.1049      1.7726      1.5510      1.4245      1.3834    
  1.4245      1.5510      1.7726      2.1049      2.5699      3.1961      4.0179      5.0712      6.3867      7.9787    
  9.8337      11.901      15.769      17.898      19.746      21.114      21.844      21.844      21.114      19.745    
  17.898      15.769      13.541      11.362      9.3412      7.5524      6.0339      4.7921      3.8084      3.0497    
  2.4790      2.0623      1.7726      1.5902      1.5022      1.5022      1.5902      1.7726      2.0623      2.4789    
  3.0497      3.8084      4.7922      6.0341      7.5525      9.3412      11.362      13.541      17.380      19.324    
  20.871      21.870      22.216      21.870      20.871      19.324      17.379      15.213      13.007      10.890    
  8.9468      7.2377      5.7953      4.6240      3.7038      3.0011      2.4789      2.1049      1.8542      1.7102    
  1.6633      1.7102      1.8542      2.1049      2.4789      3.0011      3.7039      4.6241      5.7954      7.2377    
  8.9468      10.890      13.007      15.213      18.476      19.960      21.013      21.563      21.563      21.013    
  19.960      18.476      16.656      14.617      12.520      10.511      8.6660      7.0424      5.6743      4.5677    
  3.7038      3.0497      2.5699      2.2345      2.0219      1.9187      1.9187      2.0219      2.2344      2.5699    
  3.0497      3.7039      4.5678      5.6743      7.0424      8.6660      10.511      12.520      14.617      16.655    
  18.386      19.167      19.630      19.784      19.630      19.167      18.387      17.270      15.808      14.049    
  12.136      10.260      8.5185      6.9760      5.6743      4.6241      3.8084      3.1961      2.7543      2.4564    
  2.2843      2.2279      2.2843      2.4564      2.7543      3.1961      3.8084      4.6241      5.6743      6.9759    
  8.5185      10.260      12.136      14.049      15.807      17.269      16.568      16.533      16.478      16.478    
  16.534      16.568      16.438      15.969      15.033      13.629      11.923      10.172      8.5186      7.0424    
  5.7954      4.7922      4.0178      3.4431      3.0384      2.7805      2.6549      2.6549      2.7804      3.0384    
  3.4431      4.0179      4.7922      5.7954      7.0424      8.5185      10.172      11.923      13.629      15.033    
  15.969      16.438      12.848      12.099      11.820      12.099      12.848      13.813      14.634      14.957    
  14.566      13.473      11.923      10.260      8.6660      7.2377      6.0341      5.0712      4.3346      3.7973    
  3.4327      3.2213      3.1520      3.2213      3.4327      3.7973      4.3346      5.0712      6.0341      7.2377    
  8.6660      10.260      11.923      13.473      14.566      14.957      14.634      13.813      7.6030      6.4967    