unknown system                          
   1.00000000000000     
     0.000000    2.761642    2.761642
     2.761642    0.000000    2.761642
     2.761642    2.761642    0.000000
   Si
     2
Direct
  0.000000  0.000000  0.000000
  0.250000  0.250000  0.250000
 
   36   36   36
 -.76517351262E+01 -.61787611761E+01 -.21657725446E+01 0.33228598755E+01 0.89493435791E+01
 0.13538115139E+02 0.16386087475E+02 0.17363422175E+02 0.16824223648E+02 0.15401031437E+02
 0.13720906746E+02 0.12065549834E+02 0.10564322942E+02 0.92910436009E+01 0.82725799764E+01
 0.75059313654E+01 0.69752734028E+01 0.66641477537E+01 0.65616713790E+01 0.66641896939E+01
 0.69753109965E+01 0.75059270661E+01 0.82725449685E+01 0.92910256184E+01 0.10564370455E+02
 0.12065677465E+02 0.13721057938E+02 0.15401067468E+02 0.16823998288E+02 0.17362918168E+02
 0.16385477064E+02 0.13537649376E+02 0.89491631323E+01 0.33229150009E+01 -.21656348434E+01
 -.61786663727E+01 -.61787611761E+01 -.32468677614E+01 0.17894217335E+01 0.76030463949E+01
 0.12848397579E+02 0.16568541080E+02 0.18386996056E+02 0.18476268006E+02 0.17379524768E+02
 0.15769031511E+02 0.14087306503E+02 0.12495169683E+02 0.11089647871E+02 0.99203918552E+01
 0.90016878462E+01 0.83278927964E+01 0.78869683524E+01 0.76689762238E+01 0.76690009496E+01
 0.78870142408E+01 0.83279097467E+01 0.90016611121E+01 0.99203554975E+01 0.11089656713E+02
 0.12495267201E+02 0.14087486040E+02 0.15769195843E+02 0.17379509090E+02 0.18475969107E+02
 0.18386498443E+02 0.16568075288E+02 0.12848139218E+02 0.76029758631E+01 0.17894023590E+01
 -.32469108427E+01 -.61787888187E+01 -.21657725446E+01 0.17894217335E+01 0.71094767476E+01
 0.12429394643E+02 0.16618158666E+02 0.19069747096E+02 0.19750776642E+02 0.19065664478E+02
 0.17636858869E+02 0.16013143995E+02 0.14409666993E+02 0.12937093815E+02 0.11662635458E+02
 0.10617760582E+02 0.98103164073E+01 0.92373440444E+01 0.88946444600E+01 0.87804900294E+01
 0.88946777198E+01 0.92373740949E+01 0.98103130098E+01 0.10617730206E+02 0.11662614693E+02
 0.12937129633E+02 0.14409792450E+02 0.16013336943E+02 0.17637017310E+02 0.19065661802E+02
 0.19750577163E+02 0.19069454830E+02 0.16617926742E+02 0.12429288759E+02 0.71094471965E+01
 0.17893978172E+01 -.21657996278E+01 -.36299716729E+01 0.33228598755E+01 0.76030463949E+01
 0.12429394643E+02 0.16624688139E+02 0.19412587426E+02 0.20558084215E+02 0.20297341588E+02
 0.19149653995E+02 0.17675601506E+02 0.16152725711E+02 0.14697596431E+02 0.13387170496E+02
 0.12265671914E+02 0.11353909556E+02 0.10660483584E+02 0.10191417733E+02 0.99539902153E+01
 0.99540022307E+01 0.10191442104E+02 0.10660498981E+02 0.11353906442E+02 0.12265657860E+02
 0.13387168322E+02 0.14697641792E+02 0.16152846695E+02 0.17675780449E+02 0.19149819467E+02
 0.20297416452E+02 0.20558046497E+02 0.19412482260E+02 0.16624590153E+02 0.12429361227E+02
 0.76030867333E+01 0.33229298953E+01 0.79764780579E+00 0.79761401524E+00 0.89493435791E+01
 0.12848397579E+02 0.16618158666E+02 0.19412587426E+02 0.20835038372E+02 0.20948497989E+02
 0.20137847683E+02 0.18905016442E+02 0.17557464662E+02 0.16214140725E+02 0.14954113310E+02
 0.13827359886E+02 0.12863031026E+02 0.12079740956E+02 0.11495434444E+02 0.11131429927E+02
 0.11007368872E+02 0.11131441105E+02 0.11495452078E+02 0.12079761249E+02 0.12863049191E+02
 0.13827369537E+02 0.14954121347E+02 0.16214178544E+02 0.17557566152E+02 0.18905179652E+02
 0.20138027095E+02 0.20948632404E+02 0.20835083411E+02 0.19412537382E+02 0.16618055735E+02
 0.12848311405E+02 0.89493149743E+01 0.59940415691E+01 0.48901271699E+01 0.59940341380E+01
 0.13538115139E+02 0.16568541080E+02 0.19069747096E+02 0.20558084215E+02 0.20948497989E+02
 0.20481563928E+02 0.19560193632E+02 0.18472204523E+02 0.17331877687E+02 0.16214141623E+02
 0.15167451827E+02 0.14222127189E+02 0.13401033759E+02 0.12730990588E+02 0.12248569965E+02
 0.11993800910E+02 0.11993808779E+02 0.12248590709E+02 0.12731022018E+02 0.13401075871E+02
 0.14222170657E+02 0.15167478193E+02 0.16214151716E+02 0.17331907411E+02 0.18472293666E+02
 0.19560340134E+02 0.20481720872E+02 0.20948605589E+02 0.20558094065E+02 0.19069631809E+02
 0.16568308618E+02 0.13537827538E+02 0.10773612008E+02 0.91189552159E+01 0.91190480806E+01
 0.10773851051E+02 0.16386087475E+02 0.18386996056E+02 0.19750776642E+02 0.20297341588E+02
 0.20137847683E+02 0.19560193632E+02 0.18790005663E+02 0.17925780506E+02 0.17033058813E+02
 0.16152725530E+02 0.15308930599E+02 0.14520631399E+02 0.13815803728E+02 0.13241458490E+02
 0.12859302275E+02 0.12724399819E+02 0.12859342866E+02 0.13241514515E+02 0.13815859931E+02
 0.14520690964E+02 0.15308988188E+02 0.16152762834E+02 0.17033079111E+02 0.17925821315E+02
 0.18790093806E+02 0.19560302521E+02 0.20137920771E+02 0.20297342418E+02 0.19750689050E+02
 0.18386797797E+02 0.16385769570E+02 0.14227300931E+02 0.12554647863E+02 0.11923823931E+02
 0.12554901475E+02 0.14227666685E+02 0.17363422175E+02 0.18476268006E+02 0.19065664478E+02
 0.19149653995E+02 0.18905016442E+02 0.18472204523E+02 0.17925780506E+02 0.17317243367E+02
 0.16675554012E+02 0.16013140582E+02 0.15337376313E+02 0.14667497527E+02 0.14049735724E+02
 0.13556626736E+02 0.13277809442E+02 0.13277857975E+02 0.13556732195E+02 0.14049828656E+02
 0.14667557887E+02 0.15337430900E+02 0.16013204226E+02 0.16675616198E+02 0.17317306134E+02
 0.17925864323E+02 0.18472302369E+02 0.18905073699E+02 0.19149622169E+02 0.19065555743E+02
 0.18476128674E+02 0.17363275402E+02 0.15936505281E+02 0.14594115346E+02 0.13777743150E+02
 0.13777799594E+02 0.14594250949E+02 0.15936659553E+02 0.16824223648E+02 0.17379524768E+02
 0.17636858869E+02 0.17675601506E+02 0.17557464662E+02 0.17331877687E+02 0.17033058813E+02
 0.16675554012E+02 0.16257214227E+02 0.15769029501E+02 0.15213056514E+02 0.14617189305E+02
 0.14049276582E+02 0.13629055040E+02 0.13472990349E+02 0.13629189111E+02 0.14049433792E+02
 0.14617273706E+02 0.15213076699E+02 0.15769056037E+02 0.16257287560E+02 0.16675667957E+02
 0.17033198229E+02 0.17332029173E+02 0.17557589505E+02 0.17675639422E+02 0.17636783899E+02
 0.17379393451E+02 0.16824142717E+02 0.16000856672E+02 0.15092759484E+02 0.14377437313E+02
 0.14105378062E+02 0.14377329312E+02 0.15092634459E+02 0.16000819521E+02 0.15401031437E+02
 0.15769031511E+02 0.16013143995E+02 0.16152725711E+02 0.16214140725E+02 0.16214141623E+02
 0.16152725530E+02 0.16013140582E+02 0.15769029501E+02 0.15401034831E+02 0.14908227737E+02
 0.14335045115E+02 0.13809382558E+02 0.13491486226E+02 0.13491579469E+02 0.13809580173E+02
 0.14335189166E+02 0.14908242979E+02 0.15400980208E+02 0.15769014023E+02 0.16013221028E+02
 0.16152890175E+02 0.16214347935E+02 0.16214346259E+02 0.16152888545E+02 0.16013222869E+02
 0.15769015997E+02 0.15400978931E+02 0.14908241714E+02 0.14335191007E+02 0.13809581310E+02
 0.13491576101E+02 0.13491481554E+02 0.13809380233E+02 0.14335042532E+02 0.14908222594E+02
 0.13720906746E+02 0.14087306503E+02 0.14409666993E+02 0.14697596431E+02 0.14954113310E+02
 0.15167451827E+02 0.15308930599E+02 0.15337376313E+02 0.15213056514E+02 0.14908227737E+02
 0.14427766472E+02 0.13877633379E+02 0.13435350645E+02 0.13265712554E+02 0.13435519971E+02
 0.13877830398E+02 0.14427843556E+02 0.14908155218E+02 0.15212926206E+02 0.15337310018E+02
 0.15308989298E+02 0.15167614657E+02 0.14954315569E+02 0.14697789548E+02 0.14409836190E+02
 0.14087442633E+02 0.13720994684E+02 0.13308970325E+02 0.12874788012E+02 0.12474076249E+02
 0.12183028177E+02 0.12075577374E+02 0.12182950761E+02 0.12473988338E+02 0.12874733285E+02
 0.13308921809E+02 0.12065549834E+02 0.12495169683E+02 0.12937093815E+02 0.13387170496E+02
 0.13827359886E+02 0.14222127189E+02 0.14520631399E+02 0.14667497527E+02 0.14617189305E+02
 0.14335045115E+02 0.13877633379E+02 0.13403207427E+02 0.13101924111E+02 0.13102009986E+02
 0.13403399190E+02 0.13877789747E+02 0.14335061746E+02 0.14617064843E+02 0.14667321711E+02
 0.14520516285E+02 0.14222131089E+02 0.13827455394E+02 0.13387285358E+02 0.12937191903E+02
 0.12495271960E+02 0.12065677381E+02 0.11647062226E+02 0.11244672028E+02 0.10880972258E+02
 0.10596855962E+02 0.10439054901E+02 0.10439059387E+02 0.10596858927E+02 0.10880945028E+02
 0.11244589086E+02 0.11646934796E+02 0.10564322942E+02 0.11089647871E+02 0.11662635458E+02
 0.12265671914E+02 0.12863031026E+02 0.13401033759E+02 0.13815803728E+02 0.14049735724E+02
 0.14049276582E+02 0.13809382558E+02 0.13435350645E+02 0.13101924111E+02 0.12969315091E+02
 0.13102045896E+02 0.13435519382E+02 0.13809499421E+02 0.14049276314E+02 0.14049617404E+02
 0.13815631337E+02 0.13400896380E+02 0.12862980516E+02 0.12265683551E+02 0.11662644658E+02
 0.11089627466E+02 0.10564306108E+02 0.10091216612E+02 0.96703381419E+01 0.93068258941E+01
 0.90171589086E+01 0.88269462058E+01 0.87602561791E+01 0.88269675025E+01 0.90171655602E+01
 0.93067921204E+01 0.96702857559E+01 0.10091192332E+02 0.92910436009E+01 0.99203918552E+01
 0.10617760582E+02 0.11353909556E+02 0.12079740956E+02 0.12730990588E+02 0.13241458490E+02
 0.13556626736E+02 0.13629055040E+02 0.13491486226E+02 0.13265712554E+02 0.13102009986E+02
 0.13102045896E+02 0.13265807594E+02 0.13491604959E+02 0.13629149562E+02 0.13556651635E+02
 0.13241396746E+02 0.12730869463E+02 0.12079620401E+02 0.11353838281E+02 0.10617734793E+02
 0.99203652410E+01 0.92909766732E+01 0.87411482404E+01 0.82713267927E+01 0.78793494442E+01
 0.75678879823E+01 0.73472643932E+01 0.72317782110E+01 0.72317927004E+01 0.73473032222E+01
 0.75679465135E+01 0.78794315055E+01 0.82714311620E+01 0.87412507197E+01 0.82725799764E+01
 0.90016878462E+01 0.98103164073E+01 0.10660483584E+02 0.11495434444E+02 0.12248569965E+02
 0.12859302275E+02 0.13277809442E+02 0.13472990349E+02 0.13491579469E+02 0.13435519971E+02
 0.13403399190E+02 0.13435519382E+02 0.13491604959E+02 0.13473060085E+02 0.13277905528E+02
 0.12859381020E+02 0.12248591730E+02 0.11495388283E+02 0.10660400860E+02 0.98102531294E+01
 0.90016812585E+01 0.82726089853E+01 0.76409749913E+01 0.71094637535E+01 0.66732404502E+01
 0.63276667274E+01 0.60732037452E+01 0.59156506338E+01 0.58621013222E+01 0.59157137247E+01
 0.60733304530E+01 0.63278353614E+01 0.66733959580E+01 0.71095479396E+01 0.76409770306E+01
 0.75059313654E+01 0.83278927964E+01 0.92373440444E+01 0.10191417733E+02 0.11131429927E+02
 0.11993800910E+02 0.12724399819E+02 0.13277857975E+02 0.13629189111E+02 0.13809580173E+02
 0.13877830398E+02 0.13877789747E+02 0.13809499421E+02 0.13629149562E+02 0.13277905528E+02
 0.12724519716E+02 0.11993942336E+02 0.11131533707E+02 0.10191441436E+02 0.92372945534E+01
 0.83278396105E+01 0.75059546668E+01 0.67943963247E+01 0.61982788778E+01 0.57118573631E+01
 0.53263188981E+01 0.50356949011E+01 0.48391444227E+01 0.47394667491E+01 0.47395093956E+01
 0.48392607054E+01 0.50358394717E+01 0.53264130456E+01 0.57118397120E+01 0.61981687397E+01
 0.67942885074E+01 0.69752734028E+01 0.78869683524E+01 0.88946444600E+01 0.99539902153E+01
 0.11007368872E+02 0.11993808779E+02 0.12859342866E+02 0.13556732195E+02 0.14049433792E+02
 0.14335189166E+02 0.14427843556E+02 0.14335061746E+02 0.14049276314E+02 0.13556651635E+02
 0.12859381020E+02 0.11993942336E+02 0.11007544162E+02 0.99541429431E+01 0.88947149542E+01
 0.78869448697E+01 0.69752213814E+01 0.61850284330E+01 0.55234266621E+01 0.49844623182E+01
 0.45566122083E+01 0.42292497058E+01 0.39961682169E+01 0.38557393643E+01 0.38087412363E+01
 0.38557868581E+01 0.39962161384E+01 0.42292312074E+01 0.45564953988E+01 0.49842933702E+01
 0.55233035548E+01 0.61850116713E+01 0.66641477537E+01 0.76689762238E+01 0.87804900294E+01
 0.99540022307E+01 0.11131441105E+02 0.12248590709E+02 0.13241514515E+02 0.14049828656E+02
 0.14617273706E+02 0.14908242979E+02 0.14908155218E+02 0.14617064843E+02 0.14049617404E+02
 0.13241396746E+02 0.12248591730E+02 0.11131533707E+02 0.99541429431E+01 0.87806296181E+01
 0.76690617582E+01 0.66641499518E+01 0.57924101726E+01 0.50619664545E+01 0.44668623243E+01
 0.39937888702E+01 0.36285745453E+01 0.33604488226E+01 0.31833779275E+01 0.30950719081E+01
 0.30950672773E+01 0.31833449085E+01 0.33603560447E+01 0.36284285364E+01 0.39936501395E+01
 0.44667999800E+01 0.50619915240E+01 0.57924609739E+01 0.65616713790E+01 0.76690009496E+01
 0.88946777198E+01 0.10191442104E+02 0.11495452078E+02 0.12731022018E+02 0.13815859931E+02
 0.14667557887E+02 0.15213076699E+02 0.15400980208E+02 0.15212926206E+02 0.14667321711E+02
 0.13815631337E+02 0.12730869463E+02 0.11495388283E+02 0.10191441436E+02 0.88947149542E+01
 0.76690617582E+01 0.65617303775E+01 0.56004049496E+01 0.47937566811E+01 0.41356760050E+01
 0.36115994193E+01 0.32047380827E+01 0.29005505709E+01 0.26888075431E+01 0.25635721413E+01
 0.25220677379E+01 0.25635205714E+01 0.26887100223E+01 0.29004411249E+01 0.32046745792E+01
 0.36116146746E+01 0.41357390176E+01 0.47937996030E+01 0.56003884116E+01 0.66641896939E+01
 0.78870142408E+01 0.92373740949E+01 0.10660498981E+02 0.12079761249E+02 0.13401075871E+02
 0.14520690964E+02 0.15337430900E+02 0.15769056037E+02 0.15769014023E+02 0.15337310018E+02
 0.14520516285E+02 0.13400896380E+02 0.12079620401E+02 0.10660400860E+02 0.92372945534E+01
 0.78869448697E+01 0.66641499518E+01 0.56004049496E+01 0.47058348928E+01 0.39743002135E+01
 0.33901429553E+01 0.29345147742E+01 0.25898722252E+01 0.23422977412E+01 0.21820821330E+01
 0.21033274091E+01 0.21033010010E+01 0.21820190013E+01 0.23422413484E+01 0.25898688412E+01
 0.29345723048E+01 0.33902171720E+01 0.39743388141E+01 0.47058339283E+01 0.56004073152E+01
 0.69753109965E+01 0.83279097467E+01 0.98103130098E+01 0.11353906442E+02 0.12863049191E+02
 0.14222170657E+02 0.15308988188E+02 0.16013204226E+02 0.16257287560E+02 0.16013221028E+02
 0.15308989298E+02 0.14222131089E+02 0.12862980516E+02 0.11353838281E+02 0.98102531294E+01
 0.83278396105E+01 0.69752213814E+01 0.57924101726E+01 0.47937566811E+01 0.39743002135E+01
 0.33176198447E+01 0.28029721154E+01 0.24102058905E+01 0.21222400383E+01 0.19258511926E+01
 0.18117089986E+01 0.17742631092E+01 0.18116826452E+01 0.19258323490E+01 0.21222628854E+01
 0.24102694071E+01 0.28030415374E+01 0.33176675825E+01 0.39743376284E+01 0.47938154538E+01
 0.57924974653E+01 0.75059270661E+01 0.90016611121E+01 0.10617730206E+02 0.12265657860E+02
 0.13827369537E+02 0.15167478193E+02 0.16152762834E+02 0.16675616198E+02 0.16675667957E+02
 0.16152890175E+02 0.15167614657E+02 0.13827455394E+02 0.12265683551E+02 0.10617734793E+02
 0.90016812585E+01 0.75059546668E+01 0.61850284330E+01 0.50619664545E+01 0.41356760050E+01
 0.33901429553E+01 0.28029721154E+01 0.23513950999E+01 0.20153248146E+01 0.17783057159E+01
 0.16276436209E+01 0.15545665850E+01 0.15545625380E+01 0.16276450426E+01 0.17783340500E+01
 0.20153796791E+01 0.23514565898E+01 0.28030292775E+01 0.33902026843E+01 0.41357385108E+01
 0.50620085245E+01 0.61850287299E+01 0.82725449685E+01 0.99203554975E+01 0.11662614693E+02
 0.13387168322E+02 0.14954121347E+02 0.16214151716E+02 0.17033079111E+02 0.17317306134E+02
 0.17033198229E+02 0.16214347935E+02 0.14954315569E+02 0.13387285358E+02 0.11662644658E+02
 0.99203652410E+01 0.82726089853E+01 0.67943963247E+01 0.55234266621E+01 0.44668623243E+01
 0.36115994193E+01 0.29345147742E+01 0.24102058905E+01 0.20153248146E+01 0.17301231162E+01
 0.15386492577E+01 0.14288680774E+01 0.13931529397E+01 0.14288792304E+01 0.15386765140E+01
 0.17301641127E+01 0.20153696581E+01 0.24102488732E+01 0.29345503681E+01 0.36116044509E+01
 0.44668042068E+01 0.55233075238E+01 0.67942735312E+01 0.92910256184E+01 0.11089656713E+02
 0.12937129633E+02 0.14697641792E+02 0.16214178544E+02 0.17331907411E+02 0.17925821315E+02
 0.17925864323E+02 0.17332029173E+02 0.16214346259E+02 0.14697789548E+02 0.12937191903E+02
 0.11089627466E+02 0.92909766732E+01 0.76409749913E+01 0.61982788778E+01 0.49844623182E+01
 0.39937888702E+01 0.32047380827E+01 0.25898722252E+01 0.21222400383E+01 0.17783057159E+01
 0.15386492577E+01 0.13879917583E+01 0.13155125515E+01 0.13155227269E+01 0.13880166374E+01
 0.15386760011E+01 0.17783234934E+01 0.21222435378E+01 0.25898510870E+01 0.32046690758E+01
 0.39936572693E+01 0.49842995524E+01 0.61981593863E+01 0.76409529948E+01 0.10564370455E+02
 0.12495267201E+02 0.14409792450E+02 0.16152846695E+02 0.17557566152E+02 0.18472293666E+02
 0.18790093806E+02 0.18472302369E+02 0.17557589505E+02 0.16152888545E+02 0.14409836190E+02
 0.12495271960E+02 0.10564306108E+02 0.87411482404E+01 0.71094637535E+01 0.57118573631E+01
 0.45566122083E+01 0.36285745453E+01 0.29005505709E+01 0.23422977412E+01 0.19258511926E+01
 0.16276436209E+01 0.14288680774E+01 0.13155125515E+01 0.12787493857E+01 0.13155313735E+01
 0.14288867554E+01 0.16276424477E+01 0.19258210317E+01 0.23422330958E+01 0.29004466738E+01
 0.36284464349E+01 0.45565105703E+01 0.57118399647E+01 0.71095386190E+01 0.87412556902E+01
 0.12065677465E+02 0.14087486040E+02 0.16013336943E+02 0.17675780449E+02 0.18905179652E+02
 0.19560340134E+02 0.19560302521E+02 0.18905073699E+02 0.17675639422E+02 0.16013222869E+02
 0.14087442633E+02 0.12065677381E+02 0.10091216612E+02 0.82713267927E+01 0.66732404502E+01
 0.53263188981E+01 0.42292497058E+01 0.33604488226E+01 0.26888075431E+01 0.21820821330E+01
 0.18117089986E+01 0.15545665850E+01 0.13931529397E+01 0.13155227269E+01 0.13155313735E+01
 0.13931674400E+01 0.15545643951E+01 0.18116755290E+01 0.21820165283E+01 0.26887237797E+01
 0.33603828983E+01 0.42292524663E+01 0.53264139528E+01 0.66733853819E+01 0.82714381311E+01
 0.10091251038E+02 0.13721057938E+02 0.15769195843E+02 0.17637017310E+02 0.19149819467E+02
 0.20138027095E+02 0.20481720872E+02 0.20137920771E+02 0.19149622169E+02 0.17636783899E+02
 0.15769015997E+02 0.13720994684E+02 0.11647062226E+02 0.96703381419E+01 0.78793494442E+01
 0.63276667274E+01 0.50356949011E+01 0.39961682169E+01 0.31833779275E+01 0.25635721413E+01
 0.21033274091E+01 0.17742631092E+01 0.15545625380E+01 0.14288792304E+01 0.13880166374E+01
 0.14288867554E+01 0.15545643951E+01 0.17742456929E+01 0.21032899003E+01 0.25635341490E+01
 0.31833781528E+01 0.39962424637E+01 0.50358354924E+01 0.63278069392E+01 0.78794119176E+01
 0.96703146063E+01 0.11647033570E+02 0.15401067468E+02 0.17379509090E+02 0.19065661802E+02
 0.20297416452E+02 0.20948632404E+02 0.20948605589E+02 0.20297342418E+02 0.19065555743E+02
 0.17379393451E+02 0.15400978931E+02 0.13308970325E+02 0.11244672028E+02 0.93068258941E+01
 0.75678879823E+01 0.60732037452E+01 0.48391444227E+01 0.38557393643E+01 0.30950719081E+01
 0.25220677379E+01 0.21033010010E+01 0.18116826452E+01 0.16276450426E+01 0.15386765140E+01
 0.15386760011E+01 0.16276424477E+01 0.18116755290E+01 0.21032899003E+01 0.25220657785E+01
 0.30951053964E+01 0.38558255953E+01 0.48392598842E+01 0.60732874481E+01 0.75678931664E+01
 0.93067716430E+01 0.11244628345E+02 0.13308992722E+02 0.16823998288E+02 0.18475969107E+02
 0.19750577163E+02 0.20558046497E+02 0.20835083411E+02 0.20558094065E+02 0.19750689050E+02
 0.18476128674E+02 0.16824142717E+02 0.14908241714E+02 0.12874788012E+02 0.10880972258E+02
 0.90171589086E+01 0.73472643932E+01 0.59156506338E+01 0.47394667491E+01 0.38087412363E+01
 0.30950672773E+01 0.25635205714E+01 0.21820190013E+01 0.19258323490E+01 0.17783340500E+01
 0.17301641127E+01 0.17783234934E+01 0.19258210317E+01 0.21820165283E+01 0.25635341490E+01
 0.30951053964E+01 0.38088042938E+01 0.47395297439E+01 0.59156746036E+01 0.73472372328E+01
 0.90171138786E+01 0.10880943401E+02 0.12874759990E+02 0.14908163272E+02 0.17362918168E+02
 0.18386498443E+02 0.19069454830E+02 0.19412482260E+02 0.19412537382E+02 0.19069631809E+02
 0.18386797797E+02 0.17363275402E+02 0.16000856672E+02 0.14335191007E+02 0.12474076249E+02
 0.10596855962E+02 0.88269462058E+01 0.72317782110E+01 0.58621013222E+01 0.47395093956E+01
 0.38557868581E+01 0.31833449085E+01 0.26887100223E+01 0.23422413484E+01 0.21222628854E+01
 0.20153796791E+01 0.20153696581E+01 0.21222435378E+01 0.23422330958E+01 0.26887237797E+01
 0.31833781528E+01 0.38558255953E+01 0.47395297439E+01 0.58620845063E+01 0.72317371126E+01
 0.88269192615E+01 0.10596852450E+02 0.12474036982E+02 0.14335030532E+02 0.16000557049E+02
 0.16385477064E+02 0.16568075288E+02 0.16617926742E+02 0.16624590153E+02 0.16618055735E+02
 0.16568308618E+02 0.16385769570E+02 0.15936505281E+02 0.15092759484E+02 0.13809581310E+02
 0.12183028177E+02 0.10439054901E+02 0.87602561791E+01 0.72317927004E+01 0.59157137247E+01
 0.48392607054E+01 0.39962161384E+01 0.33603560447E+01 0.29004411249E+01 0.25898688412E+01
 0.24102694071E+01 0.23514565898E+01 0.24102488732E+01 0.25898510870E+01 0.29004466738E+01
 0.33603828983E+01 0.39962424637E+01 0.48392598842E+01 0.59156746036E+01 0.72317371126E+01
 0.87602266280E+01 0.10439065020E+02 0.12183028969E+02 0.13809495457E+02 0.15092554623E+02
 0.15936219577E+02 0.13537649376E+02 0.12848139218E+02 0.12429288759E+02 0.12429361227E+02
 0.12848311405E+02 0.13537827538E+02 0.14227300931E+02 0.14594115346E+02 0.14377437313E+02
 0.13491576101E+02 0.12075577374E+02 0.10439059387E+02 0.88269675025E+01 0.73473032222E+01
 0.60733304530E+01 0.50358394717E+01 0.42292312074E+01 0.36284285364E+01 0.32046745792E+01
 0.29345723048E+01 0.28030415374E+01 0.28030292775E+01 0.29345503681E+01 0.32046690758E+01
 0.36284464349E+01 0.42292524663E+01 0.50358354924E+01 0.60732874481E+01 0.73472372328E+01
 0.88269192615E+01 0.10439065020E+02 0.12075635265E+02 0.13491646811E+02 0.14377473379E+02
 0.14594083054E+02 0.14227186326E+02 0.89491631323E+01 0.76029758631E+01 0.71094471965E+01
 0.76030867333E+01 0.89493149743E+01 0.10773612008E+02 0.12554647863E+02 0.13777743150E+02
 0.14105378062E+02 0.13491481554E+02 0.12182950761E+02 0.10596858927E+02 0.90171655602E+01
 0.75679465135E+01 0.63278353614E+01 0.53264130456E+01 0.45564953988E+01 0.39936501395E+01
 0.36116146746E+01 0.33902171720E+01 0.33176675825E+01 0.33902026843E+01 0.36116044509E+01
 0.39936572693E+01 0.45565105703E+01 0.53264139528E+01 0.63278069392E+01 0.75678931664E+01
 0.90171138786E+01 0.10596852450E+02 0.12183028969E+02 0.13491646811E+02 0.14105577513E+02
 0.13777890410E+02 0.12554675711E+02 0.10773516897E+02 0.33229150009E+01 0.17894023590E+01
 0.17893978172E+01 0.33229298953E+01 0.59940415691E+01 0.91189552159E+01 0.11923823931E+02
 0.13777799594E+02 0.14377329312E+02 0.13809380233E+02 0.12473988338E+02 0.10880945028E+02
 0.93067921204E+01 0.78794315055E+01 0.66733959580E+01 0.57118397120E+01 0.49842933702E+01
 0.44667999800E+01 0.41357390176E+01 0.39743388141E+01 0.39743376284E+01 0.41357385108E+01
 0.44668042068E+01 0.49842995524E+01 0.57118399647E+01 0.66733853819E+01 0.78794119176E+01
 0.93067716430E+01 0.10880943401E+02 0.12474036982E+02 0.13809495457E+02 0.14377473379E+02
 0.13777890410E+02 0.11923809569E+02 0.91188723676E+01 0.59939744342E+01 -.21656348434E+01
 -.32469108427E+01 -.21657996278E+01 0.79764780579E+00 0.48901271699E+01 0.91190480806E+01
 0.12554901475E+02 0.14594250949E+02 0.15092634459E+02 0.14335042532E+02 0.12874733285E+02
 0.11244589086E+02 0.96702857559E+01 0.82714311620E+01 0.71095479396E+01 0.61981687397E+01
 0.55233035548E+01 0.50619915240E+01 0.47937996030E+01 0.47058339283E+01 0.47938154538E+01
 0.50620085245E+01 0.55233075238E+01 0.61981593863E+01 0.71095386190E+01 0.82714381311E+01
 0.96703146063E+01 0.11244628345E+02 0.12874759990E+02 0.14335030532E+02 0.15092554623E+02
 0.14594083054E+02 0.12554675711E+02 0.91188723676E+01 0.48901199579E+01 0.79780642390E+00
 -.61786663727E+01 -.61787888187E+01 -.36299716729E+01 0.79761401524E+00 0.59940341380E+01
 0.10773851051E+02 0.14227666685E+02 0.15936659553E+02 0.16000819521E+02 0.14908222594E+02
 0.13308921809E+02 0.11646934796E+02 0.10091192332E+02 0.87412507197E+01 0.76409770306E+01
 0.67942885074E+01 0.61850116713E+01 0.57924609739E+01 0.56003884116E+01 0.56004073152E+01
 0.57924974653E+01 0.61850287299E+01 0.67942735312E+01 0.76409529948E+01 0.87412556902E+01
 0.10091251038E+02 0.11647033570E+02 0.13308992722E+02 0.14908163272E+02 0.16000557049E+02
 0.15936219577E+02 0.14227186326E+02 0.10773516897E+02 0.59939744342E+01 0.79780642390E+00
 -.36297040210E+01 -.61787599547E+01 -.32468704052E+01 0.17894185801E+01 0.76030453906E+01
 0.12848397184E+02 0.16568540175E+02 0.18386996651E+02 0.18476270403E+02 0.17379525331E+02
 0.15769028413E+02 0.14087302732E+02 0.12495167552E+02 0.11089645661E+02 0.99203886507E+01
 0.90016863147E+01 0.83278941087E+01 0.78869695143E+01 0.76689754561E+01 0.76690006570E+01
 0.78870158093E+01 0.83279106076E+01 0.90016598806E+01 0.99203548169E+01 0.11089658042E+02
 0.12495267932E+02 0.14087484704E+02 0.15769195018E+02 0.17379510254E+02 0.18475969812E+02
 0.18386497527E+02 0.16568075695E+02 0.12848142649E+02 0.76029797090E+01 0.17894047653E+01
 -.32469080742E+01 -.61787851877E+01 -.32468704052E+01 0.90611701918E+00 0.64968741423E+01
 0.12099378004E+02 0.16533755118E+02 0.19167144311E+02 0.19959870480E+02 0.19324092956E+02
 0.17897856141E+02 0.16257215340E+02 0.14633166579E+02 0.13138843373E+02 0.11843613908E+02
 0.10780631025E+02 0.99587892372E+01 0.93755608768E+01 0.90267789150E+01 0.89106167966E+01
 0.90268169458E+01 0.93755927713E+01 0.99587800753E+01 0.10780590966E+02 0.11843586096E+02
 0.13138878292E+02 0.14633300740E+02 0.16257430993E+02 0.17898048672E+02 0.19324121236E+02
 0.19959683780E+02 0.19166843675E+02 0.16533494896E+02 0.12099212064E+02 0.64967389434E+01
 0.90596086704E+00 -.32469937057E+01 -.47839037283E+01 0.17894185801E+01 0.64968741423E+01
 0.11819750034E+02 0.16478431375E+02 0.19629822714E+02 0.21013302852E+02 0.20870684874E+02
 0.19745427276E+02 0.18239612924E+02 0.16675555490E+02 0.15175715161E+02 0.13820626722E+02
 0.12657843277E+02 0.11710856779E+02 0.10990030431E+02 0.10502335574E+02 0.10255503059E+02
 0.10255522588E+02 0.10502371794E+02 0.10990042818E+02 0.11710830046E+02 0.12657796172E+02
 0.13820594920E+02 0.15175740620E+02 0.16675674302E+02 0.18239823152E+02 0.19745667571E+02
 0.20870865525E+02 0.21013369118E+02 0.19629783505E+02 0.16478333016E+02 0.11819636082E+02
 0.64967719802E+01 0.17893475148E+01 -.98507845466E+00 -.98505284043E+00 0.76030453906E+01
 0.12099378004E+02 0.16478431375E+02 0.19783727667E+02 0.21562308222E+02 0.21869420542E+02
 0.21114093385E+02 0.19845056650E+02 0.18440396039E+02 0.17033058486E+02 0.15706179674E+02
 0.14513927438E+02 0.13489591076E+02 0.12655406181E+02 0.12032259626E+02 0.11643825841E+02
 0.11511421649E+02 0.11643857510E+02 0.12032291441E+02 0.12655408189E+02 0.13489557922E+02
 0.14513872115E+02 0.15706125720E+02 0.17033044128E+02 0.18440471175E+02 0.19845255492E+02
 0.21114400254E+02 0.21869756102E+02 0.21562560805E+02 0.19783825363E+02 0.16478403141E+02
 0.12099327339E+02 0.76030459156E+01 0.42051698293E+01 0.29372346591E+01 0.42051394512E+01
 0.12848397184E+02 0.16533755118E+02 0.19629822714E+02 0.21562308222E+02 0.22215142706E+02
 0.21843375281E+02 0.20895374963E+02 0.19745247888E+02 0.18531030253E+02 0.17331877062E+02
 0.16200331823E+02 0.15171318250E+02 0.14272731105E+02 0.13536776189E+02 0.13005736158E+02
 0.12724975526E+02 0.12724996823E+02 0.13005781602E+02 0.13536810036E+02 0.14272730624E+02
 0.15171279572E+02 0.16200259917E+02 0.17331789989E+02 0.18530973628E+02 0.19745290086E+02
 0.20895568643E+02 0.21843707957E+02 0.22215514394E+02 0.21562576374E+02 0.19629900619E+02
 0.16533678476E+02 0.12848280455E+02 0.95117429375E+01 0.75205341727E+01 0.75205547723E+01
 0.95118163381E+01 0.16568540175E+02 0.19167144311E+02 0.21013302852E+02 0.21869420542E+02
 0.21843375281E+02 0.21261307915E+02 0.20440217934E+02 0.19506720255E+02 0.18531030990E+02
 0.17557465730E+02 0.16613945702E+02 0.15724368229E+02 0.14923601782E+02 0.14267752486E+02
 0.13827940240E+02 0.13671770722E+02 0.13827997747E+02 0.14267823077E+02 0.14923642075E+02
 0.15724363377E+02 0.16613895625E+02 0.17557373356E+02 0.18530919103E+02 0.19506645083E+02
 0.20440247096E+02 0.21261472352E+02 0.21843638756E+02 0.21869684097E+02 0.21013446770E+02
 0.19167093224E+02 0.16568315320E+02 0.13812735892E+02 0.11693468789E+02 0.10896482109E+02
 0.11693659990E+02 0.13813018252E+02 0.18386996651E+02 0.19959870480E+02 0.20870684874E+02
 0.21114093385E+02 0.20895374963E+02 0.20440217934E+02 0.19845706809E+02 0.19168560211E+02
 0.18440397808E+02 0.17675602818E+02 0.16884487335E+02 0.16091527062E+02 0.15344356361E+02
 0.14736400320E+02 0.14389512257E+02 0.14389565575E+02 0.14736517615E+02 0.15344456295E+02
 0.16091565740E+02 0.16884470472E+02 0.17675543985E+02 0.18440303930E+02 0.19168458339E+02
 0.19845647045E+02 0.20440237377E+02 0.20895464837E+02 0.21114208894E+02 0.20870768820E+02
 0.19959863625E+02 0.18386858580E+02 0.16438287949E+02 0.14633804480E+02 0.13544240309E+02
 0.13544344410E+02 0.14634050778E+02 0.16438535013E+02 0.18476270403E+02 0.19324092956E+02
 0.19745427276E+02 0.19845056650E+02 0.19745247888E+02 0.19506720255E+02 0.19168560211E+02
 0.18747010337E+02 0.18239614712E+02 0.17636858669E+02 0.16936559671E+02 0.16155548959E+02
 0.15395855361E+02 0.14829579991E+02 0.14618781520E+02 0.14829714450E+02 0.15396020349E+02
 0.16155644178E+02 0.16936568992E+02 0.17636824688E+02 0.18239570572E+02 0.18746963826E+02
 0.19168523798E+02 0.19506711677E+02 0.19745264180E+02 0.19845067695E+02 0.19745406937E+02
 0.19324046171E+02 0.18476219256E+02 0.17269761923E+02 0.15969218645E+02 0.14957164884E+02
 0.14574328029E+02 0.14957178786E+02 0.15969244947E+02 0.17269801741E+02 0.17379525331E+02
 0.17897856141E+02 0.18239612924E+02 0.18440396039E+02 0.18531030253E+02 0.18531030990E+02
 0.18440397808E+02 0.18239614712E+02 0.17897856988E+02 0.17379524755E+02 0.16655670205E+02
 0.15807521141E+02 0.15032548156E+02 0.14565656693E+02 0.14565737972E+02 0.15032724311E+02
 0.15807658424E+02 0.16655695641E+02 0.17379471630E+02 0.17897805862E+02 0.18239613912E+02
 0.18440443735E+02 0.18531099918E+02 0.18531099902E+02 0.18440443718E+02 0.18239613905E+02
 0.17897805793E+02 0.17379471461E+02 0.16655695499E+02 0.15807658536E+02 0.15032724892E+02
 0.14565739217E+02 0.14565658722E+02 0.15032550798E+02 0.15807523808E+02 0.16655672114E+02
 0.15769028413E+02 0.16257215340E+02 0.16675555490E+02 0.17033058486E+02 0.17331877062E+02
 0.17557465730E+02 0.17675602818E+02 0.17636858669E+02 0.17379524755E+02 0.16824225665E+02