   2   2   0   0
  0.2106212E+02  0.3905552E-09  0.3905552E-09  0.3905552E-09  0.5000000E-15
  1.000000000000000E-004
  CAR 
 unknown system                          
     16.50517278     -8.24444051  301      5.67303850      1.00000000
     -8.244  0.0000E+00  0.0000E+00
     -8.162  0.0000E+00  0.0000E+00
     -8.079  0.0000E+00  0.0000E+00
     -7.997  0.0000E+00  0.0000E+00
     -7.914  0.0000E+00  0.0000E+00
     -7.832  0.0000E+00  0.0000E+00
     -7.749  0.0000E+00  0.0000E+00
     -7.667  0.0000E+00  0.0000E+00
     -7.584  0.0000E+00  0.0000E+00
     -7.502  0.0000E+00  0.0000E+00
     -7.419  0.3505E-18  0.2891E-19
     -7.337  0.3505E-16  0.2920E-17
     -7.254  0.2878E-14  0.2403E-15
     -7.172  0.1693E-12  0.1421E-13
     -7.089  0.7133E-11  0.6027E-12
     -7.007  0.2154E-09  0.1838E-10
     -6.924  0.4673E-08  0.4039E-09
     -6.842  0.7300E-07  0.6427E-08
     -6.759  0.8248E-06  0.7447E-07
     -6.677  0.6781E-05  0.6339E-06
     -6.594  0.4097E-04  0.4014E-05
     -6.512  0.1843E-03  0.1922E-04
     -6.429  0.6291E-03  0.7112E-04
     -6.347  0.1665E-02  0.2085E-03
     -6.264  0.3502E-02  0.4974E-03
     -6.182  0.6018E-02  0.9938E-03
     -6.099  0.8740E-02  0.1715E-02
     -6.017  0.1124E-01  0.2643E-02
     -5.934  0.1353E-01  0.3758E-02
     -5.852  0.1573E-01  0.5056E-02
     -5.769  0.1762E-01  0.6510E-02
     -5.687  0.1882E-01  0.8063E-02
     -5.604  0.1970E-01  0.9688E-02
     -5.522  0.2132E-01  0.1145E-01
     -5.439  0.2385E-01  0.1341E-01
     -5.357  0.2590E-01  0.1555E-01
     -5.274  0.2640E-01  0.1773E-01
     -5.192  0.2628E-01  0.1990E-01
     -5.109  0.2715E-01  0.2214E-01
     -5.027  0.2918E-01  0.2454E-01
     -4.944  0.3152E-01  0.2714E-01
     -4.862  0.3378E-01  0.2993E-01
     -4.779  0.3590E-01  0.3289E-01
     -4.697  0.3725E-01  0.3596E-01
     -4.614  0.3725E-01  0.3904E-01
     -4.532  0.3645E-01  0.4205E-01
     -4.449  0.3704E-01  0.4510E-01
     -4.367  0.4120E-01  0.4850E-01
     -4.285  0.4816E-01  0.5247E-01
     -4.202  0.5410E-01  0.5694E-01
     -4.120  0.5657E-01  0.6160E-01
     -4.037  0.5681E-01  0.6629E-01
     -3.955  0.5690E-01  0.7098E-01
     -3.872  0.5659E-01  0.7565E-01
     -3.790  0.5423E-01  0.8013E-01
     -3.707  0.5013E-01  0.8426E-01
     -3.625  0.4791E-01  0.8821E-01
     -3.542  0.5061E-01  0.9239E-01
     -3.460  0.5586E-01  0.9700E-01
     -3.377  0.5754E-01  0.1017E+00
     -3.295  0.5228E-01  0.1061E+00
     -3.212  0.4245E-01  0.1096E+00
     -3.130  0.3298E-01  0.1123E+00
     -3.047  0.2713E-01  0.1145E+00
     -2.965  0.2582E-01  0.1166E+00
     -2.882  0.2888E-01  0.1190E+00
     -2.800  0.3456E-01  0.1219E+00
     -2.717  0.3888E-01  0.1251E+00
     -2.635  0.3759E-01  0.1282E+00
     -2.552  0.2975E-01  0.1306E+00
     -2.470  0.1874E-01  0.1322E+00
     -2.387  0.9189E-02  0.1330E+00
     -2.305  0.3486E-02  0.1332E+00
     -2.222  0.1309E-02  0.1333E+00
     -2.140  0.1866E-02  0.1335E+00
     -2.057  0.5859E-02  0.1340E+00
     -1.975  0.1484E-01  0.1352E+00
     -1.892  0.2769E-01  0.1375E+00
     -1.810  0.3839E-01  0.1407E+00
     -1.727  0.4082E-01  0.1440E+00
     -1.645  0.3607E-01  0.1470E+00
     -1.562  0.3187E-01  0.1496E+00
     -1.480  0.3522E-01  0.1525E+00
     -1.397  0.4733E-01  0.1564E+00
     -1.315  0.6348E-01  0.1617E+00
     -1.232  0.7667E-01  0.1680E+00
     -1.150  0.8276E-01  0.1748E+00
     -1.067  0.8124E-01  0.1815E+00
     -0.985  0.7252E-01  0.1875E+00
     -0.902  0.5938E-01  0.1924E+00
     -0.820  0.4855E-01  0.1964E+00
     -0.737  0.4464E-01  0.2001E+00
     -0.655  0.4388E-01  0.2037E+00
     -0.572  0.3938E-01  0.2070E+00
     -0.490  0.3095E-01  0.2095E+00
     -0.407  0.2488E-01  0.2116E+00
     -0.325  0.2547E-01  0.2137E+00
     -0.242  0.3125E-01  0.2163E+00
     -0.160  0.3729E-01  0.2193E+00
     -0.077  0.3845E-01  0.2225E+00
      0.005  0.3287E-01  0.2252E+00
      0.088  0.2407E-01  0.2272E+00
      0.170  0.1780E-01  0.2287E+00
      0.253  0.1740E-01  0.2301E+00
      0.335  0.2177E-01  0.2319E+00
      0.418  0.2615E-01  0.2341E+00
      0.500  0.2563E-01  0.2362E+00
      0.583  0.1992E-01  0.2378E+00
      0.665  0.1355E-01  0.2389E+00
      0.748  0.1081E-01  0.2398E+00
      0.830  0.1206E-01  0.2408E+00
      0.913  0.1564E-01  0.2421E+00
      0.995  0.2098E-01  0.2438E+00
      1.078  0.2824E-01  0.2462E+00
      1.160  0.3646E-01  0.2492E+00
      1.243  0.4397E-01  0.2528E+00
      1.325  0.4997E-01  0.2569E+00
      1.408  0.5559E-01  0.2615E+00
      1.490  0.6324E-01  0.2667E+00
      1.573  0.7319E-01  0.2728E+00
      1.655  0.8131E-01  0.2795E+00
      1.738  0.8303E-01  0.2863E+00
      1.820  0.7875E-01  0.2928E+00
      1.903  0.7324E-01  0.2989E+00
      1.985  0.7056E-01  0.3047E+00
      2.068  0.7080E-01  0.3105E+00
      2.150  0.7162E-01  0.3164E+00
      2.233  0.7236E-01  0.3224E+00
      2.315  0.7571E-01  0.3287E+00
      2.398  0.8444E-01  0.3356E+00
      2.480  0.9581E-01  0.3435E+00
      2.563  0.1020E+00  0.3519E+00
      2.645  0.9942E-01  0.3601E+00
      2.728  0.9454E-01  0.3679E+00
      2.810  0.9509E-01  0.3758E+00
      2.893  0.9959E-01  0.3840E+00
      2.975  0.1008E+00  0.3923E+00
      3.058  0.9697E-01  0.4003E+00
      3.140  0.9440E-01  0.4081E+00
      3.223  0.9875E-01  0.4163E+00
      3.305  0.1058E+00  0.4250E+00
      3.388  0.1054E+00  0.4337E+00
      3.470  0.9382E-01  0.4414E+00
      3.553  0.7915E-01  0.4480E+00
      3.635  0.7258E-01  0.4539E+00
      3.718  0.7793E-01  0.4604E+00
      3.800  0.8873E-01  0.4677E+00
      3.883  0.9492E-01  0.4755E+00
      3.965  0.9136E-01  0.4831E+00
      4.048  0.8040E-01  0.4897E+00
      4.130  0.6854E-01  0.4953E+00
      4.213  0.6151E-01  0.5004E+00
      4.295  0.5986E-01  0.5054E+00
      4.378  0.5811E-01  0.5101E+00
      4.460  0.5080E-01  0.5143E+00
      4.543  0.3950E-01  0.5176E+00
      4.625  0.3078E-01  0.5201E+00
      4.708  0.2813E-01  0.5225E+00
      4.790  0.2858E-01  0.5248E+00
      4.873  0.2715E-01  0.5271E+00
      4.955  0.2241E-01  0.5289E+00
      5.038  0.1678E-01  0.5303E+00
      5.120  0.1254E-01  0.5313E+00
      5.203  0.9643E-02  0.5321E+00
      5.285  0.7024E-02  0.5327E+00
      5.368  0.4373E-02  0.5331E+00
      5.450  0.2175E-02  0.5332E+00
      5.533  0.8324E-03  0.5333E+00
      5.615  0.2424E-03  0.5333E+00
      5.698  0.7772E-04  0.5333E+00
      5.780  0.1714E-03  0.5333E+00
      5.863  0.7215E-03  0.5334E+00
      5.945  0.2311E-02  0.5336E+00
      6.028  0.5442E-02  0.5340E+00
      6.110  0.9609E-02  0.5348E+00
      6.193  0.1329E-01  0.5359E+00
      6.275  0.1587E-01  0.5372E+00
      6.358  0.1898E-01  0.5388E+00
      6.440  0.2451E-01  0.5408E+00
      6.523  0.3145E-01  0.5434E+00
      6.605  0.3682E-01  0.5465E+00
      6.688  0.3999E-01  0.5498E+00
      6.770  0.4366E-01  0.5534E+00
      6.853  0.4924E-01  0.5574E+00
      6.935  0.5455E-01  0.5619E+00
      7.018  0.5756E-01  0.5667E+00
      7.100  0.5910E-01  0.5716E+00
      7.183  0.6192E-01  0.5767E+00
      7.265  0.6959E-01  0.5824E+00
      7.348  0.8452E-01  0.5894E+00
      7.430  0.1037E+00  0.5979E+00
      7.513  0.1178E+00  0.6076E+00
      7.595  0.1183E+00  0.6174E+00
      7.678  0.1071E+00  0.6262E+00
      7.760  0.9343E-01  0.6340E+00
      7.843  0.8556E-01  0.6410E+00
      7.925  0.8481E-01  0.6480E+00
      8.008  0.8597E-01  0.6551E+00
      8.090  0.8326E-01  0.6620E+00
      8.173  0.7672E-01  0.6683E+00
      8.255  0.7142E-01  0.6742E+00
      8.338  0.7273E-01  0.6802E+00
      8.420  0.8393E-01  0.6871E+00
      8.503  0.1039E+00  0.6957E+00
      8.585  0.1249E+00  0.7060E+00
      8.668  0.1369E+00  0.7173E+00
      8.750  0.1360E+00  0.7285E+00
      8.833  0.1275E+00  0.7390E+00
      8.915  0.1191E+00  0.7489E+00
      8.998  0.1136E+00  0.7582E+00
      9.080  0.1082E+00  0.7672E+00
      9.163  0.1013E+00  0.7755E+00
      9.245  0.9482E-01  0.7833E+00
      9.328  0.9009E-01  0.7908E+00
      9.410  0.8740E-01  0.7980E+00
      9.493  0.8654E-01  0.8051E+00
      9.575  0.8635E-01  0.8122E+00
      9.658  0.8587E-01  0.8193E+00
      9.740  0.8599E-01  0.8264E+00
      9.823  0.8736E-01  0.8336E+00
      9.905  0.8865E-01  0.8409E+00
      9.988  0.8987E-01  0.8484E+00
     10.070  0.9369E-01  0.8561E+00
     10.153  0.9972E-01  0.8643E+00
     10.235  0.1016E+00  0.8727E+00
     10.318  0.9410E-01  0.8805E+00
     10.400  0.8059E-01  0.8871E+00
     10.483  0.6877E-01  0.8928E+00
     10.565  0.6275E-01  0.8980E+00
     10.648  0.6099E-01  0.9030E+00
     10.730  0.6165E-01  0.9081E+00
     10.813  0.6693E-01  0.9136E+00
     10.895  0.7876E-01  0.9201E+00
     10.978  0.9275E-01  0.9277E+00
     11.060  0.1015E+00  0.9361E+00
     11.143  0.1012E+00  0.9445E+00
     11.225  0.9212E-01  0.9521E+00
     11.308  0.7682E-01  0.9584E+00
     11.390  0.6035E-01  0.9634E+00
     11.473  0.4900E-01  0.9674E+00
     11.555  0.4612E-01  0.9712E+00
     11.638  0.4871E-01  0.9752E+00
     11.720  0.4996E-01  0.9794E+00
     11.803  0.4673E-01  0.9832E+00
     11.885  0.4288E-01  0.9868E+00
     11.968  0.4501E-01  0.9905E+00
     12.050  0.5669E-01  0.9951E+00
     12.133  0.7434E-01  0.1001E+01
     12.215  0.8705E-01  0.1008E+01
     12.298  0.8483E-01  0.1015E+01
     12.380  0.6818E-01  0.1021E+01
     12.463  0.4672E-01  0.1025E+01
     12.545  0.3065E-01  0.1027E+01
     12.628  0.2489E-01  0.1030E+01
     12.710  0.2720E-01  0.1032E+01
     12.793  0.3056E-01  0.1034E+01
     12.875  0.3037E-01  0.1037E+01
     12.958  0.2862E-01  0.1039E+01
     13.040  0.2909E-01  0.1042E+01
     13.123  0.3189E-01  0.1044E+01
     13.205  0.3517E-01  0.1047E+01
     13.288  0.3814E-01  0.1050E+01
     13.370  0.3937E-01  0.1053E+01
     13.453  0.3561E-01  0.1056E+01
     13.535  0.2592E-01  0.1059E+01
     13.618  0.1440E-01  0.1060E+01
     13.700  0.5970E-02  0.1060E+01
     13.783  0.2006E-02  0.1060E+01
     13.865  0.1261E-02  0.1061E+01
     13.948  0.2592E-02  0.1061E+01
     14.030  0.5324E-02  0.1061E+01
     14.113  0.8124E-02  0.1062E+01
     14.195  0.9303E-02  0.1063E+01
     14.278  0.8811E-02  0.1063E+01
     14.360  0.8398E-02  0.1064E+01
     14.443  0.8910E-02  0.1065E+01
     14.525  0.8972E-02  0.1065E+01
     14.608  0.7232E-02  0.1066E+01
     14.690  0.4350E-02  0.1066E+01
     14.773  0.1913E-02  0.1067E+01
     14.855  0.6109E-03  0.1067E+01
     14.938  0.1414E-03  0.1067E+01
     15.020  0.2369E-04  0.1067E+01
     15.103  0.2868E-05  0.1067E+01
     15.185  0.2506E-06  0.1067E+01
     15.268  0.1578E-07  0.1067E+01
     15.350  0.7155E-09  0.1067E+01
     15.433  0.2332E-10  0.1067E+01
     15.515  0.5457E-12  0.1067E+01
     15.598  0.9162E-14  0.1067E+01
     15.680  0.1093E-15  0.1067E+01
     15.763  0.0000E+00  0.1067E+01
     15.845  0.0000E+00  0.1067E+01
     15.928  0.0000E+00  0.1067E+01
     16.010  0.0000E+00  0.1067E+01
     16.093  0.0000E+00  0.1067E+01
     16.175  0.0000E+00  0.1067E+01
     16.258  0.0000E+00  0.1067E+01
     16.340  0.0000E+00  0.1067E+01
     16.423  0.0000E+00  0.1067E+01
     16.505  0.0000E+00  0.1067E+01
