    2    2   15    1
  0.2106212E+02  0.3905552E-09  0.3905552E-09  0.3905552E-09  0.5000000E-15
  1.000000000000000E-004
  CAR 
 unknown system                          
      8     60      8
 
  0.6250000E-01  0.6250000E-01  0.6250000E-01  0.3906250E-02
    1       -6.244441   1.000000
    2        4.787955   1.000000
    3        5.243907   0.998795
    4        5.243907   0.998795
    5        7.856952   0.000000
    6        7.986195   0.000000
    7        7.986195   0.000000
    8        8.584997   0.000000
 
  0.1875000E+00  0.6250000E-01  0.6250000E-01  0.1171875E-01
    1       -5.984991   1.000000
    2        3.298529   1.000000
    3        4.467560   1.000000
    4        5.127177   0.999943
    5        7.874121   0.000000
    6        8.225149   0.000000
    7        8.489554   0.000000
    8       10.107095   0.000000
 
  0.3125000E+00  0.6250000E-01  0.6250000E-01  0.1171875E-01
    1       -5.359810   1.000000
    2        1.135387   1.000000
    3        3.988822   1.000000
    4        4.679133   1.000000
    5        7.421282   0.000000
    6        8.716362   0.000000
    7        8.992231   0.000000
    8       11.715452   0.000000
 
  0.4375000E+00  0.6250000E-01  0.6250000E-01  0.1171875E-01
    1       -4.492321   1.000000
    2       -0.689299   1.000000
    3        3.773956   1.000000
    4        4.284785   1.000000
    5        7.108481   0.000000
    6        8.799111   0.000000
    7        8.812756   0.000000
    8       13.015139   0.000000
 
 -0.4375000E+00  0.6250000E-01  0.6250000E-01  0.1171875E-01
    1       -4.066448   1.000000
    2       -1.360399   1.000000
    3        3.818773   1.000000
    4        4.074828   1.000000
    5        7.030169   0.000000
    6        8.616181   0.000000
    7        8.878132   0.000000
    8       13.116198   0.000000
 
 -0.3125000E+00  0.6250000E-01  0.6250000E-01  0.1171875E-01
    1       -4.788426   1.000000
    2       -0.151191   1.000000
    3        4.096006   1.000000
    4        4.097679   1.000000
    5        7.198283   0.000000
    6        8.610474   0.000000
    7        9.117559   0.000000
    8       12.154522   0.000000
 
 -0.1875000E+00  0.6250000E-01  0.6250000E-01  0.1171875E-01
    1       -5.604698   1.000000
    2        1.844022   1.000000
    3        4.368042   1.000000
    4        4.547860   1.000000
    5        7.562941   0.000000
    6        8.439117   0.000000
    7        9.148344   0.000000
    8       10.947676   0.000000
 
 -0.6250000E-01  0.6250000E-01  0.6250000E-01  0.1171875E-01
    1       -6.114010   1.000000
    2        4.035915   1.000000
    3        4.835284   1.000000
    4        4.979621   1.000000
    5        7.704884   0.000000
    6        8.198098   0.000000
    7        8.544177   0.000000
    8        9.357676   0.000000
 
  0.1875000E+00  0.1875000E+00  0.6250000E-01  0.1171875E-01
    1       -5.854375   1.000000
    2        3.141296   1.000000
    3        4.297741   1.000000
    4        4.368005   1.000000
    5        7.300212   0.000000
    6        8.920913   0.000000
    7        9.375631   0.000000
    8        9.834821   0.000000
 
  0.3125000E+00  0.1875000E+00  0.6250000E-01  0.2343750E-01
    1       -5.347105   1.000000
    2        1.675083   1.000000
    3        3.358320   1.000000
    4        4.118878   1.000000
    5        7.462459   0.000000
    6        9.025038   0.000000
    7        9.771396   0.000000
    8       10.153366   0.000000
 
  0.4375000E+00  0.1875000E+00  0.6250000E-01  0.2343750E-01
    1       -4.532537   1.000000
    2       -0.116510   1.000000
    3        2.865219   1.000000
    4        3.726454   1.000000
    5        7.639693   0.000000
    6        9.013925   0.000000
    7       10.181465   0.000000
    8       10.487104   0.000000
 
 -0.4375000E+00  0.1875000E+00  0.6250000E-01  0.2343750E-01
    1       -3.805789   1.000000
    2       -1.275471   1.000000
    3        2.581197   1.000000
    4        3.637940   1.000000
    5        7.690945   0.000000
    6        8.749822   0.000000
    7       10.046178   0.000000
    8       12.434266   0.000000
 
 -0.3125000E+00  0.1875000E+00  0.6250000E-01  0.2343750E-01
    1       -4.241570   1.000000
    2       -0.615576   1.000000
    3        2.516186   1.000000
    4        3.910635   1.000000
    5        7.939054   0.000000
    6        8.685066   0.000000
    7        9.986308   0.000000
    8       11.710325   0.000000
 
 -0.1875000E+00  0.1875000E+00  0.6250000E-01  0.2343750E-01
    1       -5.107885   1.000000
    2        1.047598   1.000000
    3        2.821924   1.000000
    4        4.398241   1.000000
    5        8.252106   0.000000
    6        8.575355   0.000000
    7        9.858989   0.000000
    8       10.355103   0.000000
 
 -0.6250000E-01  0.1875000E+00  0.6250000E-01  0.2343750E-01
    1       -5.728351   1.000000
    2        2.492670   1.000000
    3        3.910051   1.000000
    4        4.757233   1.000000
    5        7.834700   0.000000
    6        8.418152   0.000000
    7        9.194736   0.000000
    8       10.372378   0.000000
 
  0.3125000E+00  0.3125000E+00  0.6250000E-01  0.1171875E-01
    1       -4.959179   1.000000
    2        1.162154   1.000000
    3        3.222018   1.000000
    4        3.339613   1.000000
    5        6.517772   0.000000
    6        8.152145   0.000000
    7       11.171598   0.000000
    8       11.326524   0.000000
 
  0.4375000E+00  0.3125000E+00  0.6250000E-01  0.2343750E-01
    1       -4.232913   1.000000
    2       -0.039699   1.000000
    3        2.464945   1.000000
    4        3.006208   1.000000
    5        6.826081   0.000000
    6        7.994635   0.000000
    7       11.137360   0.000000
    8       12.289987   0.000000
 
 -0.4375000E+00  0.3125000E+00  0.6250000E-01  0.2343750E-01
    1       -3.371156   1.000000
    2       -1.190893   1.000000
    3        1.654732   1.000000
    4        2.975271   1.000000
    5        7.059701   0.000000
    6        9.610517   0.000000
    7       10.722972   0.000000
    8       12.202837   0.000000
 
 -0.3125000E+00  0.3125000E+00  0.6250000E-01  0.2343750E-01
    1       -3.441924   1.000000
    2       -1.098689   1.000000
    3        1.318213   1.000000
    4        3.306238   1.000000
    5        7.444013   0.000000
    6       10.304700   0.000000
    7       11.549675   0.000000
    8       11.906826   0.000000
 
 -0.1875000E+00  0.3125000E+00  0.6250000E-01  0.2343750E-01
    1       -4.303205   1.000000
    2       -0.166911   1.000000
    3        1.895042   1.000000
    4        3.868772   1.000000
    5        8.032624   0.000000
    6        9.226893   0.000000
    7       10.598588   0.000000
    8       10.905583   0.000000
 
 -0.6250000E-01  0.3125000E+00  0.6250000E-01  0.2343750E-01
    1       -4.999130   1.000000
    2        0.477206   1.000000
    3        3.459441   1.000000
    4        4.301402   1.000000
    5        7.699786   0.000000
    6        8.615038   0.000000
    7        9.455097   0.000000
    8       11.112858   0.000000
 
  0.4375000E+00  0.4375000E+00  0.6250000E-01  0.1171875E-01
    1       -3.599810   1.000000
    2       -0.879905   1.000000
    3        2.558147   1.000000
    4        2.764335   1.000000
    5        6.143657   0.000438
    6        6.848721   0.000000
    7       13.403947   0.000000
    8       13.432411   0.000000
 
 -0.4375000E+00  0.4375000E+00  0.6250000E-01  0.2343750E-01
    1       -2.721819   1.000000
    2       -1.839510   1.000000
    3        2.025879   1.000000
    4        2.532525   1.000000
    5        6.567269   0.000000
    6        7.274687   0.000000
    7       13.174127   0.000000
    8       14.131984   0.000000
 
 -0.3125000E+00  0.4375000E+00  0.6250000E-01  0.2343750E-01
    1       -2.823924   1.000000
    2       -1.673319   1.000000
    3        1.328321   1.000000
    4        2.836424   1.000000
    5        6.918750   0.000000
    6        9.454525   0.000000
    7       11.690093   0.000000
    8       12.790087   0.000000
 
 -0.1875000E+00  0.4375000E+00  0.6250000E-01  0.2343750E-01
    1       -3.557671   1.000000
    2       -1.246885   1.000000
    3        1.838214   1.000000
    4        3.415550   1.000000
    5        7.554293   0.000000
    6        9.467078   0.000000
    7       10.964189   0.000000
    8       12.191943   0.000000
 
 -0.6250000E-01  0.4375000E+00  0.6250000E-01  0.2343750E-01
    1       -4.144420   1.000000
    2       -1.080391   1.000000
    3        3.283108   1.000000
    4        3.979209   1.000000
    5        7.490581   0.000000
    6        8.550731   0.000000
    7        9.292490   0.000000
    8       12.755508   0.000000
 
 -0.4375000E+00 -0.4375000E+00  0.6250000E-01  0.1171875E-01
    1       -2.769390   1.000000
    2       -1.855015   1.000000
    3        2.424923   1.000000
    4        2.646738   1.000000
    5        6.146325   0.000409
    6        6.497472   0.000000
    7       14.452885   0.000000
    8       14.505173   0.000000
 
 -0.3125000E+00 -0.4375000E+00  0.6250000E-01  0.2343750E-01
    1       -3.518505   1.000000
    2       -0.942362   1.000000
    3        2.176189   1.000000
    4        2.687313   1.000000
    5        6.647928   0.000000
    6        7.523270   0.000000
    7       12.129927   0.000000
    8       13.413472   0.000000
 
 -0.1875000E+00 -0.4375000E+00  0.6250000E-01  0.2343750E-01
    1       -3.977850   1.000000
    2       -0.662032   1.000000
    3        2.220095   1.000000
    4        3.264855   1.000000
    5        7.322993   0.000000
    6        9.788307   0.000000
    7        9.955262   0.000000
    8       11.174670   0.000000
 
 -0.3125000E+00 -0.3125000E+00  0.6250000E-01  0.1171875E-01
    1       -4.333629   1.000000
    2        0.134808   1.000000
    3        2.824268   1.000000
    4        2.997130   1.000000
    5        6.266020   0.000014
    6        7.413267   0.000000
    7       12.271341   0.000000
    8       12.366238   0.000000
 
 -0.1875000E+00 -0.3125000E+00  0.6250000E-01  0.2343750E-01
    1       -4.846149   1.000000
    2        0.835612   1.000000
    3        2.867784   1.000000
    4        3.494949   1.000000
    5        7.104290   0.000000
    6        8.643227   0.000000
    7       10.218872   0.000000
    8       11.192069   0.000000
 
 -0.1875000E+00 -0.1875000E+00  0.6250000E-01  0.1171875E-01
    1       -5.468082   1.000000
    2        2.173737   1.000000
    3        3.745521   1.000000
    4        3.780786   1.000000
    5        6.876737   0.000000
    6        8.951002   0.000000
    7       10.166459   0.000000
    8       10.322981   0.000000
 
  0.1875000E+00  0.1875000E+00  0.1875000E+00  0.3906250E-02
    1       -5.857649   1.000000
    2        2.598303   1.000000
    3        4.817248   1.000000
    4        4.817248   1.000000
    5        7.422222   0.000000
    6        8.586517   0.000000
    7        8.586517   0.000000
    8       10.732477   0.000000
 
  0.3125000E+00  0.1875000E+00  0.1875000E+00  0.1171875E-01
    1       -5.478187   1.000000
    2        1.763283   1.000000
    3        3.356674   1.000000
    4        4.830546   1.000000
    5        8.074787   0.000000
    6        8.709269   0.000000
    7        8.983818   0.000000
    8       10.894195   0.000000
 
  0.4375000E+00  0.1875000E+00  0.1875000E+00  0.1171875E-01
    1       -4.756428   1.000000
    2        0.423008   1.000000
    3        2.311640   1.000000
    4        4.343311   1.000000
    5        7.969891   0.000000
    6        9.448477   0.000000
    7        9.633012   0.000000
    8       11.179809   0.000000
 
 -0.4375000E+00  0.1875000E+00  0.1875000E+00  0.1171875E-01
    1       -3.897856   1.000000
    2       -1.007494   1.000000
    3        2.151787   1.000000
    4        3.831152   1.000000
    5        7.508504   0.000000
    6        9.593505   0.000000
    7        9.848062   0.000000
    8       13.010824   0.000000
 
 -0.3125000E+00  0.1875000E+00  0.1875000E+00  0.1171875E-01
    1       -3.882389   1.000000
    2       -1.035226   1.000000
    3        2.437545   1.000000
    4        3.525217   1.000000
    5        7.252194   0.000000
    6        9.652279   0.000000
    7       10.185817   0.000000
    8       11.131891   0.000000
 
 -0.1875000E+00  0.1875000E+00  0.1875000E+00  0.1171875E-01
    1       -4.739384   1.000000
    2        0.419854   1.000000
    3        3.032976   1.000000
    4        3.504145   1.000000
    5        7.189927   0.000000
    6        9.313314   0.000000
    7        9.943050   0.000000
    8       10.534447   0.000000
 
  0.3125000E+00  0.3125000E+00  0.1875000E+00  0.1171875E-01
    1       -5.229818   1.000000
    2        1.119743   1.000000
    3        3.828620   1.000000
    4        3.909104   1.000000
    5        7.552174   0.000000
    6        8.844296   0.000000
    7        9.805971   0.000000
    8       10.203615   0.000000
 
  0.4375000E+00  0.3125000E+00  0.1875000E+00  0.2343750E-01
    1       -4.624333   1.000000
    2        0.350307   1.000000
    3        2.366842   1.000000
    4        3.718229   1.000000
    5        8.047329   0.000000
    6        9.026741   0.000000
    7        9.573411   0.000000
    8       11.020866   0.000000
 
 -0.4375000E+00  0.3125000E+00  0.1875000E+00  0.2343750E-01
    1       -3.765620   1.000000
    2       -0.726023   1.000000
    3        1.607566   1.000000
    4        3.174383   1.000000
    5        8.490284   0.000000
    6        8.967795   0.000000
    7       10.213749   0.000000
    8       12.090795   0.000000
 
 -0.3125000E+00  0.3125000E+00  0.1875000E+00  0.2343750E-01
    1       -3.299019   1.000000
    2       -1.313544   1.000000
    3        1.605242   1.000000
    4        2.874841   1.000000
    5        8.039469   0.000000
    6        9.287177   0.000000
    7       10.978249   0.000000
    8       12.206501   0.000000
 
 -0.1875000E+00  0.3125000E+00  0.1875000E+00  0.2343750E-01
    1       -4.038406   1.000000
    2       -0.350232   1.000000
    3        2.017705   1.000000
    4        3.046260   1.000000
    5        7.775777   0.000000
    6        8.975417   0.000000
    7        9.781377   0.000000
    8       12.207806   0.000000
 
  0.4375000E+00  0.4375000E+00  0.1875000E+00  0.1171875E-01
    1       -4.143758   1.000000
    2       -0.289472   1.000000
    3        2.335985   1.000000
    4        3.183794   1.000000
    5        6.828212   0.000000
    6        8.810916   0.000000
    7       10.964895   0.000000
    8       11.338656   0.000000
 
 -0.4375000E+00  0.4375000E+00  0.1875000E+00  0.2343750E-01
    1       -3.367563   1.000000
    2       -1.077496   1.000000
    3        1.786687   1.000000
    4        2.530892   1.000000
    5        7.581395   0.000000
    6        8.576443   0.000000
    7       10.656590   0.000000
    8       13.376029   0.000000
 
 -0.3125000E+00  0.4375000E+00  0.1875000E+00  0.2343750E-01
    1       -2.590207   1.000000
    2       -1.813272   1.000000
    3        1.485128   1.000000
    4        2.050216   1.000000
    5        8.679313   0.000000
    6        9.600474   0.000000
    7       10.209641   0.000000
    8       11.204751   0.000000
 
 -0.1875000E+00  0.4375000E+00  0.1875000E+00  0.2343750E-01
    1       -3.172649   1.000000
    2       -1.275586   1.000000
    3        1.472956   1.000000
    4        2.507468   1.000000
    5        8.775118   0.000000
    6        9.181981   0.000000
    7        9.910304   0.000000
    8       12.342092   0.000000
 
 -0.4375000E+00 -0.4375000E+00  0.1875000E+00  0.1171875E-01
    1       -2.745517   1.000000
    2       -1.788411   1.000000
    3        1.584789   1.000000
    4        2.851906   1.000000
    5        6.414314   0.000000
    6        8.263016   0.000000
    7       13.102203   0.000000
    8       13.262938   0.000000
 
 -0.3125000E+00 -0.4375000E+00  0.1875000E+00  0.2343750E-01
    1       -2.648149   1.000000
    2       -1.821661   1.000000
    3        1.675152   1.000000
    4        2.253891   1.000000
    5        7.481939   0.000000
    6        8.375450   0.000000
    7       11.638579   0.000000
    8       12.723273   0.000000
 
 -0.3125000E+00 -0.3125000E+00  0.1875000E+00  0.1171875E-01
    1       -3.461250   1.000000
    2       -1.037339   1.000000
    3        1.837848   1.000000
    4        2.963669   1.000000
    5        6.557316   0.000000
    6        8.444638   0.000000
    7       12.097866   0.000000
    8       12.220244   0.000000
 
  0.3125000E+00  0.3125000E+00  0.3125000E+00  0.3906250E-02
    1       -5.126893   1.000000
    2        0.455176   1.000000
    3        4.414624   1.000000
    4        4.414624   1.000000
    5        6.969334   0.000000
    6        8.833252   0.000000
    7        8.833252   0.000000
    8       12.771313   0.000000
 
  0.4375000E+00  0.3125000E+00  0.3125000E+00  0.1171875E-01
    1       -4.663973   1.000000
    2       -0.113743   1.000000
    3        2.990117   1.000000
    4        4.328479   1.000000
    5        7.702979   0.000000
    6        9.046240   0.000000
    7        9.098804   0.000000
    8       12.185818   0.000000
 
 -0.4375000E+00  0.3125000E+00  0.3125000E+00  0.1171875E-01
    1       -3.899711   1.000000
    2       -0.656735   1.000000
    3        1.529628   1.000000
    4        3.769712   1.000000
    5        7.447102   0.000000
    6       10.445932   0.000000
    7       10.591606   0.000000
    8       11.926151   0.000000
 
 -0.3125000E+00  0.3125000E+00  0.3125000E+00  0.1171875E-01
    1       -3.109616   1.000000
    2       -1.423199   1.000000
    3        1.210375   1.000000
    4        3.242231   1.000000
    5        6.862683   0.000000
    6       10.672175   0.000000
    7       11.683801   0.000000
    8       11.890944   0.000000
 
  0.4375000E+00  0.4375000E+00  0.3125000E+00  0.1171875E-01
    1       -4.362016   1.000000
    2       -0.652280   1.000000
    3        3.307318   1.000000
    4        3.787013   1.000000
    5        7.456445   0.000000
    6        8.801647   0.000000
    7        9.573712   0.000000
    8       11.558832   0.000000
 
 -0.4375000E+00  0.4375000E+00  0.3125000E+00  0.2343750E-01
    1       -3.764772   1.000000
    2       -1.016293   1.000000
    3        2.049962   1.000000
    4        3.332650   1.000000
    5        8.229413   0.000000
    6        8.600389   0.000000
    7       11.035139   0.000000
    8       11.320626   0.000000
 
 -0.3125000E+00  0.4375000E+00  0.3125000E+00  0.2343750E-01
    1       -2.975181   1.000000
    2       -1.492124   1.000000
    3        1.299508   1.000000
    4        2.647001   1.000000
    5        7.917386   0.000000
    6       10.116557   0.000000
    7       10.865280   0.000000
    8       11.368989   0.000000
 
 -0.4375000E+00 -0.4375000E+00  0.3125000E+00  0.1171875E-01
    1       -3.420176   1.000000
    2       -1.293369   1.000000
    3        1.678491   1.000000
    4        3.338732   1.000000
    5        7.003657   0.000000
    6       10.629012   0.000000
    7       10.926865   0.000000
    8       10.942777   0.000000
 
  0.4375000E+00  0.4375000E+00  0.4375000E+00  0.3906250E-02
    1       -4.273754   1.000000
    2       -1.133759   1.000000
    3        4.198387   1.000000
    4        4.198387   1.000000
    5        6.717444   0.000000
    6        8.713307   0.000000
    7        8.713307   0.000000
    8       13.020187   0.000000
 
 -0.4375000E+00  0.4375000E+00  0.4375000E+00  0.1171875E-01
    1       -3.936970   1.000000
    2       -1.308302   1.000000
    3        3.002769   1.000000
    4        3.941298   1.000000
    5        7.468083   0.000000
    6        8.814123   0.000000
    7        9.274425   0.000000
    8       13.347087   0.000000
