 running on    8 total cores
 distrk:  each k-point on    8 cores,    1 groups
 distr:  one band on    1 cores,    8 groups
 using from now: INCAR     
 vasp.5.4.4.18Apr17-6-g9f103f2a35 (build Dec 09 2018 21:25:21) complex          
  
 POSCAR found type information on POSCAR  Si
 POSCAR found :  1 types and       2 ions
 scaLAPACK will be used

 ----------------------------------------------------------------------------- 
|                                                                             |
|           W    W    AA    RRRRR   N    N  II  N    N   GGGG   !!!           |
|           W    W   A  A   R    R  NN   N  II  NN   N  G    G  !!!           |
|           W    W  A    A  R    R  N N  N  II  N N  N  G       !!!           |
|           W WW W  AAAAAA  RRRRR   N  N N  II  N  N N  G  GGG   !            |
|           WW  WW  A    A  R   R   N   NN  II  N   NN  G    G                |
|           W    W  A    A  R    R  N    N  II  N    N   GGGG   !!!           |
|                                                                             |
|      For optimal performance we recommend to set                            |
|        NCORE= 4 - approx SQRT( number of cores)                             |
|      NCORE specifies how many cores store one orbital (NPAR=cpu/NCORE).     |
|      This setting can  greatly improve the performance of VASP for DFT.     |
|      The default,   NCORE=1            might be grossly inefficient         |
|      on modern multi-core architectures or massively parallel machines.     |
|      Do your own testing !!!!                                               |
|      Unfortunately you need to use the default for GW and RPA calculations. |
|      (for HF NCORE is supported but not extensively tested yet)             |
|                                                                             |
 ----------------------------------------------------------------------------- 

 LDA part: xc-table for Pade appr. of Perdew
 POSCAR, INCAR and KPOINTS ok, starting setup
 FFT: planning ...
 WAVECAR not read
 entering main loop
       N       E                     dE             d eps       ncg     rms          rms(c)
DAV:   1     0.230373942936E+01    0.23037E+01   -0.25507E+03   960   0.549E+02
DAV:   2    -0.108098789700E+02   -0.13114E+02   -0.12572E+02  1496   0.685E+01
DAV:   3    -0.109890849527E+02   -0.17921E+00   -0.17837E+00  1176   0.959E+00
DAV:   4    -0.109899295167E+02   -0.84456E-03   -0.84456E-03  1592   0.708E-01
DAV:   5    -0.109899306374E+02   -0.11207E-05   -0.11213E-05  1200   0.154E-02    0.288E+00
DAV:   6    -0.108859134584E+02    0.10402E+00   -0.66305E-02  1224   0.134E+00    0.172E+00
DAV:   7    -0.108365931072E+02    0.49320E-01   -0.12805E-01  1176   0.199E+00    0.143E-01
DAV:   8    -0.108379299407E+02   -0.13368E-02   -0.38279E-03  1176   0.454E-01    0.248E-02
DAV:   9    -0.108380340882E+02   -0.10415E-03   -0.10292E-04   760   0.812E-02
   1 F= -.10838034E+02 E0= -.10838024E+02  d E =-.108380E+02
 curvature:   0.00 expect dE= 0.000E+00 dE for cont linesearch  0.000E+00
 trial: gam= 0.00000 g(F)=  0.279E-45 g(S)=  0.000E+00 ort = 0.000E+00 (trialstep = 0.100E+01)
 search vector abs. value=  0.100E-09
 reached required accuracy - stopping structural energy minimisation
 writing wavefunctions
