unknown system                          
   1.00000000000000     
    -2.450000    2.450000    1.274000
     2.450000   -2.450000    1.274000
     2.450000    2.450000   -1.274000
   Si
     2
Direct
  0.250000  0.750000  0.500000
  0.000000  0.000000  0.000000
 
   24   24   24
 -5.5678     -3.5461      1.4890      7.0962      10.901      11.877      10.622      8.5868      6.7035      5.2461    
  4.2717      3.7309      3.5596      3.7310      4.2717      5.2461      6.7035      8.5869      10.622      11.877    
  10.901      7.0963      1.4889     -3.5463     -3.5463     -4.5812     -1.7887      3.3962      8.4853      11.424    
  11.641      10.033      8.0075      6.2361      4.9181      4.0721      3.6385      3.5596      3.8219      4.4637    
  5.5514      7.1187      9.0698      11.052      11.963      10.459      6.2793     0.79204      1.4889     -1.7889    
 -1.8606      1.2957      6.0237      10.042      11.795      11.193      9.3321      7.3768      5.7532      4.5920    
  3.8792      3.5509      3.5595      3.9048      4.6333      5.8088      7.4461      9.4169      11.310      11.978    
  10.287      6.2793      7.0963      3.3961      1.2955      1.9501      4.9810      8.7317      11.337      11.829    
  10.533      8.5757      6.7405      5.2888      4.2896      3.7053      3.4737      3.5594      3.9735      4.7666    
  5.9953      7.6559      9.5984      11.396      11.978      10.459      10.901      8.4854      6.0236      4.9809    
  6.0010      8.4676      10.929      12.062      11.460      9.7335      7.8172      6.1416      4.8723      4.0288    
  3.5603      3.4116      3.5593      4.0226      4.8517      6.0933      7.7282      9.5984      11.310      11.963    
  11.877      11.424      10.042      8.7317      8.4676      9.4869      11.114      12.245      12.115      10.768    
  8.9095      7.1097      5.6177      4.5268      3.8229      3.4517      3.3681      3.5592      4.0482      4.8810    
  6.0933      7.6559      9.4169      11.052      10.622      11.641      11.795      11.337      10.930      11.114    
  11.867      12.600      12.612      11.617      9.9455      8.1393      6.5028      5.1991      4.2691      3.6810    
  3.3846      3.3457      3.5591      4.0482      4.8517      5.9953      7.4461      9.0698      8.5869      10.033    
  11.193      11.829      12.062      12.245      12.600      12.981      12.974      12.246      10.852      9.1665    
  7.4915      6.0382      4.9081      4.1103      3.6087      3.3620      3.3457      3.5592      4.0226      4.7666    
  5.8088      7.1187      6.7035      8.0076      9.3321      10.533      11.460      12.115      12.612      12.974    
  13.039      12.580      11.541      10.111      8.5307      7.0248      5.7470      4.7591      4.0568      3.6087    
  3.3846      3.3681      3.5593      3.9735      4.6333      5.5514      5.2461      6.2361      7.3769      8.5759    
  9.7336      10.768      11.617      12.246      12.580      12.491      11.904      10.870      9.5398      8.1160    
  6.7808      5.6478      4.7591      4.1103      3.6810      3.4517      3.4116      3.5594      3.9048      4.4637    
  4.2717      4.9180      5.7531      6.7405      7.8174      8.9096      9.9455      10.852      11.541      11.904    
  11.844      11.324      10.406      9.2299      7.9722      6.7808      5.7470      4.9081      4.2691      3.8229    
  3.5603      3.4737      3.5595      3.8219      3.7310      4.0722      4.5920      5.2888      6.1417      7.1098    
  8.1394      9.1665      10.111      10.870      11.325      11.378      10.998      10.240      9.2299      8.1160    
  7.0248      6.0382      5.1991      4.5268      4.0288      3.7053      3.5509      3.5596      3.5596      3.6386    
  3.8793      4.2897      4.8723      5.6177      6.5029      7.4916      8.5307      9.5398      10.406      10.998    
  11.210      10.998      10.406      9.5398      8.5307      7.4915      6.5028      5.6177      4.8723      4.2896    
  3.8792      3.6385      3.7309      3.5596      3.5510      3.7055      4.0289      4.5268      5.1991      6.0383    
  7.0249      8.1161      9.2299      10.240      10.998      11.378      11.324      10.870      10.111      9.1665    
  8.1393      7.1097      6.1416      5.2888      4.5920      4.0721      4.2717      3.8219      3.5595      3.4738    
  3.5605      3.8230      4.2691      4.9080      5.7470      6.7809      7.9722      9.2299      10.406      11.325    
  11.844      11.904      11.541      10.852      9.9455      8.9095      7.8172      6.7405      5.7532      4.9181    
  5.2461      4.4638      3.9048      3.5594      3.4116      3.4520      3.6812      4.1103      4.7590      5.6479    
  6.7809      8.1161      9.5398      10.870      11.904      12.491      12.580      12.246      11.617      10.768    
  9.7335      8.5757      7.3768      6.2361      6.7035      5.5515      4.6335      3.9736      3.5593      3.3682    
  3.3849      3.6089      4.0567      4.7590      5.7470      7.0249      8.5307      10.111      11.541      12.580    
  13.039      12.974      12.612      12.115      11.460      10.533      9.3321      8.0075      8.5868      7.1187    
  5.8089      4.7668      4.0228      3.5592      3.3458      3.3622      3.6089      4.1103      4.9080      6.0383    
  7.4916      9.1665      10.852      12.246      12.974      12.981      12.600      12.245      12.062      11.829    
  11.193      10.033      10.622      9.0698      7.4461      5.9954      4.8520      4.0484      3.5592      3.3458    
  3.3849      3.6812      4.2691      5.1991      6.5029      8.1394      9.9455      11.617      12.612      12.600    
  11.867      11.114      10.929      11.337      11.795      11.641      11.877      11.053      9.4169      7.6559    
  6.0934      4.8813      4.0484      3.5592      3.3682      3.4520      3.8230      4.5268      5.6177      7.1098    
  8.9096      10.768      12.115      12.245      11.114      9.4869      8.4676      8.7317      10.042      11.424    
  10.901      11.963      11.311      9.5985      7.7282      6.0934      4.8520      4.0228      3.5593      3.4116    
  3.5605      4.0289      4.8723      6.1417      7.8174      9.7336      11.460      12.062      10.930      8.4676    
  6.0010      4.9810      6.0237      8.4853      7.0962      10.459      11.979      11.396      9.5985      7.6559    
  5.9954      4.7668      3.9736      3.5594      3.4738      3.7055      4.2897      5.2888      6.7405      8.5759    
  10.533      11.829      11.337      8.7317      4.9809      1.9501      1.2957      3.3962      1.4890      6.2792    
  10.287      11.979      11.311      9.4169      7.4461      5.8089      4.6335      3.9048      3.5595      3.5510    
  3.8793      4.5920      5.7531      7.3769      9.3321      11.193      11.795      10.042      6.0236      1.2955    
 -1.8606     -1.7887     -3.5461     0.79219      6.2792      10.459      11.963      11.053      9.0698      7.1187    
  5.5515      4.4638      3.8219      3.5596      3.6386      4.0722      4.9180      6.2361      8.0076      10.033    
  11.641      11.424      8.4854      3.3961     -1.7889     -4.5812     -3.5459     -2.1100      2.2158      7.2724    
  10.809      11.742      10.529      8.5158      6.6281      5.1478      4.1405      3.5617      3.3458      3.4604    
  3.9247      4.7986      6.1381      7.9129      9.9103      11.418      11.077      8.1373      3.3075     -1.3558    
 -2.1102     -3.5459     -1.3556      3.3077      8.1373      11.077      11.418      9.9104      7.9129      6.1381    
  4.7987      3.9247      3.4603      3.3458      3.5617      4.1404      5.1477      6.6280      8.5158      10.529    
  11.742      10.809      7.2725      2.2157      2.3589     -1.1996     -1.7885     0.86487      5.3248      9.3705    
  11.338      10.957      9.2026      7.2750      5.6469      4.4669      3.7329      3.3834      3.3681      3.6813    
  4.3661      5.4893      7.0800      9.0386      11.020      11.983      10.720      7.0716      7.6290      3.7170    
  1.1551      1.2958      3.9971      7.7313      10.581      11.399      10.335      8.4592      6.6449      5.1869    
  4.1733      3.5764      3.3355      3.4115      3.8115      4.5856      5.7967      7.4564      9.4382      11.360    
  12.185      10.914      11.364      8.8017      5.9447      4.3830      4.9811      7.3062      9.9382      11.420    
  11.146      9.5908      7.7257      6.0613      4.7851      3.9338      3.4637      3.3192      3.4735      3.9437    
  4.7821      6.0437      7.7234      9.6779      11.529      12.351      12.431      11.922      10.257      8.4831    
  7.7407      8.4677      10.100      11.485      11.691      10.586      8.8154      7.0458      5.5568      4.4619    
  3.7599      3.4001      3.3355      3.5506      4.0686      4.9397      6.2081      7.8550      9.7334      11.508    
  11.279      12.344      12.370      11.585      10.737      10.537      11.114      11.922      12.168      11.407    
  9.8500      8.0848      6.4611      5.1582      4.2321      3.6586      3.3880      3.3835      3.6382      4.1774    
  5.0451      6.2744      7.8376      9.5963      9.2765      10.839      12.018      12.507      12.437      12.256    
  12.326      12.600      12.658      12.069      10.769      9.1162      7.4573      6.0092      4.8858      4.1052    
  3.6336      3.4277      3.4604      3.7307      4.2618      5.0895      6.2365      7.6724      7.3748      8.8011    
  10.217      11.428      12.227      12.636      12.853      13.003      12.974      12.515      11.493      10.064    
  8.4894      6.9886      5.7206      4.7539      4.0866      3.6855      3.5168      3.5619      3.8218      4.3153    
  5.0692      6.0985      5.8737      6.9726      8.2110      9.4713      10.626      11.561      12.222      12.635    
  12.789      12.580      11.911      10.827      9.4763      8.0489      6.7241      5.6172      4.7706      4.1774    
  3.8119      3.6507      3.6816      3.9050      4.3337      4.9866      4.8493      5.5829      6.5017      7.5555    
  8.6617      9.7266      10.668      11.422      11.927      12.111      11.903      11.283      10.306      9.1078    
  7.8556      6.6938      5.7105      4.9381      4.3751      4.0077      3.8227      3.8119      3.9739      4.3155    
  4.2622      4.6693      5.2513      6.0010      6.8865      7.8525      8.8312      9.7530      10.546      11.128    
  11.412      11.324      10.849      10.043      9.0275      7.9431      6.9092      6.0004      5.2513      4.6725    
  4.2642      4.0232      3.9441      4.0232      4.0489      4.1779      4.4612      4.9051      5.5083      6.2531    
  7.1055      8.0195      8.9384      9.7900      10.482      10.912      10.998      10.713      10.101      9.2617    
  8.3142      7.3613      6.4743      5.6971      5.0567      4.5690      4.2406      4.0691      4.1778      4.0488    
  4.0692      4.2407      4.5691      5.0566      5.6971      6.4744      7.3614      8.3142      9.2617      10.101    
  10.713      10.998      10.912      10.482      9.7901      8.9384      8.0193      7.1053      6.2530      5.5084    
  4.9052      4.4611      4.6692      4.2621      4.0231      3.9442      4.0234      4.2643      4.6724      5.2513    
  6.0005      6.9093      7.9431      9.0274      10.043      10.849      11.324      11.412      11.128      10.546    
  9.7530      8.8311      7.8523      6.8864      6.0010      5.2513      5.5829      4.8493      4.3154      3.9738    
  3.8119      3.8228      4.0078      4.3751      4.9381      5.7105      6.6939      7.8556      9.1077      10.306    
  11.283      11.904      12.111      11.927      11.422      10.669      9.7265      8.6615      7.5554      6.5017    
  6.9726      5.8737      4.9867      4.3336      3.9048      3.6816      3.6509      3.8120      4.1774      4.7705    
  5.6173      6.7242      8.0489      9.4762      10.827      11.911      12.580      12.789      12.635      12.222    
  11.561      10.626      9.4711      8.2108      8.8009      7.3747      6.0985      5.0694      4.3153      3.8217    
  3.5619      3.5170      3.6856      4.0865      4.7537      5.7207      6.9887      8.4894      10.064      11.493    
  12.515      12.974      13.003      12.853      12.636      12.227      11.428      10.217      10.839      9.2764    
  7.6722      6.2366      5.0897      4.2619      3.7306      3.4604      3.4279      3.6338      4.1052      4.8857    
  6.0093      7.4574      9.1162      10.769      12.069      12.658      12.600      12.326      12.256      12.437    
  12.507      12.018      12.344      11.279      9.5962      7.8375      6.2745      5.0454      4.1776      3.6382    
  3.3835      3.3882      3.6587      4.2320      5.1581      6.4612      8.0849      9.8500      11.407      12.168    
  11.922      11.114      10.537      10.737      11.584      12.370      11.922      12.431      11.508      9.7334    
  7.8548      6.2082      4.9400      4.0688      3.5506      3.3355      3.4002      3.7600      4.4618      5.5568    
  7.0459      8.8154      10.586      11.690      11.485      10.100      8.4675      7.7406      8.4830      10.257    
  8.8015      11.364      12.351      11.529      9.6779      7.7233      6.0438      4.7824      3.9438      3.4735    
  3.3192      3.4639      3.9339      4.7850      6.0613      7.7258      9.5908      11.146      11.420      9.9380    
  7.3059      4.9809      4.3829      5.9446      3.7170      7.6289      10.914      12.185      11.360      9.4382    
  7.4564      5.7968      4.5859      3.8116      3.4115      3.3355      3.5765      4.1733      5.1869      6.6449    
  8.4592      10.335      11.399      10.581      7.7311      3.9969      1.2957      1.1552     -1.1994      2.3590    
  7.0715      10.720      11.983      11.020      9.0387      7.0800      5.4894      4.3663      3.6814      3.3681    
  3.3835      3.7329      4.4669      5.6468      7.2749      9.2025      10.957      11.338      9.3705      5.3246    
 0.86461     -1.7885      1.4897      2.3595      5.4799      9.1879      11.662      12.006      10.608      8.6106    
  6.7523      5.2819      4.2617      3.6506      3.3846      3.4276      3.7906      4.5255      5.6893      7.2788    
  9.1479      10.876      11.418      9.9434      6.7464      3.3079      2.2161     0.79293      2.2164      5.6952    
  9.3756      11.518      11.486      9.9108      7.9552      6.2145      4.8872      4.0051      3.5166      3.3620    
  3.5166      4.0050      4.8871      6.2145      7.9551      9.9106      11.486      11.518      9.3757      5.6950    
  5.4798      2.3593      1.4897      3.3082      6.7466      9.9434      11.418      10.876      9.1481      7.2789    
  5.6894      4.5255      3.7907      3.4276      3.3846      3.6506      4.2616      5.2818      6.7523      8.6106    
  10.608      12.005      11.662      9.1881      9.5187      6.2036      3.7173      3.3968      5.3252      8.2952    
  10.627      11.232      10.170      8.3726      6.6259      5.2099      4.2179      3.6297      3.3880      3.4517    
  3.8225      4.5452      5.6835      7.2639      9.1954      11.191      12.446      11.944      12.366      10.323    
  7.6937      5.9448      6.0240      7.7315      9.8841      11.139      10.858      9.3956      7.6272      6.0333    
  4.8021      3.9797      3.5302      3.4001      3.5603      4.0230      4.8378      6.0626      7.7074      9.6590    
  11.613      12.797      13.016      12.833      11.382      9.5573      8.4831      8.7318      9.9382      11.092    
  11.275      10.272      8.6209      6.9495      5.5306      4.4848      3.8215      3.4966      3.4639      3.7053    
  4.2405      5.1186      6.3881      8.0427      9.9560      11.835      11.821      13.032      13.182      12.380    
  11.311      10.737      10.929      11.485      11.668      10.986      9.5546      7.9038      6.3734      5.1407    
  4.2711      3.7494      3.5303      3.5767      3.8792      4.4610      5.3661      6.6313      8.2367      10.054    
  9.9378      11.557      12.781      13.245      13.014      12.536      12.255      12.245      12.168      11.593    
  10.388      8.8424      7.2886      5.9295      4.8810      4.1691      3.7659      3.6300      3.7332      4.0722    
  4.6691      5.5602      6.7697      8.2691      8.1355      9.6163      11.056      12.236      12.918      13.098    
  13.007      12.853      12.611      12.069      11.066      9.7039      8.2237      6.8207      5.6440      4.7639    
  4.1829      3.8701      3.7910      3.9251      4.2718      4.8492      5.6841      6.7899      6.6902      7.8487    
  9.1183      10.365      11.439      12.210      12.622      12.745      12.635      12.246      11.493      10.403    
  9.1070      7.7667      6.5410      5.5376      4.7974      4.3133      4.0580      4.0054      4.1409      4.4639    
  4.9866      5.7266      5.6840      6.4804      7.4362      8.4899      9.5447      10.493      11.247      11.753    
  11.987      11.927      11.540      10.827      9.8398      8.6930      7.5309      6.4815      5.6238      4.9845    
  4.5568      4.3217      4.2619      4.3666      4.6337      5.0693      5.0897      5.5600      6.1805      6.9367    
  7.7876      8.6676      9.5007      10.217      10.761      11.080      11.128      10.870      10.306      9.4931    
  8.5364      7.5580      6.6608      5.9074      5.3219      4.9051      4.6492      4.5454      4.5861      4.7670    
  4.8521      5.0454      5.3660      5.8175      6.3936      7.0702      7.8064      8.5514      9.2513      9.8485    
  10.280      10.482      10.406      10.043      9.4394      8.6802      7.8657      7.0809      6.3818      5.7982    
  5.3436      5.0234      4.8378      4.7824      4.9399      4.8814      4.9400      5.1185      5.4218      5.8499    
  6.3921      7.0270      7.7243      8.4437      9.1295      9.7089      10.101      10.240      10.101      9.7089    
  9.1296      8.4437      7.7242      7.0269      6.3921      5.8500      5.4219      5.1184      5.3659      5.0452    
  4.8520      4.7825      4.8379      5.0234      5.3435      5.7982      6.3819      7.0810      7.8656      8.6801    
  9.4394      10.043      10.406      10.482      10.280      9.8487      9.2513      8.5514      7.8062      7.0702    
  6.3937      5.8176      6.1806      5.5599      5.0894      4.7668      4.5860      4.5455      4.6493      4.9050    
  5.3218      5.9074      6.6609      7.5580      8.5363      9.4931      10.306      10.870      11.128      11.080    
  10.761      10.218      9.5006      8.6674      7.7875      6.9368      7.4362      6.4804      5.6839      5.0691    
  4.6334      4.3665      4.2619      4.3218      4.5567      4.9843      5.6238      6.4816      7.5309      8.6929    
  9.8398      10.827      11.541      11.926      11.987      11.753      11.247      10.493      9.5445      8.4898    
  9.1181      7.8485      6.6902      5.7266      4.9865      4.4636      4.1408      4.0055      4.0580      4.3132    
  4.7973      5.5376      6.5411      7.7666      9.1068      10.403      11.493      12.246      12.635      12.745    
  12.622      12.210      11.439      10.364      11.056      9.6161      8.1353      6.7899      5.6841      4.8492    
  4.2715      3.9249      3.7911      3.8702      4.1828      4.7637      5.6440      6.8207      8.2236      9.7038    
  11.066      12.069      12.611      12.853      13.007      13.097      12.918      12.236      12.781      11.557    
  9.9376      8.2689      6.7696      5.5604      4.6691      4.0720      3.7331      3.6301      3.7659      4.1689    
  4.8808      5.9296      7.2887      8.8423      10.388      11.593      12.168      12.245      12.255      12.536    
  13.014      13.245      13.182      13.032      11.822      10.053      8.2365      6.6313      5.3663      4.4610    
  3.8791      3.5766      3.5304      3.7494      4.2710      5.1406      6.3735      7.9039      9.5545      10.986    
  11.668      11.485      10.929      10.737      11.311      12.380      11.381      12.833      13.016      11.835    
  9.9558      8.0424      6.3881      5.1188      4.2406      3.7052      3.4639      3.4966      3.8215      4.4847    
  5.5305      6.9495      8.6209      10.272      11.275      11.092      9.9379      8.7316      8.4830      9.5571    
  7.6936      10.322      12.366      12.797      11.613      9.6589      7.7073      6.0626      4.8380      4.0231    
  3.5603      3.4001      3.5302      3.9797      4.8020      6.0333      7.6271      9.3956      10.857      11.139    
  9.8838      7.7312      6.0239      5.9448      3.7174      6.2036      9.5185      11.943      12.446      11.191    
  9.1954      7.2638      5.6836      4.5454      3.8226      3.4517      3.3880      3.6298      4.2178      5.2099    
  6.6258      8.3725      10.170      11.232      10.627      8.2950      5.3250      3.3967      7.0969      7.6293    
  9.5185      11.656      12.801      12.383      10.784      8.8605      7.0853      5.6635      4.6494      4.0077    
  3.6811      3.6337      3.8700      4.4312      5.3700      6.7019      8.3416      10.057      11.283      11.269    
  9.9434      8.1377      7.2729      6.2800      7.0721      9.1880      11.347      12.316      11.688      10.008    
  8.1365      6.4752      5.1942      4.3218      3.8119      3.6089      3.6856      4.0579      4.7760      5.8917    
  7.4006      9.1747      10.901      11.824      11.255      9.3756      9.1879      7.0719      6.2800      7.2731    
  9.3757      11.255      11.824      10.901      9.1748      7.4006      5.8917      4.7761      4.0579      3.6855    
  3.6089      3.8120      4.3217      5.1942      6.4752      8.1365      10.008      11.688      12.317      11.347    
  11.657      9.5185      7.6291      7.0969      8.1379      9.9436      11.269      11.283      10.057      8.3417    
  6.7020      5.3701      4.4313      3.8700      3.6337      3.6812      4.0077      4.6493      5.6635      7.0854    
  8.8605      10.784      12.383      12.801      13.276      12.190      10.322      8.8016      8.4858      9.3710    
  10.627      11.224      10.650      9.2003      7.5568      6.0793      4.9367      4.1753      3.7659      3.6588    
  3.8231      4.2643      5.0236      6.1550      7.6787      9.5155      11.437      12.948      13.331      13.680    
  12.830      11.381      10.257      10.042      10.582      11.139      10.982      9.9198      8.3865      6.8578    
  5.5612      4.6097      4.0182      3.7495      3.7601      4.0290      4.5691      5.4221      6.6337      8.2065    
  10.042      11.904      12.129      13.470      13.907      13.379      12.380      11.584      11.337      11.420    
  11.275      10.493      9.1483      7.6540      6.2742      5.1680      4.4009      3.9653      3.8217      3.9341    
  4.2897      4.9051      5.8179      7.0611      8.6207      10.386      10.510      12.082      13.312      13.842    
  13.627      13.014      12.436      12.062      11.690      10.986      9.8243      8.4243      7.0358      5.8302    
  4.9140      4.3171      4.0182      3.9800      4.1736      4.5920      5.2513      6.1808      7.3996      8.8800    
  8.9568      10.395      11.757      12.839      13.417      13.437      13.098      12.636      12.114      11.407    
  10.388      9.1274      7.8018      6.5653      5.5459      4.8092      4.3613      4.1754      4.2182      4.4673    
  4.9182      5.5828      6.4805      7.6172      7.6921      8.8421      10.051      11.184      12.089      12.645    
  12.797      12.622      12.222      11.616      10.769      9.7038      8.5175      7.3313      6.2741      5.4378    
  4.8598      4.5333      4.4313      4.5259      4.7991      5.2462      5.8735      6.6900      6.7895      7.6168    
  8.5473      9.5130      10.415      11.149      11.632      11.832      11.753      11.422      10.852      10.064    
  9.1070      8.0684      7.0613      6.1894      5.5183      5.0685      4.8290      4.7760      4.8874      5.1481    
  5.5516      6.0982      6.2363      6.7691      7.3991      8.1023      8.8328      9.5257      10.111      10.533    
  10.754      10.761      10.546      10.111      9.4761      8.6930      7.8456      7.0308      6.3307      5.7935    
  5.4327      5.2388      5.1941      5.2819      5.4896      5.8090      5.9955      6.2742      6.6307      7.0604    
  7.5504      8.0745      8.5952      9.0705      9.4604      9.7301      9.8487      9.7901      9.5397      9.1077    
  8.5364      7.8957      7.2639      6.7061      6.2612      5.9422      5.7461      5.6633      5.6834      5.7969    
  6.0437      6.0934      6.2080      6.3876      6.6330      6.9415      7.3029      7.7008      8.1131      8.5128    
  8.8655      9.1296      9.2618      9.2299      9.0275      8.6802      8.2392      7.7647      7.3089      6.9069    
  6.5767      6.3255      6.1546      6.0622      6.3875      6.2079      6.0934      6.0438      6.0623      6.1545    
  6.3253      6.5766      6.9070      7.3090      7.7647      8.2391      8.6802      9.0276      9.2299      9.2617    
  9.1296      8.8656      8.5128      8.1131      7.7007      7.3030      6.9417      6.6331      7.0605      6.6306    
  6.2740      5.9953      5.7968      5.6835      5.6632      5.7459      5.9421      6.2612      6.7062      7.2639    
  7.8956      8.5364      9.1078      9.5397      9.7900      9.8487      9.7302      9.4606      9.0705      8.5951    
  8.0745      7.5505      8.1024      7.3991      6.7690      6.2361      5.8087      5.4895      5.2820      5.1941    
  5.2386      5.4326      5.7936      6.3308      7.0307      7.8455      8.6930      9.4762      10.111      10.546    
  10.761      10.754      10.533      10.111      9.5256      8.8328      9.5129      8.5473      7.6169      6.7894    
  6.0980      5.5512      5.1479      4.8874      4.7761      4.8288      5.0684      5.5183      6.1895      7.0612    
  8.0682      9.1069      10.064      10.852      11.422      11.753      11.832      11.633      11.149      10.415    
  11.184      10.051      8.8419      7.6921      6.6900      5.8733      5.2458      4.7988      4.5259      4.4313    
  4.5332      4.8597      5.4378      6.2741      7.3313      8.5173      9.7039      10.769      11.617      12.222    
  12.622      12.797      12.645      12.089      12.839      11.757      10.395      8.9565      7.6171      6.4805    
  5.5826      4.9178      4.4671      4.2182      4.1754      4.3612      4.8090      5.5459      6.5653      7.8017    
  9.1273      10.388      11.407      12.114      12.635      13.097      13.437      13.417      13.842      13.312    
  12.082      10.509      8.8796      7.3995      6.1808      5.2512      4.5918      4.1734      3.9800      4.0183    
  4.3170      4.9139      5.8302      7.0359      8.4242      9.8242      10.986      11.690      12.062      12.436    
  13.014      13.627      13.378      13.906      13.470      12.130      10.386      8.6204      7.0610      5.8180    
  4.9051      4.2895      3.9340      3.8217      3.9653      4.4008      5.1679      6.2742      7.6540      9.1482    
  10.493      11.275      11.420      11.337      11.584      12.380      11.381      12.830      13.680      13.331    
  11.904      10.042      8.2062      6.6336      5.4222      4.5690      4.0288      3.7600      3.7495      4.0182    
  4.6096      5.5611      6.8578      8.3865      9.9198      10.981      11.139      10.582      10.042      10.257    
  8.8018      10.322      12.189      13.275      12.948      11.438      9.5154      7.6784      6.1550      5.0237    
  4.2643      3.8229      3.6587      3.7659      4.1753      4.9366      6.0792      7.5568      9.2003      10.650    
  11.224      10.627      9.3708      8.4858      10.901      11.364      12.365      13.275      13.402      12.508    
  10.956      9.2382      7.6400      6.3256      5.3437      4.6725      4.2692      4.1054      4.1830      4.5334    
  5.2006      6.2088      7.5174      8.9875      10.384      11.283      11.418      11.077      10.809      10.459    
  10.914      11.943      12.800      12.782      11.740      10.129      8.4398      6.9330      5.7462      4.9052    
  4.3752      4.1105      4.0868      4.3134      4.8290      5.6792      6.8758      8.3478      9.9114      11.244    
  11.824      11.518      11.662      10.720      10.287      10.720      11.662      12.316      12.051      10.851    
  9.2371      7.6337      6.2661      5.2389      4.5569      4.1775      4.0570      4.1776      4.5569      5.2389    
  6.2662      7.6338      9.2371      10.851      12.051      12.316      12.801      11.943      10.914      10.459    
  10.809      11.518      11.824      11.243      9.9115      8.3478      6.8758      5.6792      4.8291      4.3134    
  4.0867      4.1106      4.3753      4.9052      5.7462      6.9332      8.4399      10.129      11.740      12.783    
  13.402      13.275      12.365      11.364      10.901      11.077      11.418      11.283      10.384      8.9876    
  7.5174      6.2088      5.2007      4.5334      4.1830      4.1054      4.2693      4.6726      5.3437      6.3257    
  7.6403      9.2383      10.956      12.508      13.086      13.854      13.680      12.833      11.922      11.424    
  11.338      11.232      10.650      9.5080      8.1282      6.7876      5.6626      4.8489      4.3614      4.1691    
  4.2322      4.5269      5.0567      5.8501      6.9419      8.3368      9.9638      11.641      12.114      13.404    