unknown system                          
   1.00000000000000     
    -2.450000    2.450000    1.274000
     2.450000   -2.450000    1.274000
     2.450000    2.450000   -1.274000
   Si
     2
Direct
  0.250000  0.750000  0.500000
  0.000000  0.000000  0.000000
 
   24   24   24
 -.55678130011E+01 -.35460739774E+01 0.14889979022E+01 0.70961863219E+01 0.10901164157E+02
 0.11876816986E+02 0.10621616220E+02 0.85868490079E+01 0.67035247677E+01 0.52461358107E+01
 0.42716889245E+01 0.37309115577E+01 0.35596151842E+01 0.37309698721E+01 0.42716704364E+01
 0.52460677226E+01 0.67035429888E+01 0.85868843794E+01 0.10621506473E+02 0.11876664439E+02
 0.10901181208E+02 0.70962611109E+01 0.14888600768E+01 -.35463219576E+01 -.35463219576E+01
 -.45811612658E+01 -.17886804244E+01 0.33962072863E+01 0.84853120142E+01 0.11424232166E+02
 0.11640643274E+02 0.10033308130E+02 0.80075479739E+01 0.62361408715E+01 0.49180641061E+01
 0.40721320104E+01 0.36385000682E+01 0.35596040141E+01 0.38218811092E+01 0.44636569502E+01
 0.55514086021E+01 0.71186872941E+01 0.90698452824E+01 0.11052428309E+02 0.11962600331E+02
 0.10458613625E+02 0.62792917732E+01 0.79203736721E+00 0.14888600768E+01 -.17888961116E+01
 -.18606347876E+01 0.12956691899E+01 0.60236720271E+01 0.10041522459E+02 0.11794914265E+02
 0.11193271456E+02 0.93320574705E+01 0.73768138831E+01 0.57531587219E+01 0.45919558781E+01
 0.38792376091E+01 0.35508980816E+01 0.35595349206E+01 0.39047888570E+01 0.46333188458E+01
 0.58088062307E+01 0.74461040787E+01 0.94169037692E+01 0.11310447766E+02 0.11978389900E+02
 0.10286779295E+02 0.62792917732E+01 0.70962611109E+01 0.33961013330E+01 0.12955119197E+01
 0.19501115801E+01 0.49809605392E+01 0.87317016590E+01 0.11337230419E+02 0.11828515387E+02
 0.10532762892E+02 0.85757420771E+01 0.67404901356E+01 0.52888144917E+01 0.42896369225E+01
 0.37053057390E+01 0.34736851776E+01 0.35594278077E+01 0.39734848152E+01 0.47665530046E+01
 0.59952685247E+01 0.76559442753E+01 0.95984136478E+01 0.11395794658E+02 0.11978389900E+02
 0.10458613625E+02 0.10901181208E+02 0.84853750393E+01 0.60236117968E+01 0.49808769765E+01
 0.60010054840E+01 0.84676459946E+01 0.10929495025E+02 0.12061996232E+02 0.11459917089E+02
 0.97335090495E+01 0.78172344429E+01 0.61416286870E+01 0.48723285760E+01 0.40288401983E+01
 0.35603247573E+01 0.34115580352E+01 0.35592959102E+01 0.40225805948E+01 0.48516696823E+01
 0.60932679854E+01 0.77282457548E+01 0.95984136478E+01 0.11310447766E+02 0.11962600331E+02
 0.11876664439E+02 0.11424244259E+02 0.10041568972E+02 0.87316911868E+01 0.84676376280E+01
 0.94869158358E+01 0.11114053670E+02 0.12245192597E+02 0.12114548377E+02 0.10768377153E+02
 0.89094966250E+01 0.71097022299E+01 0.56177405129E+01 0.45268191119E+01 0.38229078999E+01
 0.34517476341E+01 0.33680863824E+01 0.35591760505E+01 0.40481732314E+01 0.48809542947E+01
 0.60932679854E+01 0.76559442753E+01 0.94169037692E+01 0.11052428309E+02 0.10621506473E+02
 0.11640560392E+02 0.11794919133E+02 0.11337255637E+02 0.10929527560E+02 0.11114109415E+02
 0.11866854681E+02 0.12600041427E+02 0.12611656899E+02 0.11616983937E+02 0.99454861172E+01
 0.81392526080E+01 0.65027726043E+01 0.51991317505E+01 0.42691128644E+01 0.36809836628E+01
 0.33846478452E+01 0.33457399602E+01 0.35591375122E+01 0.40481732314E+01 0.48516696823E+01
 0.59952685247E+01 0.74461040787E+01 0.90698452824E+01 0.85868843794E+01 0.10033291450E+02
 0.11193257390E+02 0.11828509854E+02 0.12061996988E+02 0.12245254266E+02 0.12600141891E+02
 0.12981295606E+02 0.12973965279E+02 0.12245900477E+02 0.10852245627E+02 0.91664750739E+01
 0.74915012564E+01 0.60382152900E+01 0.49080877498E+01 0.41103400022E+01 0.36087087555E+01
 0.33619734014E+01 0.33457399602E+01 0.35591760505E+01 0.40225805948E+01 0.47665530046E+01
 0.58088062307E+01 0.71186872941E+01 0.67035429888E+01 0.80076052013E+01 0.93321194944E+01
 0.10532805035E+02 0.11459901235E+02 0.12114525779E+02 0.12611731258E+02 0.12974088070E+02
 0.13038666607E+02 0.12579936129E+02 0.11540768657E+02 0.10111234932E+02 0.85307498126E+01
 0.70247878463E+01 0.57469790194E+01 0.47590657553E+01 0.40567591584E+01 0.36087087555E+01
 0.33846478452E+01 0.33680863824E+01 0.35592959102E+01 0.39734848152E+01 0.46333188458E+01
 0.55514086021E+01 0.52460677226E+01 0.62361370307E+01 0.73768762199E+01 0.85758558226E+01
 0.97335905747E+01 0.10768355366E+02 0.11616942926E+02 0.12245972837E+02 0.12580061672E+02
 0.12491406367E+02 0.11903528948E+02 0.10869808403E+02 0.95398263249E+01 0.81160456204E+01
 0.67807697151E+01 0.56478303888E+01 0.47590657553E+01 0.41103400022E+01 0.36809836628E+01
 0.34517476341E+01 0.34115580352E+01 0.35594278077E+01 0.39047888570E+01 0.44636569502E+01
 0.42716704364E+01 0.49180256275E+01 0.57531332765E+01 0.67405407684E+01 0.78173695925E+01
 0.89096014908E+01 0.99454657748E+01 0.10852193601E+02 0.11540829106E+02 0.11903644434E+02
 0.11843555043E+02 0.11324474345E+02 0.10405604801E+02 0.92299262222E+01 0.79721585480E+01
 0.67807697151E+01 0.57469790194E+01 0.49080877498E+01 0.42691128644E+01 0.38229078999E+01
 0.35603247573E+01 0.34736851776E+01 0.35595349206E+01 0.38218811092E+01 0.37309698721E+01
 0.40721840871E+01 0.45919511177E+01 0.52887743987E+01 0.61416544275E+01 0.71098330940E+01
 0.81393690921E+01 0.91664633604E+01 0.10111177956E+02 0.10869852687E+02 0.11324575607E+02
 0.11378115201E+02 0.10998210541E+02 0.10240280109E+02 0.92299262222E+01 0.81160456204E+01
 0.70247878463E+01 0.60382152900E+01 0.51991317505E+01 0.45268191119E+01 0.40288401983E+01
 0.37053057390E+01 0.35508980816E+01 0.35596040141E+01 0.35596151842E+01 0.36385872640E+01
 0.38793463769E+01 0.42896735540E+01 0.48722852890E+01 0.56177358764E+01 0.65028827895E+01
 0.74916209353E+01 0.85307486147E+01 0.95397673287E+01 0.10405635514E+02 0.10998302116E+02
 0.11209895529E+02 0.10998210541E+02 0.10405604801E+02 0.95398263249E+01 0.85307498126E+01
 0.74915012564E+01 0.65027726043E+01 0.56177405129E+01 0.48723285760E+01 0.42896369225E+01
 0.38792376091E+01 0.36385000682E+01 0.37309115577E+01 0.35596028368E+01 0.35509952467E+01
 0.37054595651E+01 0.40289253098E+01 0.45267836745E+01 0.51990965677E+01 0.60382975269E+01
 0.70249050927E+01 0.81160523729E+01 0.92298667117E+01 0.10240305666E+02 0.10998302116E+02
 0.11378115201E+02 0.11324474345E+02 0.10869808403E+02 0.10111234932E+02 0.91664750739E+01
 0.81392526080E+01 0.71097022299E+01 0.61416286870E+01 0.52888144917E+01 0.45919558781E+01
 0.40721320104E+01 0.42716889245E+01 0.38218716816E+01 0.35595360995E+01 0.34737805828E+01
 0.35605136290E+01 0.38230407953E+01 0.42690880795E+01 0.49080260719E+01 0.57470375955E+01
 0.67808843096E+01 0.79721683780E+01 0.92298667117E+01 0.10405635514E+02 0.11324575607E+02
 0.11843555043E+02 0.11903528948E+02 0.11540768657E+02 0.10852245627E+02 0.99454861172E+01
 0.89094966250E+01 0.78172344429E+01 0.67404901356E+01 0.57531587219E+01 0.49180641061E+01
 0.52461358107E+01 0.44637584804E+01 0.39048451483E+01 0.35594364212E+01 0.34116448821E+01
 0.34519603170E+01 0.36811528969E+01 0.41103231558E+01 0.47589887766E+01 0.56478800220E+01
 0.67808843096E+01 0.81160523729E+01 0.95397673287E+01 0.10869852687E+02 0.11903644434E+02
 0.12491406367E+02 0.12579936129E+02 0.12245900477E+02 0.11616983937E+02 0.10768377153E+02
 0.97335090495E+01 0.85757420771E+01 0.73768138831E+01 0.62361408715E+01 0.67035247677E+01
 0.55515049592E+01 0.46335074983E+01 0.39736105796E+01 0.35593123187E+01 0.33681619148E+01
 0.33848734670E+01 0.36088979050E+01 0.40567454727E+01 0.47589887766E+01 0.57470375955E+01
 0.70249050927E+01 0.85307486147E+01 0.10111177956E+02 0.11540829106E+02 0.12580061672E+02
 0.13038666607E+02 0.12973965279E+02 0.12611656899E+02 0.12114548377E+02 0.11459917089E+02
 0.10532762892E+02 0.93320574705E+01 0.80075479739E+01 0.85868490079E+01 0.71186514772E+01
 0.58089273438E+01 0.47668177642E+01 0.40227627200E+01 0.35591972488E+01 0.33458080314E+01
 0.33622033789E+01 0.36088979050E+01 0.41103231558E+01 0.49080260719E+01 0.60382975269E+01
 0.74916209353E+01 0.91664633604E+01 0.10852193601E+02 0.12245972837E+02 0.12974088070E+02
 0.12981295606E+02 0.12600041427E+02 0.12245192597E+02 0.12061996232E+02 0.11828515387E+02
 0.11193271456E+02 0.10033308130E+02 0.10621616220E+02 0.90698401014E+01 0.74460538484E+01
 0.59954063021E+01 0.48519858030E+01 0.40483870093E+01 0.35591605917E+01 0.33458080314E+01
 0.33848734670E+01 0.36811528969E+01 0.42690880795E+01 0.51990965677E+01 0.65028827895E+01
 0.81393690921E+01 0.99454657748E+01 0.11616942926E+02 0.12611731258E+02 0.12600141891E+02
 0.11866854681E+02 0.11114053670E+02 0.10929495025E+02 0.11337230419E+02 0.11794914265E+02
 0.11640643274E+02 0.11876816986E+02 0.11052624291E+02 0.94169250593E+01 0.76558838744E+01
 0.60934144325E+01 0.48812888638E+01 0.40483870093E+01 0.35591972488E+01 0.33681619148E+01
 0.34519603170E+01 0.38230407953E+01 0.45267836745E+01 0.56177358764E+01 0.71098330940E+01
 0.89096014908E+01 0.10768355366E+02 0.12114525779E+02 0.12245254266E+02 0.11114109415E+02
 0.94869158358E+01 0.84676459946E+01 0.87317016590E+01 0.10041522459E+02 0.11424232166E+02
 0.10901164157E+02 0.11962808377E+02 0.11310703954E+02 0.95984503719E+01 0.77281819372E+01
 0.60934144325E+01 0.48519858030E+01 0.40227627200E+01 0.35593123187E+01 0.34116448821E+01
 0.35605136290E+01 0.40289253098E+01 0.48722852890E+01 0.61416544275E+01 0.78173695925E+01
 0.97335905747E+01 0.11459901235E+02 0.12061996988E+02 0.10929527560E+02 0.84676376280E+01
 0.60010054840E+01 0.49809605392E+01 0.60236720271E+01 0.84853120142E+01 0.70961863219E+01
 0.10458593437E+02 0.11978628896E+02 0.11396072659E+02 0.95984503719E+01 0.76558838744E+01
 0.59954063021E+01 0.47668177642E+01 0.39736105796E+01 0.35594364212E+01 0.34737805828E+01
 0.37054595651E+01 0.42896735540E+01 0.52887743987E+01 0.67405407684E+01 0.85758558226E+01
 0.10532805035E+02 0.11828509854E+02 0.11337255637E+02 0.87316911868E+01 0.49808769765E+01
 0.19501115801E+01 0.12956691899E+01 0.33962072863E+01 0.14889979022E+01 0.62792109576E+01
 0.10286758178E+02 0.11978628896E+02 0.11310703954E+02 0.94169250593E+01 0.74460538484E+01
 0.58089273438E+01 0.46335074983E+01 0.39048451483E+01 0.35595360995E+01 0.35509952467E+01
 0.38793463769E+01 0.45919511177E+01 0.57531332765E+01 0.73768762199E+01 0.93321194944E+01
 0.11193257390E+02 0.11794919133E+02 0.10041568972E+02 0.60236117968E+01 0.12955119197E+01
 -.18606347876E+01 -.17886804244E+01 -.35460739774E+01 0.79218670074E+00 0.62792109576E+01
 0.10458593437E+02 0.11962808377E+02 0.11052624291E+02 0.90698401014E+01 0.71186514772E+01
 0.55515049592E+01 0.44637584804E+01 0.38218716816E+01 0.35596028368E+01 0.36385872640E+01
 0.40721840871E+01 0.49180256275E+01 0.62361370307E+01 0.80076052013E+01 0.10033291450E+02
 0.11640560392E+02 0.11424244259E+02 0.84853750393E+01 0.33961013330E+01 -.17888961116E+01
 -.45811612658E+01 -.35458742682E+01 -.21099603178E+01 0.22158345306E+01 0.72724395996E+01
 0.10808964986E+02 0.11742405858E+02 0.10529310399E+02 0.85158291435E+01 0.66280561062E+01
 0.51477555620E+01 0.41405429597E+01 0.35617134428E+01 0.33458156254E+01 0.34603592570E+01
 0.39246593584E+01 0.47986395088E+01 0.61381053672E+01 0.79128829730E+01 0.99102661665E+01
 0.11418020602E+02 0.11077110993E+02 0.81372968155E+01 0.33074758330E+01 -.13558453432E+01
 -.21102085383E+01 -.35458754930E+01 -.13555856304E+01 0.33076667358E+01 0.81372820667E+01
 0.11077092134E+02 0.11418129647E+02 0.99103863344E+01 0.79129268744E+01 0.61381426668E+01
 0.47987026945E+01 0.39246846127E+01 0.34603459919E+01 0.33458146340E+01 0.35616825058E+01
 0.41404287745E+01 0.51476506207E+01 0.66280445664E+01 0.85157890692E+01 0.10529128689E+02
 0.11742245919E+02 0.10809011598E+02 0.72725259799E+01 0.22156929043E+01 0.23589026453E+01
 -.11996081142E+01 -.17884922763E+01 0.86487350694E+00 0.53248495301E+01 0.93705106742E+01
 0.11337664742E+02 0.10956779945E+02 0.92026008635E+01 0.72749685743E+01 0.56468824582E+01
 0.44669499779E+01 0.37328721007E+01 0.33834237136E+01 0.33680913501E+01 0.36812568479E+01
 0.43661211648E+01 0.54892656737E+01 0.70799909068E+01 0.90386289085E+01 0.11019984572E+02
 0.11983192788E+02 0.10720116214E+02 0.70716346298E+01 0.76290140450E+01 0.37169643563E+01
 0.11551458727E+01 0.12958072874E+01 0.39970970756E+01 0.77313021426E+01 0.10581467949E+02
 0.11399417681E+02 0.10335404788E+02 0.84591720987E+01 0.66449276313E+01 0.51869214714E+01
 0.41732918174E+01 0.35764440270E+01 0.33354514161E+01 0.34114571344E+01 0.38114805670E+01
 0.45856235773E+01 0.57966693862E+01 0.74564431004E+01 0.94381825119E+01 0.11359590059E+02
 0.12185178115E+02 0.10913818551E+02 0.11364221028E+02 0.88016803933E+01 0.59446683842E+01
 0.43829542661E+01 0.49810586416E+01 0.73061511310E+01 0.99381609950E+01 0.11419824983E+02
 0.11146308550E+02 0.95907705516E+01 0.77257310916E+01 0.60612771100E+01 0.47850685413E+01
 0.39338104760E+01 0.34637462090E+01 0.33191695169E+01 0.34734845091E+01 0.39436594988E+01
 0.47821193367E+01 0.60437236720E+01 0.77233803586E+01 0.96779345603E+01 0.11529134229E+02
 0.12350556942E+02 0.12430526282E+02 0.11921915114E+02 0.10256695446E+02 0.84831165258E+01
 0.77407312006E+01 0.84676819501E+01 0.10099672087E+02 0.11485396379E+02 0.11690521054E+02
 0.10586220455E+02 0.88153743155E+01 0.70458004815E+01 0.55568169505E+01 0.44619156141E+01
 0.37598841073E+01 0.34000867188E+01 0.33354649861E+01 0.35506154566E+01 0.40686445851E+01
 0.49397084713E+01 0.62080880971E+01 0.78549550142E+01 0.97334075520E+01 0.11508193047E+02
 0.11278828016E+02 0.12344243684E+02 0.12369894214E+02 0.11584656066E+02 0.10737146160E+02
 0.10537282982E+02 0.11114026456E+02 0.11922356231E+02 0.12168297574E+02 0.11407194720E+02
 0.98500012729E+01 0.80847705736E+01 0.64611404015E+01 0.51581989274E+01 0.42321172660E+01
 0.36586250830E+01 0.33880412305E+01 0.33834635598E+01 0.36382181143E+01 0.41773892740E+01
 0.50451423759E+01 0.62744047621E+01 0.78376209759E+01 0.95963124868E+01 0.92764926253E+01
 0.10838913695E+02 0.12018242134E+02 0.12507191291E+02 0.12436791572E+02 0.12255745199E+02
 0.12325852988E+02 0.12599965564E+02 0.12658235316E+02 0.12069274552E+02 0.10769162076E+02
 0.91162238576E+01 0.74573454530E+01 0.60092079763E+01 0.48857845177E+01 0.41052492696E+01
 0.36336405166E+01 0.34276968806E+01 0.34604261741E+01 0.37306930643E+01 0.42617706900E+01
 0.50895071997E+01 0.62365335507E+01 0.76723647414E+01 0.73747830610E+01 0.88010957738E+01
 0.10217228545E+02 0.11428459001E+02 0.12227417243E+02 0.12635882044E+02 0.12853439446E+02
 0.13002851488E+02 0.12973848925E+02 0.12515342730E+02 0.11493253795E+02 0.10064270061E+02
 0.84893703280E+01 0.69886394522E+01 0.57206457957E+01 0.47538646227E+01 0.40865599443E+01
 0.36854643685E+01 0.35167760663E+01 0.35618570848E+01 0.38217994163E+01 0.43152816497E+01
 0.50692398405E+01 0.60984599028E+01 0.58736637984E+01 0.69726219499E+01 0.82109699530E+01
 0.94712601126E+01 0.10625968653E+02 0.11561471375E+02 0.12222172709E+02 0.12635377413E+02
 0.12788773293E+02 0.12579843355E+02 0.11911101821E+02 0.10827115539E+02 0.94762614141E+01
 0.80489069835E+01 0.67241122604E+01 0.56172326634E+01 0.47706462228E+01 0.41773735099E+01
 0.38118675515E+01 0.36507480834E+01 0.36815628610E+01 0.39049552864E+01 0.43336828493E+01
 0.49866248879E+01 0.48493213728E+01 0.55829023522E+01 0.65016801072E+01 0.75554791152E+01
 0.86617202623E+01 0.97266075684E+01 0.10668454054E+02 0.11422286143E+02 0.11926729371E+02
 0.12110772638E+02 0.11903467285E+02 0.11282690299E+02 0.10305926346E+02 0.91077600036E+01
 0.78555754061E+01 0.66937704757E+01 0.57104585202E+01 0.49381291388E+01 0.43750890631E+01
 0.40076553135E+01 0.38226660329E+01 0.38118807402E+01 0.39738921793E+01 0.43155205131E+01
 0.42622035614E+01 0.46692704197E+01 0.52513147037E+01 0.60009998576E+01 0.68865060997E+01
 0.78524705438E+01 0.88311729858E+01 0.97529668639E+01 0.10545895256E+02 0.11128358214E+02
 0.11411674888E+02 0.11324464007E+02 0.10849084537E+02 0.10043326351E+02 0.90275245639E+01
 0.79431237824E+01 0.69091535942E+01 0.60004107909E+01 0.52513430326E+01 0.46724528467E+01
 0.42642212122E+01 0.40232016890E+01 0.39441396182E+01 0.40231886857E+01 0.40488633767E+01
 0.41779456900E+01 0.44611718225E+01 0.49051424029E+01 0.55082836888E+01 0.62530616795E+01
 0.71054773150E+01 0.80194594492E+01 0.89383921440E+01 0.97899768873E+01 0.10481890710E+02
 0.10912042842E+02 0.10998233366E+02 0.10713203086E+02 0.10101018019E+02 0.92617210660E+01
 0.83142120591E+01 0.73612829844E+01 0.64743063439E+01 0.56971474055E+01 0.50566745924E+01
 0.45690409025E+01 0.42406166717E+01 0.40691157122E+01 0.41778021595E+01 0.40488390432E+01
 0.40692282542E+01 0.42407425462E+01 0.45690567739E+01 0.50566090800E+01 0.56971468042E+01
 0.64744268481E+01 0.73613974286E+01 0.83142002945E+01 0.92616574532E+01 0.10101044013E+02
 0.10713288549E+02 0.10998233649E+02 0.10911956584E+02 0.10481867561E+02 0.97900548511E+01
 0.89384183856E+01 0.80193370532E+01 0.71053279739E+01 0.62530439754E+01 0.55083630147E+01
 0.49051547112E+01 0.44610521883E+01 0.46691977379E+01 0.42620576739E+01 0.40230971202E+01
 0.39441959000E+01 0.40233519439E+01 0.42643066492E+01 0.46724106225E+01 0.52513005728E+01
 0.60004926790E+01 0.69092770090E+01 0.79431321990E+01 0.90274495235E+01 0.10043330609E+02
 0.10849179641E+02 0.11324495295E+02 0.11411597073E+02 0.11128313946E+02 0.10545960629E+02
 0.97530114991E+01 0.88310713396E+01 0.78523023275E+01 0.68864335439E+01 0.60010427125E+01
 0.52513491362E+01 0.55829446974E+01 0.48492881402E+01 0.43153952615E+01 0.39737772054E+01
 0.38119117637E+01 0.38228331237E+01 0.40077782661E+01 0.43750574240E+01 0.49380675154E+01
 0.57105202018E+01 0.66938770552E+01 0.78555607018E+01 0.91076730423E+01 0.10305952658E+02
 0.11282819938E+02 0.11903501954E+02 0.12110663871E+02 0.11926655270E+02 0.11422343866E+02
 0.10668500292E+02 0.97264969512E+01 0.86615239889E+01 0.75553638679E+01 0.65016908362E+01
 0.69725617991E+01 0.58736944892E+01 0.49866722061E+01 0.43336359013E+01 0.39048377132E+01
 0.36815551364E+01 0.36509209716E+01 0.38120326391E+01 0.41773536272E+01 0.47705497025E+01
 0.56172542094E+01 0.67242041292E+01 0.80488986480E+01 0.94761884830E+01 0.10827151621E+02
 0.11911228324E+02 0.12579861560E+02 0.12788637900E+02 0.12635255958E+02 0.12222161904E+02
 0.11561472487E+02 0.10625873979E+02 0.94710964657E+01 0.82108269050E+01 0.88009363124E+01
 0.73746784081E+01 0.60985090728E+01 0.50693707801E+01 0.43153007535E+01 0.38216951478E+01
 0.35618544830E+01 0.35169683751E+01 0.36856280179E+01 0.40865069674E+01 0.47537475108E+01
 0.57206796108E+01 0.69887435526E+01 0.84893528950E+01 0.10064187965E+02 0.11493290601E+02
 0.12515454285E+02 0.12973823718E+02 0.13002650580E+02 0.12853238388E+02 0.12635797177E+02
 0.12227395164E+02 0.11428408909E+02 0.10217112791E+02 0.10838901400E+02 0.92763693213E+01
 0.76722274728E+01 0.62365802456E+01 0.50897092161E+01 0.42618781649E+01 0.37306375172E+01
 0.34604306409E+01 0.34278732648E+01 0.36337816612E+01 0.41051926294E+01 0.48856879080E+01
 0.60092550634E+01 0.74574384788E+01 0.91161998425E+01 0.10769085911E+02 0.12069281975E+02
 0.12658260557E+02 0.12599853913E+02 0.12325617030E+02 0.12255516762E+02 0.12436643139E+02
 0.12507130372E+02 0.12018250692E+02 0.12344349327E+02 0.11278923070E+02 0.95962151561E+01
 0.78374686113E+01 0.62744825855E+01 0.50454170850E+01 0.41775507330E+01 0.36381865215E+01
 0.33834869136E+01 0.33882247030E+01 0.36587491843E+01 0.42320468973E+01 0.51581170322E+01
 0.64612094221E+01 0.80848675770E+01 0.98499641556E+01 0.11407080464E+02 0.12168220550E+02
 0.11922282835E+02 0.11113878294E+02 0.10537069900E+02 0.10736915421E+02 0.11584459876E+02
 0.12369832561E+02 0.11921854471E+02 0.12430687488E+02 0.11508371359E+02 0.97333683285E+01
 0.78548332749E+01 0.62081865579E+01 0.49399980846E+01 0.40688297087E+01 0.35506312066E+01
 0.33355247419E+01 0.34002484865E+01 0.37599606061E+01 0.44618481553E+01 0.55567812556E+01
 0.70458798323E+01 0.88154265093E+01 0.10586142825E+02 0.11690381993E+02 0.11485258171E+02
 0.10099514491E+02 0.84675148864E+01 0.77405884284E+01 0.84829550726E+01 0.10256507152E+02
 0.88014900528E+01 0.11364151213E+02 0.12350767207E+02 0.11529381282E+02 0.96779356092E+01
 0.77232789301E+01 0.60438389743E+01 0.47824166511E+01 0.39438492219E+01 0.34735131124E+01
 0.33192304342E+01 0.34638799558E+01 0.39338650480E+01 0.47850145658E+01 0.60612503427E+01
 0.77257716434E+01 0.95907784796E+01 0.11146233059E+02 0.11419686330E+02 0.99379584710E+01
 0.73059241689E+01 0.49809344100E+01 0.43829472801E+01 0.59445986284E+01 0.37169800076E+01
 0.76288567171E+01 0.10913757022E+02 0.12185388029E+02 0.11359836784E+02 0.94382117263E+01
 0.74563967356E+01 0.57968040196E+01 0.45858734982E+01 0.38116192593E+01 0.34114888487E+01
 0.33355252091E+01 0.35765420752E+01 0.41732960133E+01 0.51868604665E+01 0.66449092198E+01
 0.84591808625E+01 0.10335369865E+02 0.11399343790E+02 0.10581351989E+02 0.77310876107E+01
 0.39968550171E+01 0.12957372320E+01 0.11552475556E+01 -.11994046315E+01 0.23590061921E+01
 0.70715059319E+01 0.10720040439E+02 0.11983376518E+02 0.11020222025E+02 0.90386840055E+01
 0.70799745857E+01 0.54893779026E+01 0.43663051889E+01 0.36813551822E+01 0.33681205342E+01
 0.33834678711E+01 0.37329000110E+01 0.44669186850E+01 0.56468456001E+01 0.72749477307E+01
 0.92025376050E+01 0.10956693188E+02 0.11337637049E+02 0.93704703866E+01 0.53246422531E+01
 0.86460517584E+00 -.17885263921E+01 0.14896934576E+01 0.23595179295E+01 0.54799103883E+01
 0.91879136923E+01 0.11662209118E+02 0.12005526503E+02 0.10608492270E+02 0.86106019155E+01
 0.67522560028E+01 0.52818688311E+01 0.42616978075E+01 0.36505999696E+01 0.33846259242E+01
 0.34275865824E+01 0.37906460424E+01 0.45254683252E+01 0.56893045712E+01 0.72787940658E+01
 0.91479458287E+01 0.10876238688E+02 0.11417878992E+02 0.99433567973E+01 0.67464424023E+01
 0.33079021765E+01 0.22161333203E+01 0.79293378850E+00 0.22163921960E+01 0.56951857590E+01
 0.93755989740E+01 0.11517704843E+02 0.11486244160E+02 0.99107800084E+01 0.79551960373E+01
 0.62144677575E+01 0.48871678550E+01 0.40051159919E+01 0.35166420658E+01 0.33619557231E+01
 0.35166165846E+01 0.40050422003E+01 0.48871009415E+01 0.62144537516E+01 0.79551449099E+01
 0.99106317054E+01 0.11486158811E+02 0.11517816447E+02 0.93757127723E+01 0.56950404129E+01
 0.54798386654E+01 0.23593049595E+01 0.14897098380E+01 0.33081725112E+01 0.67466467906E+01
 0.99433578685E+01 0.11417855615E+02 0.10876321593E+02 0.91480532434E+01 0.72788532032E+01
 0.56893574204E+01 0.45255256696E+01 0.37906664016E+01 0.34275863590E+01 0.33846311111E+01
 0.36505506064E+01 0.42615759397E+01 0.52817971298E+01 0.67522871877E+01 0.86105732880E+01
 0.10608319175E+02 0.12005429730E+02 0.11662370700E+02 0.91881118404E+01 0.95187439762E+01
 0.62036170116E+01 0.37172548839E+01 0.33967638913E+01 0.53252379124E+01 0.82952340496E+01
 0.10627144457E+02 0.11232145137E+02 0.10170177882E+02 0.83725750710E+01 0.66259117397E+01
 0.52099443142E+01 0.42178547136E+01 0.36297258256E+01 0.33880001086E+01 0.34517309499E+01
 0.38224769108E+01 0.45452318725E+01 0.56835257312E+01 0.72638983655E+01 0.91954272318E+01
 0.11190532614E+02 0.12445676612E+02 0.11943671609E+02 0.12365851177E+02 0.10322554259E+02
 0.76937045417E+01 0.59448197926E+01 0.60240275598E+01 0.77315248135E+01 0.98840667082E+01
 0.11139218410E+02 0.10857575725E+02 0.93956161253E+01 0.76271639898E+01 0.60333255890E+01
 0.48021058925E+01 0.39796843589E+01 0.35301813193E+01 0.34001392663E+01 0.35603082774E+01
 0.40230275523E+01 0.48377714887E+01 0.60625897499E+01 0.77074210940E+01 0.96589881539E+01
 0.11613086665E+02 0.12797121607E+02 0.13015539485E+02 0.12833167234E+02 0.11381666901E+02
 0.95573472412E+01 0.84831216931E+01 0.87318168062E+01 0.99381786830E+01 0.11092290340E+02
 0.11275416939E+02 0.10272343633E+02 0.86208990355E+01 0.69494538680E+01 0.55306295418E+01
 0.44848371961E+01 0.38214947644E+01 0.34965567668E+01 0.34638942675E+01 0.37052994429E+01
 0.42404819883E+01 0.51185669398E+01 0.63880552800E+01 0.80426686035E+01 0.99559653273E+01
 0.11834871832E+02 0.11821480424E+02 0.13031762333E+02 0.13182113761E+02 0.12380050804E+02
 0.11310971554E+02 0.10736999473E+02 0.10929361877E+02 0.11485244911E+02 0.11667851253E+02
 0.10986352231E+02 0.95546172355E+01 0.79038068434E+01 0.63734283816E+01 0.51407435145E+01
 0.42710997638E+01 0.37493968268E+01 0.35303359957E+01 0.35766993310E+01 0.38792454819E+01
 0.44609542067E+01 0.53661348709E+01 0.66312892121E+01 0.82367248849E+01 0.10053593073E+02
 0.99377651138E+01 0.11556599549E+02 0.12780580095E+02 0.13244718627E+02 0.13014097060E+02
 0.12536345070E+02 0.12255499677E+02 0.12244875964E+02 0.12168014137E+02 0.11593174921E+02
 0.10387695207E+02 0.88423637716E+01 0.72886413592E+01 0.59295336231E+01 0.48809836205E+01
 0.41690606628E+01 0.37658696603E+01 0.36300055241E+01 0.37331885985E+01 0.40721770578E+01
 0.46691263599E+01 0.55602248119E+01 0.67696584904E+01 0.82691204575E+01 0.81355354412E+01
 0.96162959567E+01 0.11055655382E+02 0.12236394072E+02 0.12917813592E+02 0.13097603597E+02
 0.13007465389E+02 0.12853131353E+02 0.12611224435E+02 0.12068965287E+02 0.11065624600E+02
 0.97038856547E+01 0.82236651525E+01 0.68206741971E+01 0.56440162046E+01 0.47638917999E+01
 0.41829210941E+01 0.38700753549E+01 0.37909815528E+01 0.39250554531E+01 0.42717857518E+01
 0.48492429861E+01 0.56840589039E+01 0.67898999226E+01 0.66902040110E+01 0.78486517463E+01
 0.91182854154E+01 0.10364614654E+02 0.11439232521E+02 0.12209952925E+02 0.12622229682E+02
 0.12745313070E+02 0.12635098350E+02 0.12245501657E+02 0.11492990206E+02 0.10402731760E+02
 0.91069717374E+01 0.77666868021E+01 0.65410322997E+01 0.55375564659E+01 0.47973941788E+01
 0.43132683575E+01 0.40579512452E+01 0.40054127068E+01 0.41409067738E+01 0.44639048986E+01
 0.49866197253E+01 0.57265912125E+01 0.56839507286E+01 0.64804172745E+01 0.74362343650E+01
 0.84899364244E+01 0.95446846847E+01 0.10492784995E+02 0.11247000831E+02 0.11753356373E+02
 0.11986625980E+02 0.11926529839E+02 0.11540474544E+02 0.10826935879E+02 0.98398480078E+01
 0.86930364931E+01 0.75309302768E+01 0.64815258265E+01 0.56237575202E+01 0.49844687378E+01
 0.45567686790E+01 0.43217114204E+01 0.42618695082E+01 0.43666027969E+01 0.46336873405E+01
 0.50693225194E+01 0.50896625594E+01 0.55600457456E+01 0.61805333792E+01 0.69367344545E+01
 0.77876158140E+01 0.86675527698E+01 0.95006968344E+01 0.10217446473E+02 0.10760678311E+02
 0.11080224429E+02 0.11128256975E+02 0.10869652212E+02 0.10305840038E+02 0.94931297056E+01
 0.85364181858E+01 0.75580026123E+01 0.66607816077E+01 0.59073592912E+01 0.53218604898E+01
 0.49050851135E+01 0.46492253641E+01 0.45453953006E+01 0.45860572142E+01 0.47669986653E+01
 0.48521450787E+01 0.50453941425E+01 0.53659827374E+01 0.58175472045E+01 0.63936160834E+01
 0.70702000904E+01 0.78063816039E+01 0.85514373216E+01 0.92512507117E+01 0.98485487245E+01
 0.10280225996E+02 0.10481882870E+02 0.10405560265E+02 0.10043278413E+02 0.94393930046E+01
 0.86801899184E+01 0.78656658807E+01 0.70808697459E+01 0.63818449224E+01 0.57982401749E+01
 0.53436001872E+01 0.50233982062E+01 0.48377567977E+01 0.47824364570E+01 0.49398839039E+01
 0.48813938476E+01 0.49400186100E+01 0.51184909687E+01 0.54218065487E+01 0.58498613876E+01
 0.63920708477E+01 0.70270169132E+01 0.77243432574E+01 0.84436559705E+01 0.91294789328E+01
 0.97088898630E+01 0.10101065923E+02 0.10240260495E+02 0.10100989573E+02 0.97088806833E+01
 0.91295683111E+01 0.84436935990E+01 0.77242401150E+01 0.70269026439E+01 0.63921071703E+01
 0.58500036590E+01 0.54218645278E+01 0.51183876899E+01 0.53658725540E+01 0.50451800857E+01
 0.48520199518E+01 0.47824794326E+01 0.48378510242E+01 0.50233795399E+01 0.53434735554E+01
 0.57981779884E+01 0.63819381055E+01 0.70809859985E+01 0.78656450556E+01 0.86800895131E+01
 0.94393838820E+01 0.10043360467E+02 0.10405575140E+02 0.10481799747E+02 0.10280202615E+02
 0.98486560025E+01 0.92513330263E+01 0.85513534080E+01 0.78062349495E+01 0.70701902756E+01
 0.63937480458E+01 0.58176254472E+01 0.61805927385E+01 0.55599478297E+01 0.50894238265E+01
 0.47667803504E+01 0.45860034203E+01 0.45454735226E+01 0.46492595474E+01 0.49049944239E+01
 0.53217771139E+01 0.59074150016E+01 0.66608827783E+01 0.75579754383E+01 0.85363017633E+01
 0.94931106564E+01 0.10305933433E+02 0.10869683291E+02 0.11128175234E+02 0.11080196835E+02
 0.10760794650E+02 0.10217549158E+02 0.95006224662E+01 0.86673811638E+01 0.77875453635E+01
 0.69368046640E+01 0.74362108745E+01 0.64804499074E+01 0.56838943606E+01 0.50691003628E+01
 0.46334087336E+01 0.43664797552E+01 0.42619496214E+01 0.43217918551E+01 0.45566890127E+01
 0.49843490690E+01 0.56237781897E+01 0.64816114999E+01 0.75308864797E+01 0.86929028467E+01
 0.98398365921E+01 0.10827058346E+02 0.11540522029E+02 0.11926430492E+02 0.11986557277E+02
 0.11753436004E+02 0.11247092867E+02 0.10492719016E+02 0.95444955709E+01 0.84897885664E+01
 0.91180894317E+01 0.78485326538E+01 0.66901968325E+01 0.57265858329E+01 0.49864564035E+01
 0.44636240257E+01 0.41407550312E+01 0.40054919855E+01 0.40580456385E+01 0.43131815636E+01
 0.47972501180E+01 0.55375563627E+01 0.65411003502E+01 0.77666306937E+01 0.91068476537E+01
 0.10402744924E+02 0.11493118361E+02 0.12245516378E+02 0.12634942248E+02 0.12745171628E+02
 0.12622226095E+02 0.12209991560E+02 0.11439173962E+02 0.10364444625E+02 0.11055555276E+02
 0.96160765282E+01 0.81353255788E+01 0.67898633153E+01 0.56841244457E+01 0.48491631909E+01
 0.42715343921E+01 0.39249055577E+01 0.37910685066E+01 0.38701706133E+01 0.41828167454E+01
 0.47637324033E+01 0.56440147718E+01 0.68207454278E+01 0.82236152657E+01 0.97037704137E+01
 0.11065623666E+02 0.12069038490E+02 0.12611170518E+02 0.12852907946E+02 0.13007229889E+02
 0.13097480983E+02 0.12917789850E+02 0.12236382171E+02 0.12780629677E+02 0.11556588813E+02
 0.99375574249E+01 0.82688644253E+01 0.67696148750E+01 0.55603503388E+01 0.46691233754E+01
 0.40719857271E+01 0.37330786746E+01 0.36301006210E+01 0.37659408220E+01 0.41689394544E+01
 0.48808428725E+01 0.59295573589E+01 0.72887117899E+01 0.88423014110E+01 0.10387562284E+02
 0.11593116734E+02 0.12167985977E+02 0.12244732368E+02 0.12255225666E+02 0.12536047345E+02