   2   2   0   0
  0.1529437E+02  0.3691622E-09  0.3691622E-09  0.3691622E-09  0.5000000E-15
  1.000000000000000E-004
  CAR 
 unknown system                          
     23.01839665     -6.61501268  301      9.14309497      1.00000000
     -6.615  0.0000E+00  0.0000E+00
     -6.516  0.0000E+00  0.0000E+00
     -6.417  0.0000E+00  0.0000E+00
     -6.319  0.0000E+00  0.0000E+00
     -6.220  0.0000E+00  0.0000E+00
     -6.121  0.0000E+00  0.0000E+00
     -6.022  0.0000E+00  0.0000E+00
     -5.924  0.0000E+00  0.0000E+00
     -5.825  0.0000E+00  0.0000E+00
     -5.726  0.3700E-17  0.3655E-18
     -5.627  0.7579E-15  0.7523E-16
     -5.528  0.9705E-13  0.9661E-14
     -5.430  0.7703E-11  0.7706E-12
     -5.331  0.3800E-09  0.3831E-10
     -5.232  0.1170E-07  0.1194E-08
     -5.133  0.2262E-06  0.2354E-07
     -5.035  0.2779E-05  0.2980E-06
     -4.936  0.2211E-04  0.2482E-05
     -4.837  0.1176E-03  0.1410E-04
     -4.738  0.4376E-03  0.5733E-04
     -4.639  0.1204E-02  0.1763E-03
     -4.541  0.2596E-02  0.4328E-03
     -4.442  0.4582E-02  0.8853E-03
     -4.343  0.6678E-02  0.1545E-02
     -4.244  0.8098E-02  0.2345E-02
     -4.146  0.9198E-02  0.3253E-02
     -4.047  0.1151E-01  0.4391E-02
     -3.948  0.1414E-01  0.5787E-02
     -3.849  0.1400E-01  0.7170E-02
     -3.750  0.1131E-01  0.8287E-02
     -3.652  0.9366E-02  0.9212E-02
     -3.553  0.1058E-01  0.1026E-01
     -3.454  0.1516E-01  0.1175E-01
     -3.355  0.2044E-01  0.1377E-01
     -3.257  0.2308E-01  0.1605E-01
     -3.158  0.2278E-01  0.1830E-01
     -3.059  0.2062E-01  0.2034E-01
     -2.960  0.1784E-01  0.2210E-01
     -2.861  0.1659E-01  0.2374E-01
     -2.763  0.1712E-01  0.2543E-01
     -2.664  0.1771E-01  0.2718E-01
     -2.565  0.1831E-01  0.2899E-01
     -2.466  0.1948E-01  0.3091E-01
     -2.368  0.2142E-01  0.3303E-01
     -2.269  0.2517E-01  0.3552E-01
     -2.170  0.2933E-01  0.3841E-01
     -2.071  0.2963E-01  0.4134E-01
     -1.972  0.2518E-01  0.4383E-01
     -1.874  0.2149E-01  0.4595E-01
     -1.775  0.2353E-01  0.4827E-01
     -1.676  0.2798E-01  0.5104E-01
     -1.577  0.2809E-01  0.5381E-01
     -1.479  0.2393E-01  0.5618E-01
     -1.380  0.2141E-01  0.5829E-01
     -1.281  0.2395E-01  0.6066E-01
     -1.182  0.3042E-01  0.6366E-01
     -1.083  0.3752E-01  0.6737E-01
     -0.985  0.4089E-01  0.7141E-01
     -0.886  0.3771E-01  0.7513E-01
     -0.787  0.3010E-01  0.7810E-01
     -0.688  0.2414E-01  0.8049E-01
     -0.590  0.2323E-01  0.8278E-01
     -0.491  0.2483E-01  0.8524E-01
     -0.392  0.2534E-01  0.8774E-01
     -0.293  0.2412E-01  0.9012E-01
     -0.194  0.2410E-01  0.9250E-01
     -0.096  0.2928E-01  0.9539E-01
      0.003  0.3892E-01  0.9924E-01
      0.102  0.4720E-01  0.1039E+00
      0.201  0.4960E-01  0.1088E+00
      0.299  0.4663E-01  0.1134E+00
      0.398  0.4197E-01  0.1176E+00
      0.497  0.3869E-01  0.1214E+00
      0.596  0.3752E-01  0.1251E+00
      0.695  0.3806E-01  0.1288E+00
      0.793  0.3911E-01  0.1327E+00
      0.892  0.3957E-01  0.1366E+00
      0.991  0.4042E-01  0.1406E+00
      1.090  0.4116E-01  0.1447E+00
      1.188  0.3790E-01  0.1484E+00
      1.287  0.2972E-01  0.1513E+00
      1.386  0.2220E-01  0.1535E+00
      1.485  0.2238E-01  0.1558E+00
      1.584  0.3000E-01  0.1587E+00
      1.682  0.3700E-01  0.1624E+00
      1.781  0.3809E-01  0.1661E+00
      1.880  0.3641E-01  0.1697E+00
      1.979  0.3781E-01  0.1735E+00
      2.077  0.4400E-01  0.1778E+00
      2.176  0.5101E-01  0.1828E+00
      2.275  0.5451E-01  0.1882E+00
      2.374  0.5375E-01  0.1935E+00
      2.473  0.4697E-01  0.1982E+00
      2.571  0.3329E-01  0.2015E+00
      2.670  0.2050E-01  0.2035E+00
      2.769  0.1730E-01  0.2052E+00
      2.868  0.2180E-01  0.2074E+00
      2.966  0.2617E-01  0.2099E+00
      3.065  0.2907E-01  0.2128E+00
      3.164  0.3645E-01  0.2164E+00
      3.263  0.5096E-01  0.2214E+00
      3.362  0.6400E-01  0.2278E+00
      3.460  0.6291E-01  0.2340E+00
      3.559  0.4875E-01  0.2388E+00
      3.658  0.3522E-01  0.2423E+00
      3.757  0.3308E-01  0.2455E+00
      3.855  0.4368E-01  0.2499E+00
      3.954  0.5766E-01  0.2556E+00
      4.053  0.6210E-01  0.2617E+00
      4.152  0.5370E-01  0.2670E+00
      4.251  0.4055E-01  0.2710E+00
      4.349  0.3162E-01  0.2741E+00
      4.448  0.2804E-01  0.2769E+00
      4.547  0.2680E-01  0.2795E+00
      4.646  0.2817E-01  0.2823E+00
      4.744  0.3429E-01  0.2857E+00
      4.843  0.4578E-01  0.2902E+00
      4.942  0.5859E-01  0.2960E+00
      5.041  0.6406E-01  0.3023E+00
      5.140  0.6043E-01  0.3083E+00
      5.238  0.5698E-01  0.3139E+00
      5.337  0.5933E-01  0.3198E+00
      5.436  0.6216E-01  0.3259E+00
      5.535  0.6110E-01  0.3320E+00
      5.633  0.5814E-01  0.3377E+00
      5.732  0.5220E-01  0.3429E+00
      5.831  0.4178E-01  0.3470E+00
      5.930  0.3352E-01  0.3503E+00
      6.029  0.3322E-01  0.3536E+00
      6.127  0.4048E-01  0.3576E+00
      6.226  0.5607E-01  0.3631E+00
      6.325  0.7571E-01  0.3706E+00
      6.424  0.8481E-01  0.3790E+00
      6.522  0.7573E-01  0.3865E+00
      6.621  0.5923E-01  0.3923E+00
      6.720  0.5205E-01  0.3975E+00
      6.819  0.5846E-01  0.4032E+00
      6.918  0.6848E-01  0.4100E+00
      7.016  0.7182E-01  0.4171E+00
      7.115  0.6778E-01  0.4238E+00
      7.214  0.6122E-01  0.4298E+00
      7.313  0.5454E-01  0.4352E+00
      7.411  0.5031E-01  0.4402E+00
      7.510  0.5259E-01  0.4454E+00
      7.609  0.5825E-01  0.4511E+00
      7.708  0.5949E-01  0.4570E+00
      7.807  0.5555E-01  0.4625E+00
      7.905  0.5158E-01  0.4676E+00
      8.004  0.5224E-01  0.4728E+00
      8.103  0.6125E-01  0.4788E+00
      8.202  0.7348E-01  0.4861E+00
      8.300  0.7319E-01  0.4933E+00
      8.399  0.5706E-01  0.4989E+00
      8.498  0.4165E-01  0.5031E+00
      8.597  0.3929E-01  0.5069E+00
      8.696  0.4591E-01  0.5115E+00
      8.794  0.5232E-01  0.5166E+00
      8.893  0.5393E-01  0.5220E+00
      8.992  0.5057E-01  0.5270E+00
      9.091  0.4404E-01  0.5313E+00
      9.189  0.3740E-01  0.5350E+00
      9.288  0.3423E-01  0.5384E+00
      9.387  0.3506E-01  0.5418E+00
      9.486  0.3825E-01  0.5456E+00
      9.585  0.4488E-01  0.5501E+00
      9.683  0.5546E-01  0.5555E+00
      9.782  0.6461E-01  0.5619E+00
      9.881  0.6714E-01  0.5685E+00
      9.980  0.6756E-01  0.5752E+00
     10.078  0.7057E-01  0.5822E+00
     10.177  0.6831E-01  0.5889E+00
     10.276  0.5351E-01  0.5942E+00
     10.375  0.3444E-01  0.5976E+00
     10.474  0.2509E-01  0.6001E+00
     10.572  0.2979E-01  0.6030E+00
     10.671  0.4182E-01  0.6072E+00
     10.770  0.5014E-01  0.6121E+00
     10.869  0.4953E-01  0.6170E+00
     10.967  0.4486E-01  0.6215E+00
     11.066  0.4271E-01  0.6257E+00
     11.165  0.4474E-01  0.6301E+00
     11.264  0.4895E-01  0.6349E+00
     11.363  0.5258E-01  0.6401E+00
     11.461  0.5441E-01  0.6455E+00
     11.560  0.5569E-01  0.6510E+00
     11.659  0.5751E-01  0.6567E+00
     11.758  0.5799E-01  0.6624E+00
     11.856  0.5635E-01  0.6680E+00
     11.955  0.5576E-01  0.6735E+00
     12.054  0.5802E-01  0.6792E+00
     12.153  0.6161E-01  0.6853E+00
     12.252  0.6637E-01  0.6919E+00
     12.350  0.7526E-01  0.6993E+00
     12.449  0.8713E-01  0.7079E+00
     12.548  0.9284E-01  0.7171E+00
     12.647  0.8692E-01  0.7257E+00
     12.745  0.7563E-01  0.7331E+00
     12.844  0.6828E-01  0.7399E+00
     12.943  0.6943E-01  0.7467E+00
     13.042  0.7661E-01  0.7543E+00
     13.141  0.7966E-01  0.7622E+00
     13.239  0.7182E-01  0.7693E+00
     13.338  0.6242E-01  0.7754E+00
     13.437  0.6354E-01  0.7817E+00
     13.536  0.7111E-01  0.7887E+00
     13.634  0.7327E-01  0.7960E+00
     13.733  0.6706E-01  0.8026E+00
     13.832  0.5867E-01  0.8084E+00
     13.931  0.5341E-01  0.8137E+00
     14.030  0.5155E-01  0.8187E+00
     14.128  0.5307E-01  0.8240E+00
     14.227  0.5884E-01  0.8298E+00
     14.326  0.6697E-01  0.8364E+00
     14.425  0.7341E-01  0.8437E+00
     14.523  0.7632E-01  0.8512E+00
     14.622  0.7562E-01  0.8587E+00
     14.721  0.7175E-01  0.8658E+00
     14.820  0.6739E-01  0.8724E+00
     14.919  0.6522E-01  0.8789E+00
     15.017  0.6576E-01  0.8854E+00
     15.116  0.6965E-01  0.8922E+00
     15.215  0.7569E-01  0.8997E+00
     15.314  0.7476E-01  0.9071E+00
     15.412  0.6092E-01  0.9131E+00
     15.511  0.4427E-01  0.9175E+00
     15.610  0.3768E-01  0.9212E+00
     15.709  0.4334E-01  0.9255E+00
     15.808  0.5673E-01  0.9311E+00
     15.906  0.7173E-01  0.9382E+00
     16.005  0.8132E-01  0.9462E+00
     16.104  0.7924E-01  0.9540E+00
     16.203  0.6399E-01  0.9604E+00
     16.301  0.4353E-01  0.9647E+00
     16.400  0.2977E-01  0.9676E+00
     16.499  0.2734E-01  0.9703E+00
     16.598  0.3266E-01  0.9735E+00
     16.697  0.3856E-01  0.9773E+00
     16.795  0.3862E-01  0.9812E+00
     16.894  0.3248E-01  0.9844E+00
     16.993  0.2748E-01  0.9871E+00
     17.092  0.3198E-01  0.9902E+00
     17.190  0.4537E-01  0.9947E+00
     17.289  0.5688E-01  0.1000E+01
     17.388  0.5577E-01  0.1006E+01
     17.487  0.4317E-01  0.1010E+01
     17.586  0.2990E-01  0.1013E+01
     17.684  0.2212E-01  0.1015E+01
     17.783  0.1799E-01  0.1017E+01
     17.882  0.1626E-01  0.1019E+01
     17.981  0.1794E-01  0.1020E+01
     18.079  0.2203E-01  0.1023E+01
     18.178  0.2596E-01  0.1025E+01
     18.277  0.2960E-01  0.1028E+01
     18.376  0.3337E-01  0.1031E+01
     18.475  0.3538E-01  0.1035E+01
     18.573  0.3592E-01  0.1038E+01
     18.672  0.3704E-01  0.1042E+01
     18.771  0.3628E-01  0.1046E+01
     18.870  0.2986E-01  0.1049E+01
     18.968  0.1995E-01  0.1051E+01
     19.067  0.1290E-01  0.1052E+01
     19.166  0.1232E-01  0.1053E+01
     19.265  0.1554E-01  0.1055E+01
     19.364  0.1669E-01  0.1056E+01
     19.462  0.1354E-01  0.1058E+01
     19.561  0.9319E-02  0.1059E+01
     19.660  0.7020E-02  0.1059E+01
     19.759  0.6833E-02  0.1060E+01
     19.857  0.8533E-02  0.1061E+01
     19.956  0.1117E-01  0.1062E+01
     20.055  0.1224E-01  0.1063E+01
     20.154  0.1032E-01  0.1064E+01
     20.253  0.6685E-02  0.1065E+01
     20.351  0.3357E-02  0.1065E+01
     20.450  0.1296E-02  0.1065E+01
     20.549  0.4912E-03  0.1065E+01
     20.648  0.6390E-03  0.1065E+01
     20.747  0.1500E-02  0.1065E+01
     20.845  0.2630E-02  0.1066E+01
     20.944  0.3312E-02  0.1066E+01
     21.043  0.3095E-02  0.1066E+01
     21.142  0.2122E-02  0.1067E+01
     21.240  0.1017E-02  0.1067E+01
     21.339  0.3246E-03  0.1067E+01
     21.438  0.6678E-04  0.1067E+01
     21.537  0.8707E-05  0.1067E+01
     21.636  0.7129E-06  0.1067E+01
     21.734  0.3648E-07  0.1067E+01
     21.833  0.1163E-08  0.1067E+01
     21.932  0.2306E-10  0.1067E+01
     22.031  0.2838E-12  0.1067E+01
     22.129  0.2166E-14  0.1067E+01
     22.228  0.1028E-16  0.1067E+01
     22.327  0.0000E+00  0.1067E+01
     22.426  0.0000E+00  0.1067E+01
     22.525  0.0000E+00  0.1067E+01
     22.623  0.0000E+00  0.1067E+01
     22.722  0.0000E+00  0.1067E+01
     22.821  0.0000E+00  0.1067E+01
     22.920  0.0000E+00  0.1067E+01
     23.018  0.0000E+00  0.1067E+01
