    2    2   15    1
  0.1529437E+02  0.3691622E-09  0.3691622E-09  0.3691622E-09  0.5000000E-15
  1.000000000000000E-004
  CAR 
 unknown system                          
      8     75      8
 
  0.0000000E+00  0.0000000E+00  0.0000000E+00  0.1371742E-02
    1       -4.615013   1.000000
    2        6.202089   1.000000
    3        6.308164   1.000000
    4        6.308192   1.000000
    5       10.656878   0.000000
    6       17.075612   0.000000
    7       17.379528   0.000000
    8       17.379565   0.000000
 
  0.1111111E+00 -0.9377698E-17  0.9377698E-17  0.1097394E-01
    1       -4.266445   1.000000
    2        5.321247   1.000000
    3        6.258005   1.000000
    4        7.807585   1.000000
    5       11.371390   0.000000
    6       15.288391   0.000000
    7       16.076194   0.000000
    8       17.365085   0.000000
 
  0.2222222E+00  0.6918512E-17 -0.6918512E-17  0.1097394E-01
    1       -3.224451   1.000000
    2        5.030788   1.000000
    3        6.342193   1.000000
    4        9.649827   0.000170
    5       12.191341   0.000000
    6       12.984335   0.000000
    7       13.161945   0.000000
    8       15.212058   0.000000
 
  0.3333333E+00 -0.3591853E-16  0.3591853E-16  0.1097394E-01
    1       -1.502572   1.000000
    2        5.368720   1.000000
    3        6.819726   1.000000
    4        7.498208   1.000000
    5       10.308106   0.000000
    6       12.772045   0.000000
    7       13.071810   0.000000
    8       14.056449   0.000000
 
  0.4444444E+00  0.1383702E-16 -0.1383702E-16  0.1097394E-01
    1        0.866883   1.000000
    2        3.912607   1.000000
    3        6.392913   1.000000
    4        7.592520   1.000000
    5        8.216229   1.000000
    6       10.862760   0.000000
    7       13.577975   0.000000
    8       14.635302   0.000000
 
  0.1111111E+00  0.1111111E+00  0.1875540E-16  0.1097394E-01
    1       -3.370563   1.000000
    2        5.348876   1.000000
    3        7.366623   1.000000
    4        8.572908   0.999972
    5       12.414778   0.000000
    6       12.648445   0.000000
    7       13.077040   0.000000
    8       15.727443   0.000000
 
  0.2222222E+00  0.1111111E+00 -0.2719765E-16  0.2194787E-01
    1       -1.791465   1.000000
    2        5.628565   1.000000
    3        7.914219   1.000000
    4        8.337135   1.000000
    5        9.795164   0.000002
    6       11.433285   0.000000
    7       13.125048   0.000000
    8       14.120628   0.000000
 
  0.3333333E+00  0.1111111E+00  0.2951719E-16  0.2194787E-01
    1        0.446225   1.000000
    2        4.721211   1.000000
    3        6.502727   1.000000
    4        6.948635   1.000000
    5        9.073811   0.687901
    6       11.229455   0.000000
    7       12.689745   0.000000
    8       14.607931   0.000000
 
  0.4444444E+00  0.1111111E+00  0.7517205E-17  0.2194787E-01
    1        1.557769   1.000000
    2        3.366466   1.000000
    3        5.246347   1.000000
    4        7.482735   1.000000
    5        8.723129   0.998509
    6       11.585696   0.000000
    7       12.479018   0.000000
    8       15.908822   0.000000
 
 -0.4444444E+00  0.1111111E+00  0.4279628E-16  0.2194787E-01
    1       -0.927139   1.000000
    2        4.007093   1.000000
    3        6.716891   1.000000
    4        7.033975   1.000000
    5       10.146483   0.000000
    6       12.457903   0.000000
    7       13.660161   0.000000
    8       14.538624   0.000000
 
 -0.3333333E+00  0.1111111E+00 -0.1456430E-16  0.2194787E-01
    1       -2.787066   1.000000
    2        3.486147   1.000000
    3        6.359983   1.000000
    4       10.189701   0.000000
    5       11.982376   0.000000
    6       12.104521   0.000000
    7       14.020788   0.000000
    8       15.242457   0.000000
 
 -0.2222222E+00  0.1111111E+00  0.1629621E-16  0.2194787E-01
    1       -3.972839   1.000000
    2        3.601612   1.000000
    3        6.317306   1.000000
    4        8.944417   0.919969
    5       12.891704   0.000000
    6       13.522300   0.000000
    7       15.417586   0.000000
    8       16.702105   0.000000
 
 -0.1111111E+00  0.1111111E+00  0.7914115E-18  0.5486968E-02
    1       -4.467909   1.000000
    2        4.330491   1.000000
    3        6.445852   1.000000
    4        7.673326   1.000000
    5       11.556089   0.000000
    6       15.009077   0.000000
    7       16.393027   0.000000
    8       19.310215   0.000000
 
  0.2222222E+00  0.2222222E+00 -0.4159260E-16  0.1097394E-01
    1        0.305737   1.000000
    2        5.732854   1.000000
    3        5.789890   1.000000
    4        6.453243   1.000000
    5       10.003032   0.000000
    6       11.671796   0.000000
    7       12.661634   0.000000
    8       12.896526   0.000000
 
  0.3333333E+00  0.2222222E+00  0.4287781E-16  0.2194787E-01
    1        2.451674   1.000000
    2        3.115736   1.000000
    3        3.897410   1.000000
    4        7.533083   1.000000
    5        9.302745   0.129471
    6       10.863631   0.000000
    7       13.678152   0.000000
    8       15.722637   0.000000
 
  0.4444444E+00  0.2222222E+00  0.2087783E-16  0.2194787E-01
    1       -0.068720   1.000000
    2        2.441119   1.000000
    3        6.425254   1.000000
    4        7.604879   1.000000
    5        9.524307   0.003513
    6       11.379718   0.000000
    7       14.847142   0.000000
    8       15.874791   0.000000
 
 -0.4444444E+00  0.2222222E+00  0.6918512E-17  0.2194787E-01
    1       -2.061293   1.000000
    2        1.760854   1.000000
    3        6.979967   1.000000
    4        9.981376   0.000000
    5       10.688891   0.000000
    6       12.564959   0.000000
    7       13.460233   0.000000
    8       15.897676   0.000000
 
 -0.3333333E+00  0.2222222E+00 -0.1251408E-16  0.2194787E-01
    1       -3.387433   1.000000
    2        1.738204   1.000000
    3        6.849345   1.000000
    4        9.788861   0.000002
    5       11.717828   0.000000
    6       14.287822   0.000000
    7       15.267820   0.000000
    8       15.905073   0.000000
 
 -0.2222222E+00  0.2222222E+00  0.1582823E-17  0.5486968E-02
    1       -4.027353   1.000000
    2        2.368703   1.000000
    3        6.858962   1.000000
    4        8.562618   0.999980
    5       13.010002   0.000000
    6       13.794430   0.000000
    7       14.755674   0.000000
    8       19.228876   0.000000
 
  0.3333333E+00  0.3333333E+00  0.7183707E-16  0.1097394E-01
    1        1.052012   1.000000
    2        1.071093   1.000000
    3        6.300697   1.000000
    4        8.266297   1.000000
    5        8.854357   0.979409
    6       11.018363   0.000000
    7       15.547339   0.000000
    8       16.578912   0.000000
 
  0.4444444E+00  0.3333333E+00  0.4983708E-16  0.2194787E-01
    1       -1.052945   1.000000
    2        0.228298   1.000000
    3        7.899156   1.000000
    4        9.036214   0.775104
    5       10.112991   0.000000
    6       13.115422   0.000000
    7       13.441926   0.000000
    8       14.764975   0.000000
 
 -0.4444444E+00  0.3333333E+00  0.6553460E-16  0.2194787E-01
    1       -2.514092   1.000000
    2        0.065552   1.000000
    3        7.669968   1.000000
    4       10.113084   0.000000
    5       10.706946   0.000000
    6       13.041147   0.000000
    7       15.225097   0.000000
    8       16.062103   0.000000
 
 -0.3333333E+00  0.3333333E+00  0.1438931E-16  0.5486968E-02
    1       -3.296076   1.000000
    2        0.574641   1.000000
    3        7.548480   1.000000
    4        9.412184   0.028537
    5       11.254769   0.000000
    6       13.135981   0.000000
    7       16.605830   0.000000
    8       18.940132   0.000000
 
  0.4444444E+00  0.4444444E+00 -0.8318520E-16  0.1097394E-01
    1       -1.360120   1.000000
    2       -1.358965   1.000000
    3        8.748261   0.997380
    4        8.784232   0.994418
    5       11.683883   0.000000
    6       11.901014   0.000000
    7       15.075139   0.000000
    8       15.989971   0.000000
 
 -0.4444444E+00  0.4444444E+00  0.3165646E-17  0.5486968E-02
    1       -2.279050   1.000000
    2       -0.984497   1.000000
    3        8.510059   0.999996
    4        9.751608   0.000008
    5       10.435017   0.000000
    6       11.682235   0.000000
    7       18.799682   0.000000
    8       18.842721   0.000000
 
  0.1111111E+00  0.1111111E+00  0.1111111E+00  0.1097394E-01
    1       -2.932376   1.000000
    2        3.416576   1.000000
    3        7.756524   1.000000
    4        9.390635   0.040027
    5       11.970424   0.000000
    6       12.137816   0.000000
    7       14.582762   0.000000
    8       15.199388   0.000000
 
  0.2222222E+00  0.1111111E+00  0.1111111E+00  0.2194787E-01
    1       -1.213424   1.000000
    2        3.827948   1.000000
    3        7.638505   1.000000
    4        8.244649   1.000000
    5        9.741433   0.000012
    6       12.090010   0.000000
    7       13.893987   0.000000
    8       14.741255   0.000000
 
  0.3333333E+00  0.1111111E+00  0.1111111E+00  0.2194787E-01
    1        1.152306   1.000000
    2        4.142873   1.000000
    3        4.954905   1.000000
    4        6.538518   1.000000
    5       10.043788   0.000000
    6       12.413169   0.000000
    7       13.903337   0.000000
    8       14.425823   0.000000
 
 -0.1111111E+00  0.1111111E+00  0.1111111E+00  0.5486968E-02
    1       -4.321063   1.000000
    2        4.002747   1.000000
    3        5.360995   1.000000
    4        8.994733   0.852930
    5       12.171853   0.000000
    6       13.438067   0.000000
    7       17.625542   0.000000
    8       18.298449   0.000000
 
  0.2222222E+00  0.2222222E+00  0.1111111E+00  0.1097394E-01
    1        1.015169   1.000000
    2        4.661004   1.000000
    3        5.290074   1.000000
    4        5.385276   1.000000
    5       11.157741   0.000000
    6       13.317913   0.000000
    7       13.619750   0.000000
    8       13.775239   0.000000
 
  0.3333333E+00  0.2222222E+00  0.1111111E+00  0.2194787E-01
    1        2.124772   1.000000
    2        3.315868   1.000000
    3        4.050029   1.000000
    4        6.317932   1.000000
    5       10.996258   0.000000
    6       12.502484   0.000000
    7       14.326850   0.000000
    8       15.260434   0.000000
 
  0.4444444E+00  0.2222222E+00  0.1111111E+00  0.2194787E-01
    1       -0.350504   1.000000
    2        2.190880   1.000000
    3        7.315102   1.000000
    4        8.217055   1.000000
    5       10.187826   0.000000
    6       12.493322   0.000000
    7       12.992421   0.000000
    8       14.958039   0.000000
 
 -0.4444444E+00  0.2222222E+00  0.1111111E+00  0.1097394E-01
    1       -2.204947   1.000000
    2        1.640050   1.000000
    3        8.382872   1.000000
    4       10.024551   0.000000
    5       11.329230   0.000000
    6       11.725834   0.000000
    7       13.333309   0.000000
    8       14.266004   0.000000
 
 -0.2222222E+00  0.2222222E+00  0.1111111E+00  0.1097394E-01
    1       -3.881487   1.000000
    2        2.438202   1.000000
    3        5.374857   1.000000
    4       10.187883   0.000000
    5       11.483024   0.000000
    6       14.107945   0.000000
    7       16.341092   0.000000
    8       18.797382   0.000000
 
 -0.1111111E+00  0.2222222E+00  0.1111111E+00  0.1097394E-01
    1       -3.680334   1.000000
    2        3.339205   1.000000
    3        4.884329   1.000000
    4       10.672499   0.000000
    5       11.649788   0.000000
    6       13.864916   0.000000
    7       14.933915   0.000000
    8       17.629421   0.000000
 
  0.3333333E+00  0.3333333E+00  0.1111111E+00  0.1097394E-01
    1        0.786515   1.000000
    2        0.792882   1.000000
    3        7.199471   1.000000
    4        8.177204   1.000000
    5       10.837769   0.000000
    6       11.581542   0.000000
    7       13.638745   0.000000
    8       14.330145   0.000000
 
  0.4444444E+00  0.3333333E+00  0.1111111E+00  0.1097394E-01
    1       -1.193648   1.000000
    2        0.093938   1.000000
    3        9.198804   0.346819
    4       10.008722   0.000000
    5       11.207107   0.000000
    6       11.473344   0.000000
    7       12.686182   0.000000
    8       13.151080   0.000000
 
 -0.3333333E+00  0.3333333E+00  0.1111111E+00  0.1097394E-01
    1       -3.151680   1.000000
    2        0.695804   1.000000
    3        6.015589   1.000000
    4        9.730194   0.000017
    5       11.129651   0.000000
    6       14.793715   0.000000
    7       16.793623   0.000000
    8       18.599912   0.000000
 
 -0.2222222E+00  0.3333333E+00  0.1111111E+00  0.2194787E-01
    1       -3.097557   1.000000
    2        1.925293   1.000000
    3        4.951208   1.000000
    4        9.792257   0.000002
    5       11.836973   0.000000
    6       14.378520   0.000000
    7       16.014659   0.000000
    8       17.274802   0.000000
 
 -0.1111111E+00  0.3333333E+00  0.1111111E+00  0.1097394E-01
    1       -2.352595   1.000000
    2        3.338629   1.000000
    3        4.968466   1.000000
    4        9.838519   0.000000
    5       10.525646   0.000000
    6       13.516516   0.000000
    7       14.839931   0.000000
    8       15.607660   0.000000
 
 -0.4444444E+00  0.4444444E+00  0.1111111E+00  0.1097394E-01
    1       -2.137473   1.000000
    2       -0.848488   1.000000
    3        6.975395   1.000000
    4        8.216764   1.000000
    5       12.161189   0.000000
    6       13.382036   0.000000
    7       18.294260   0.000000
    8       18.392099   0.000000
 
 -0.3333333E+00  0.4444444E+00  0.1111111E+00  0.2194787E-01
    1       -2.228728   1.000000
    2        0.321058   1.000000
    3        5.709384   1.000000
    4        8.171533   1.000000
    5       12.578342   0.000000
    6       14.175291   0.000000
    7       16.112796   0.000000
    8       17.276846   0.000000
 
 -0.2222222E+00  0.4444444E+00  0.1111111E+00  0.2194787E-01
    1       -1.632488   1.000000
    2        2.078976   1.000000
    3        5.131025   1.000000
    4        8.635277   0.999835
    5        9.629578   0.000291
    6       14.512683   0.000000
    7       14.998823   0.000000
    8       17.128028   0.000000
 
 -0.1111111E+00  0.4444444E+00  0.1111111E+00  0.1097394E-01
    1       -0.357914   1.000000
    2        3.974666   1.000000
    3        5.648111   1.000000
    4        6.224396   1.000000
    5        9.586595   0.000856
    6       12.324331   0.000000
    7       13.746677   0.000000
    8       16.224456   0.000000
 
 -0.4444444E+00 -0.4444444E+00  0.1111111E+00  0.1097394E-01
    1       -1.085032   1.000000
    2       -1.081600   1.000000
    3        6.793077   1.000000
    4        6.803121   1.000000
    5       12.869472   0.000000
    6       14.296215   0.000000
    7       15.428031   0.000000
    8       17.258730   0.000000
 
 -0.3333333E+00 -0.4444444E+00  0.1111111E+00  0.2194787E-01
    1       -0.634686   1.000000
    2        0.622410   1.000000
    3        6.004560   1.000000
    4        7.206048   1.000000
    5        9.356084   0.066026
    6       14.508856   0.000000
    7       15.852703   0.000000
    8       17.181419   0.000000
 
 -0.2222222E+00 -0.4444444E+00  0.1111111E+00  0.2194787E-01
    1        0.488599   1.000000
    2        2.887675   1.000000
    3        5.698006   1.000000
    4        6.037898   1.000000
    5        8.218517   1.000000
    6       12.300135   0.000000
    7       15.025263   0.000000
    8       17.328323   0.000000
 
 -0.1111111E+00 -0.4444444E+00  0.1111111E+00  0.1097394E-01
    1        2.169023   1.000000
    2        2.895217   1.000000
    3        5.376046   1.000000
    4        6.855358   1.000000
    5        8.858102   0.978058
    6       11.162661   0.000000
    7       11.803601   0.000000
    8       16.657201   0.000000
 
 -0.3333333E+00 -0.3333333E+00  0.1111111E+00  0.1097394E-01
    1        1.573830   1.000000
    2        1.608571   1.000000
    3        5.620809   1.000000
    4        6.869339   1.000000
    5        7.033520   1.000000
    6       12.222319   0.000000
    7       16.604942   0.000000
    8       16.826400   0.000000
 
 -0.2222222E+00 -0.3333333E+00  0.1111111E+00  0.2194787E-01
    1        2.387859   1.000000
    2        3.337180   1.000000
    3        4.441770   1.000000
    4        7.229130   1.000000
    5        8.202957   1.000000
    6       10.725103   0.000000
    7       13.155656   0.000000
    8       15.266241   0.000000
 
 -0.1111111E+00 -0.3333333E+00  0.1111111E+00  0.1097394E-01
    1        0.019972   1.000000
    2        5.514816   1.000000
    3        7.138928   1.000000
    4        8.081560   1.000000
    5        8.117446   1.000000
    6       11.016731   0.000000
    7       11.313873   0.000000
    8       13.643685   0.000000
 
 -0.2222222E+00 -0.2222222E+00  0.1111111E+00  0.1097394E-01
    1       -0.122089   1.000000
    2        6.464834   1.000000
    3        6.504070   1.000000
    4        7.825755   1.000000
    5        8.871947   0.972401
    6       10.554516   0.000000
    7       11.950589   0.000000
    8       12.273415   0.000000
 
 -0.1111111E+00 -0.2222222E+00  0.1111111E+00  0.1097394E-01
    1       -2.081592   1.000000
    2        7.223174   1.000000
    3        7.985577   1.000000
    4        8.681064   0.999457
    5        9.821645   0.000001
    6       10.733292   0.000000
    7       12.515875   0.000000
    8       13.179319   0.000000
 
 -0.1111111E+00 -0.1111111E+00  0.1111111E+00  0.2743484E-02
    1       -3.516896   1.000000
    2        7.200935   1.000000
    3        7.236628   1.000000
    4        7.236654   1.000000
    5       11.771565   0.000000
    6       12.932160   0.000000
    7       13.290785   0.000000
    8       15.533815   0.000000
 
  0.2222222E+00  0.2222222E+00  0.2222222E+00  0.1097394E-01
    1        1.997313   1.000000
    2        3.234883   1.000000
    3        5.042568   1.000000
    4        5.063200   1.000000
    5       12.350746   0.000000
    6       13.510550   0.000000
    7       14.644428   0.000000
    8       14.674998   0.000000
 
 -0.2222222E+00  0.2222222E+00  0.2222222E+00  0.5486968E-02
    1       -3.444341   1.000000
    2        2.286901   1.000000
    3        3.951100   1.000000
    4        9.525936   0.003394
    5       12.140140   0.000000
    6       15.307122   0.000000
    7       17.621648   0.000000
    8       18.356151   0.000000
 
 -0.3333333E+00  0.3333333E+00  0.2222222E+00  0.1097394E-01
    1       -2.720148   1.000000
    2        1.016284   1.000000
    3        4.113430   1.000000
    4        7.746972   1.000000
    5       13.475963   0.000000
    6       16.744587   0.000000
    7       17.455415   0.000000
    8       18.337369   0.000000
 
 -0.2222222E+00  0.3333333E+00  0.2222222E+00  0.1097394E-01
    1       -2.520377   1.000000
    2        1.900136   1.000000
    3        3.625096   1.000000
    4        7.929165   1.000000
    5       12.831061   0.000000
    6       14.980863   0.000000
    7       17.302167   0.000000
    8       18.491512   0.000000
 
 -0.4444444E+00  0.4444444E+00  0.2222222E+00  0.1097394E-01
    1       -1.716735   1.000000
    2       -0.452015   1.000000
    3        5.002289   1.000000
    4        6.233558   1.000000
    5       14.560708   0.000000
    6       15.658473   0.000000
    7       17.899955   0.000000
    8       18.040938   0.000000
 
 -0.3333333E+00  0.4444444E+00  0.2222222E+00  0.2194787E-01
    1       -1.663302   1.000000
    2        0.779432   1.000000
    3        3.905549   1.000000
    4        6.288227   1.000000
    5       12.772367   0.000000
    6       16.094014   0.000000
    7       18.399582   0.000000
    8       18.671358   0.000000
 
 -0.2222222E+00  0.4444444E+00  0.2222222E+00  0.1097394E-01
    1       -0.924371   1.000000
    2        2.189538   1.000000
    3        3.937534   1.000000
    4        6.955619   1.000000
    5        9.100068   0.619530
    6       15.726228   0.000000
    7       17.113023   0.000000
    8       17.362088   0.000000
 
 -0.4444444E+00 -0.4444444E+00  0.2222222E+00  0.1097394E-01
    1       -0.546284   1.000000
    2       -0.541108   1.000000
    3        4.923897   1.000000
    4        4.925677   1.000000
    5       12.697854   0.000000
    6       16.898938   0.000000
    7       17.645909   0.000000
    8       18.681969   0.000000
 
 -0.3333333E+00 -0.4444444E+00  0.2222222E+00  0.2194787E-01
    1        0.046949   1.000000
    2        1.220338   1.000000
    3        4.340242   1.000000
    4        5.483322   1.000000
    5        8.840144   0.983911
    6       16.090089   0.000000
    7       18.083047   0.000000
    8       18.732805   0.000000
 
 -0.2222222E+00 -0.4444444E+00  0.2222222E+00  0.1097394E-01
    1        1.305109   1.000000
    2        3.123057   1.000000
    3        4.883246   1.000000
    4        5.410620   1.000000
    5        6.711116   1.000000
    6       13.581168   0.000000
    7       15.145210   0.000000
    8       17.784514   0.000000
 
 -0.3333333E+00 -0.3333333E+00  0.2222222E+00  0.1097394E-01
    1        2.287875   1.000000
    2        2.349171   1.000000
    3        5.126341   1.000000
    4        5.411091   1.000000
    5        5.602904   1.000000
    6       13.904536   0.000000
    7       16.219199   0.000000
    8       16.753863   0.000000
 
 -0.2222222E+00 -0.3333333E+00  0.2222222E+00  0.1097394E-01
    1        2.158129   1.000000
    2        4.162764   1.000000
    3        4.838741   1.000000
    4        6.407326   1.000000
    5        7.047335   1.000000
    6       11.946706   0.000000
    7       13.127903   0.000000
    8       14.322574   0.000000
 
 -0.2222222E+00 -0.2222222E+00  0.2222222E+00  0.2743484E-02
    1       -0.264688   1.000000
    2        6.935713   1.000000
    3        7.084291   1.000000
    4        8.139015   1.000000
    5        8.139041   1.000000
    6       10.645020   0.000000
    7       11.715795   0.000000
    8       11.715822   0.000000
 
 -0.3333333E+00  0.3333333E+00  0.3333333E+00  0.5486968E-02
    1       -2.008142   1.000000
    2        1.124291   1.000000
    3        2.901523   1.000000
    4        5.968804   1.000000
    5       15.271283   0.000000
    6       16.870683   0.000000
    7       18.110827   0.000000
    8       19.141402   0.000000
 
 -0.4444444E+00  0.4444444E+00  0.3333333E+00  0.1097394E-01
    1       -1.031705   1.000000
    2        0.148670   1.000000
    3        3.308073   1.000000
    4        4.466941   1.000000
    5       16.135816   0.000000
    6       16.541038   0.000000
    7       18.523134   0.000000
    8       19.260869   0.000000
 
 -0.3333333E+00  0.4444444E+00  0.3333333E+00  0.1097394E-01
    1       -0.833824   1.000000
    2        1.027914   1.000000
    3        2.825901   1.000000
    4        4.655998   1.000000
    5       12.506312   0.000000
    6       18.167544   0.000000
    7       19.622669   0.000000
    8       20.034721   0.000000
 
 -0.4444444E+00 -0.4444444E+00  0.3333333E+00  0.1097394E-01
    1        0.197047   1.000000
    2        0.204176   1.000000
    3        3.363118   1.000000
    4        3.364395   1.000000
    5       12.403623   0.000000
    6       19.302325   0.000000
    7       19.876520   0.000000
    8       19.992598   0.000000
 
 -0.3333333E+00 -0.4444444E+00  0.3333333E+00  0.1097394E-01
    1        0.932172   1.000000
    2        1.611348   1.000000
    3        3.402246   1.000000
    4        4.071370   1.000000
    5        8.579351   0.999966
    6       17.410853   0.000000
    7       18.861180   0.000000
    8       19.381030   0.000000
 
 -0.3333333E+00 -0.3333333E+00  0.3333333E+00  0.2743484E-02
    1        2.786868   1.000000
    2        2.884394   1.000000
    3        4.622990   1.000000
    4        4.622996   1.000000
    5        5.203065   1.000000
    6       15.181025   0.000000
    7       16.083554   0.000000
    8       16.083563   0.000000
 
 -0.4444444E+00  0.4444444E+00  0.4444444E+00  0.5486968E-02
    1       -0.143978   1.000000
    2        0.539220   1.000000
    3        2.361865   1.000000
    4        3.035255   1.000000
    5       16.392378   0.000000
    6       16.464988   0.000000
    7       20.162203   0.000000
    8       20.832913   0.000000
 
 -0.4444444E+00 -0.4444444E+00  0.4444444E+00  0.2743484E-02
    1        0.730759   1.000000
    2        0.739892   1.000000
    3        2.554796   1.000000
    4        2.554802   1.000000
    5       12.295586   0.000000
    6       20.233399   0.000000
    7       21.002162   0.000000
    8       21.018397   0.000000
