       N       E                     dE             d eps       ncg     rms          rms(c)
DAV:   1    -0.533347759091E+01   -0.53335E+01   -0.17624E+03  1296   0.307E+02
DAV:   2    -0.101018640484E+02   -0.47684E+01   -0.45106E+01  1856   0.385E+01
DAV:   3    -0.101332365709E+02   -0.31373E-01   -0.31293E-01  1472   0.359E+00
DAV:   4    -0.101332740367E+02   -0.37466E-04   -0.37465E-04  1912   0.103E-01
DAV:   5    -0.101332740486E+02   -0.11856E-07   -0.12249E-07  1304   0.105E-03    0.150E+00
DAV:   6    -0.101248515121E+02    0.84225E-02   -0.17382E-03  1424   0.259E-01    0.935E-01
DAV:   7    -0.101183023626E+02    0.65491E-02   -0.49691E-03  1408   0.457E-01    0.351E-02
DAV:   8    -0.101182796693E+02    0.22693E-04   -0.75329E-05   792   0.614E-02
   1 F= -.10118280E+02 E0= -.10112720E+02  d E =-.101183E+02
