<?xml version="1.0" encoding="ISO-8859-1"?>
<modeling>
 <generator>
  <i name="program" type="string">vasp </i>
  <i name="version" type="string">5.4.4.18Apr17-6-g9f103f2a35  </i>
  <i name="subversion" type="string">(build Dec 09 2018 21:25:21) complex            parallel </i>
  <i name="platform" type="string">IFC18.0.1.163_CrayMPICH7.7.0_MKL18.0.1.163 </i>
  <i name="date" type="string">2019 03 18 </i>
  <i name="time" type="string">04:29:42 </i>
 </generator>
 <incar>
  <i type="string" name="PREC">normal</i>
  <i type="int" name="IBRION">     2</i>
  <i name="EDIFF">      0.00040000</i>
  <i name="EDIFFG">     -0.01000000</i>
  <i type="int" name="NSW">    15</i>
  <i type="int" name="ISIF">     2</i>
  <i name="ENCUT">    150.00000000</i>
  <i type="int" name="NBANDS">     8</i>
  <i type="logical" name="LREAL"> F  </i>
  <i type="int" name="ISMEAR">     0</i>
  <i name="SIGMA">      0.20000000</i>
  <v type="int" name="KPOINT_BSE">    -1     0     0     0</v>
 </incar>
 <structure name="primitive_cell" >
  <crystal>
   <varray name="basis" >
    <v>      -2.45000000       2.45000000       1.27400000 </v>
    <v>       2.45000000      -2.45000000       1.27400000 </v>
    <v>       2.45000000       2.45000000      -1.27400000 </v>
   </varray>
   <i name="volume">     30.58874000 </i>
   <varray name="rec_basis" >
    <v>       0.00000000       0.20408163       0.39246468 </v>
    <v>       0.20408163       0.00000000       0.39246468 </v>
    <v>       0.20408163       0.20408163      -0.00000000 </v>
   </varray>
  </crystal>
  <varray name="positions" >
   <v>       0.25000000      -0.25000000      -0.50000000 </v>
   <v>       0.00000000       0.00000000       0.00000000 </v>
  </varray>
 </structure>
 <varray name="primitive_index" >
  <v type="int" >        1 </v>
  <v type="int" >        2 </v>
 </varray>
 <kpoints>
  <generation param="Monkhorst-Pack">
   <v type="int" name="divisions">       9        9        9 </v>
   <v name="usershift">      0.00000000       0.00000000       0.00000000 </v>
   <v name="genvec1">      0.11111111       0.00000000      -0.00000000 </v>
   <v name="genvec2">      0.00000000       0.11111111      -0.00000000 </v>
   <v name="genvec3">      0.00000000      -0.00000000       0.11111111 </v>
   <v name="shift">      0.00000000       0.00000000       0.00000000 </v>
  </generation>
  <varray name="kpointlist" >
   <v>       0.00000000       0.00000000       0.00000000 </v>
   <v>       0.11111111      -0.00000000       0.00000000 </v>
   <v>       0.22222222       0.00000000      -0.00000000 </v>
   <v>       0.33333333      -0.00000000       0.00000000 </v>
   <v>       0.44444444       0.00000000      -0.00000000 </v>
   <v>       0.11111111       0.11111111       0.00000000 </v>
   <v>       0.22222222       0.11111111      -0.00000000 </v>
   <v>       0.33333333       0.11111111       0.00000000 </v>
   <v>       0.44444444       0.11111111       0.00000000 </v>
   <v>      -0.44444444       0.11111111       0.00000000 </v>
   <v>      -0.33333333       0.11111111      -0.00000000 </v>
   <v>      -0.22222222       0.11111111       0.00000000 </v>
   <v>      -0.11111111       0.11111111       0.00000000 </v>
   <v>       0.22222222       0.22222222      -0.00000000 </v>
   <v>       0.33333333       0.22222222       0.00000000 </v>
   <v>       0.44444444       0.22222222       0.00000000 </v>
   <v>      -0.44444444       0.22222222       0.00000000 </v>
   <v>      -0.33333333       0.22222222      -0.00000000 </v>
   <v>      -0.22222222       0.22222222       0.00000000 </v>
   <v>       0.33333333       0.33333333       0.00000000 </v>
   <v>       0.44444444       0.33333333       0.00000000 </v>
   <v>      -0.44444444       0.33333333       0.00000000 </v>
   <v>      -0.33333333       0.33333333       0.00000000 </v>
   <v>       0.44444444       0.44444444      -0.00000000 </v>
   <v>      -0.44444444       0.44444444       0.00000000 </v>
   <v>       0.11111111       0.11111111       0.11111111 </v>
   <v>       0.22222222       0.11111111       0.11111111 </v>
   <v>       0.33333333       0.11111111       0.11111111 </v>
   <v>      -0.11111111       0.11111111       0.11111111 </v>
   <v>       0.22222222       0.22222222       0.11111111 </v>
   <v>       0.33333333       0.22222222       0.11111111 </v>
   <v>       0.44444444       0.22222222       0.11111111 </v>
   <v>      -0.44444444       0.22222222       0.11111111 </v>
   <v>      -0.22222222       0.22222222       0.11111111 </v>
   <v>      -0.11111111       0.22222222       0.11111111 </v>
   <v>       0.33333333       0.33333333       0.11111111 </v>
   <v>       0.44444444       0.33333333       0.11111111 </v>
   <v>      -0.33333333       0.33333333       0.11111111 </v>
   <v>      -0.22222222       0.33333333       0.11111111 </v>
   <v>      -0.11111111       0.33333333       0.11111111 </v>
   <v>      -0.44444444       0.44444444       0.11111111 </v>
   <v>      -0.33333333       0.44444444       0.11111111 </v>
   <v>      -0.22222222       0.44444444       0.11111111 </v>
   <v>      -0.11111111       0.44444444       0.11111111 </v>
   <v>      -0.44444444      -0.44444444       0.11111111 </v>
   <v>      -0.33333333      -0.44444444       0.11111111 </v>
   <v>      -0.22222222      -0.44444444       0.11111111 </v>
   <v>      -0.11111111      -0.44444444       0.11111111 </v>
   <v>      -0.33333333      -0.33333333       0.11111111 </v>
   <v>      -0.22222222      -0.33333333       0.11111111 </v>
   <v>      -0.11111111      -0.33333333       0.11111111 </v>
   <v>      -0.22222222      -0.22222222       0.11111111 </v>
   <v>      -0.11111111      -0.22222222       0.11111111 </v>
   <v>      -0.11111111      -0.11111111       0.11111111 </v>
   <v>       0.22222222       0.22222222       0.22222222 </v>
   <v>      -0.22222222       0.22222222       0.22222222 </v>
   <v>      -0.33333333       0.33333333       0.22222222 </v>
   <v>      -0.22222222       0.33333333       0.22222222 </v>
   <v>      -0.44444444       0.44444444       0.22222222 </v>
   <v>      -0.33333333       0.44444444       0.22222222 </v>
   <v>      -0.22222222       0.44444444       0.22222222 </v>
   <v>      -0.44444444      -0.44444444       0.22222222 </v>
   <v>      -0.33333333      -0.44444444       0.22222222 </v>
   <v>      -0.22222222      -0.44444444       0.22222222 </v>
   <v>      -0.33333333      -0.33333333       0.22222222 </v>
   <v>      -0.22222222      -0.33333333       0.22222222 </v>
   <v>      -0.22222222      -0.22222222       0.22222222 </v>
   <v>      -0.33333333       0.33333333       0.33333333 </v>
   <v>      -0.44444444       0.44444444       0.33333333 </v>
   <v>      -0.33333333       0.44444444       0.33333333 </v>
   <v>      -0.44444444      -0.44444444       0.33333333 </v>
   <v>      -0.33333333      -0.44444444       0.33333333 </v>
   <v>      -0.33333333      -0.33333333       0.33333333 </v>
   <v>      -0.44444444       0.44444444       0.44444444 </v>
   <v>      -0.44444444      -0.44444444       0.44444444 </v>
  </varray>
  <varray name="weights" >
   <v>       0.00137174 </v>
   <v>       0.01097394 </v>
   <v>       0.01097394 </v>
   <v>       0.01097394 </v>
   <v>       0.01097394 </v>
   <v>       0.01097394 </v>
   <v>       0.02194787 </v>
   <v>       0.02194787 </v>
   <v>       0.02194787 </v>
   <v>       0.02194787 </v>
   <v>       0.02194787 </v>
   <v>       0.02194787 </v>
   <v>       0.00548697 </v>
   <v>       0.01097394 </v>
   <v>       0.02194787 </v>
   <v>       0.02194787 </v>
   <v>       0.02194787 </v>
   <v>       0.02194787 </v>
   <v>       0.00548697 </v>
   <v>       0.01097394 </v>
   <v>       0.02194787 </v>
   <v>       0.02194787 </v>
   <v>       0.00548697 </v>
   <v>       0.01097394 </v>
   <v>       0.00548697 </v>
   <v>       0.01097394 </v>
   <v>       0.02194787 </v>
   <v>       0.02194787 </v>
   <v>       0.00548697 </v>
   <v>       0.01097394 </v>
   <v>       0.02194787 </v>
   <v>       0.02194787 </v>
   <v>       0.01097394 </v>
   <v>       0.01097394 </v>
   <v>       0.01097394 </v>
   <v>       0.01097394 </v>
   <v>       0.01097394 </v>
   <v>       0.01097394 </v>
   <v>       0.02194787 </v>
   <v>       0.01097394 </v>
   <v>       0.01097394 </v>
   <v>       0.02194787 </v>
   <v>       0.02194787 </v>
   <v>       0.01097394 </v>
   <v>       0.01097394 </v>
   <v>       0.02194787 </v>
   <v>       0.02194787 </v>
   <v>       0.01097394 </v>
   <v>       0.01097394 </v>
   <v>       0.02194787 </v>
   <v>       0.01097394 </v>
   <v>       0.01097394 </v>
   <v>       0.01097394 </v>
   <v>       0.00274348 </v>
   <v>       0.01097394 </v>
   <v>       0.00548697 </v>
   <v>       0.01097394 </v>
   <v>       0.01097394 </v>
   <v>       0.01097394 </v>
   <v>       0.02194787 </v>
   <v>       0.01097394 </v>
   <v>       0.01097394 </v>
   <v>       0.02194787 </v>
   <v>       0.01097394 </v>
   <v>       0.01097394 </v>
   <v>       0.01097394 </v>
   <v>       0.00274348 </v>
   <v>       0.00548697 </v>
   <v>       0.01097394 </v>
   <v>       0.01097394 </v>
   <v>       0.01097394 </v>
   <v>       0.01097394 </v>
   <v>       0.00274348 </v>
   <v>       0.00548697 </v>
   <v>       0.00274348 </v>
  </varray>
 </kpoints>
 <parameters>
  <separator name="general" >
   <i type="string" name="SYSTEM">unknown system</i>
   <i type="logical" name="LCOMPAT"> F  </i>
  </separator>
  <separator name="electronic" >
   <i type="string" name="PREC">normal</i>
   <i name="ENMAX">    150.00000000</i>
   <i name="ENAUG">    322.06900000</i>
   <i name="EDIFF">      0.00040000</i>
   <i type="int" name="IALGO">    38</i>
   <i type="int" name="IWAVPR">    11</i>
   <i type="int" name="NBANDS">     8</i>
   <i name="NELECT">      8.00000000</i>
   <i type="int" name="TURBO">     0</i>
   <i type="int" name="IRESTART">     0</i>
   <i type="int" name="NREBOOT">     0</i>
   <i type="int" name="NMIN">     0</i>
   <i name="EREF">      0.00000000</i>
   <separator name="electronic smearing" >
    <i type="int" name="ISMEAR">     0</i>
    <i name="SIGMA">      0.20000000</i>
    <i name="KSPACING">      0.50000000</i>
    <i type="logical" name="KGAMMA"> T  </i>
   </separator>
   <separator name="electronic projectors" >
    <i type="logical" name="LREAL"> F  </i>
    <v name="ROPT">      0.00000000</v>
    <i type="int" name="LMAXPAW">  -100</i>
    <i type="int" name="LMAXMIX">     2</i>
    <i type="logical" name="NLSPLINE"> F  </i>
   </separator>
   <separator name="electronic startup" >
    <i type="int" name="ISTART">     0</i>
    <i type="int" name="ICHARG">     2</i>
    <i type="int" name="INIWAV">     1</i>
   </separator>
   <separator name="electronic spin" >
    <i type="int" name="ISPIN">     1</i>
    <i type="logical" name="LNONCOLLINEAR"> F  </i>
    <v name="MAGMOM">      1.00000000      1.00000000</v>
    <i name="NUPDOWN">     -1.00000000</i>
    <i type="logical" name="LSORBIT"> F  </i>
    <v name="SAXIS">      0.00000000      0.00000000      1.00000000</v>
    <i type="logical" name="LSPIRAL"> F  </i>
    <v name="QSPIRAL">      0.00000000      0.00000000      0.00000000</v>
    <i type="logical" name="LZEROZ"> F  </i>
   </separator>
   <separator name="electronic exchange-correlation" >
    <i type="logical" name="LASPH"> F  </i>
    <i type="logical" name="LMETAGGA"> F  </i>
   </separator>
   <separator name="electronic convergence" >
    <i type="int" name="NELM">    60</i>
    <i type="int" name="NELMDL">     0</i>
    <i type="int" name="NELMIN">     2</i>
    <i name="ENINI">    150.00000000</i>
    <separator name="electronic convergence detail" >
     <i type="logical" name="LDIAG"> T  </i>
     <i type="logical" name="LSUBROT"> F  </i>
     <i name="WEIMIN">      0.00100000</i>
     <i name="EBREAK">      0.00001250</i>
     <i name="DEPER">      0.30000000</i>
     <i type="int" name="NRMM">     4</i>
     <i name="TIME">      0.40000000</i>
    </separator>
   </separator>
   <separator name="electronic mixer" >
    <i name="AMIX">      0.40000000</i>
    <i name="BMIX">      1.00000000</i>
    <i name="AMIN">      0.10000000</i>
    <i name="AMIX_MAG">      1.60000000</i>
    <i name="BMIX_MAG">      1.00000000</i>
    <separator name="electronic mixer details" >
     <i type="int" name="IMIX">     4</i>
     <i type="logical" name="MIXFIRST"> F  </i>
     <i type="int" name="MAXMIX">   -45</i>
     <i name="WC">    100.00000000</i>
     <i type="int" name="INIMIX">     1</i>
     <i type="int" name="MIXPRE">     1</i>
     <i type="int" name="MREMOVE">     5</i>
    </separator>
   </separator>
   <separator name="electronic dipolcorrection" >
    <i type="logical" name="LDIPOL"> F  </i>
    <i type="logical" name="LMONO"> F  </i>
    <i type="int" name="IDIPOL">     0</i>
    <i name="EPSILON">      1.00000000</i>
    <v name="DIPOL">   -100.00000000   -100.00000000   -100.00000000</v>
    <i name="EFIELD">      0.00000000</i>
   </separator>
  </separator>
  <separator name="grids" >
   <i type="int" name="NGX">    12</i>
   <i type="int" name="NGY">    12</i>
   <i type="int" name="NGZ">    12</i>
   <i type="int" name="NGXF">    24</i>
   <i type="int" name="NGYF">    24</i>
   <i type="int" name="NGZF">    24</i>
   <i type="logical" name="ADDGRID"> F  </i>
  </separator>
  <separator name="ionic" >
   <i type="int" name="NSW">    15</i>
   <i type="int" name="IBRION">     2</i>
   <i type="int" name="MDALGO">     0</i>
   <i type="int" name="ISIF">     2</i>
   <i name="PSTRESS">      0.00000000</i>
   <i name="EDIFFG">     -0.01000000</i>
   <i type="int" name="NFREE">     1</i>
   <i name="POTIM">      0.50000000</i>
   <i name="SMASS">     -3.00000000</i>
   <i name="SCALEE">      1.00000000</i>
  </separator>
  <separator name="ionic md" >
   <i name="TEBEG">      0.00010000</i>
   <i name="TEEND">      0.00010000</i>
   <i type="int" name="NBLOCK">     1</i>
   <i type="int" name="KBLOCK">    15</i>
   <i type="int" name="NPACO">   256</i>
   <i name="APACO">     16.00000000</i>
  </separator>
  <separator name="symmetry" >
   <i type="int" name="ISYM">     2</i>
   <i name="SYMPREC">      0.00001000</i>
  </separator>
  <separator name="dos" >
   <i type="int" name="LORBIT">     0</i>
   <v name="RWIGS">     -1.00000000</v>
   <i type="int" name="NEDOS">   301</i>
   <i name="EMIN">     10.00000000</i>
   <i name="EMAX">    -10.00000000</i>
   <i name="EFERMI">      0.00000000</i>
  </separator>
  <separator name="writing" >
   <i type="int" name="NWRITE">     2</i>
   <i type="logical" name="LWAVE"> T  </i>
   <i type="logical" name="LDOWNSAMPLE"> F  </i>
   <i type="logical" name="LCHARG"> T  </i>
   <i type="logical" name="LPARD"> F  </i>
   <i type="logical" name="LVTOT"> F  </i>
   <i type="logical" name="LVHAR"> F  </i>
   <i type="logical" name="LELF"> F  </i>
   <i type="logical" name="LOPTICS"> F  </i>
   <v name="STM">      0.00000000      0.00000000      0.00000000      0.00000000      0.00000000      0.00000000      0.00000000</v>
  </separator>
  <separator name="performance" >
   <i type="int" name="NPAR">     8</i>
   <i type="int" name="NSIM">     4</i>
   <i type="int" name="NBLK">    -1</i>
   <i type="logical" name="LPLANE"> T  </i>
   <i type="logical" name="LSCALAPACK"> T  </i>
   <i type="logical" name="LSCAAWARE"> F  </i>
   <i type="logical" name="LSCALU"> F  </i>
   <i type="logical" name="LASYNC"> F  </i>
   <i type="logical" name="LORBITALREAL"> F  </i>
  </separator>
  <separator name="miscellaneous" >
   <i type="int" name="IDIOT">     3</i>
   <i type="int" name="ISPECIAL">     0</i>
   <i type="logical" name="LMUSIC"> F  </i>
   <v name="POMASS">     28.08500000</v>
   <v name="DARWINR">      0.00000000</v>
   <v name="DARWINV">      1.00000000</v>
   <i type="logical" name="LCORR"> T  </i>
  </separator>
  <i type="logical" name="GGA_COMPAT"> T  </i>
  <i type="logical" name="LBERRY"> F  </i>
  <i type="int" name="ICORELEVEL">     0</i>
  <i type="logical" name="LDAU"> F  </i>
  <i type="int" name="I_CONSTRAINED_M">     0</i>
  <separator name="electronic exchange-correlation" >
   <i type="string" name="GGA">--</i>
   <i type="int" name="VOSKOWN">     0</i>
   <i type="logical" name="LHFCALC"> F  </i>
   <i type="string" name="PRECFOCK"></i>
   <i type="logical" name="LSYMGRAD"> F  </i>
   <i type="logical" name="LHFONE"> F  </i>
   <i type="logical" name="LRHFCALC"> F  </i>
   <i type="logical" name="LTHOMAS"> F  </i>
   <i type="logical" name="LMODELHF"> F  </i>
   <i name="ENCUT4O">     -1.00000000</i>
   <i type="int" name="EXXOEP">     0</i>
   <i type="int" name="FOURORBIT">     0</i>
   <i name="AEXX">      0.00000000</i>
   <i name="HFALPHA">      0.00000000</i>
   <i name="MCALPHA">      0.00000000</i>
   <i name="ALDAX">      1.00000000</i>
   <i name="AGGAX">      1.00000000</i>
   <i name="ALDAC">      1.00000000</i>
   <i name="AGGAC">      1.00000000</i>
   <i type="int" name="NKREDX">     1</i>
   <i type="int" name="NKREDY">     1</i>
   <i type="int" name="NKREDZ">     1</i>
   <i type="logical" name="SHIFTRED"> F  </i>
   <i type="logical" name="ODDONLY"> F  </i>
   <i type="logical" name="EVENONLY"> F  </i>
   <i type="int" name="LMAXFOCK">     0</i>
   <i type="int" name="NMAXFOCKAE">     0</i>
   <i type="logical" name="LFOCKAEDFT"> F  </i>
   <i name="HFSCREEN">      0.00000000</i>
   <i name="HFSCREENC">      0.00000000</i>
   <i type="int" name="NBANDSGWLOW">     0</i>
  </separator>
  <separator name="vdW DFT" >
   <i type="logical" name="LUSE_VDW"> F  </i>
   <i name="Zab_VDW">     -0.84910000</i>
   <i name="PARAM1">      0.12340000</i>
   <i name="PARAM2">      1.00000000</i>
   <i name="PARAM3">      0.00000000</i>
  </separator>
  <separator name="model GW" >
   <i type="int" name="MODEL_GW">     0</i>
   <i name="MODEL_EPS0">      9.17662200</i>
   <i name="MODEL_ALPHA">      1.00000000</i>
  </separator>
  <separator name="linear response parameters" >
   <i type="logical" name="LEPSILON"> F  </i>
   <i type="logical" name="LRPA"> F  </i>
   <i type="logical" name="LNABLA"> F  </i>
   <i type="logical" name="LVEL"> F  </i>
   <i type="int" name="KINTER">     0</i>
   <i name="CSHIFT">      0.10000000</i>
   <i name="OMEGAMAX">     -1.00000000</i>
   <i name="DEG_THRESHOLD">      0.00200000</i>
   <i name="RTIME">     -0.10000000</i>
   <i name="WPLASMAI">      0.00000000</i>
   <v name="DFIELD">      0.00000000      0.00000000      0.00000000</v>
   <v name="WPLASMA">      0.00000000      0.00000000      0.00000000      0.00000000      0.00000000      0.00000000      0.00000000      0.00000000      0.00000000</v>
  </separator>
  <separator name="orbital magnetization" >
   <i type="logical" name="NUCIND"> F  </i>
   <v name="MAGPOS">      0.00000000      0.00000000      0.00000000</v>
   <i type="logical" name="LNICSALL"> T  </i>
   <i type="logical" name="ORBITALMAG"> F  </i>
   <i type="logical" name="LMAGBLOCH"> F  </i>
   <i type="logical" name="LCHIMAG"> F  </i>
   <i type="logical" name="LGAUGE"> T  </i>
   <i type="int" name="MAGATOM">     0</i>
   <v name="MAGDIPOL">      0.00000000      0.00000000      0.00000000</v>
   <v name="AVECCONST">      0.00000000      0.00000000      0.00000000</v>
  </separator>
  <separator name="response functions" >
   <i type="logical" name="LADDER"> F  </i>
   <i type="logical" name="LRPAFORCE"> F  </i>
   <i type="logical" name="LFXC"> F  </i>
   <i type="logical" name="LHARTREE"> T  </i>
   <i type="int" name="IBSE">     0</i>
   <v type="int" name="KPOINT">    -1     0     0     0</v>
   <i type="logical" name="LTCTE"> F  </i>
   <i type="logical" name="LTETE"> F  </i>
   <i type="logical" name="LTRIPLET"> F  </i>
   <i type="logical" name="LFXCEPS"> F  </i>
   <i type="logical" name="LFXHEG"> F  </i>
   <i type="int" name="NATURALO">     2</i>
   <i type="logical" name="L2ORDER"> F  </i>
   <i type="logical" name="LMP2LT"> F  </i>
   <i type="logical" name="LUSEW"> F  </i>
   <i name="ENCUTGW">     -2.00000000</i>
   <i name="ENCUTGWSOFT">     -2.00000000</i>
   <i name="ENCUTLF">     -1.00000000</i>
   <i type="int" name="LMAXMP2">    -1</i>
   <i name="SCISSOR">      0.00000000</i>
   <i type="int" name="NOMEGA">     0</i>
   <i type="int" name="NOMEGAR">     0</i>
   <i type="int" name="NBANDSGW">    -1</i>
   <i type="int" name="NBANDSO">    -1</i>
   <i type="int" name="NBANDSV">    -1</i>
   <i type="int" name="NELM">     1</i>
   <i type="int" name="NELMHF">     1</i>
   <i type="int" name="DIM">     3</i>
   <i type="int" name="ANTIRES">     0</i>
   <i name="OMEGAMAX">    -30.00000000</i>
   <i name="OMEGAMIN">    -30.00000000</i>
   <i name="OMEGATL">   -200.00000000</i>
   <i type="int" name="OMEGAGRID">   140</i>
   <i name="CSHIFT">     -0.10000000</i>
   <i type="logical" name="SELFENERGY"> F  </i>
   <i type="logical" name="LSPECTRAL"> F  </i>
   <i type="logical" name="LSPECTRALGW"> F  </i>
   <i type="logical" name="LSINGLES"> F  </i>
   <i type="logical" name="LFERMIGW"> F  </i>
   <i type="logical" name="ODDONLYGW"> F  </i>
   <i type="logical" name="EVENONLYGW"> F  </i>
   <i type="int" name="NKREDLFX">     1</i>
   <i type="int" name="NKREDLFY">     1</i>
   <i type="int" name="NKREDLFZ">     1</i>
   <i type="int" name="MAXMEM">  2800</i>
   <i type="int" name="TELESCOPE">     0</i>
   <i type="int" name="TAUPAR">     1</i>
   <i type="int" name="OMEGAPAR">    -1</i>
   <i name="LAMBDA">      1.00000000</i>
  </separator>
  <separator name="External order field" >
   <i name="OFIELD_KAPPA">      0.00000000</i>
   <v name="OFIELD_K">      0.00000000      0.00000000      0.00000000</v>
   <i name="OFIELD_Q6_NEAR">      0.00000000</i>
   <i name="OFIELD_Q6_FAR">      0.00000000</i>
   <i name="OFIELD_A">      0.00000000</i>
  </separator>
 </parameters>
 <atominfo>
  <atoms>       2 </atoms>
  <types>       1 </types>
  <array name="atoms" >
   <dimension dim="1">ion</dimension>
   <field type="string">element</field>
   <field type="int">atomtype</field>
   <set>
    <rc><c>Si</c><c>   1</c></rc>
    <rc><c>Si</c><c>   1</c></rc>
   </set>
  </array>
  <array name="atomtypes" >
   <dimension dim="1">type</dimension>
   <field type="int">atomspertype</field>
   <field type="string">element</field>
   <field>mass</field>
   <field>valence</field>
   <field type="string">pseudopotential</field>
   <set>
    <rc><c>   2</c><c>Si</c><c>     28.08500000</c><c>      4.00000000</c><c> PAW_PBE Si 05Jan2001                   </c></rc>
   </set>
  </array>
 </atominfo>
 <structure name="initialpos" >
  <crystal>
   <varray name="basis" >
    <v>      -2.45000000       2.45000000       1.27400000 </v>
    <v>       2.45000000      -2.45000000       1.27400000 </v>
    <v>       2.45000000       2.45000000      -1.27400000 </v>
   </varray>
   <i name="volume">     30.58874000 </i>
   <varray name="rec_basis" >
    <v>       0.00000000       0.20408163       0.39246468 </v>
    <v>       0.20408163       0.00000000       0.39246468 </v>
    <v>       0.20408163       0.20408163      -0.00000000 </v>
   </varray>
  </crystal>
  <varray name="positions" >
   <v>       0.25000000       0.75000000       0.50000000 </v>
   <v>       0.00000000       0.00000000       0.00000000 </v>
  </varray>
 </structure>
 <calculation>
  <scstep>
   <time name="dav">    0.58    0.58</time>
   <time name="total">    0.61    0.63</time>
   <energy>
    <i name="alphaZ">      4.40202223 </i>
    <i name="ewald">   -265.18101312 </i>
    <i name="hartreedc">     -2.30415367 </i>
    <i name="XCdc">    -17.81530915 </i>
    <i name="pawpsdc">     65.95520812 </i>
    <i name="pawaedc">    -30.76852678 </i>
    <i name="eentropy">     -0.02078655 </i>
    <i name="bandstr">     34.30724490 </i>
    <i name="atom">    206.09183643 </i>
    <i name="e_fr_energy">     -5.33347759 </i>
    <i name="e_wo_entrp">     -5.31269104 </i>
    <i name="e_0_energy">     -5.32308432 </i>
   </energy>
  </scstep>
  <scstep>
   <time name="dav">    0.85    0.85</time>
   <time name="total">    0.85    0.86</time>
   <energy>
    <i name="e_fr_energy">    -10.10186405 </i>
    <i name="e_wo_entrp">    -10.09111370 </i>
    <i name="e_0_energy">    -10.09648887 </i>
   </energy>
  </scstep>
  <scstep>
   <time name="dav">    0.66    0.67</time>
   <time name="total">    0.66    0.67</time>
   <energy>
    <i name="e_fr_energy">    -10.13323657 </i>
    <i name="e_wo_entrp">    -10.12197177 </i>
    <i name="e_0_energy">    -10.12760417 </i>
   </energy>
  </scstep>
  <scstep>
   <time name="dav">    0.89    0.89</time>
   <time name="total">    0.90    0.90</time>
   <energy>
    <i name="e_fr_energy">    -10.13327404 </i>
    <i name="e_wo_entrp">    -10.12200890 </i>
    <i name="e_0_energy">    -10.12764147 </i>
   </energy>
  </scstep>
  <scstep>
   <time name="dav">    0.59    0.60</time>
   <time name="total">    0.61    0.62</time>
   <energy>
    <i name="e_fr_energy">    -10.13327405 </i>
    <i name="e_wo_entrp">    -10.12200891 </i>
    <i name="e_0_energy">    -10.12764148 </i>
   </energy>
  </scstep>
  <scstep>
   <time name="dav">    0.63    0.63</time>
   <time name="total">    0.67    0.68</time>
   <energy>
    <i name="e_fr_energy">    -10.12485151 </i>
    <i name="e_wo_entrp">    -10.11364834 </i>
    <i name="e_0_energy">    -10.11924992 </i>
   </energy>
  </scstep>
  <scstep>
   <time name="dav">    0.62    0.62</time>
   <time name="total">    0.66    0.67</time>
   <energy>
    <i name="e_fr_energy">    -10.11830236 </i>
    <i name="e_wo_entrp">    -10.10719017 </i>
    <i name="e_0_energy">    -10.11274626 </i>
   </energy>
  </scstep>
  <scstep>
   <time name="dav">    0.35    0.35</time>
   <time name="total">    0.37    0.38</time>
   <energy>
    <i name="alphaZ">      4.40202223 </i>
    <i name="ewald">   -265.18101312 </i>
    <i name="hartreedc">     -2.51055822 </i>
    <i name="XCdc">    -17.53859978 </i>
    <i name="pawpsdc">     72.40133468 </i>
    <i name="pawaedc">    -37.32839086 </i>
    <i name="eentropy">     -0.01112016 </i>
    <i name="bandstr">     29.55620913 </i>
    <i name="atom">    206.09183643 </i>
    <i name="e_fr_energy">    -10.11827967 </i>
    <i name="e_wo_entrp">    -10.10715950 </i>
    <i name="e_0_energy">    -10.11271959 </i>
   </energy>
  </scstep>
  <structure>
   <crystal>
    <varray name="basis" >
     <v>      -2.45000000       2.45000000       1.27400000 </v>
     <v>       2.45000000      -2.45000000       1.27400000 </v>
     <v>       2.45000000       2.45000000      -1.27400000 </v>
    </varray>
    <i name="volume">     30.58874000 </i>
    <varray name="rec_basis" >
     <v>       0.00000000       0.20408163       0.39246468 </v>
     <v>       0.20408163       0.00000000       0.39246468 </v>
     <v>       0.20408163       0.20408163      -0.00000000 </v>
    </varray>
   </crystal>
   <varray name="positions" >
    <v>       0.25000000       0.75000000       0.50000000 </v>
    <v>       0.00000000       0.00000000       0.00000000 </v>
   </varray>
  </structure>
  <varray name="forces" >
   <v>      -0.00000000       0.00000000       0.00000000 </v>
   <v>       0.00000000      -0.00000000      -0.00000000 </v>
  </varray>
  <varray name="stress" >
   <v>      -8.82430849       0.00000000       0.00000000 </v>
   <v>      -0.00000000      -8.82430849       0.00000000 </v>
   <v>       0.00000000       0.00000000      42.58613674 </v>
  </varray>
  <energy>
   <i name="e_fr_energy">    -10.11827967 </i>
   <i name="e_wo_entrp">    -10.11271959 </i>
   <i name="e_0_energy">     -0.01112016 </i>
  </energy>
  <time name="totalsc">    5.92    6.48</time>
  <eigenvalues>
   <array>
    <dimension dim="1">band</dimension>
    <dimension dim="2">kpoint</dimension>
    <dimension dim="3">spin</dimension>
    <field>eigene</field>
    <field>occ</field>
    <set>
     <set comment="spin 1">
      <set comment="kpoint 1">
       <r>   -4.6150    1.0000 </r>
       <r>    6.2021    1.0000 </r>
       <r>    6.3082    1.0000 </r>
       <r>    6.3082    1.0000 </r>
       <r>   10.6569    0.0000 </r>
       <r>   17.0756    0.0000 </r>
       <r>   17.3795    0.0000 </r>
       <r>   17.3796    0.0000 </r>
      </set>
      <set comment="kpoint 2">
       <r>   -4.2664    1.0000 </r>
       <r>    5.3212    1.0000 </r>
       <r>    6.2580    1.0000 </r>
       <r>    7.8076    1.0000 </r>
       <r>   11.3714    0.0000 </r>
       <r>   15.2884    0.0000 </r>
       <r>   16.0762    0.0000 </r>
       <r>   17.3651    0.0000 </r>
      </set>
      <set comment="kpoint 3">
       <r>   -3.2245    1.0000 </r>
       <r>    5.0308    1.0000 </r>
       <r>    6.3422    1.0000 </r>
       <r>    9.6498    0.0002 </r>
       <r>   12.1913    0.0000 </r>
       <r>   12.9843    0.0000 </r>
       <r>   13.1619    0.0000 </r>
       <r>   15.2121    0.0000 </r>
      </set>
      <set comment="kpoint 4">
       <r>   -1.5026    1.0000 </r>
       <r>    5.3687    1.0000 </r>
       <r>    6.8197    1.0000 </r>
       <r>    7.4982    1.0000 </r>
       <r>   10.3081    0.0000 </r>
       <r>   12.7720    0.0000 </r>
       <r>   13.0718    0.0000 </r>
       <r>   14.0564    0.0000 </r>
      </set>
      <set comment="kpoint 5">
       <r>    0.8669    1.0000 </r>
       <r>    3.9126    1.0000 </r>
       <r>    6.3929    1.0000 </r>
       <r>    7.5925    1.0000 </r>
       <r>    8.2162    1.0000 </r>
       <r>   10.8628    0.0000 </r>
       <r>   13.5780    0.0000 </r>
       <r>   14.6353    0.0000 </r>
      </set>
      <set comment="kpoint 6">
       <r>   -3.3706    1.0000 </r>
       <r>    5.3489    1.0000 </r>
       <r>    7.3666    1.0000 </r>
       <r>    8.5729    1.0000 </r>
       <r>   12.4148    0.0000 </r>
       <r>   12.6484    0.0000 </r>
       <r>   13.0770    0.0000 </r>
       <r>   15.7274    0.0000 </r>
      </set>
      <set comment="kpoint 7">
       <r>   -1.7915    1.0000 </r>
       <r>    5.6286    1.0000 </r>
       <r>    7.9142    1.0000 </r>
       <r>    8.3371    1.0000 </r>
       <r>    9.7952    0.0000 </r>
       <r>   11.4333    0.0000 </r>
       <r>   13.1250    0.0000 </r>
       <r>   14.1206    0.0000 </r>
      </set>
      <set comment="kpoint 8">
       <r>    0.4462    1.0000 </r>
       <r>    4.7212    1.0000 </r>
       <r>    6.5027    1.0000 </r>
       <r>    6.9486    1.0000 </r>
       <r>    9.0738    0.6879 </r>
       <r>   11.2295    0.0000 </r>
       <r>   12.6897    0.0000 </r>
       <r>   14.6079    0.0000 </r>
      </set>
      <set comment="kpoint 9">
       <r>    1.5578    1.0000 </r>
       <r>    3.3665    1.0000 </r>
       <r>    5.2463    1.0000 </r>
       <r>    7.4827    1.0000 </r>
       <r>    8.7231    0.9985 </r>
       <r>   11.5857    0.0000 </r>
       <r>   12.4790    0.0000 </r>
       <r>   15.9088    0.0000 </r>
      </set>
      <set comment="kpoint 10">
       <r>   -0.9271    1.0000 </r>
       <r>    4.0071    1.0000 </r>
       <r>    6.7169    1.0000 </r>
       <r>    7.0340    1.0000 </r>
       <r>   10.1465    0.0000 </r>
       <r>   12.4579    0.0000 </r>
       <r>   13.6602    0.0000 </r>
       <r>   14.5386    0.0000 </r>
      </set>
      <set comment="kpoint 11">
       <r>   -2.7871    1.0000 </r>
       <r>    3.4861    1.0000 </r>
       <r>    6.3600    1.0000 </r>
       <r>   10.1897    0.0000 </r>
       <r>   11.9824    0.0000 </r>
       <r>   12.1045    0.0000 </r>
       <r>   14.0208    0.0000 </r>
       <r>   15.2425    0.0000 </r>
      </set>
      <set comment="kpoint 12">
       <r>   -3.9728    1.0000 </r>
       <r>    3.6016    1.0000 </r>
       <r>    6.3173    1.0000 </r>
       <r>    8.9444    0.9200 </r>
       <r>   12.8917    0.0000 </r>
       <r>   13.5223    0.0000 </r>
       <r>   15.4176    0.0000 </r>
       <r>   16.7021    0.0000 </r>
      </set>
      <set comment="kpoint 13">
       <r>   -4.4679    1.0000 </r>
       <r>    4.3305    1.0000 </r>
       <r>    6.4459    1.0000 </r>
       <r>    7.6733    1.0000 </r>
       <r>   11.5561    0.0000 </r>
       <r>   15.0091    0.0000 </r>
       <r>   16.3930    0.0000 </r>
       <r>   19.3102    0.0000 </r>
      </set>
      <set comment="kpoint 14">
       <r>    0.3057    1.0000 </r>
       <r>    5.7329    1.0000 </r>
       <r>    5.7899    1.0000 </r>
       <r>    6.4532    1.0000 </r>
       <r>   10.0030    0.0000 </r>
       <r>   11.6718    0.0000 </r>
       <r>   12.6616    0.0000 </r>
       <r>   12.8965    0.0000 </r>
      </set>
      <set comment="kpoint 15">
       <r>    2.4517    1.0000 </r>
       <r>    3.1157    1.0000 </r>
       <r>    3.8974    1.0000 </r>
       <r>    7.5331    1.0000 </r>
       <r>    9.3027    0.1295 </r>
       <r>   10.8636    0.0000 </r>
       <r>   13.6782    0.0000 </r>
       <r>   15.7226    0.0000 </r>
      </set>
      <set comment="kpoint 16">
       <r>   -0.0687    1.0000 </r>
       <r>    2.4411    1.0000 </r>
       <r>    6.4253    1.0000 </r>
       <r>    7.6049    1.0000 </r>
       <r>    9.5243    0.0035 </r>
       <r>   11.3797    0.0000 </r>
       <r>   14.8471    0.0000 </r>
       <r>   15.8748    0.0000 </r>
      </set>
      <set comment="kpoint 17">
       <r>   -2.0613    1.0000 </r>
       <r>    1.7609    1.0000 </r>
       <r>    6.9800    1.0000 </r>
       <r>    9.9814    0.0000 </r>
       <r>   10.6889    0.0000 </r>
       <r>   12.5650    0.0000 </r>
       <r>   13.4602    0.0000 </r>
       <r>   15.8977    0.0000 </r>
      </set>
      <set comment="kpoint 18">
       <r>   -3.3874    1.0000 </r>
       <r>    1.7382    1.0000 </r>
       <r>    6.8493    1.0000 </r>
       <r>    9.7889    0.0000 </r>
       <r>   11.7178    0.0000 </r>
       <r>   14.2878    0.0000 </r>
       <r>   15.2678    0.0000 </r>
       <r>   15.9051    0.0000 </r>
      </set>
      <set comment="kpoint 19">
       <r>   -4.0274    1.0000 </r>
       <r>    2.3687    1.0000 </r>
       <r>    6.8590    1.0000 </r>
       <r>    8.5626    1.0000 </r>
       <r>   13.0100    0.0000 </r>
       <r>   13.7944    0.0000 </r>
       <r>   14.7557    0.0000 </r>
       <r>   19.2289    0.0000 </r>
      </set>
      <set comment="kpoint 20">
       <r>    1.0520    1.0000 </r>
       <r>    1.0711    1.0000 </r>
       <r>    6.3007    1.0000 </r>
       <r>    8.2663    1.0000 </r>
       <r>    8.8544    0.9794 </r>
       <r>   11.0184    0.0000 </r>
       <r>   15.5473    0.0000 </r>
       <r>   16.5789    0.0000 </r>
      </set>
      <set comment="kpoint 21">
       <r>   -1.0529    1.0000 </r>
       <r>    0.2283    1.0000 </r>
       <r>    7.8992    1.0000 </r>
       <r>    9.0362    0.7751 </r>
       <r>   10.1130    0.0000 </r>
       <r>   13.1154    0.0000 </r>
       <r>   13.4419    0.0000 </r>
       <r>   14.7650    0.0000 </r>
      </set>
      <set comment="kpoint 22">
       <r>   -2.5141    1.0000 </r>
       <r>    0.0656    1.0000 </r>
       <r>    7.6700    1.0000 </r>
       <r>   10.1131    0.0000 </r>
       <r>   10.7069    0.0000 </r>
       <r>   13.0411    0.0000 </r>
       <r>   15.2251    0.0000 </r>
       <r>   16.0621    0.0000 </r>
      </set>
      <set comment="kpoint 23">
       <r>   -3.2961    1.0000 </r>
       <r>    0.5746    1.0000 </r>
       <r>    7.5485    1.0000 </r>
       <r>    9.4122    0.0285 </r>
       <r>   11.2548    0.0000 </r>
       <r>   13.1360    0.0000 </r>
       <r>   16.6058    0.0000 </r>
       <r>   18.9401    0.0000 </r>
      </set>
      <set comment="kpoint 24">
       <r>   -1.3601    1.0000 </r>
       <r>   -1.3590    1.0000 </r>
       <r>    8.7483    0.9974 </r>
       <r>    8.7842    0.9944 </r>
       <r>   11.6839    0.0000 </r>
       <r>   11.9010    0.0000 </r>
       <r>   15.0751    0.0000 </r>
       <r>   15.9900    0.0000 </r>
      </set>
      <set comment="kpoint 25">
       <r>   -2.2790    1.0000 </r>
       <r>   -0.9845    1.0000 </r>
       <r>    8.5101    1.0000 </r>
       <r>    9.7516    0.0000 </r>
       <r>   10.4350    0.0000 </r>
       <r>   11.6822    0.0000 </r>
       <r>   18.7997    0.0000 </r>
       <r>   18.8427    0.0000 </r>
      </set>
      <set comment="kpoint 26">
       <r>   -2.9324    1.0000 </r>
       <r>    3.4166    1.0000 </r>
       <r>    7.7565    1.0000 </r>
       <r>    9.3906    0.0400 </r>
       <r>   11.9704    0.0000 </r>
       <r>   12.1378    0.0000 </r>
       <r>   14.5828    0.0000 </r>
       <r>   15.1994    0.0000 </r>
      </set>
      <set comment="kpoint 27">
       <r>   -1.2134    1.0000 </r>
       <r>    3.8279    1.0000 </r>
       <r>    7.6385    1.0000 </r>
       <r>    8.2446    1.0000 </r>
       <r>    9.7414    0.0000 </r>
       <r>   12.0900    0.0000 </r>
       <r>   13.8940    0.0000 </r>
       <r>   14.7413    0.0000 </r>
      </set>
      <set comment="kpoint 28">
       <r>    1.1523    1.0000 </r>
       <r>    4.1429    1.0000 </r>
       <r>    4.9549    1.0000 </r>
       <r>    6.5385    1.0000 </r>
       <r>   10.0438    0.0000 </r>
       <r>   12.4132    0.0000 </r>
       <r>   13.9033    0.0000 </r>
       <r>   14.4258    0.0000 </r>
      </set>
      <set comment="kpoint 29">
       <r>   -4.3211    1.0000 </r>
       <r>    4.0027    1.0000 </r>
       <r>    5.3610    1.0000 </r>
       <r>    8.9947    0.8529 </r>
       <r>   12.1719    0.0000 </r>
       <r>   13.4381    0.0000 </r>
       <r>   17.6255    0.0000 </r>
       <r>   18.2984    0.0000 </r>
      </set>
      <set comment="kpoint 30">
       <r>    1.0152    1.0000 </r>
       <r>    4.6610    1.0000 </r>
       <r>    5.2901    1.0000 </r>
       <r>    5.3853    1.0000 </r>
       <r>   11.1577    0.0000 </r>
       <r>   13.3179    0.0000 </r>
       <r>   13.6198    0.0000 </r>
       <r>   13.7752    0.0000 </r>
      </set>
      <set comment="kpoint 31">
       <r>    2.1248    1.0000 </r>
       <r>    3.3159    1.0000 </r>
       <r>    4.0500    1.0000 </r>
       <r>    6.3179    1.0000 </r>
       <r>   10.9963    0.0000 </r>
       <r>   12.5025    0.0000 </r>
       <r>   14.3269    0.0000 </r>
       <r>   15.2604    0.0000 </r>
      </set>
      <set comment="kpoint 32">
       <r>   -0.3505    1.0000 </r>
       <r>    2.1909    1.0000 </r>
       <r>    7.3151    1.0000 </r>
       <r>    8.2171    1.0000 </r>
       <r>   10.1878    0.0000 </r>
       <r>   12.4933    0.0000 </r>
       <r>   12.9924    0.0000 </r>
       <r>   14.9580    0.0000 </r>
      </set>
      <set comment="kpoint 33">
       <r>   -2.2049    1.0000 </r>
       <r>    1.6401    1.0000 </r>
       <r>    8.3829    1.0000 </r>
       <r>   10.0246    0.0000 </r>
       <r>   11.3292    0.0000 </r>
       <r>   11.7258    0.0000 </r>
       <r>   13.3333    0.0000 </r>
       <r>   14.2660    0.0000 </r>
      </set>
      <set comment="kpoint 34">
       <r>   -3.8815    1.0000 </r>
       <r>    2.4382    1.0000 </r>
       <r>    5.3749    1.0000 </r>
       <r>   10.1879    0.0000 </r>
       <r>   11.4830    0.0000 </r>
       <r>   14.1079    0.0000 </r>
       <r>   16.3411    0.0000 </r>
       <r>   18.7974    0.0000 </r>
      </set>
      <set comment="kpoint 35">
       <r>   -3.6803    1.0000 </r>
       <r>    3.3392    1.0000 </r>
       <r>    4.8843    1.0000 </r>
       <r>   10.6725    0.0000 </r>
       <r>   11.6498    0.0000 </r>
       <r>   13.8649    0.0000 </r>
       <r>   14.9339    0.0000 </r>
       <r>   17.6294    0.0000 </r>
      </set>
      <set comment="kpoint 36">
       <r>    0.7865    1.0000 </r>
       <r>    0.7929    1.0000 </r>
       <r>    7.1995    1.0000 </r>
       <r>    8.1772    1.0000 </r>
       <r>   10.8378    0.0000 </r>
       <r>   11.5815    0.0000 </r>
       <r>   13.6387    0.0000 </r>
       <r>   14.3301    0.0000 </r>
      </set>
      <set comment="kpoint 37">
       <r>   -1.1936    1.0000 </r>
       <r>    0.0939    1.0000 </r>
       <r>    9.1988    0.3468 </r>
       <r>   10.0087    0.0000 </r>
       <r>   11.2071    0.0000 </r>
       <r>   11.4733    0.0000 </r>
       <r>   12.6862    0.0000 </r>
       <r>   13.1511    0.0000 </r>
      </set>
      <set comment="kpoint 38">
       <r>   -3.1517    1.0000 </r>
       <r>    0.6958    1.0000 </r>
       <r>    6.0156    1.0000 </r>
       <r>    9.7302    0.0000 </r>
       <r>   11.1297    0.0000 </r>
       <r>   14.7937    0.0000 </r>
       <r>   16.7936    0.0000 </r>
       <r>   18.5999    0.0000 </r>
      </set>
      <set comment="kpoint 39">
       <r>   -3.0976    1.0000 </r>
       <r>    1.9253    1.0000 </r>
       <r>    4.9512    1.0000 </r>
       <r>    9.7923    0.0000 </r>
       <r>   11.8370    0.0000 </r>
       <r>   14.3785    0.0000 </r>
       <r>   16.0147    0.0000 </r>
       <r>   17.2748    0.0000 </r>
      </set>
      <set comment="kpoint 40">
       <r>   -2.3526    1.0000 </r>
       <r>    3.3386    1.0000 </r>
       <r>    4.9685    1.0000 </r>
       <r>    9.8385    0.0000 </r>
       <r>   10.5256    0.0000 </r>
       <r>   13.5165    0.0000 </r>
       <r>   14.8399    0.0000 </r>
       <r>   15.6077    0.0000 </r>
      </set>
      <set comment="kpoint 41">
       <r>   -2.1375    1.0000 </r>
       <r>   -0.8485    1.0000 </r>
       <r>    6.9754    1.0000 </r>
       <r>    8.2168    1.0000 </r>
       <r>   12.1612    0.0000 </r>
       <r>   13.3820    0.0000 </r>
       <r>   18.2943    0.0000 </r>
       <r>   18.3921    0.0000 </r>
      </set>
      <set comment="kpoint 42">
       <r>   -2.2287    1.0000 </r>
       <r>    0.3211    1.0000 </r>
       <r>    5.7094    1.0000 </r>
       <r>    8.1715    1.0000 </r>
       <r>   12.5783    0.0000 </r>
       <r>   14.1753    0.0000 </r>
       <r>   16.1128    0.0000 </r>
       <r>   17.2768    0.0000 </r>
      </set>
      <set comment="kpoint 43">
       <r>   -1.6325    1.0000 </r>
       <r>    2.0790    1.0000 </r>
       <r>    5.1310    1.0000 </r>
       <r>    8.6353    0.9998 </r>
       <r>    9.6296    0.0003 </r>
       <r>   14.5127    0.0000 </r>
       <r>   14.9988    0.0000 </r>
       <r>   17.1280    0.0000 </r>
      </set>
      <set comment="kpoint 44">
       <r>   -0.3579    1.0000 </r>
       <r>    3.9747    1.0000 </r>
       <r>    5.6481    1.0000 </r>
       <r>    6.2244    1.0000 </r>
       <r>    9.5866    0.0009 </r>
       <r>   12.3243    0.0000 </r>
       <r>   13.7467    0.0000 </r>
       <r>   16.2245    0.0000 </r>
      </set>
      <set comment="kpoint 45">
       <r>   -1.0850    1.0000 </r>
       <r>   -1.0816    1.0000 </r>
       <r>    6.7931    1.0000 </r>
       <r>    6.8031    1.0000 </r>
       <r>   12.8695    0.0000 </r>
       <r>   14.2962    0.0000 </r>
       <r>   15.4280    0.0000 </r>
       <r>   17.2587    0.0000 </r>
      </set>
      <set comment="kpoint 46">
       <r>   -0.6347    1.0000 </r>
       <r>    0.6224    1.0000 </r>
       <r>    6.0046    1.0000 </r>
       <r>    7.2060    1.0000 </r>
       <r>    9.3561    0.0660 </r>
       <r>   14.5089    0.0000 </r>
       <r>   15.8527    0.0000 </r>
       <r>   17.1814    0.0000 </r>
      </set>
      <set comment="kpoint 47">
       <r>    0.4886    1.0000 </r>
       <r>    2.8877    1.0000 </r>
       <r>    5.6980    1.0000 </r>
       <r>    6.0379    1.0000 </r>
       <r>    8.2185    1.0000 </r>
       <r>   12.3001    0.0000 </r>
       <r>   15.0253    0.0000 </r>
       <r>   17.3283    0.0000 </r>
      </set>
      <set comment="kpoint 48">
       <r>    2.1690    1.0000 </r>
       <r>    2.8952    1.0000 </r>
       <r>    5.3760    1.0000 </r>
       <r>    6.8554    1.0000 </r>
       <r>    8.8581    0.9781 </r>
       <r>   11.1627    0.0000 </r>
       <r>   11.8036    0.0000 </r>
       <r>   16.6572    0.0000 </r>
      </set>
      <set comment="kpoint 49">
       <r>    1.5738    1.0000 </r>
       <r>    1.6086    1.0000 </r>
       <r>    5.6208    1.0000 </r>
       <r>    6.8693    1.0000 </r>
       <r>    7.0335    1.0000 </r>
       <r>   12.2223    0.0000 </r>
       <r>   16.6049    0.0000 </r>
       <r>   16.8264    0.0000 </r>
      </set>
      <set comment="kpoint 50">
       <r>    2.3879    1.0000 </r>
       <r>    3.3372    1.0000 </r>
       <r>    4.4418    1.0000 </r>
       <r>    7.2291    1.0000 </r>
       <r>    8.2030    1.0000 </r>
       <r>   10.7251    0.0000 </r>
       <r>   13.1557    0.0000 </r>
       <r>   15.2662    0.0000 </r>
      </set>
      <set comment="kpoint 51">
       <r>    0.0200    1.0000 </r>
       <r>    5.5148    1.0000 </r>
       <r>    7.1389    1.0000 </r>
       <r>    8.0816    1.0000 </r>
       <r>    8.1174    1.0000 </r>
       <r>   11.0167    0.0000 </r>
       <r>   11.3139    0.0000 </r>
       <r>   13.6437    0.0000 </r>
      </set>
      <set comment="kpoint 52">
       <r>   -0.1221    1.0000 </r>
       <r>    6.4648    1.0000 </r>
       <r>    6.5041    1.0000 </r>
       <r>    7.8258    1.0000 </r>
       <r>    8.8719    0.9724 </r>
       <r>   10.5545    0.0000 </r>
       <r>   11.9506    0.0000 </r>
       <r>   12.2734    0.0000 </r>
      </set>
      <set comment="kpoint 53">
       <r>   -2.0816    1.0000 </r>
       <r>    7.2232    1.0000 </r>
       <r>    7.9856    1.0000 </r>
       <r>    8.6811    0.9995 </r>
       <r>    9.8216    0.0000 </r>
       <r>   10.7333    0.0000 </r>
       <r>   12.5159    0.0000 </r>
       <r>   13.1793    0.0000 </r>
      </set>
      <set comment="kpoint 54">
       <r>   -3.5169    1.0000 </r>
       <r>    7.2009    1.0000 </r>
       <r>    7.2366    1.0000 </r>
       <r>    7.2367    1.0000 </r>
       <r>   11.7716    0.0000 </r>
       <r>   12.9322    0.0000 </r>
       <r>   13.2908    0.0000 </r>
       <r>   15.5338    0.0000 </r>
      </set>
      <set comment="kpoint 55">
       <r>    1.9973    1.0000 </r>
       <r>    3.2349    1.0000 </r>
       <r>    5.0426    1.0000 </r>
       <r>    5.0632    1.0000 </r>
       <r>   12.3507    0.0000 </r>
       <r>   13.5105    0.0000 </r>
       <r>   14.6444    0.0000 </r>
       <r>   14.6750    0.0000 </r>
      </set>
      <set comment="kpoint 56">
       <r>   -3.4443    1.0000 </r>
       <r>    2.2869    1.0000 </r>
       <r>    3.9511    1.0000 </r>
       <r>    9.5259    0.0034 </r>
       <r>   12.1401    0.0000 </r>
       <r>   15.3071    0.0000 </r>
       <r>   17.6216    0.0000 </r>
       <r>   18.3562    0.0000 </r>
      </set>
      <set comment="kpoint 57">
       <r>   -2.7201    1.0000 </r>
       <r>    1.0163    1.0000 </r>
       <r>    4.1134    1.0000 </r>
       <r>    7.7470    1.0000 </r>
       <r>   13.4760    0.0000 </r>
       <r>   16.7446    0.0000 </r>
       <r>   17.4554    0.0000 </r>
       <r>   18.3374    0.0000 </r>
      </set>
      <set comment="kpoint 58">
       <r>   -2.5204    1.0000 </r>
       <r>    1.9001    1.0000 </r>
       <r>    3.6251    1.0000 </r>
       <r>    7.9292    1.0000 </r>
       <r>   12.8311    0.0000 </r>
       <r>   14.9809    0.0000 </r>
       <r>   17.3022    0.0000 </r>
       <r>   18.4915    0.0000 </r>
      </set>
      <set comment="kpoint 59">
       <r>   -1.7167    1.0000 </r>
       <r>   -0.4520    1.0000 </r>
       <r>    5.0023    1.0000 </r>
       <r>    6.2336    1.0000 </r>
       <r>   14.5607    0.0000 </r>
       <r>   15.6585    0.0000 </r>
       <r>   17.9000    0.0000 </r>
       <r>   18.0409    0.0000 </r>
      </set>
      <set comment="kpoint 60">
       <r>   -1.6633    1.0000 </r>
       <r>    0.7794    1.0000 </r>
       <r>    3.9055    1.0000 </r>
       <r>    6.2882    1.0000 </r>
       <r>   12.7724    0.0000 </r>
       <r>   16.0940    0.0000 </r>
       <r>   18.3996    0.0000 </r>
       <r>   18.6714    0.0000 </r>
      </set>
      <set comment="kpoint 61">
       <r>   -0.9244    1.0000 </r>
       <r>    2.1895    1.0000 </r>
       <r>    3.9375    1.0000 </r>
       <r>    6.9556    1.0000 </r>
       <r>    9.1001    0.6195 </r>
       <r>   15.7262    0.0000 </r>
       <r>   17.1130    0.0000 </r>
       <r>   17.3621    0.0000 </r>
      </set>
      <set comment="kpoint 62">
       <r>   -0.5463    1.0000 </r>
       <r>   -0.5411    1.0000 </r>
       <r>    4.9239    1.0000 </r>
       <r>    4.9257    1.0000 </r>
       <r>   12.6979    0.0000 </r>
       <r>   16.8989    0.0000 </r>
       <r>   17.6459    0.0000 </r>
       <r>   18.6820    0.0000 </r>
      </set>
      <set comment="kpoint 63">
       <r>    0.0469    1.0000 </r>
       <r>    1.2203    1.0000 </r>
       <r>    4.3402    1.0000 </r>
       <r>    5.4833    1.0000 </r>
       <r>    8.8401    0.9839 </r>
       <r>   16.0901    0.0000 </r>
       <r>   18.0830    0.0000 </r>
       <r>   18.7328    0.0000 </r>
      </set>
      <set comment="kpoint 64">
       <r>    1.3051    1.0000 </r>
       <r>    3.1231    1.0000 </r>
       <r>    4.8832    1.0000 </r>
       <r>    5.4106    1.0000 </r>
       <r>    6.7111    1.0000 </r>
       <r>   13.5812    0.0000 </r>
       <r>   15.1452    0.0000 </r>
       <r>   17.7845    0.0000 </r>
      </set>
      <set comment="kpoint 65">
       <r>    2.2879    1.0000 </r>
       <r>    2.3492    1.0000 </r>
       <r>    5.1263    1.0000 </r>
       <r>    5.4111    1.0000 </r>
       <r>    5.6029    1.0000 </r>
       <r>   13.9045    0.0000 </r>
       <r>   16.2192    0.0000 </r>
       <r>   16.7539    0.0000 </r>
      </set>
      <set comment="kpoint 66">
       <r>    2.1581    1.0000 </r>
       <r>    4.1628    1.0000 </r>
       <r>    4.8387    1.0000 </r>
       <r>    6.4073    1.0000 </r>
       <r>    7.0473    1.0000 </r>
       <r>   11.9467    0.0000 </r>
       <r>   13.1279    0.0000 </r>
       <r>   14.3226    0.0000 </r>
      </set>
      <set comment="kpoint 67">
       <r>   -0.2647    1.0000 </r>
       <r>    6.9357    1.0000 </r>
       <r>    7.0843    1.0000 </r>
       <r>    8.1390    1.0000 </r>
       <r>    8.1390    1.0000 </r>
       <r>   10.6450    0.0000 </r>
       <r>   11.7158    0.0000 </r>
       <r>   11.7158    0.0000 </r>
      </set>
      <set comment="kpoint 68">
       <r>   -2.0081    1.0000 </r>
       <r>    1.1243    1.0000 </r>
       <r>    2.9015    1.0000 </r>
       <r>    5.9688    1.0000 </r>
       <r>   15.2713    0.0000 </r>
       <r>   16.8707    0.0000 </r>
       <r>   18.1108    0.0000 </r>
       <r>   19.1414    0.0000 </r>
      </set>
      <set comment="kpoint 69">
       <r>   -1.0317    1.0000 </r>
       <r>    0.1487    1.0000 </r>
       <r>    3.3081    1.0000 </r>
       <r>    4.4669    1.0000 </r>
       <r>   16.1358    0.0000 </r>
       <r>   16.5410    0.0000 </r>
       <r>   18.5231    0.0000 </r>
       <r>   19.2609    0.0000 </r>
      </set>
      <set comment="kpoint 70">
       <r>   -0.8338    1.0000 </r>
       <r>    1.0279    1.0000 </r>
       <r>    2.8259    1.0000 </r>
       <r>    4.6560    1.0000 </r>
       <r>   12.5063    0.0000 </r>
       <r>   18.1675    0.0000 </r>
       <r>   19.6227    0.0000 </r>
       <r>   20.0347    0.0000 </r>
      </set>
      <set comment="kpoint 71">
       <r>    0.1970    1.0000 </r>
       <r>    0.2042    1.0000 </r>
       <r>    3.3631    1.0000 </r>
       <r>    3.3644    1.0000 </r>
       <r>   12.4036    0.0000 </r>
       <r>   19.3023    0.0000 </r>
       <r>   19.8765    0.0000 </r>
       <r>   19.9926    0.0000 </r>
      </set>
      <set comment="kpoint 72">
       <r>    0.9322    1.0000 </r>
       <r>    1.6113    1.0000 </r>
       <r>    3.4022    1.0000 </r>
       <r>    4.0714    1.0000 </r>
       <r>    8.5794    1.0000 </r>
       <r>   17.4109    0.0000 </r>
       <r>   18.8612    0.0000 </r>
       <r>   19.3810    0.0000 </r>
      </set>
      <set comment="kpoint 73">
       <r>    2.7869    1.0000 </r>
       <r>    2.8844    1.0000 </r>
       <r>    4.6230    1.0000 </r>
       <r>    4.6230    1.0000 </r>
       <r>    5.2031    1.0000 </r>
       <r>   15.1810    0.0000 </r>
       <r>   16.0836    0.0000 </r>
       <r>   16.0836    0.0000 </r>
      </set>
      <set comment="kpoint 74">
       <r>   -0.1440    1.0000 </r>
       <r>    0.5392    1.0000 </r>
       <r>    2.3619    1.0000 </r>
       <r>    3.0353    1.0000 </r>
       <r>   16.3924    0.0000 </r>
       <r>   16.4650    0.0000 </r>
       <r>   20.1622    0.0000 </r>
       <r>   20.8329    0.0000 </r>
      </set>
      <set comment="kpoint 75">
       <r>    0.7308    1.0000 </r>
       <r>    0.7399    1.0000 </r>
       <r>    2.5548    1.0000 </r>
       <r>    2.5548    1.0000 </r>
       <r>   12.2956    0.0000 </r>
       <r>   20.2334    0.0000 </r>
       <r>   21.0022    0.0000 </r>
       <r>   21.0184    0.0000 </r>
      </set>
     </set>
    </set>
   </array>
  </eigenvalues>
  <separator name="orbital magnetization" >
   <v name="MAGDIPOLOUT">      0.00000000      0.00000000      0.00000000</v>
  </separator>
  <dos>
   <i name="efermi">      9.14309497 </i>
   <total>
    <array>
     <dimension dim="1">gridpoints</dimension>
     <dimension dim="2">spin</dimension>
     <field>energy</field>
     <field>total</field>
     <field>integrated</field>
     <set>
      <set comment="spin 1">
       <r>    -6.6150     0.0000     0.0000 </r>
       <r>    -6.5162     0.0000     0.0000 </r>
       <r>    -6.4175     0.0000     0.0000 </r>
       <r>    -6.3187     0.0000     0.0000 </r>
       <r>    -6.2199     0.0000     0.0000 </r>
       <r>    -6.1211     0.0000     0.0000 </r>
       <r>    -6.0223     0.0000     0.0000 </r>
       <r>    -5.9236     0.0000     0.0000 </r>
       <r>    -5.8248     0.0000     0.0000 </r>
       <r>    -5.7260     0.0000     0.0000 </r>
       <r>    -5.6272     0.0000     0.0000 </r>
       <r>    -5.5285     0.0000     0.0000 </r>
       <r>    -5.4297     0.0000     0.0000 </r>
       <r>    -5.3309     0.0000     0.0000 </r>
       <r>    -5.2321     0.0000     0.0000 </r>
       <r>    -5.1333     0.0000     0.0000 </r>
       <r>    -5.0346     0.0000     0.0000 </r>
       <r>    -4.9358     0.0003     0.0000 </r>
       <r>    -4.8370     0.0018     0.0002 </r>
       <r>    -4.7382     0.0066     0.0009 </r>
       <r>    -4.6395     0.0181     0.0026 </r>
       <r>    -4.5407     0.0389     0.0065 </r>
       <r>    -4.4419     0.0687     0.0133 </r>
       <r>    -4.3431     0.1002     0.0232 </r>
       <r>    -4.2443     0.1215     0.0352 </r>
       <r>    -4.1456     0.1380     0.0488 </r>
       <r>    -4.0468     0.1727     0.0659 </r>
       <r>    -3.9480     0.2120     0.0868 </r>
       <r>    -3.8492     0.2100     0.1076 </r>
       <r>    -3.7504     0.1696     0.1243 </r>
       <r>    -3.6517     0.1405     0.1382 </r>
       <r>    -3.5529     0.1587     0.1539 </r>
       <r>    -3.4541     0.2274     0.1763 </r>
       <r>    -3.3553     0.3066     0.2066 </r>
       <r>    -3.2566     0.3462     0.2408 </r>
       <r>    -3.1578     0.3417     0.2746 </r>
       <r>    -3.0590     0.3093     0.3051 </r>
       <r>    -2.9602     0.2675     0.3315 </r>
       <r>    -2.8614     0.2488     0.3561 </r>
       <r>    -2.7627     0.2568     0.3815 </r>
       <r>    -2.6639     0.2657     0.4077 </r>
       <r>    -2.5651     0.2746     0.4349 </r>
       <r>    -2.4663     0.2921     0.4637 </r>
       <r>    -2.3676     0.3214     0.4955 </r>
       <r>    -2.2688     0.3775     0.5327 </r>
       <r>    -2.1700     0.4400     0.5762 </r>
       <r>    -2.0712     0.4444     0.6201 </r>
       <r>    -1.9724     0.3777     0.6574 </r>
       <r>    -1.8737     0.3224     0.6893 </r>
       <r>    -1.7749     0.3529     0.7241 </r>
       <r>    -1.6761     0.4196     0.7656 </r>
       <r>    -1.5773     0.4214     0.8072 </r>
       <r>    -1.4786     0.3589     0.8426 </r>
       <r>    -1.3798     0.3211     0.8744 </r>
       <r>    -1.2810     0.3592     0.9098 </r>
       <r>    -1.1822     0.4563     0.9549 </r>
       <r>    -1.0834     0.5628     1.0105 </r>
       <r>    -0.9847     0.6134     1.0711 </r>
       <r>    -0.8859     0.5656     1.1270 </r>
       <r>    -0.7871     0.4515     1.1716 </r>
       <r>    -0.6883     0.3621     1.2073 </r>
       <r>    -0.5896     0.3484     1.2417 </r>
       <r>    -0.4908     0.3725     1.2785 </r>
       <r>    -0.3920     0.3800     1.3161 </r>
       <r>    -0.2932     0.3617     1.3518 </r>
       <r>    -0.1944     0.3615     1.3875 </r>
       <r>    -0.0957     0.4392     1.4309 </r>
       <r>     0.0031     0.5838     1.4886 </r>
       <r>     0.1019     0.7079     1.5585 </r>
       <r>     0.2007     0.7439     1.6320 </r>
       <r>     0.2994     0.6995     1.7011 </r>
       <r>     0.3982     0.6295     1.7633 </r>
       <r>     0.4970     0.5803     1.8206 </r>
       <r>     0.5958     0.5628     1.8762 </r>
       <r>     0.6946     0.5709     1.9326 </r>
       <r>     0.7933     0.5867     1.9905 </r>
       <r>     0.8921     0.5936     2.0491 </r>
       <r>     0.9909     0.6063     2.1090 </r>
       <r>     1.0897     0.6174     2.1700 </r>
       <r>     1.1885     0.5686     2.2262 </r>
       <r>     1.2872     0.4458     2.2702 </r>
       <r>     1.3860     0.3330     2.3031 </r>
       <r>     1.4848     0.3357     2.3363 </r>
       <r>     1.5836     0.4500     2.3807 </r>
       <r>     1.6823     0.5550     2.4355 </r>
       <r>     1.7811     0.5713     2.4920 </r>
       <r>     1.8799     0.5461     2.5459 </r>
       <r>     1.9787     0.5672     2.6019 </r>
       <r>     2.0775     0.6599     2.6671 </r>
       <r>     2.1762     0.7652     2.7427 </r>
       <r>     2.2750     0.8176     2.8235 </r>
       <r>     2.3738     0.8063     2.9031 </r>
       <r>     2.4726     0.7045     2.9727 </r>
       <r>     2.5713     0.4994     3.0220 </r>
       <r>     2.6701     0.3075     3.0524 </r>
       <r>     2.7689     0.2595     3.0781 </r>
       <r>     2.8677     0.3270     3.1104 </r>
       <r>     2.9665     0.3926     3.1491 </r>
       <r>     3.0652     0.4361     3.1922 </r>
       <r>     3.1640     0.5467     3.2462 </r>
       <r>     3.2628     0.7643     3.3217 </r>
       <r>     3.3616     0.9600     3.4165 </r>
       <r>     3.4603     0.9436     3.5097 </r>
       <r>     3.5591     0.7313     3.5820 </r>
       <r>     3.6579     0.5283     3.6342 </r>
       <r>     3.7567     0.4961     3.6832 </r>
       <r>     3.8555     0.6551     3.7479 </r>
       <r>     3.9542     0.8649     3.8333 </r>
       <r>     4.0530     0.9315     3.9253 </r>
       <r>     4.1518     0.8056     4.0049 </r>
       <r>     4.2506     0.6083     4.0650 </r>
       <r>     4.3493     0.4743     4.1118 </r>
       <r>     4.4481     0.4206     4.1534 </r>
       <r>     4.5469     0.4020     4.1931 </r>
       <r>     4.6457     0.4225     4.2348 </r>
       <r>     4.7445     0.5144     4.2856 </r>
       <r>     4.8432     0.6867     4.3535 </r>
       <r>     4.9420     0.8789     4.4403 </r>
       <r>     5.0408     0.9608     4.5352 </r>
       <r>     5.1396     0.9064     4.6247 </r>
       <r>     5.2384     0.8546     4.7091 </r>
       <r>     5.3371     0.8899     4.7970 </r>
       <r>     5.4359     0.9324     4.8891 </r>
       <r>     5.5347     0.9165     4.9797 </r>
       <r>     5.6335     0.8721     5.0658 </r>
       <r>     5.7322     0.7830     5.1432 </r>
       <r>     5.8310     0.6266     5.2051 </r>
       <r>     5.9298     0.5028     5.2547 </r>
       <r>     6.0286     0.4984     5.3040 </r>
       <r>     6.1274     0.6072     5.3639 </r>
       <r>     6.2261     0.8411     5.4470 </r>
       <r>     6.3249     1.1357     5.5592 </r>
       <r>     6.4237     1.2722     5.6849 </r>
       <r>     6.5225     1.1360     5.7971 </r>
       <r>     6.6212     0.8885     5.8848 </r>
       <r>     6.7200     0.7807     5.9620 </r>
       <r>     6.8188     0.8769     6.0486 </r>
       <r>     6.9176     1.0272     6.1500 </r>
       <r>     7.0164     1.0773     6.2564 </r>
       <r>     7.1151     1.0167     6.3569 </r>
       <r>     7.2139     0.9183     6.4476 </r>
       <r>     7.3127     0.8182     6.5284 </r>
       <r>     7.4115     0.7547     6.6029 </r>
       <r>     7.5102     0.7888     6.6809 </r>
       <r>     7.6090     0.8738     6.7672 </r>
       <r>     7.7078     0.8923     6.8553 </r>
       <r>     7.8066     0.8332     6.9376 </r>
       <r>     7.9054     0.7737     7.0140 </r>
       <r>     8.0041     0.7835     7.0914 </r>
       <r>     8.1029     0.9188     7.1822 </r>
       <r>     8.2017     1.1022     7.2911 </r>
       <r>     8.3005     1.0978     7.3995 </r>
       <r>     8.3992     0.8559     7.4841 </r>
       <r>     8.4980     0.6247     7.5458 </r>
       <r>     8.5968     0.5894     7.6040 </r>
       <r>     8.6956     0.6886     7.6720 </r>
       <r>     8.7944     0.7848     7.7495 </r>
       <r>     8.8931     0.8089     7.8294 </r>
       <r>     8.9919     0.7585     7.9043 </r>
       <r>     9.0907     0.6607     7.9696 </r>
       <r>     9.1895     0.5610     8.0250 </r>
       <r>     9.2883     0.5134     8.0757 </r>
       <r>     9.3870     0.5258     8.1277 </r>
       <r>     9.4858     0.5738     8.1843 </r>
       <r>     9.5846     0.6733     8.2509 </r>
       <r>     9.6834     0.8319     8.3330 </r>
       <r>     9.7821     0.9692     8.4288 </r>
       <r>     9.8809     1.0071     8.5282 </r>
       <r>     9.9797     1.0134     8.6283 </r>
       <r>    10.0785     1.0585     8.7329 </r>
       <r>    10.1773     1.0247     8.8341 </r>
       <r>    10.2760     0.8026     8.9134 </r>
       <r>    10.3748     0.5166     8.9644 </r>
       <r>    10.4736     0.3764     9.0016 </r>
       <r>    10.5724     0.4469     9.0457 </r>
       <r>    10.6711     0.6274     9.1077 </r>
       <r>    10.7699     0.7520     9.1820 </r>
       <r>    10.8687     0.7430     9.2554 </r>
       <r>    10.9675     0.6729     9.3219 </r>
       <r>    11.0663     0.6407     9.3852 </r>
       <r>    11.1650     0.6711     9.4514 </r>
       <r>    11.2638     0.7343     9.5240 </r>
       <r>    11.3626     0.7887     9.6019 </r>
       <r>    11.4614     0.8162     9.6825 </r>
       <r>    11.5601     0.8353     9.7650 </r>
       <r>    11.6589     0.8627     9.8502 </r>
       <r>    11.7577     0.8699     9.9362 </r>
       <r>    11.8565     0.8453    10.0196 </r>
       <r>    11.9553     0.8364    10.1023 </r>
       <r>    12.0540     0.8702    10.1882 </r>
       <r>    12.1528     0.9241    10.2795 </r>
       <r>    12.2516     0.9956    10.3779 </r>
       <r>    12.3504     1.1289    10.4894 </r>
       <r>    12.4491     1.3069    10.6185 </r>
       <r>    12.5479     1.3926    10.7560 </r>
       <r>    12.6467     1.3038    10.8848 </r>
       <r>    12.7455     1.1344    10.9969 </r>
       <r>    12.8443     1.0242    11.0980 </r>
       <r>    12.9430     1.0414    11.2009 </r>
       <r>    13.0418     1.1491    11.3144 </r>
       <r>    13.1406     1.1949    11.4324 </r>
       <r>    13.2394     1.0774    11.5389 </r>
       <r>    13.3381     0.9362    11.6313 </r>
       <r>    13.4369     0.9532    11.7255 </r>
       <r>    13.5357     1.0667    11.8309 </r>
       <r>    13.6345     1.0991    11.9394 </r>
       <r>    13.7333     1.0060    12.0388 </r>
       <r>    13.8320     0.8801    12.1257 </r>
       <r>    13.9308     0.8012    12.2049 </r>
       <r>    14.0296     0.7733    12.2812 </r>
       <r>    14.1284     0.7961    12.3599 </r>
       <r>    14.2272     0.8826    12.4470 </r>
       <r>    14.3259     1.0046    12.5463 </r>
       <r>    14.4247     1.1011    12.6550 </r>
       <r>    14.5235     1.1447    12.7681 </r>
       <r>    14.6223     1.1343    12.8802 </r>
       <r>    14.7210     1.0762    12.9865 </r>
       <r>    14.8198     1.0108    13.0863 </r>
       <r>    14.9186     0.9783    13.1829 </r>
       <r>    15.0174     0.9865    13.2804 </r>
       <r>    15.1162     1.0448    13.3836 </r>
       <r>    15.2149     1.1354    13.4957 </r>
       <r>    15.3137     1.1214    13.6065 </r>
       <r>    15.4125     0.9138    13.6968 </r>
       <r>    15.5113     0.6641    13.7624 </r>
       <r>    15.6100     0.5651    13.8182 </r>
       <r>    15.7088     0.6501    13.8824 </r>
       <r>    15.8076     0.8509    13.9665 </r>
       <r>    15.9064     1.0759    14.0727 </r>
       <r>    16.0052     1.2198    14.1932 </r>
       <r>    16.1039     1.1886    14.3106 </r>
       <r>    16.2027     0.9598    14.4054 </r>
       <r>    16.3015     0.6529    14.4699 </r>
       <r>    16.4003     0.4466    14.5141 </r>
       <r>    16.4990     0.4100    14.5546 </r>
       <r>    16.5978     0.4899    14.6030 </r>
       <r>    16.6966     0.5784    14.6601 </r>
       <r>    16.7954     0.5793    14.7173 </r>
       <r>    16.8942     0.4872    14.7654 </r>
       <r>    16.9929     0.4122    14.8062 </r>
       <r>    17.0917     0.4797    14.8535 </r>
       <r>    17.1905     0.6806    14.9208 </r>
       <r>    17.2893     0.8532    15.0050 </r>
       <r>    17.3880     0.8366    15.0877 </r>
       <r>    17.4868     0.6476    15.1516 </r>
       <r>    17.5856     0.4485    15.1959 </r>
       <r>    17.6844     0.3318    15.2287 </r>
       <r>    17.7832     0.2699    15.2554 </r>
       <r>    17.8819     0.2439    15.2795 </r>
       <r>    17.9807     0.2690    15.3060 </r>
       <r>    18.0795     0.3305    15.3387 </r>
       <r>    18.1783     0.3894    15.3771 </r>
       <r>    18.2771     0.4440    15.4210 </r>
       <r>    18.3758     0.5006    15.4704 </r>
       <r>    18.4746     0.5308    15.5229 </r>
       <r>    18.5734     0.5389    15.5761 </r>
       <r>    18.6722     0.5556    15.6310 </r>
       <r>    18.7709     0.5441    15.6847 </r>
       <r>    18.8697     0.4479    15.7290 </r>
       <r>    18.9685     0.2993    15.7585 </r>
       <r>    19.0673     0.1935    15.7777 </r>
       <r>    19.1661     0.1848    15.7959 </r>
       <r>    19.2648     0.2332    15.8189 </r>
       <r>    19.3636     0.2503    15.8437 </r>
       <r>    19.4624     0.2031    15.8637 </r>
       <r>    19.5612     0.1398    15.8775 </r>
       <r>    19.6599     0.1053    15.8879 </r>
       <r>    19.7587     0.1025    15.8981 </r>
       <r>    19.8575     0.1280    15.9107 </r>
       <r>    19.9563     0.1675    15.9272 </r>
       <r>    20.0551     0.1836    15.9454 </r>
       <r>    20.1538     0.1548    15.9607 </r>
       <r>    20.2526     0.1003    15.9706 </r>
       <r>    20.3514     0.0503    15.9755 </r>
       <r>    20.4502     0.0194    15.9775 </r>
       <r>    20.5489     0.0074    15.9782 </r>
       <r>    20.6477     0.0096    15.9791 </r>
       <r>    20.7465     0.0225    15.9814 </r>
       <r>    20.8453     0.0394    15.9853 </r>
       <r>    20.9441     0.0497    15.9902 </r>
       <r>    21.0428     0.0464    15.9948 </r>
       <r>    21.1416     0.0318    15.9979 </r>
       <r>    21.2404     0.0153    15.9994 </r>
       <r>    21.3392     0.0049    15.9999 </r>
       <r>    21.4379     0.0010    16.0000 </r>
       <r>    21.5367     0.0001    16.0000 </r>
       <r>    21.6355     0.0000    16.0000 </r>
       <r>    21.7343     0.0000    16.0000 </r>
       <r>    21.8331     0.0000    16.0000 </r>
       <r>    21.9318     0.0000    16.0000 </r>
       <r>    22.0306     0.0000    16.0000 </r>
       <r>    22.1294     0.0000    16.0000 </r>
       <r>    22.2282     0.0000    16.0000 </r>
       <r>    22.3270     0.0000    16.0000 </r>
       <r>    22.4257     0.0000    16.0000 </r>
       <r>    22.5245     0.0000    16.0000 </r>
       <r>    22.6233     0.0000    16.0000 </r>
       <r>    22.7221     0.0000    16.0000 </r>
       <r>    22.8208     0.0000    16.0000 </r>
       <r>    22.9196     0.0000    16.0000 </r>
       <r>    23.0184     0.0000    16.0000 </r>
      </set>
     </set>
    </array>
   </total>
  </dos>
 </calculation>
 <structure name="finalpos" >
  <crystal>
   <varray name="basis" >
    <v>      -2.45000000       2.45000000       1.27400000 </v>
    <v>       2.45000000      -2.45000000       1.27400000 </v>
    <v>       2.45000000       2.45000000      -1.27400000 </v>
   </varray>
   <i name="volume">     30.58874000 </i>
   <varray name="rec_basis" >
    <v>       0.00000000       0.20408163       0.39246468 </v>
    <v>       0.20408163       0.00000000       0.39246468 </v>
    <v>       0.20408163       0.20408163      -0.00000000 </v>
   </varray>
  </crystal>
  <varray name="positions" >
   <v>       0.25000000       0.75000000       0.50000000 </v>
   <v>       0.00000000       0.00000000       0.00000000 </v>
  </varray>
 </structure>
</modeling>
