unknown system                          
           1
    -2.450000    2.450000    1.274000
     2.450000   -2.450000    1.274000
     2.450000    2.450000   -1.274000
   Si
   2
Direct configuration=     1
   0.25000000  0.75000000  0.50000000
   0.00000000  0.00000000  0.00000000
unknown system                          
           1
    -2.183468    2.183468    1.413890
     2.183468   -2.183468    1.413890
     2.183468    2.183468   -1.413890
   Si
   2
Direct configuration=     2
   0.25000000  0.75000000  0.50000000
  -0.00000000 -0.00000000 -0.00000000
unknown system                          
           1
    -2.340276    2.340276    1.331589
     2.340276   -2.340276    1.331589
     2.340276    2.340276   -1.331589
   Si
   2
Direct configuration=     3
   0.25000000  0.75000000  0.50000000
  -0.00000000 -0.00000000 -0.00000000
unknown system                          
           1
    -2.336391    2.336391    1.333628
     2.336391   -2.336391    1.333628
     2.336391    2.336391   -1.333628
   Si
   2
Direct configuration=     4
   0.25000000  0.75000000  0.50000000
  -0.00000000 -0.00000000 -0.00000000
unknown system                          
           1
    -2.336038    2.336038    1.333813
     2.336038   -2.336038    1.333813
     2.336038    2.336038   -1.333813
   Si
   2
Direct configuration=     5
   0.25000000  0.75000000  0.50000000
  -0.00000000 -0.00000000 -0.00000000
unknown system                          
           1
    -2.336273    2.336273    1.333690
     2.336273   -2.336273    1.333690
     2.336273    2.336273   -1.333690
   Si
   2
Direct configuration=     6
   0.25000000  0.75000000  0.50000000
  -0.00000000 -0.00000000 -0.00000000
unknown system                          
           1
    -2.336342    2.336342    1.333654
     2.336342   -2.336342    1.333654
     2.336342    2.336342   -1.333654
   Si
   2
Direct configuration=     7
   0.25000000  0.75000000  0.50000000
  -0.00000000 -0.00000000 -0.00000000
unknown system                          
           1
    -2.336368    2.336368    1.333640
     2.336368   -2.336368    1.333640
     2.336368    2.336368   -1.333640
   Si
   2
Direct configuration=     8
   0.25000000  0.75000000  0.50000000
  -0.00000000 -0.00000000 -0.00000000
unknown system                          
           1
    -2.336380    2.336380    1.333634
     2.336380   -2.336380    1.333634
     2.336380    2.336380   -1.333634
   Si
   2
Direct configuration=     9
   0.25000000  0.75000000  0.50000000
  -0.00000000 -0.00000000 -0.00000000
unknown system                          
           1
    -2.336385    2.336385    1.333631
     2.336385   -2.336385    1.333631
     2.336385    2.336385   -1.333631
   Si
   2
Direct configuration=    10
   0.25000000  0.75000000  0.50000000
  -0.00000000 -0.00000000 -0.00000000
unknown system                          
           1
    -2.336388    2.336388    1.333629
     2.336388   -2.336388    1.333629
     2.336388    2.336388   -1.333629
   Si
   2
Direct configuration=    11
   0.25000000  0.75000000  0.50000000
  -0.00000000 -0.00000000 -0.00000000
unknown system                          
           1
    -2.336390    2.336390    1.333629
     2.336390   -2.336390    1.333629
     2.336390    2.336390   -1.333629
   Si
   2
Direct configuration=    12
   0.25000000  0.75000000  0.50000000
  -0.00000000 -0.00000000 -0.00000000
unknown system                          
           1
    -2.336390    2.336390    1.333628
     2.336390   -2.336390    1.333628
     2.336390    2.336390   -1.333628
   Si
   2
Direct configuration=    13
   0.25000000  0.75000000  0.50000000
  -0.00000000 -0.00000000 -0.00000000
unknown system                          
           1
    -2.336391    2.336391    1.333628
     2.336391   -2.336391    1.333628
     2.336391    2.336391   -1.333628
   Si
   2
Direct configuration=    14
   0.25000000  0.75000000  0.50000000
  -0.00000000 -0.00000000 -0.00000000
unknown system                          
           1
    -2.336391    2.336391    1.333628
     2.336391   -2.336391    1.333628
     2.336391    2.336391   -1.333628
   Si
   2
Direct configuration=    15
   0.25000000  0.75000000  0.50000000
  -0.00000000 -0.00000000 -0.00000000
