unknown system                          
   1.00000000000000     
    -2.334320    2.334320    1.332056
     2.334320   -2.334320    1.332056
     2.334320    2.334320   -1.332056
   Si
     2
Direct
  0.000000  0.000000  0.000000
  0.250000  0.750000  0.500000
 
   32   32   32
 -5.1235     -4.0648     -1.1995      2.6645      6.5295      9.5431      11.226      11.538      10.799      9.5266    
  8.1725      6.9196      5.8633      5.0490      4.4836      4.1543      4.0466      4.1543      4.4836      5.0490    
  5.8632      6.9196      8.1725      9.5266      10.799      11.538      11.226      9.5431      6.5295      2.6645    
 -1.1995     -4.0648     -4.0648     -4.5457     -2.9846     0.15452      3.9945      7.5705      10.139      11.356    
  11.296      10.349      9.0349      7.7153      6.5289      5.5551      4.8259      4.3406      4.0850      4.0464    
  4.2224      4.6226      5.2629      6.1529      7.2770      8.5771      9.9448      11.143      11.672      11.051    
  9.0461      5.8122      1.9357     -1.6774     -1.1995     -2.9846     -2.9053     -.99936      2.1612      5.6974    
  8.7406      10.695      11.363      10.923      9.8051      8.4904      7.2261      6.1227      5.2420      4.6033    
  4.2001      4.0175      4.0458      4.2865      4.7521      5.4585      6.4106      7.5845      8.9113      10.271    
  11.379      11.732      10.908      8.7646      5.5568      1.9357      2.6645     0.15451     -.99937     -.46419    
  1.5767      4.5018      7.4951      9.8315      11.083      11.192      10.418      9.1987      7.9161      6.7263    
  5.7188      4.9376      4.3907      4.0677      3.9547      4.0453      4.3444      4.8666      5.6264      6.6243    
  7.8280      9.1604      10.494      11.516      11.752      10.853      8.7646      5.8122      6.5295      3.9945    
  2.1612      1.5767      2.4035      4.3577      6.8288      9.1159      10.665      11.214      10.825      9.8060    
  8.5626      7.3363      6.2375      5.3341      4.6537      4.1961      3.9487      3.8993      4.0450      4.3938    
  4.9611      5.7596      6.7842      7.9964      9.3140      10.606      11.560      11.752      10.908      9.0461    
  9.5431      7.5705      5.6974      4.5018      4.3577      5.2885      6.9630      8.8345      10.349      11.126    
  11.054      10.284      9.1388      7.9239      6.7753      5.7790      4.9826      4.4005      4.0265      3.8472    
  3.8534      4.0452      4.4330      5.0319      5.8518      6.8831      8.0825      9.3660      10.606      11.516    
  11.732      11.051      11.226      10.139      8.7406      7.4951      6.8288      6.9630      7.8259      9.0893    
  10.306      11.077      11.183      10.633      9.6304      8.4661      7.3092      6.2551      5.3674      4.6762    
  4.1858      3.8865      3.7661      3.8183      4.0458      4.4601      5.0756      5.8989      6.9166      8.0825    
  9.3140      10.494      11.379      11.672      11.538      11.356      10.695      9.8315      9.1159      8.8345    
  9.0893      9.7591      10.557      11.150      11.288      10.884      10.030      8.9479      7.8199      6.7445    
  5.7952      5.0159      4.4232      4.0147      3.7796      3.7074      3.7947      4.0463      4.4741      5.0904    
  5.8989      6.8831      7.9964      9.1604      10.271      11.143      10.799      11.296      11.363      11.083    
  10.665      10.349      10.306      10.557      10.970      11.322      11.395      11.063      10.338      9.3596    
  8.2922      7.2311      6.2527      5.4110      4.7343      4.2295      3.8908      3.7075      3.6719      3.7828    
  4.0465      4.4741      5.0756      5.8518      6.7842      7.8280      8.9113      9.9448      9.5266      10.349    
  10.923      11.192      11.214      11.126      11.077      11.150      11.322      11.479      11.466      11.167    
  10.550      9.6913      8.7132      7.7005      6.7271      5.8524      5.1141      4.5292      4.0988      3.8158    
  3.6713      3.6601      3.7828      4.0463      4.4601      5.0319      5.7596      6.6243      7.5845      8.5771    
  8.1725      9.0349      9.8051      10.418      10.825      11.054      11.183      11.288      11.395      11.466    
  11.416      11.158      10.651      9.9279      9.0683      8.1385      7.2057      6.3305      5.5575      4.9124    
  4.4048      4.0331      3.7908      3.6713      3.6719      3.7947      4.0458      4.4330      4.9611      5.6264    
  6.4106      7.2770      6.9196      7.7153      8.4904      9.1987      9.8060      10.284      10.633      10.884    
  11.063      11.167      11.158      10.983      10.610      10.049      9.3387      8.5278      7.6738      6.8343    
  6.0577      5.3771      4.8104      4.3631      4.0331      3.8158      3.7075      3.7074      3.8183      4.0452    
  4.3938      4.8666      5.4585      6.1529      5.8632      6.5289      7.2261      7.9161      8.5627      9.1388    
  9.6304      10.030      10.338      10.550      10.651      10.610      10.405      10.032      9.5020      8.8470    
  8.1120      7.3484      6.6045      5.9189      5.3165      4.8104      4.4048      4.0988      3.8908      3.7796    
  3.7661      3.8534      4.0450      4.3444      4.7521      5.2629      5.0490      5.5551      6.1227      6.7263    
  7.3363      7.9239      8.4661      8.9479      9.3596      9.6913      9.9278      10.049      10.032      9.8620    
  9.5371      9.0715      8.4957      7.8508      7.1811      6.5269      5.9189      5.3771      4.9124      4.5292    
  4.2295      4.0147      3.8865      3.8472      3.8993      4.0453      4.2865      4.6226      4.4836      4.8259    
  5.2420      5.7188      6.2376      6.7753      7.3092      7.8199      8.2922      8.7132      9.0683      9.3387    
  9.5020      9.5371      9.4297      9.1786      8.7973      8.3132      7.7619      7.1811      6.6045      6.0577    
  5.5575      5.1141      4.7343      4.4232      4.1858      4.0265      3.9487      3.9547      4.0458      4.2224    
  4.1543      4.3406      4.6033      4.9376      5.3341      5.7790      6.2551      6.7445      7.2311      7.7005    
  8.1385      8.5278      8.8470      9.0715      9.1786      9.1528      8.9909      8.7034      8.3132      7.8508    
  7.3484      6.8343      6.3305      5.8524      5.4110      5.0159      4.6762      4.4005      4.1961      4.0677    
  4.0175      4.0464      4.0466      4.0851      4.2001      4.3908      4.6538      4.9827      5.3674      5.7952    
  6.2527      6.7271      7.2057      7.6738      8.1120      8.4957      8.7973      8.9909      9.0577      8.9909    
  8.7973      8.4957      8.1120      7.6738      7.2057      6.7271      6.2527      5.7952      5.3674      4.9826    
  4.6537      4.3907      4.2001      4.0850      4.1543      4.0465      4.0176      4.0677      4.1962      4.4006    
  4.6762      5.0159      5.4110      5.8524      6.3305      6.8343      7.3484      7.8508      8.3132      8.7034    
  8.9909      9.1528      9.1786      9.0715      8.8470      8.5278      8.1385      7.7005      7.2311      6.7445    
  6.2551      5.7790      5.3341      4.9376      4.6033      4.3406      4.4836      4.2225      4.0459      3.9547    
  3.9487      4.0265      4.1858      4.4232      4.7343      5.1141      5.5575      6.0577      6.6045      7.1811    
  7.7619      8.3132      8.7973      9.1786      9.4297      9.5371      9.5020      9.3387      9.0683      8.7132    
  8.2922      7.8199      7.3092      6.7753      6.2375      5.7188      5.2420      4.8259      5.0490      4.6227    
  4.2866      4.0453      3.8994      3.8472      3.8865      4.0147      4.2295      4.5292      4.9124      5.3771    
  5.9188      6.5269      7.1811      7.8508      8.4957      9.0715      9.5371      9.8620      10.032      10.049    
  9.9279      9.6913      9.3596      8.9479      8.4661      7.9239      7.3363      6.7263      6.1227      5.5551    
  5.8633      5.2630      4.7522      4.3445      4.0451      3.8534      3.7661      3.7795      3.8907      4.0988    
  4.4048      4.8104      5.3165      5.9188      6.6045      7.3484      8.1120      8.8470      9.5020      10.032    
  10.405      10.610      10.651      10.550      10.338      10.030      9.6304      9.1388      8.5626      7.9161    
  7.2261      6.5289      6.9196      6.1529      5.4585      4.8666      4.3939      4.0452      3.8182      3.7074    
  3.7075      3.8158      4.0330      4.3631      4.8104      5.3771      6.0577      6.8343      7.6738      8.5278    
  9.3387      10.049      10.610      10.983      11.158      11.167      11.063      10.884      10.633      10.284    
  9.8060      9.1987      8.4904      7.7153      8.1725      7.2770      6.4106      5.6265      4.9611      4.4329    
  4.0457      3.7946      3.6718      3.6713      3.7907      4.0330      4.4048      4.9124      5.5575      6.3305    
  7.2057      8.1385      9.0683      9.9278      10.651      11.158      11.416      11.466      11.395      11.288    
  11.183      11.054      10.825      10.418      9.8051      9.0349      9.5266      8.5772      7.5845      6.6243    
  5.7596      5.0318      4.4601      4.0462      3.7827      3.6600      3.6713      3.8158      4.0988      4.5292    
  5.1141      5.8524      6.7271      7.7005      8.7132      9.6913      10.550      11.167      11.466      11.479    
  11.322      11.150      11.077      11.126      11.214      11.192      10.923      10.349      10.799      9.9448    
  8.9113      7.8280      6.7842      5.8517      5.0755      4.4740      4.0464      3.7827      3.6718      3.7075    
  3.8907      4.2295      4.7343      5.4110      6.2527      7.2311      8.2922      9.3596      10.338      11.063    
  11.395      11.322      10.970      10.557      10.306      10.349      10.665      11.083      11.363      11.296    
  11.538      11.143      10.271      9.1605      7.9965      6.8831      5.8989      5.0903      4.4740      4.0462    
  3.7946      3.7074      3.7795      4.0147      4.4232      5.0159      5.7952      6.7445      7.8199      8.9479    
  10.030      10.884      11.288      11.150      10.557      9.7591      9.0893      8.8345      9.1159      9.8315    
  10.695      11.356      11.226      11.672      11.379      10.494      9.3141      8.0825      6.9165      5.8989    
  5.0755      4.4601      4.0457      3.8182      3.7661      3.8865      4.1858      4.6762      5.3674      6.2551    
  7.3092      8.4661      9.6304      10.633      11.183      11.077      10.306      9.0893      7.8259      6.9630    
  6.8288      7.4951      8.7406      10.139      9.5431      11.051      11.732      11.516      10.606      9.3660    
  8.0825      6.8831      5.8517      5.0318      4.4329      4.0452      3.8534      3.8472      4.0265      4.4006    
  4.9827      5.7790      6.7753      7.9239      9.1388      10.284      11.054      11.126      10.349      8.8345    
  6.9630      5.2885      4.3577      4.5018      5.6974      7.5705      6.5295      9.0461      10.908      11.752    
  11.560      10.606      9.3141      7.9965      6.7842      5.7596      4.9611      4.3939      4.0451      3.8994    
  3.9487      4.1962      4.6538      5.3341      6.2376      7.3363      8.5627      9.8060      10.825      11.214    
  10.665      9.1159      6.8288      4.3577      2.4035      1.5767      2.1612      3.9945      2.6645      5.8122    
  8.7646      10.853      11.752      11.516      10.494      9.1605      7.8280      6.6243      5.6265      4.8666    
  4.3445      4.0453      3.9547      4.0677      4.3908      4.9376      5.7188      6.7263      7.9161      9.1987    
  10.418      11.192      11.083      9.8315      7.4951      4.5018      1.5767     -.46419     -.99936     0.15452    
 -1.1995      1.9357      5.5568      8.7646      10.908      11.732      11.379      10.271      8.9113      7.5845    
  6.4106      5.4585      4.7522      4.2866      4.0459      4.0176      4.2001      4.6033      5.2420      6.1227    
  7.2261      8.4904      9.8051      10.923      11.363      10.695      8.7406      5.6974      2.1612     -.99937    
 -2.9053     -2.9846     -4.0648     -1.6774      1.9357      5.8122      9.0461      11.051      11.672      11.143    
  9.9448      8.5772      7.2770      6.1529      5.2630      4.6227      4.2225      4.0465      4.0851      4.3406    
  4.8259      5.5551      6.5289      7.7153      9.0349      10.349      11.296      11.356      10.139      7.5705    
  3.9945     0.15451     -2.9846     -4.5457     -4.0647     -3.3144     -.81581      2.7238      6.3743      9.2992    
  10.990      11.356      10.668      9.4138      8.0552      6.7878      5.7107      4.8725      4.2812      3.9235    
  3.7829      3.8510      4.1321      4.6404      5.3913      6.3846      7.5847      8.9071      10.201      11.076    
  11.025      9.7025      7.0918      3.5914     -.33835E-01 -2.8508     -3.3144     -4.0649     -2.8510     -.33798E-01
  3.5915      7.0918      9.7024      11.025      11.076      10.201      8.9070      7.5847      6.3846      5.3914    
  4.6404      4.1320      3.8510      3.7830      3.9235      4.2812      4.8725      5.7108      6.7878      8.0552    
  9.4137      10.668      11.356      10.990      9.2990      6.3742      2.7239     -.81570     -.70007     -2.7263    
 -2.9845     -1.4134      1.5105      4.9604      8.0613      10.166      11.007      10.705      9.6592      8.3598    
  7.0921      5.9750      5.0763      4.4184      3.9953      3.7911      3.7947      4.0061      4.4373      5.1059    
  6.0216      7.1679      8.4844      9.8608      11.051      11.569      10.973      9.0733      6.0606      2.5182    
  3.0176     0.29702     -1.1818     -.99947     0.76294      3.5584      6.5882      9.0880      10.559      10.869    
  10.230      9.0649      7.7924      6.5969      5.5755      4.7779      4.2148      3.8758      3.7462      3.8183    
  4.0962      4.5947      5.3312      6.3109      7.5088      8.8546      10.229      11.351      11.744      11.028    
  9.1001      6.2241      6.8441      4.1395      2.0115      1.0708      1.5767      3.3358      5.7832      8.2028    
  9.9782      10.770      10.573      9.6613      8.4481      7.2260      6.1186      5.2014      4.5069      4.0367    
  3.7782      3.7184      3.8534      4.1909      4.7477      5.5395      6.5663      7.7952      9.1496      10.505    
  11.566      11.894      11.180      9.3931      9.9015      7.8099      5.6941      4.1681      3.6839      4.3576    
  5.9263      7.8586      9.5611      10.582      10.734      10.115      9.0334      7.8330      6.6819      5.6746    
  4.8655      4.2724      3.8903      3.7058      3.7089      3.8992      4.2875      4.8907      5.7219      6.7761    
  8.0144      9.3559      10.676      11.692      12.018      11.413      11.674      10.521      8.9474      7.4268    
  6.4380      6.2815      6.9629      8.1958      9.5232      10.495      10.819      10.443      9.5345      8.3954    
  7.2421      6.1799      5.2803      4.5785      4.0813      3.7795      3.6609      3.7183      3.9547      4.3822    
  5.0175      5.8703      6.9306      8.1552      9.4623      10.734      11.719      12.093      12.082      11.887    
  11.122      10.057      9.0699      8.5043      8.5325      9.0893      9.9051      10.622      10.934      10.694    
  9.9468      8.9000      7.7792      6.6984      5.7378      4.9476      4.3480      3.9381      3.7072      3.6446    
  3.7462      4.0174      4.4714      5.1226      5.9775      7.0217      8.2097      9.4617      10.670      11.632    
  11.416      11.946      11.976      11.573      10.954      10.396      10.121      10.207      10.557      10.945    
  11.122      10.912      10.281      9.3398      8.2783      7.2124      6.2230      5.3699      4.6856      4.1794    
  3.8458      3.6742      3.6565      3.7911      4.0850      4.5508      5.2009      6.0378      7.0440      8.1735    
  9.3512      10.482      10.174      11.065      11.658      11.878      11.776      11.509      11.258      11.151    
  11.206      11.322      11.337      11.100      10.542      9.7063      8.7266      7.7063      6.7210      5.8340    
  5.0874      4.5004      4.0755      3.8053      3.6807      3.6957      3.8510      4.1543      4.6169      5.2482    
  6.0475      6.9950      8.0466      9.1339      8.8184      9.7596      10.587      11.209      11.565      11.683    
  11.661      11.604      11.574      11.555      11.466      11.207      10.711      9.9841      9.1092      8.1648    
  7.2170      6.3281      5.5457      4.8981      4.3960      4.0381      3.8171      3.7257      3.7604      3.9235    
  4.2224      4.6664      5.2619      6.0053      6.8762      7.8338      7.5448      8.4194      9.2585      10.007    
  10.619      11.049      11.304      11.432      11.483      11.476      11.385      11.158      10.748      10.149    
  9.4060      8.5697      7.6948      6.8389      6.0517      5.3682      4.8074      4.3748      4.0677      3.8803    
  3.8077      3.8487      4.0061      4.2865      4.6971      5.2410      5.9127      6.6925      6.4531      7.1944    
  7.9568      8.6943      9.3634      9.9322      10.381      10.703      10.909      11.014      11.015      10.889    
  10.610      10.172      9.5918      8.8982      8.1342      7.3497      6.5934      5.9042      5.3082      4.8182    
  4.4374      4.1639      3.9939      3.9252      3.9582      4.0962      4.3445      4.7075      5.1861      5.7737    
  5.5956      6.1703      6.8000      7.4532      8.0937      8.6877      9.2090      9.6428      9.9829      10.226    
  10.365      10.388      10.281      10.032      9.6414      9.1243      8.5100      7.8384      7.1533      6.4946    
  5.8933      5.3690      4.9316      4.5840      4.3257      4.1560      4.0755      4.0861      4.1911      4.3939    
  4.6970      5.0997      4.9862      5.3871      5.8581      6.3815      6.9330      7.4850      8.0109      8.4899    
  8.9079      9.2557      9.5244      9.7018      9.7724      9.7206      9.5371      9.2233      8.7942      8.2769    
  7.7064      7.1197      6.5499      6.0217      5.5513      5.1468      4.8124      4.5506      4.3639      4.2557    
  4.2292      4.2876      4.4330      4.6664      4.6169      4.8509      5.1587      5.5322      5.9586      6.4197    
  6.8948      7.3635      7.8091      8.2188      8.5819      8.8859      9.1149      9.2503      9.2751      9.1786    
  8.9607      8.6337      8.2202      7.7500      7.2541      6.7599      6.2879      5.8517      5.4600      5.1189    
  4.8345      4.6131      4.4610      4.3831      4.3823      4.4602      4.4741      4.5508      4.7007      4.9213    
  5.2074      5.5497      5.9349      6.3477      6.7731      7.1983      7.6123      8.0032      8.3562      8.6520    
  8.8687      8.9863      8.9909      8.8789      8.6583      8.3472      7.9701      7.5529      7.1186      6.6845    
  6.2632      5.8641      5.4965      5.1707      4.8973      4.6856      4.5423      4.4713      4.5508      4.4741    
  4.4714      4.5424      4.6856      4.8973      5.1707      5.4965      5.8641      6.2632      6.6845      7.1186    
  7.5529      7.9701      8.3472      8.6583      8.8789      8.9909      8.9863      8.8687      8.6520      8.3562    
  8.0032      7.6123      7.1984      6.7731      6.3476      5.9349      5.5497      5.2074      4.9213      4.7006    
  4.8510      4.6169      4.4602      4.3823      4.3831      4.4611      4.6132      4.8345      5.1189      5.4600    
  5.8517      6.2878      6.7598      7.2541      7.7501      8.2202      8.6336      8.9607      9.1786      9.2751    
  9.2503      9.1149      8.8859      8.5819      8.2188      7.8091      7.3635      6.8948      6.4197      5.9586    
  5.5322      5.1587      5.3871      4.9862      4.6664      4.4330      4.2876      4.2292      4.2557      4.3639    
  4.5506      4.8124      5.1468      5.5512      6.0217      6.5499      7.1198      7.7064      8.2769      8.7942    
  9.2233      9.5370      9.7206      9.7723      9.7018      9.5244      9.2557      8.9079      8.4899      8.0109    
  7.4849      6.9329      6.3815      5.8582      6.1702      5.5956      5.0998      4.6971      4.3939      4.1910    
  4.0861      4.0755      4.1561      4.3257      4.5840      4.9317      5.3691      5.8933      6.4946      7.1533    
  7.8385      8.5100      9.1242      9.6414      10.032      10.281      10.388      10.365      10.226      9.9830    
  9.6428      9.2090      8.6877      8.0938      7.4532      6.8000      7.1943      6.4531      5.7738      5.1861    
  4.7074      4.3444      4.0962      3.9581      3.9251      3.9939      4.1639      4.4375      4.8182      5.3082    
  5.9042      6.5934      7.3498      8.1342      8.8982      9.5918      10.172      10.610      10.889      11.015    
  11.014      10.909      10.703      10.381      9.9322      9.3635      8.6942      7.9567      8.4195      7.5449    
  6.6925      5.9126      5.2410      4.6970      4.2865      4.0060      3.8486      3.8077      3.8803      4.0677    
  4.3747      4.8074      5.3682      6.0517      6.8389      7.6948      8.5697      9.4060      10.149      10.748    
  11.158      11.385      11.476      11.483      11.432      11.304      11.049      10.619      10.007      9.2585    
  9.7596      8.8183      7.8337      6.8761      6.0053      5.2619      4.6664      4.2223      3.9235      3.7604    
  3.7256      3.8170      4.0381      4.3961      4.8981      5.5457      6.3281      7.2171      8.1648      9.1092    
  9.9841      10.711      11.207      11.466      11.555      11.574      11.604      11.661      11.683      11.565    
  11.209      10.587      11.065      10.174      9.1339      8.0466      6.9951      6.0475      5.2482      4.6169    
  4.1542      3.8510      3.6956      3.6807      3.8053      4.0755      4.5004      5.0874      5.8340      6.7210    
  7.7063      8.7266      9.7064      10.542      11.100      11.337      11.322      11.206      11.151      11.258    
  11.509      11.776      11.878      11.658      11.946      11.416      10.482      9.3513      8.1735      7.0440    
  6.0378      5.2009      4.5508      4.0850      3.7911      3.6565      3.6743      3.8457      4.1793      4.6856    
  5.3699      6.2230      7.2123      8.2783      9.3399      10.281      10.912      11.122      10.945      10.557    
  10.207      10.121      10.396      10.955      11.573      11.975      11.887      12.082      11.632      10.670    
  9.4617      8.2097      7.0217      5.9775      5.1226      4.4714      4.0175      3.7462      3.6445      3.7072    
  3.9381      4.3480      4.9476      5.7378      6.6984      7.7793      8.9000      9.9467      10.694      10.934    
  10.622      9.9051      9.0893      8.5325      8.5043      9.0699      10.057      11.122      10.522      11.673    
  12.093      11.719      10.734      9.4624      8.1552      6.9306      5.8703      5.0175      4.3823      3.9546    
  3.7183      3.6609      3.7796      4.0812      4.5785      5.2803      6.1800      7.2421      8.3953      9.5345    
  10.443      10.819      10.495      9.5232      8.1958      6.9630      6.2815      6.4379      7.4268      8.9474    
  7.8099      9.9014      11.413      12.018      11.692      10.676      9.3559      8.0143      6.7761      5.7219    
  4.8906      4.2875      3.8993      3.7089      3.7058      3.8902      4.2724      4.8655      5.6746      6.6819    
  7.8330      9.0334      10.115      10.734      10.581      9.5612      7.8587      5.9263      4.3577      3.6840    
  4.1682      5.6942      4.1394      6.8440      9.3932      11.180      11.894      11.566      10.505      9.1497    
  7.7952      6.5662      5.5395      4.7478      4.1910      3.8533      3.7183      3.7781      4.0368      4.5069    
  5.2013      6.1185      7.2261      8.4482      9.6612      10.573      10.770      9.9782      8.2029      5.7832    
  3.3358      1.5769      1.0710      2.0116     0.29704      3.0177      6.2243      9.1001      11.028      11.744    
  11.351      10.229      8.8545      7.5087      6.3109      5.3312      4.5947      4.0961      3.8183      3.7462    
  3.8758      4.2148      4.7779      5.5756      6.5969      7.7924      9.0649      10.230      10.869      10.559    
  9.0879      6.5882      3.5585     0.76321     -.99927     -1.1817     -2.7260     -.69988      2.5182      6.0605    
  9.0733      10.973      11.569      11.051      9.8607      8.4844      7.1680      6.0216      5.1058      4.4372    
  4.0061      3.7947      3.7911      3.9952      4.4184      5.0764      5.9750      7.0920      8.3598      9.6593    
  10.705      11.007      10.166      8.0613      4.9606      1.5106     -1.4134     -2.9845     -1.1992     -.69988    
  1.3270      4.2944      7.3930      9.8736      11.265      11.466      10.711      9.4404      8.0766      6.8013    
  5.7105      4.8525      4.2362      3.8486      3.6719      3.6956      3.9214      4.3620      5.0335      5.9409    
  7.0601      8.3224      9.6091      10.639      10.950      10.183      8.2582      5.4635      2.4291     -.33674E-01
 -.81567     -1.6774     -.81567      1.5086      4.6177      7.6756      9.9704      11.110      11.081      10.187    
  8.8954      7.5743      6.3695      5.3651      4.5972      4.0674      3.7604      3.6601      3.7603      4.0675    
  4.5973      5.3651      6.3695      7.5742      8.8954      10.187      11.081      11.110      9.9704      7.6756    
  4.6177      1.5085      1.3270     -.69992     -1.1993     -.33661E-01  2.4292      5.4635      8.2581      10.183    
  10.950      10.639      9.6091      8.3224      7.0601      5.9409      5.0335      4.3620      3.9214      3.6957    
  3.6719      3.8486      4.2362      4.8525      5.7105      6.8013      8.0766      9.4404      10.711      11.466    
  11.265      9.8736      7.3930      4.2944      4.5690      1.9242     0.29716     0.15463      1.5106      3.9208    
  6.6606      8.9934      10.406      10.729      10.129      8.9956      7.7405      6.5527      5.5310      4.7273    
  4.1543      3.8024      3.6565      3.7074      3.9581      4.4226      5.1192      6.0574      7.2200      8.5481    
  9.9370      11.170      11.810      11.462      9.9660      7.4962      7.9895      5.4049      3.2036      2.0116    
  2.1612      3.5585      5.7228      7.9799      9.7087      10.534      10.403      9.5516      8.3724      7.1690    
  6.0700      5.1540      4.4564      3.9805      3.7144      3.6446      3.7662      4.0860      4.6208      5.3881    
  6.3924      7.6084      8.9692      10.364      11.555      12.120      11.722      10.270      10.751      8.7949    
  6.6630      4.9556      4.1682      4.5018      5.7831      7.5392      9.1876      10.248      10.486      9.9551    
  8.9307      7.7603      6.6268      5.6278      4.8216      4.2289      3.8461      3.6602      3.6609      3.8472    
  4.2292      4.8247      5.6491      6.7015      7.9498      9.3208      10.702      11.852      12.388      12.033    
  12.348      11.324      9.7712      8.1336      6.9024      6.4379      6.8286      7.8585      9.1017      10.095    
  10.506      10.231      9.4022      8.3056      7.1783      6.1313      5.2401      4.5438      4.0513      3.7547    
  3.6420      3.7058      3.9487      4.3831      5.0265      5.8914      6.9711      8.2275      9.5845      10.931    
  12.044      12.589      12.687      12.600      11.875      10.746      9.5808      8.7547      8.5041      8.8343    
  9.5231      10.220      10.593      10.447      9.7883      8.7952      7.7058      6.6457      5.6983      4.9178    
  4.3273      3.9275      3.7086      3.6603      3.7782      4.0677      4.5424      5.2184      6.1040      7.1875    
  8.4265      9.7440      11.035      12.109      12.027      12.643      12.717      12.288      11.551      10.789    
  10.268      10.121      10.305      10.622      10.812      10.667      10.112      9.2264      8.1963      7.1539    
  6.1811      5.3409      4.6691      4.1769      3.8601      3.7087      3.7144      3.8758      4.2001      4.7007    
  5.3914      6.2761      7.3387      8.5341      9.7870      11.001      10.824      11.786      12.425      12.642    
  12.469      12.056      11.604      11.281      11.151      11.150      11.122      10.902      10.389      9.5950    
  8.6398      7.6408      6.6730      5.8009      5.0693      4.4995      4.0953      3.8499      3.7543      3.8025    
  3.9953      4.3406      4.8511      5.5370      6.3983      7.4150      8.5416      9.7071      9.5053      10.512    
  11.387      12.024      12.344      12.366      12.192      11.951      11.739      11.574      11.395      11.100    
  10.604      9.8900      9.0235      8.0919      7.1586      6.2845      5.5186      4.8907      4.4127      4.0837    
  3.8965      3.8437      3.9215      4.1321      4.4835      4.9863      5.6474      6.4628      7.4104      8.4460    
  8.2506      9.1906      10.079      10.853      11.455      11.828      11.977      11.960      11.848      11.688    
  11.476      11.167      10.711      10.086      9.3279      8.4897      7.6214      6.7773      6.0064      5.3443    
  4.8105      4.4108      4.1423      3.9987      3.9744      4.0676      4.2812      4.6226      5.0998      5.7163    
  6.4651      7.3234      7.1579      7.9654      8.7795      9.5474      10.220      10.759      11.139      11.353    
  11.425      11.387      11.253      11.015      10.651      10.149      9.5266      8.8118      8.0416      7.2621    