   2   2   0   0
  0.1451688E+02  0.3559842E-09  0.3559842E-09  0.3559842E-09  0.5000000E-15
  1.000000000000000E-004
  CAR 
 unknown system                          
     25.15793074     -6.28862758  301      9.75264237      1.00000000
     -6.289  0.0000E+00  0.0000E+00
     -6.184  0.0000E+00  0.0000E+00
     -6.079  0.0000E+00  0.0000E+00
     -5.974  0.0000E+00  0.0000E+00
     -5.869  0.0000E+00  0.0000E+00
     -5.765  0.0000E+00  0.0000E+00
     -5.660  0.0000E+00  0.0000E+00
     -5.555  0.0000E+00  0.0000E+00
     -5.450  0.1103E-17  0.1156E-18
     -5.345  0.3933E-15  0.4134E-16
     -5.240  0.8384E-13  0.8830E-14
     -5.136  0.1041E-10  0.1100E-11
     -5.031  0.7547E-09  0.8021E-10
     -4.926  0.3199E-07  0.3433E-08
     -4.821  0.7941E-06  0.8667E-07
     -4.716  0.1158E-04  0.1300E-05
     -4.611  0.9945E-04  0.1172E-04
     -4.507  0.5058E-03  0.6475E-04
     -4.402  0.1542E-02  0.2263E-03
     -4.297  0.2918E-02  0.5322E-03
     -4.192  0.3888E-02  0.9397E-03
     -4.087  0.5104E-02  0.1475E-02
     -3.983  0.8332E-02  0.2348E-02
     -3.878  0.1268E-01  0.3677E-02
     -3.773  0.1443E-01  0.5190E-02
     -3.668  0.1264E-01  0.6514E-02
     -3.563  0.9758E-02  0.7537E-02
     -3.458  0.7828E-02  0.8358E-02
     -3.354  0.8164E-02  0.9213E-02
     -3.249  0.1194E-01  0.1046E-01
     -3.144  0.1908E-01  0.1246E-01
     -3.039  0.2503E-01  0.1509E-01
     -2.934  0.2309E-01  0.1751E-01
     -2.830  0.1624E-01  0.1921E-01
     -2.725  0.1467E-01  0.2075E-01
     -2.620  0.1879E-01  0.2272E-01
     -2.515  0.2033E-01  0.2485E-01
     -2.410  0.1764E-01  0.2670E-01
     -2.305  0.1619E-01  0.2839E-01
     -2.201  0.1798E-01  0.3028E-01
     -2.096  0.2057E-01  0.3244E-01
     -1.991  0.2288E-01  0.3483E-01
     -1.886  0.2533E-01  0.3749E-01
     -1.781  0.2560E-01  0.4017E-01
     -1.676  0.2194E-01  0.4247E-01
     -1.572  0.2124E-01  0.4470E-01
     -1.467  0.2940E-01  0.4778E-01
     -1.362  0.3656E-01  0.5161E-01
     -1.257  0.3128E-01  0.5489E-01
     -1.152  0.1908E-01  0.5689E-01
     -1.048  0.1034E-01  0.5797E-01
     -0.943  0.8700E-02  0.5889E-01
     -0.838  0.1558E-01  0.6052E-01
     -0.733  0.3088E-01  0.6376E-01
     -0.628  0.4799E-01  0.6879E-01
     -0.523  0.5309E-01  0.7435E-01
     -0.419  0.4178E-01  0.7873E-01
     -0.314  0.2880E-01  0.8175E-01
     -0.209  0.2581E-01  0.8446E-01
     -0.104  0.2829E-01  0.8742E-01
      0.001  0.2897E-01  0.9046E-01
      0.106  0.2650E-01  0.9324E-01
      0.210  0.2286E-01  0.9563E-01
      0.315  0.2097E-01  0.9783E-01
      0.420  0.2276E-01  0.1002E+00
      0.525  0.2658E-01  0.1030E+00
      0.630  0.2774E-01  0.1059E+00
      0.734  0.2631E-01  0.1087E+00
      0.839  0.3151E-01  0.1120E+00
      0.944  0.4791E-01  0.1170E+00
      1.049  0.6078E-01  0.1234E+00
      1.154  0.5524E-01  0.1292E+00
      1.259  0.3965E-01  0.1333E+00
      1.363  0.2942E-01  0.1364E+00
      1.468  0.2677E-01  0.1392E+00
      1.573  0.3040E-01  0.1424E+00
      1.678  0.4333E-01  0.1469E+00
      1.783  0.5823E-01  0.1530E+00
      1.887  0.5905E-01  0.1592E+00
      1.992  0.4626E-01  0.1641E+00
      2.097  0.3568E-01  0.1678E+00
      2.202  0.3230E-01  0.1712E+00
      2.307  0.2885E-01  0.1742E+00
      2.412  0.2290E-01  0.1766E+00
      2.516  0.1821E-01  0.1785E+00
      2.621  0.1784E-01  0.1804E+00
      2.726  0.2241E-01  0.1827E+00
      2.831  0.2901E-01  0.1858E+00
      2.936  0.3287E-01  0.1892E+00
      3.041  0.3289E-01  0.1927E+00
      3.145  0.3467E-01  0.1963E+00
      3.250  0.4508E-01  0.2010E+00
      3.355  0.6069E-01  0.2074E+00
      3.460  0.6918E-01  0.2147E+00
      3.565  0.6486E-01  0.2215E+00
      3.669  0.5169E-01  0.2269E+00
      3.774  0.3736E-01  0.2308E+00
      3.879  0.2930E-01  0.2339E+00
      3.984  0.2814E-01  0.2368E+00
      4.089  0.3036E-01  0.2400E+00
      4.194  0.3558E-01  0.2437E+00
      4.298  0.4340E-01  0.2483E+00
      4.403  0.4620E-01  0.2531E+00
      4.508  0.3881E-01  0.2572E+00
      4.613  0.2980E-01  0.2603E+00
      4.718  0.2847E-01  0.2633E+00
      4.822  0.3233E-01  0.2667E+00
      4.927  0.3816E-01  0.2707E+00
      5.032  0.4923E-01  0.2758E+00
      5.137  0.6142E-01  0.2823E+00
      5.242  0.6868E-01  0.2895E+00
      5.347  0.7489E-01  0.2973E+00
      5.451  0.7713E-01  0.3054E+00
      5.556  0.6505E-01  0.3122E+00
      5.661  0.4528E-01  0.3170E+00
      5.766  0.3303E-01  0.3204E+00
      5.871  0.2803E-01  0.3234E+00
      5.976  0.2447E-01  0.3259E+00
      6.080  0.2548E-01  0.3286E+00
      6.185  0.3367E-01  0.3321E+00
      6.290  0.4411E-01  0.3368E+00
      6.395  0.5488E-01  0.3425E+00
      6.500  0.7026E-01  0.3499E+00
      6.604  0.8624E-01  0.3589E+00
      6.709  0.8823E-01  0.3682E+00
      6.814  0.7012E-01  0.3755E+00
      6.919  0.4520E-01  0.3803E+00
      7.024  0.3194E-01  0.3836E+00
      7.129  0.3441E-01  0.3872E+00
      7.233  0.4592E-01  0.3920E+00
      7.338  0.6065E-01  0.3984E+00
      7.443  0.6929E-01  0.4057E+00
      7.548  0.6500E-01  0.4125E+00
      7.653  0.5521E-01  0.4183E+00
      7.758  0.4977E-01  0.4235E+00
      7.862  0.5432E-01  0.4292E+00
      7.967  0.7234E-01  0.4367E+00
      8.072  0.9483E-01  0.4467E+00
      8.177  0.1016E+00  0.4573E+00
      8.282  0.8716E-01  0.4665E+00
      8.386  0.6634E-01  0.4734E+00
      8.491  0.5050E-01  0.4787E+00
      8.596  0.4277E-01  0.4832E+00
      8.701  0.4351E-01  0.4878E+00
      8.806  0.4663E-01  0.4926E+00
      8.911  0.4367E-01  0.4972E+00
      9.015  0.3547E-01  0.5009E+00
      9.120  0.3044E-01  0.5041E+00
      9.225  0.3273E-01  0.5076E+00
      9.330  0.3720E-01  0.5115E+00
      9.435  0.4032E-01  0.5157E+00
      9.539  0.4796E-01  0.5207E+00
      9.644  0.5866E-01  0.5269E+00
      9.749  0.5980E-01  0.5331E+00
      9.854  0.5053E-01  0.5384E+00
      9.959  0.4209E-01  0.5428E+00
     10.064  0.4040E-01  0.5471E+00
     10.168  0.4343E-01  0.5516E+00
     10.273  0.4661E-01  0.5565E+00
     10.378  0.4400E-01  0.5611E+00
     10.483  0.3370E-01  0.5647E+00
     10.588  0.2421E-01  0.5672E+00
     10.693  0.2462E-01  0.5698E+00
     10.797  0.3349E-01  0.5733E+00
     10.902  0.4506E-01  0.5780E+00
     11.007  0.5501E-01  0.5838E+00
     11.112  0.5961E-01  0.5900E+00
     11.217  0.5885E-01  0.5962E+00
     11.321  0.5576E-01  0.6020E+00
     11.426  0.5225E-01  0.6075E+00
     11.531  0.5031E-01  0.6128E+00
     11.636  0.5189E-01  0.6182E+00
     11.741  0.5723E-01  0.6242E+00
     11.846  0.6561E-01  0.6311E+00
     11.950  0.7073E-01  0.6385E+00
     12.055  0.6606E-01  0.6454E+00
     12.160  0.5803E-01  0.6515E+00
     12.265  0.5681E-01  0.6575E+00
     12.370  0.6030E-01  0.6638E+00
     12.474  0.6398E-01  0.6705E+00
     12.579  0.7107E-01  0.6780E+00
     12.684  0.7910E-01  0.6863E+00
     12.789  0.8063E-01  0.6947E+00
     12.894  0.7732E-01  0.7028E+00
     12.999  0.7611E-01  0.7108E+00
     13.103  0.7786E-01  0.7190E+00
     13.208  0.7481E-01  0.7268E+00
     13.313  0.6024E-01  0.7331E+00
     13.418  0.3884E-01  0.7372E+00
     13.523  0.2383E-01  0.7397E+00
     13.628  0.2084E-01  0.7419E+00
     13.732  0.2404E-01  0.7444E+00
     13.837  0.3270E-01  0.7478E+00
     13.942  0.5161E-01  0.7532E+00
     14.047  0.7456E-01  0.7610E+00
     14.152  0.8907E-01  0.7704E+00
     14.256  0.8804E-01  0.7796E+00
     14.361  0.7332E-01  0.7873E+00
     14.466  0.5761E-01  0.7933E+00
     14.571  0.5202E-01  0.7988E+00
     14.676  0.5605E-01  0.8047E+00
     14.781  0.6442E-01  0.8114E+00
     14.885  0.7432E-01  0.8192E+00
     14.990  0.8463E-01  0.8281E+00
     15.095  0.9381E-01  0.8379E+00
     15.200  0.9539E-01  0.8479E+00
     15.305  0.8421E-01  0.8567E+00
     15.409  0.6909E-01  0.8640E+00
     15.514  0.6447E-01  0.8707E+00
     15.619  0.7234E-01  0.8783E+00
     15.724  0.8049E-01  0.8867E+00
     15.829  0.8163E-01  0.8953E+00
     15.934  0.7781E-01  0.9035E+00
     16.038  0.6714E-01  0.9105E+00
     16.143  0.5375E-01  0.9161E+00
     16.248  0.4795E-01  0.9212E+00
     16.353  0.4481E-01  0.9259E+00
     16.458  0.3500E-01  0.9295E+00
     16.563  0.2629E-01  0.9323E+00
     16.667  0.2891E-01  0.9353E+00
     16.772  0.3822E-01  0.9393E+00
     16.877  0.4741E-01  0.9443E+00
     16.982  0.5939E-01  0.9505E+00
     17.087  0.7574E-01  0.9585E+00
     17.191  0.8526E-01  0.9674E+00
     17.296  0.7669E-01  0.9754E+00
     17.401  0.5707E-01  0.9814E+00
     17.506  0.4304E-01  0.9859E+00
     17.611  0.4127E-01  0.9902E+00
     17.716  0.4341E-01  0.9948E+00
     17.820  0.4046E-01  0.9990E+00
     17.925  0.3562E-01  0.1003E+01
     18.030  0.3304E-01  0.1006E+01
     18.135  0.3223E-01  0.1010E+01
     18.240  0.3630E-01  0.1013E+01
     18.345  0.4390E-01  0.1018E+01
     18.449  0.4521E-01  0.1023E+01
     18.554  0.3686E-01  0.1027E+01
     18.659  0.2711E-01  0.1029E+01
     18.764  0.2230E-01  0.1032E+01
     18.869  0.2026E-01  0.1034E+01
     18.973  0.1774E-01  0.1036E+01
     19.078  0.1451E-01  0.1037E+01
     19.183  0.1091E-01  0.1038E+01
     19.288  0.6887E-02  0.1039E+01
     19.393  0.4173E-02  0.1040E+01
     19.498  0.6739E-02  0.1040E+01
     19.602  0.1803E-01  0.1042E+01
     19.707  0.3361E-01  0.1046E+01
     19.812  0.3965E-01  0.1050E+01
     19.917  0.3016E-01  0.1053E+01
     20.022  0.1570E-01  0.1055E+01
     20.126  0.7568E-02  0.1055E+01
     20.231  0.6291E-02  0.1056E+01
     20.336  0.6714E-02  0.1057E+01
     20.441  0.6609E-02  0.1058E+01
     20.546  0.6662E-02  0.1058E+01
     20.651  0.5988E-02  0.1059E+01
     20.755  0.4352E-02  0.1059E+01
     20.860  0.4061E-02  0.1060E+01
     20.965  0.5594E-02  0.1060E+01
     21.070  0.6629E-02  0.1061E+01
     21.175  0.6612E-02  0.1062E+01
     21.280  0.6650E-02  0.1062E+01
     21.384  0.5782E-02  0.1063E+01
     21.489  0.3431E-02  0.1063E+01
     21.594  0.1459E-02  0.1064E+01
     21.699  0.1190E-02  0.1064E+01
     21.804  0.2155E-02  0.1064E+01
     21.908  0.2871E-02  0.1064E+01
     22.013  0.2304E-02  0.1064E+01
     22.118  0.1177E-02  0.1065E+01
     22.223  0.7774E-03  0.1065E+01
     22.328  0.1493E-02  0.1065E+01
     22.433  0.2602E-02  0.1065E+01
     22.537  0.2766E-02  0.1065E+01
     22.642  0.1744E-02  0.1066E+01
     22.747  0.6663E-03  0.1066E+01
     22.852  0.2759E-03  0.1066E+01
     22.957  0.6360E-03  0.1066E+01
     23.061  0.1694E-02  0.1066E+01
     23.166  0.2743E-02  0.1066E+01
     23.271  0.2630E-02  0.1066E+01
     23.376  0.1492E-02  0.1067E+01
     23.481  0.5004E-03  0.1067E+01
     23.586  0.9909E-04  0.1067E+01
     23.690  0.1156E-04  0.1067E+01
     23.795  0.7938E-06  0.1067E+01
     23.900  0.3198E-07  0.1067E+01
     24.005  0.7547E-09  0.1067E+01
     24.110  0.1041E-10  0.1067E+01
     24.215  0.8384E-13  0.1067E+01
     24.319  0.3939E-15  0.1067E+01
     24.424  0.1103E-17  0.1067E+01
     24.529  0.0000E+00  0.1067E+01
     24.634  0.0000E+00  0.1067E+01
     24.739  0.0000E+00  0.1067E+01
     24.843  0.0000E+00  0.1067E+01
     24.948  0.0000E+00  0.1067E+01
     25.053  0.0000E+00  0.1067E+01
     25.158  0.0000E+00  0.1067E+01
