    2    2   15    1
  0.1451688E+02  0.3559842E-09  0.3559842E-09  0.3559842E-09  0.5000000E-15
  1.000000000000000E-004
  CAR 
 unknown system                          
      8     56      8
 
  0.6250000E-01  0.6250000E-01  0.6250000E-01  0.1562500E-01
    1       -3.868884   1.000000
    2        5.585186   1.000000
    3        7.799328   1.000000
    4        9.847475   0.251247
    5       12.903361   0.000000
    6       14.869543   0.000000
    7       15.305012   0.000000
    8       17.764044   0.000000
 
  0.1875000E+00  0.6250000E-01  0.6250000E-01  0.3125000E-01
    1       -2.616854   1.000000
    2        5.242762   1.000000
    3        8.040091   1.000000
    4       10.063944   0.013860
    5       11.865275   0.000000
    6       12.386163   0.000000
    7       14.825378   0.000000
    8       15.944050   0.000000
 
  0.3125000E+00  0.6250000E-01  0.6250000E-01  0.3125000E-01
    1       -0.559316   1.000000
    2        5.382038   1.000000
    3        6.246426   1.000000
    4        8.178988   1.000000
    5        9.705314   0.631059
    6       12.631877   0.000000
    7       14.917446   0.000000
    8       15.188053   0.000000
 
  0.4375000E+00  0.6250000E-01  0.6250000E-01  0.1562500E-01
    1        1.883380   1.000000
    2        2.739420   1.000000
    3        6.647594   1.000000
    4        7.113771   1.000000
    5        9.619124   0.827446
    6       11.448126   0.000000
    7       14.674424   0.000000
    8       15.432345   0.000000
 
 -0.6250000E-01  0.6250000E-01  0.6250000E-01  0.7812500E-02
    1       -4.288628   1.000000
    2        6.364171   1.000000
    3        6.904224   1.000000
    4        9.585147   0.881867
    5       11.928988   0.000000
    6       16.301395   0.000000
    7       18.679929   0.000000
    8       18.968685   0.000000
 
  0.1875000E+00  0.1875000E+00  0.6250000E-01  0.1562500E-01
    1       -0.759263   1.000000
    2        5.404717   1.000000
    3        7.173421   1.000000
    4        7.382546   1.000000
    5       10.760209   0.000000
    6       13.258641   0.000000
    7       13.931162   0.000000
    8       14.224144   0.000000
 
  0.3125000E+00  0.1875000E+00  0.6250000E-01  0.3125000E-01
    1        1.793606   1.000000
    2        3.578401   1.000000
    3        5.053626   1.000000
    4        6.645794   1.000000
    5       11.007374   0.000000
    6       12.724229   0.000000
    7       13.941912   0.000000
    8       16.252498   0.000000
 
  0.4375000E+00  0.1875000E+00  0.6250000E-01  0.3125000E-01
    1        0.438489   1.000000
    2        3.533291   1.000000
    3        5.479349   1.000000
    4        8.105608   1.000000
    5       10.238121   0.000299
    6       13.072133   0.000000
    7       14.980617   0.000000
    8       16.312089   0.000000
 
 -0.4375000E+00  0.1875000E+00  0.6250000E-01  0.3125000E-01
    1       -1.801685   1.000000
    2        2.976133   1.000000
    3        8.554836   1.000000
    4        9.593672   0.869513
    5       11.305176   0.000000
    6       13.066292   0.000000
    7       14.130617   0.000000
    8       16.696989   0.000000
 
 -0.3125000E+00  0.1875000E+00  0.6250000E-01  0.1562500E-01
    1       -3.252083   1.000000
    2        3.150239   1.000000
    3        8.335205   1.000000
    4       10.683251   0.000000
    5       13.283129   0.000000
    6       14.594205   0.000000
    7       15.491421   0.000000
    8       16.650285   0.000000
 
 -0.1875000E+00  0.1875000E+00  0.6250000E-01  0.1562500E-01
    1       -3.876213   1.000000
    2        4.084571   1.000000
    3        7.094705   1.000000
    4       10.741411   0.000000
    5       14.212876   0.000000
    6       14.275980   0.000000
    7       17.569962   0.000000
    8       18.246956   0.000000
 
 -0.6250000E-01  0.1875000E+00  0.6250000E-01  0.1562500E-01
    1       -3.663153   1.000000
    2        5.422434   1.000000
    3        6.260313   1.000000
    4       11.358845   0.000000
    5       13.669292   0.000000
    6       13.980217   0.000000
    7       14.884452   0.000000
    8       17.192482   0.000000
 
  0.3125000E+00  0.3125000E+00  0.6250000E-01  0.1562500E-01
    1        1.786121   1.000000
    2        1.846194   1.000000
    3        5.265937   1.000000
    4        8.019317   1.000000
    5       11.058642   0.000000
    6       11.922677   0.000000
    7       16.374031   0.000000
    8       17.090807   0.000000
 
  0.4375000E+00  0.3125000E+00  0.6250000E-01  0.3125000E-01
    1       -0.587620   1.000000
    2        1.012879   1.000000
    3        8.836382   1.000000
    4        9.596059   0.865898
    5       11.140184   0.000000
    6       12.614121   0.000000
    7       14.162866   0.000000
    8       15.646479   0.000000
 
 -0.4375000E+00  0.3125000E+00  0.6250000E-01  0.1562500E-01
    1       -2.229353   1.000000
    2        0.993180   1.000000
    3        9.214295   0.999930
    4       11.553140   0.000000
    5       11.978236   0.000000
    6       13.966447   0.000000
    7       14.853534   0.000000
    8       15.139073   0.000000
 
 -0.3125000E+00  0.3125000E+00  0.6250000E-01  0.1562500E-01
    1       -3.054497   1.000000
    2        1.773277   1.000000
    3        7.837614   1.000000
    4       11.645475   0.000000
    5       12.222525   0.000000
    6       15.880914   0.000000
    7       17.155829   0.000000
    8       17.982676   0.000000
 
 -0.1875000E+00  0.3125000E+00  0.6250000E-01  0.3125000E-01
    1       -3.047503   1.000000
    2        3.317956   1.000000
    3        6.506459   1.000000
    4       11.904179   0.000000
    5       12.581025   0.000000
    6       14.060510   0.000000
    7       15.940807   0.000000
    8       17.077611   0.000000
 
 -0.6250000E-01  0.3125000E+00  0.6250000E-01  0.1562500E-01
    1       -2.209250   1.000000
    2        5.211558   1.000000
    3        6.168738   1.000000
    4        9.134342   0.999994
    5       12.302326   0.000000
    6       14.360588   0.000000
    7       14.482776   0.000000
    8       15.086490   0.000000
 
  0.4375000E+00  0.4375000E+00  0.6250000E-01  0.7812500E-02
    1       -0.809392   1.000000
    2       -0.809392   1.000000
    3       10.399915   0.000002
    4       10.399917   0.000002
    5       12.934806   0.000000
    6       12.934808   0.000000
    7       14.535037   0.000000
    8       14.535038   0.000000
 
 -0.4375000E+00  0.4375000E+00  0.6250000E-01  0.1562500E-01
    1       -1.830073   1.000000
    2       -0.214173   1.000000
    3        8.953793   1.000000
    4       10.425205   0.000001
    5       12.795376   0.000000
    6       14.230458   0.000000
    7       17.515421   0.000000
    8       17.667525   0.000000
 
 -0.3125000E+00  0.4375000E+00  0.6250000E-01  0.3125000E-01
    1       -2.026927   1.000000
    2        1.184461   1.000000
    3        7.427937   1.000000
    4       10.333307   0.000020
    5       12.342664   0.000000
    6       14.401418   0.000000
    7       15.882458   0.000000
    8       17.166269   0.000000
 
 -0.1875000E+00  0.4375000E+00  0.6250000E-01  0.3125000E-01
    1       -1.397611   1.000000
    2        3.327048   1.000000
    3        6.518187   1.000000
    4        8.434160   1.000000
    5       10.905803   0.000000
    6       13.637936   0.000000
    7       15.660737   0.000000
    8       16.773190   0.000000
 
 -0.6250000E-01  0.4375000E+00  0.6250000E-01  0.1562500E-01
    1        0.037646   1.000000
    2        4.773811   1.000000
    3        6.171970   1.000000
    4        6.718994   1.000000
    5       10.299782   0.000055
    6       12.323604   0.000000
    7       13.353631   0.000000
    8       16.977488   0.000000
 
 -0.4375000E+00 -0.4375000E+00  0.6250000E-01  0.1562500E-01
    1       -0.613383   1.000000
    2       -0.607968   1.000000
    3        8.718630   1.000000
    4        8.726582   1.000000
    5       12.252305   0.000000
    6       15.116944   0.000000
    7       15.844052   0.000000
    8       15.980926   0.000000
 
 -0.3125000E+00 -0.4375000E+00  0.6250000E-01  0.3125000E-01
    1       -0.189884   1.000000
    2        1.398645   1.000000
    3        7.424802   1.000000
    4        8.163187   1.000000
    5        9.316036   0.998990
    6       13.185971   0.000000
    7       16.917322   0.000000
    8       18.299134   0.000000
 
 -0.1875000E+00 -0.4375000E+00  0.6250000E-01  0.3125000E-01
    1        1.020552   1.000000
    2        3.849735   1.000000
    3        4.772443   1.000000
    4        7.332073   1.000000
    5        9.741882   0.530326
    6       11.784788   0.000000
    7       14.213976   0.000000
    8       18.398943   0.000000
 
 -0.6250000E-01 -0.4375000E+00  0.6250000E-01  0.1562500E-01
    1        1.408103   1.000000
    2        3.215089   1.000000
    3        7.314168   1.000000
    4        7.677067   1.000000
    5        8.803647   1.000000
    6       10.974710   0.000000
    7       12.998805   0.000000
    8       17.064892   0.000000
 
 -0.3125000E+00 -0.3125000E+00  0.6250000E-01  0.1562500E-01
    1        2.276881   1.000000
    2        2.444817   1.000000
    3        4.382527   1.000000
    4        8.271214   1.000000
    5        8.761527   1.000000
    6       11.336379   0.000000
    7       16.192975   0.000000
    8       17.273591   0.000000
 
 -0.1875000E+00 -0.3125000E+00  0.6250000E-01  0.3125000E-01
    1        1.053787   1.000000
    2        4.325526   1.000000
    3        5.811246   1.000000
    4        8.101068   1.000000
    5        9.319368   0.998907
    6       11.209402   0.000000
    7       12.835592   0.000000
    8       15.710212   0.000000
 
 -0.6250000E-01 -0.3125000E+00  0.6250000E-01  0.1562500E-01
    1       -1.162595   1.000000
    2        6.657440   1.000000
    3        7.941134   1.000000
    4        8.050619   1.000000
    5        9.570234   0.901444
    6       11.644210   0.000000
    7       13.243114   0.000000
    8       14.764451   0.000000
 
 -0.1875000E+00 -0.1875000E+00  0.6250000E-01  0.1562500E-01
    1       -1.364366   1.000000
    2        7.461310   1.000000
    3        7.947229   1.000000
    4        8.365666   1.000000
    5        9.892441   0.161448
    6       12.046002   0.000000
    7       12.687253   0.000000
    8       12.815271   0.000000
 
 -0.6250000E-01 -0.1875000E+00  0.6250000E-01  0.1562500E-01
    1       -3.026062   1.000000
    2        7.424305   1.000000
    3        7.885539   1.000000
    4       10.184325   0.001135
    5       12.031168   0.000000
    6       12.543608   0.000000
    7       12.979592   0.000000
    8       14.680969   0.000000
 
 -0.6250000E-01 -0.6250000E-01  0.6250000E-01  0.3906250E-02
    1       -4.075012   1.000000
    2        7.619507   1.000000
    3        7.619509   1.000000
    4        8.712886   1.000000
    5       11.587193   0.000000
    6       15.625819   0.000000
    7       15.770117   0.000000
    8       17.704894   0.000000
 
  0.1875000E+00  0.1875000E+00  0.1875000E+00  0.1562500E-01
    1        0.242458   1.000000
    2        3.372012   1.000000
    3        6.685600   1.000000
    4        6.773964   1.000000
    5       11.822867   0.000000
    6       14.044108   0.000000
    7       15.116434   0.000000
    8       15.591795   0.000000
 
  0.3125000E+00  0.1875000E+00  0.1875000E+00  0.1562500E-01
    1        2.654012   1.000000
    2        3.383969   1.000000
    3        4.482133   1.000000
    4        5.140827   1.000000
    5       12.787745   0.000000
    6       14.640475   0.000000
    7       15.206496   0.000000
    8       15.564836   0.000000
 
 -0.1875000E+00  0.1875000E+00  0.1875000E+00  0.7812500E-02
    1       -3.465351   1.000000
    2        4.054534   1.000000
    3        5.052503   1.000000
    4       12.104357   0.000000
    5       13.035659   0.000000
    6       15.292789   0.000000
    7       17.129276   0.000000
    8       17.768457   0.000000
 
  0.3125000E+00  0.3125000E+00  0.1875000E+00  0.7812500E-02
    1        1.628202   1.000000
    2        1.628202   1.000000
    3        6.544848   1.000000
    4        6.544850   1.000000
    5       13.169180   0.000000
    6       13.169180   0.000000
    7       15.330365   0.000000
    8       15.330367   0.000000
 
 -0.3125000E+00  0.3125000E+00  0.1875000E+00  0.1562500E-01
    1       -2.646941   1.000000
    2        2.130842   1.000000
    3        5.432741   1.000000
    4        9.945795   0.086002
    5       14.227524   0.000000
    6       16.340576   0.000000
    7       17.122927   0.000000
    8       18.396771   0.000000
 
 -0.1875000E+00  0.3125000E+00  0.1875000E+00  0.1562500E-01
    1       -2.435573   1.000000
    2        3.458103   1.000000
    3        4.530428   1.000000
    4       10.069050   0.012632
    5       12.117882   0.000000
    6       15.977749   0.000000
    7       17.334497   0.000000
    8       17.681756   0.000000
 
 -0.4375000E+00  0.4375000E+00  0.1875000E+00  0.1562500E-01
    1       -1.428374   1.000000
    2        0.176271   1.000000
    3        6.558285   1.000000
    4        8.076405   1.000000
    5       15.037858   0.000000
    6       15.692863   0.000000
    7       17.381565   0.000000
    8       18.195551   0.000000
 
 -0.3125000E+00  0.4375000E+00  0.1875000E+00  0.3125000E-01
    1       -1.422098   1.000000
    2        1.737488   1.000000
    3        5.074075   1.000000
    4        8.076819   1.000000
    5       11.619388   0.000000
    6       17.230041   0.000000
    7       17.675221   0.000000
    8       19.723479   0.000000
 
 -0.1875000E+00  0.4375000E+00  0.1875000E+00  0.1562500E-01
    1       -0.593924   1.000000
    2        3.640425   1.000000
    3        4.753033   1.000000
    4        7.621891   1.000000
    5        8.981037   1.000000
    6       15.111500   0.000000
    7       16.073304   0.000000
    8       18.708896   0.000000
 
 -0.4375000E+00 -0.4375000E+00  0.1875000E+00  0.1562500E-01
    1       -0.025221   1.000000
    2       -0.013838   1.000000
    3        6.374399   1.000000
    4        6.395123   1.000000
    5       11.444937   0.000000
    6       17.350262   0.000000
    7       18.412719   0.000000
    8       19.123331   0.000000
 
 -0.3125000E+00 -0.4375000E+00  0.1875000E+00  0.3125000E-01
    1        0.597641   1.000000
    2        2.142806   1.000000
    3        5.440076   1.000000
    4        6.774806   1.000000
    5        7.631019   1.000000
    6       15.151622   0.000000
    7       17.981272   0.000000
    8       19.730525   0.000000
 
 -0.1875000E+00 -0.4375000E+00  0.1875000E+00  0.1562500E-01
    1        1.955485   1.000000
    2        3.654358   1.000000
    3        5.030427   1.000000
    4        5.712002   1.000000
    5        8.277573   1.000000
    6       13.138441   0.000000
    7       13.977438   0.000000
    8       18.492854   0.000000
 
 -0.3125000E+00 -0.3125000E+00  0.1875000E+00  0.1562500E-01
    1        2.850228   1.000000
    2        3.401486   1.000000
    3        4.156632   1.000000
    4        6.616822   1.000000
    5        6.750552   1.000000
    6       13.259760   0.000000
    7       15.596647   0.000000
    8       16.887159   0.000000
 
 -0.1875000E+00 -0.3125000E+00  0.1875000E+00  0.1562500E-01
    1        0.670441   1.000000
    2        5.443352   1.000000
    3        6.614069   1.000000
    4        7.288388   1.000000
    5        8.337616   1.000000
    6       11.971338   0.000000
    7       12.538346   0.000000
    8       14.658723   0.000000
 
 -0.1875000E+00 -0.1875000E+00  0.1875000E+00  0.3906250E-02
    1       -1.566693   1.000000
    2        8.677107   1.000000
    3        8.677109   1.000000
    4        8.936045   1.000000
    5        9.203823   0.999948
    6       11.459288   0.000000
    7       12.247814   0.000000
    8       12.247818   0.000000
 
 -0.3125000E+00  0.3125000E+00  0.3125000E+00  0.7812500E-02
    1       -1.835993   1.000000
    2        2.452110   1.000000
    3        3.591655   1.000000
    4        7.730329   1.000000
    5       15.253245   0.000000
    6       15.768007   0.000000
    7       18.562276   0.000000
    8       19.671236   0.000000
 
 -0.4375000E+00  0.4375000E+00  0.3125000E+00  0.1562500E-01
    1       -0.632430   1.000000
    2        0.930513   1.000000
    3        4.314471   1.000000
    4        5.828507   1.000000
    5       15.257299   0.000000
    6       15.378378   0.000000
    7       19.826096   0.000000
    8       20.982159   0.000000
 
 -0.3125000E+00  0.4375000E+00  0.3125000E+00  0.1562500E-01
    1       -0.424109   1.000000
    2        2.250004   1.000000
    3        3.416211   1.000000
    4        6.018261   1.000000
    5       11.090989   0.000000
    6       18.798064   0.000000
    7       19.861523   0.000000
    8       20.250387   0.000000
 
 -0.4375000E+00 -0.4375000E+00  0.3125000E+00  0.1562500E-01
    1        0.925203   1.000000
    2        0.944635   1.000000
    3        4.313820   1.000000
    4        4.329710   1.000000
    5       10.910274   0.000000
    6       18.914047   0.000000
    7       20.555423   0.000000
    8       21.286609   0.000000
 
 -0.3125000E+00 -0.4375000E+00  0.3125000E+00  0.1562500E-01
    1        1.741923   1.000000
    2        2.840414   1.000000
    3        4.013411   1.000000
    4        5.072647   1.000000
    5        7.074687   1.000000
    6       17.151254   0.000000
    7       17.972636   0.000000
    8       19.695000   0.000000
 
 -0.3125000E+00 -0.3125000E+00  0.3125000E+00  0.3906250E-02
    1        2.988807   1.000000
    2        4.340722   1.000000
    3        4.850036   1.000000
    4        5.358219   1.000000
    5        5.358219   1.000000
    6       15.396873   0.000000
    7       15.396879   0.000000
    8       15.683896   0.000000
 
 -0.4375000E+00  0.4375000E+00  0.4375000E+00  0.7812500E-02
    1        0.526795   1.000000
    2        1.638637   1.000000
    3        2.837420   1.000000
    4        3.933627   1.000000
    5       15.040471   0.000000
    6       15.068743   0.000000
    7       22.445142   0.000000
    8       23.157931   0.000000
 
 -0.4375000E+00 -0.4375000E+00  0.4375000E+00  0.3906250E-02
    1        1.825477   1.000000
    2        1.861149   1.000000
    3        3.038387   1.000000
    4        3.038387   1.000000
    5       10.728286   0.000000
    6       19.209409   0.000000
    7       21.859755   0.000000
    8       21.867775   0.000000
