<?xml version="1.0" encoding="ISO-8859-1"?>
<modeling>
 <generator>
  <i name="program" type="string">vasp </i>
  <i name="version" type="string">5.4.4.18Apr17-6-g9f103f2a35  </i>
  <i name="subversion" type="string">(build Dec 09 2018 21:25:21) complex            parallel </i>
  <i name="platform" type="string">IFC18.0.1.163_CrayMPICH7.7.0_MKL18.0.1.163 </i>
  <i name="date" type="string">2019 04 01 </i>
  <i name="time" type="string">15:51:32 </i>
 </generator>
 <incar>
  <i type="string" name="PREC">normal</i>
  <i type="int" name="IBRION">     2</i>
  <i name="EDIFF">      0.00040000</i>
  <i name="EDIFFG">     -0.01000000</i>
  <i type="int" name="NSW">    15</i>
  <i type="int" name="ISIF">     2</i>
  <i name="ENCUT">    350.00000000</i>
  <i type="int" name="NBANDS">     8</i>
  <i type="logical" name="LREAL"> F  </i>
  <i type="int" name="ISMEAR">     0</i>
  <i name="SIGMA">      0.20000000</i>
  <v type="int" name="KPOINT_BSE">    -1     0     0     0</v>
 </incar>
 <structure name="primitive_cell" >
  <crystal>
   <varray name="basis" >
    <v>      -2.33432000       2.33432000       1.33205600 </v>
    <v>       2.33432000      -2.33432000       1.33205600 </v>
    <v>       2.33432000       2.33432000      -1.33205600 </v>
   </varray>
   <i name="volume">     29.03375825 </i>
   <varray name="rec_basis" >
    <v>       0.00000000       0.21419514       0.37535959 </v>
    <v>       0.21419514       0.00000000       0.37535959 </v>
    <v>       0.21419514       0.21419514      -0.00000000 </v>
   </varray>
  </crystal>
  <varray name="positions" >
   <v>       0.00000000       0.00000000       0.00000000 </v>
   <v>       0.25000000      -0.25000000      -0.50000000 </v>
  </varray>
 </structure>
 <varray name="primitive_index" >
  <v type="int" >        1 </v>
  <v type="int" >        2 </v>
 </varray>
 <kpoints>
  <generation param="Monkhorst-Pack">
   <v type="int" name="divisions">       8        8        8 </v>
   <v name="usershift">      0.00000000       0.00000000       0.00000000 </v>
   <v name="genvec1">      0.12500000      -0.00000000       0.00000000 </v>
   <v name="genvec2">     -0.00000000       0.12500000       0.00000000 </v>
   <v name="genvec3">     -0.00000000      -0.00000000       0.12500000 </v>
   <v name="shift">      0.50000000       0.50000000       0.50000000 </v>
  </generation>
  <varray name="kpointlist" >
   <v>       0.06250000       0.06250000       0.06250000 </v>
   <v>       0.18750000       0.06250000       0.06250000 </v>
   <v>       0.31250000       0.06250000       0.06250000 </v>
   <v>       0.43750000       0.06250000       0.06250000 </v>
   <v>      -0.06250000       0.06250000       0.06250000 </v>
   <v>       0.18750000       0.18750000       0.06250000 </v>
   <v>       0.31250000       0.18750000       0.06250000 </v>
   <v>       0.43750000       0.18750000       0.06250000 </v>
   <v>      -0.43750000       0.18750000       0.06250000 </v>
   <v>      -0.31250000       0.18750000       0.06250000 </v>
   <v>      -0.18750000       0.18750000       0.06250000 </v>
   <v>      -0.06250000       0.18750000       0.06250000 </v>
   <v>       0.31250000       0.31250000       0.06250000 </v>
   <v>       0.43750000       0.31250000       0.06250000 </v>
   <v>      -0.43750000       0.31250000       0.06250000 </v>
   <v>      -0.31250000       0.31250000       0.06250000 </v>
   <v>      -0.18750000       0.31250000       0.06250000 </v>
   <v>      -0.06250000       0.31250000       0.06250000 </v>
   <v>       0.43750000       0.43750000       0.06250000 </v>
   <v>      -0.43750000       0.43750000       0.06250000 </v>
   <v>      -0.31250000       0.43750000       0.06250000 </v>
   <v>      -0.18750000       0.43750000       0.06250000 </v>
   <v>      -0.06250000       0.43750000       0.06250000 </v>
   <v>      -0.43750000      -0.43750000       0.06250000 </v>
   <v>      -0.31250000      -0.43750000       0.06250000 </v>
   <v>      -0.18750000      -0.43750000       0.06250000 </v>
   <v>      -0.06250000      -0.43750000       0.06250000 </v>
   <v>      -0.31250000      -0.31250000       0.06250000 </v>
   <v>      -0.18750000      -0.31250000       0.06250000 </v>
   <v>      -0.06250000      -0.31250000       0.06250000 </v>
   <v>      -0.18750000      -0.18750000       0.06250000 </v>
   <v>      -0.06250000      -0.18750000       0.06250000 </v>
   <v>      -0.06250000      -0.06250000       0.06250000 </v>
   <v>       0.18750000       0.18750000       0.18750000 </v>
   <v>       0.31250000       0.18750000       0.18750000 </v>
   <v>      -0.18750000       0.18750000       0.18750000 </v>
   <v>       0.31250000       0.31250000       0.18750000 </v>
   <v>      -0.31250000       0.31250000       0.18750000 </v>
   <v>      -0.18750000       0.31250000       0.18750000 </v>
   <v>      -0.43750000       0.43750000       0.18750000 </v>
   <v>      -0.31250000       0.43750000       0.18750000 </v>
   <v>      -0.18750000       0.43750000       0.18750000 </v>
   <v>      -0.43750000      -0.43750000       0.18750000 </v>
   <v>      -0.31250000      -0.43750000       0.18750000 </v>
   <v>      -0.18750000      -0.43750000       0.18750000 </v>
   <v>      -0.31250000      -0.31250000       0.18750000 </v>
   <v>      -0.18750000      -0.31250000       0.18750000 </v>
   <v>      -0.18750000      -0.18750000       0.18750000 </v>
   <v>      -0.31250000       0.31250000       0.31250000 </v>
   <v>      -0.43750000       0.43750000       0.31250000 </v>
   <v>      -0.31250000       0.43750000       0.31250000 </v>
   <v>      -0.43750000      -0.43750000       0.31250000 </v>
   <v>      -0.31250000      -0.43750000       0.31250000 </v>
   <v>      -0.31250000      -0.31250000       0.31250000 </v>
   <v>      -0.43750000       0.43750000       0.43750000 </v>
   <v>      -0.43750000      -0.43750000       0.43750000 </v>
  </varray>
  <varray name="weights" >
   <v>       0.01562500 </v>
   <v>       0.03125000 </v>
   <v>       0.03125000 </v>
   <v>       0.01562500 </v>
   <v>       0.00781250 </v>
   <v>       0.01562500 </v>
   <v>       0.03125000 </v>
   <v>       0.03125000 </v>
   <v>       0.03125000 </v>
   <v>       0.01562500 </v>
   <v>       0.01562500 </v>
   <v>       0.01562500 </v>
   <v>       0.01562500 </v>
   <v>       0.03125000 </v>
   <v>       0.01562500 </v>
   <v>       0.01562500 </v>
   <v>       0.03125000 </v>
   <v>       0.01562500 </v>
   <v>       0.00781250 </v>
   <v>       0.01562500 </v>
   <v>       0.03125000 </v>
   <v>       0.03125000 </v>
   <v>       0.01562500 </v>
   <v>       0.01562500 </v>
   <v>       0.03125000 </v>
   <v>       0.03125000 </v>
   <v>       0.01562500 </v>
   <v>       0.01562500 </v>
   <v>       0.03125000 </v>
   <v>       0.01562500 </v>
   <v>       0.01562500 </v>
   <v>       0.01562500 </v>
   <v>       0.00390625 </v>
   <v>       0.01562500 </v>
   <v>       0.01562500 </v>
   <v>       0.00781250 </v>
   <v>       0.00781250 </v>
   <v>       0.01562500 </v>
   <v>       0.01562500 </v>
   <v>       0.01562500 </v>
   <v>       0.03125000 </v>
   <v>       0.01562500 </v>
   <v>       0.01562500 </v>
   <v>       0.03125000 </v>
   <v>       0.01562500 </v>
   <v>       0.01562500 </v>
   <v>       0.01562500 </v>
   <v>       0.00390625 </v>
   <v>       0.00781250 </v>
   <v>       0.01562500 </v>
   <v>       0.01562500 </v>
   <v>       0.01562500 </v>
   <v>       0.01562500 </v>
   <v>       0.00390625 </v>
   <v>       0.00781250 </v>
   <v>       0.00390625 </v>
  </varray>
 </kpoints>
 <parameters>
  <separator name="general" >
   <i type="string" name="SYSTEM">unknown system</i>
   <i type="logical" name="LCOMPAT"> F  </i>
  </separator>
  <separator name="electronic" >
   <i type="string" name="PREC">normal</i>
   <i name="ENMAX">    350.00000000</i>
   <i name="ENAUG">    322.06900000</i>
   <i name="EDIFF">      0.00040000</i>
   <i type="int" name="IALGO">    38</i>
   <i type="int" name="IWAVPR">    11</i>
   <i type="int" name="NBANDS">     8</i>
   <i name="NELECT">      8.00000000</i>
   <i type="int" name="TURBO">     0</i>
   <i type="int" name="IRESTART">     0</i>
   <i type="int" name="NREBOOT">     0</i>
   <i type="int" name="NMIN">     0</i>
   <i name="EREF">      0.00000000</i>
   <separator name="electronic smearing" >
    <i type="int" name="ISMEAR">     0</i>
    <i name="SIGMA">      0.20000000</i>
    <i name="KSPACING">      0.50000000</i>
    <i type="logical" name="KGAMMA"> T  </i>
   </separator>
   <separator name="electronic projectors" >
    <i type="logical" name="LREAL"> F  </i>
    <v name="ROPT">      0.00000000</v>
    <i type="int" name="LMAXPAW">  -100</i>
    <i type="int" name="LMAXMIX">     2</i>
    <i type="logical" name="NLSPLINE"> F  </i>
   </separator>
   <separator name="electronic startup" >
    <i type="int" name="ISTART">     0</i>
    <i type="int" name="ICHARG">     2</i>
    <i type="int" name="INIWAV">     1</i>
   </separator>
   <separator name="electronic spin" >
    <i type="int" name="ISPIN">     1</i>
    <i type="logical" name="LNONCOLLINEAR"> F  </i>
    <v name="MAGMOM">      1.00000000      1.00000000</v>
    <i name="NUPDOWN">     -1.00000000</i>
    <i type="logical" name="LSORBIT"> F  </i>
    <v name="SAXIS">      0.00000000      0.00000000      1.00000000</v>
    <i type="logical" name="LSPIRAL"> F  </i>
    <v name="QSPIRAL">      0.00000000      0.00000000      0.00000000</v>
    <i type="logical" name="LZEROZ"> F  </i>
   </separator>
   <separator name="electronic exchange-correlation" >
    <i type="logical" name="LASPH"> F  </i>
    <i type="logical" name="LMETAGGA"> F  </i>
   </separator>
   <separator name="electronic convergence" >
    <i type="int" name="NELM">    60</i>
    <i type="int" name="NELMDL">    -5</i>
    <i type="int" name="NELMIN">     2</i>
    <i name="ENINI">    350.00000000</i>
    <separator name="electronic convergence detail" >
     <i type="logical" name="LDIAG"> T  </i>
     <i type="logical" name="LSUBROT"> F  </i>
     <i name="WEIMIN">      0.00100000</i>
     <i name="EBREAK">      0.00001250</i>
     <i name="DEPER">      0.30000000</i>
     <i type="int" name="NRMM">     4</i>
     <i name="TIME">      0.40000000</i>
    </separator>
   </separator>
   <separator name="electronic mixer" >
    <i name="AMIX">      0.40000000</i>
    <i name="BMIX">      1.00000000</i>
    <i name="AMIN">      0.10000000</i>
    <i name="AMIX_MAG">      1.60000000</i>
    <i name="BMIX_MAG">      1.00000000</i>
    <separator name="electronic mixer details" >
     <i type="int" name="IMIX">     4</i>
     <i type="logical" name="MIXFIRST"> F  </i>
     <i type="int" name="MAXMIX">   -45</i>
     <i name="WC">    100.00000000</i>
     <i type="int" name="INIMIX">     1</i>
     <i type="int" name="MIXPRE">     1</i>
     <i type="int" name="MREMOVE">     5</i>
    </separator>
   </separator>
   <separator name="electronic dipolcorrection" >
    <i type="logical" name="LDIPOL"> F  </i>
    <i type="logical" name="LMONO"> F  </i>
    <i type="int" name="IDIPOL">     0</i>
    <i name="EPSILON">      1.00000000</i>
    <v name="DIPOL">   -100.00000000   -100.00000000   -100.00000000</v>
    <i name="EFIELD">      0.00000000</i>
   </separator>
  </separator>
  <separator name="grids" >
   <i type="int" name="NGX">    16</i>
   <i type="int" name="NGY">    16</i>
   <i type="int" name="NGZ">    16</i>
   <i type="int" name="NGXF">    32</i>
   <i type="int" name="NGYF">    32</i>
   <i type="int" name="NGZF">    32</i>
   <i type="logical" name="ADDGRID"> F  </i>
  </separator>
  <separator name="ionic" >
   <i type="int" name="NSW">    15</i>
   <i type="int" name="IBRION">     2</i>
   <i type="int" name="MDALGO">     0</i>
   <i type="int" name="ISIF">     2</i>
   <i name="PSTRESS">      0.00000000</i>
   <i name="EDIFFG">     -0.01000000</i>
   <i type="int" name="NFREE">     1</i>
   <i name="POTIM">      0.50000000</i>
   <i name="SMASS">     -3.00000000</i>
   <i name="SCALEE">      1.00000000</i>
  </separator>
  <separator name="ionic md" >
   <i name="TEBEG">      0.00010000</i>
   <i name="TEEND">      0.00010000</i>
   <i type="int" name="NBLOCK">     1</i>
   <i type="int" name="KBLOCK">    15</i>
   <i type="int" name="NPACO">   256</i>
   <i name="APACO">     16.00000000</i>
  </separator>
  <separator name="symmetry" >
   <i type="int" name="ISYM">     2</i>
   <i name="SYMPREC">      0.00001000</i>
  </separator>
  <separator name="dos" >
   <i type="int" name="LORBIT">     0</i>
   <v name="RWIGS">     -1.00000000</v>
   <i type="int" name="NEDOS">   301</i>
   <i name="EMIN">     10.00000000</i>
   <i name="EMAX">    -10.00000000</i>
   <i name="EFERMI">      0.00000000</i>
  </separator>
  <separator name="writing" >
   <i type="int" name="NWRITE">     2</i>
   <i type="logical" name="LWAVE"> T  </i>
   <i type="logical" name="LDOWNSAMPLE"> F  </i>
   <i type="logical" name="LCHARG"> T  </i>
   <i type="logical" name="LPARD"> F  </i>
   <i type="logical" name="LVTOT"> F  </i>
   <i type="logical" name="LVHAR"> F  </i>
   <i type="logical" name="LELF"> F  </i>
   <i type="logical" name="LOPTICS"> F  </i>
   <v name="STM">      0.00000000      0.00000000      0.00000000      0.00000000      0.00000000      0.00000000      0.00000000</v>
  </separator>
  <separator name="performance" >
   <i type="int" name="NPAR">     8</i>
   <i type="int" name="NSIM">     4</i>
   <i type="int" name="NBLK">    -1</i>
   <i type="logical" name="LPLANE"> T  </i>
   <i type="logical" name="LSCALAPACK"> T  </i>
   <i type="logical" name="LSCAAWARE"> F  </i>
   <i type="logical" name="LSCALU"> F  </i>
   <i type="logical" name="LASYNC"> F  </i>
   <i type="logical" name="LORBITALREAL"> F  </i>
  </separator>
  <separator name="miscellaneous" >
   <i type="int" name="IDIOT">     3</i>
   <i type="int" name="ISPECIAL">     0</i>
   <i type="logical" name="LMUSIC"> F  </i>
   <v name="POMASS">     28.08500000</v>
   <v name="DARWINR">      0.00000000</v>
   <v name="DARWINV">      1.00000000</v>
   <i type="logical" name="LCORR"> T  </i>
  </separator>
  <i type="logical" name="GGA_COMPAT"> T  </i>
  <i type="logical" name="LBERRY"> F  </i>
  <i type="int" name="ICORELEVEL">     0</i>
  <i type="logical" name="LDAU"> F  </i>
  <i type="int" name="I_CONSTRAINED_M">     0</i>
  <separator name="electronic exchange-correlation" >
   <i type="string" name="GGA">--</i>
   <i type="int" name="VOSKOWN">     0</i>
   <i type="logical" name="LHFCALC"> F  </i>
   <i type="string" name="PRECFOCK"></i>
   <i type="logical" name="LSYMGRAD"> F  </i>
   <i type="logical" name="LHFONE"> F  </i>
   <i type="logical" name="LRHFCALC"> F  </i>
   <i type="logical" name="LTHOMAS"> F  </i>
   <i type="logical" name="LMODELHF"> F  </i>
   <i name="ENCUT4O">     -1.00000000</i>
   <i type="int" name="EXXOEP">     0</i>
   <i type="int" name="FOURORBIT">     0</i>
   <i name="AEXX">      0.00000000</i>
   <i name="HFALPHA">      0.00000000</i>
   <i name="MCALPHA">      0.00000000</i>
   <i name="ALDAX">      1.00000000</i>
   <i name="AGGAX">      1.00000000</i>
   <i name="ALDAC">      1.00000000</i>
   <i name="AGGAC">      1.00000000</i>
   <i type="int" name="NKREDX">     1</i>
   <i type="int" name="NKREDY">     1</i>
   <i type="int" name="NKREDZ">     1</i>
   <i type="logical" name="SHIFTRED"> F  </i>
   <i type="logical" name="ODDONLY"> F  </i>
   <i type="logical" name="EVENONLY"> F  </i>
   <i type="int" name="LMAXFOCK">     0</i>
   <i type="int" name="NMAXFOCKAE">     0</i>
   <i type="logical" name="LFOCKAEDFT"> F  </i>
   <i name="HFSCREEN">      0.00000000</i>
   <i name="HFSCREENC">      0.00000000</i>
   <i type="int" name="NBANDSGWLOW">     0</i>
  </separator>
  <separator name="vdW DFT" >
   <i type="logical" name="LUSE_VDW"> F  </i>
   <i name="Zab_VDW">     -0.84910000</i>
   <i name="PARAM1">      0.12340000</i>
   <i name="PARAM2">      1.00000000</i>
   <i name="PARAM3">      0.00000000</i>
  </separator>
  <separator name="model GW" >
   <i type="int" name="MODEL_GW">     0</i>
   <i name="MODEL_EPS0">      8.71012748</i>
   <i name="MODEL_ALPHA">      1.00000000</i>
  </separator>
  <separator name="linear response parameters" >
   <i type="logical" name="LEPSILON"> F  </i>
   <i type="logical" name="LRPA"> F  </i>
   <i type="logical" name="LNABLA"> F  </i>
   <i type="logical" name="LVEL"> F  </i>
   <i type="int" name="KINTER">     0</i>
   <i name="CSHIFT">      0.10000000</i>
   <i name="OMEGAMAX">     -1.00000000</i>
   <i name="DEG_THRESHOLD">      0.00200000</i>
   <i name="RTIME">     -0.10000000</i>
   <i name="WPLASMAI">      0.00000000</i>
   <v name="DFIELD">      0.00000000      0.00000000      0.00000000</v>
   <v name="WPLASMA">      0.00000000      0.00000000      0.00000000      0.00000000      0.00000000      0.00000000      0.00000000      0.00000000      0.00000000</v>
  </separator>
  <separator name="orbital magnetization" >
   <i type="logical" name="NUCIND"> F  </i>
   <v name="MAGPOS">      0.00000000      0.00000000      0.00000000</v>
   <i type="logical" name="LNICSALL"> T  </i>
   <i type="logical" name="ORBITALMAG"> F  </i>
   <i type="logical" name="LMAGBLOCH"> F  </i>
   <i type="logical" name="LCHIMAG"> F  </i>
   <i type="logical" name="LGAUGE"> T  </i>
   <i type="int" name="MAGATOM">     0</i>
   <v name="MAGDIPOL">      0.00000000      0.00000000      0.00000000</v>
   <v name="AVECCONST">      0.00000000      0.00000000      0.00000000</v>
  </separator>
  <separator name="response functions" >
   <i type="logical" name="LADDER"> F  </i>
   <i type="logical" name="LRPAFORCE"> F  </i>
   <i type="logical" name="LFXC"> F  </i>
   <i type="logical" name="LHARTREE"> T  </i>
   <i type="int" name="IBSE">     0</i>
   <v type="int" name="KPOINT">    -1     0     0     0</v>
   <i type="logical" name="LTCTE"> F  </i>
   <i type="logical" name="LTETE"> F  </i>
   <i type="logical" name="LTRIPLET"> F  </i>
   <i type="logical" name="LFXCEPS"> F  </i>
   <i type="logical" name="LFXHEG"> F  </i>
   <i type="int" name="NATURALO">     2</i>
   <i type="logical" name="L2ORDER"> F  </i>
   <i type="logical" name="LMP2LT"> F  </i>
   <i type="logical" name="LUSEW"> F  </i>
   <i name="ENCUTGW">     -2.00000000</i>
   <i name="ENCUTGWSOFT">     -2.00000000</i>
   <i name="ENCUTLF">     -1.00000000</i>
   <i type="int" name="LMAXMP2">    -1</i>
   <i name="SCISSOR">      0.00000000</i>
   <i type="int" name="NOMEGA">     0</i>
   <i type="int" name="NOMEGAR">     0</i>
   <i type="int" name="NBANDSGW">    -1</i>
   <i type="int" name="NBANDSO">    -1</i>
   <i type="int" name="NBANDSV">    -1</i>
   <i type="int" name="NELM">     1</i>
   <i type="int" name="NELMHF">     1</i>
   <i type="int" name="DIM">     3</i>
   <i type="int" name="ANTIRES">     0</i>
   <i name="OMEGAMAX">    -30.00000000</i>
   <i name="OMEGAMIN">    -30.00000000</i>
   <i name="OMEGATL">   -200.00000000</i>
   <i type="int" name="OMEGAGRID">   140</i>
   <i name="CSHIFT">     -0.10000000</i>
   <i type="logical" name="SELFENERGY"> F  </i>
   <i type="logical" name="LSPECTRAL"> F  </i>
   <i type="logical" name="LSPECTRALGW"> F  </i>
   <i type="logical" name="LSINGLES"> F  </i>
   <i type="logical" name="LFERMIGW"> F  </i>
   <i type="logical" name="ODDONLYGW"> F  </i>
   <i type="logical" name="EVENONLYGW"> F  </i>
   <i type="int" name="NKREDLFX">     1</i>
   <i type="int" name="NKREDLFY">     1</i>
   <i type="int" name="NKREDLFZ">     1</i>
   <i type="int" name="MAXMEM">  2800</i>
   <i type="int" name="TELESCOPE">     0</i>
   <i type="int" name="TAUPAR">     1</i>
   <i type="int" name="OMEGAPAR">    -1</i>
   <i name="LAMBDA">      1.00000000</i>
  </separator>
  <separator name="External order field" >
   <i name="OFIELD_KAPPA">      0.00000000</i>
   <v name="OFIELD_K">      0.00000000      0.00000000      0.00000000</v>
   <i name="OFIELD_Q6_NEAR">      0.00000000</i>
   <i name="OFIELD_Q6_FAR">      0.00000000</i>
   <i name="OFIELD_A">      0.00000000</i>
  </separator>
 </parameters>
 <atominfo>
  <atoms>       2 </atoms>
  <types>       1 </types>
  <array name="atoms" >
   <dimension dim="1">ion</dimension>
   <field type="string">element</field>
   <field type="int">atomtype</field>
   <set>
    <rc><c>Si</c><c>   1</c></rc>
    <rc><c>Si</c><c>   1</c></rc>
   </set>
  </array>
  <array name="atomtypes" >
   <dimension dim="1">type</dimension>
   <field type="int">atomspertype</field>
   <field type="string">element</field>
   <field>mass</field>
   <field>valence</field>
   <field type="string">pseudopotential</field>
   <set>
    <rc><c>   2</c><c>Si</c><c>     28.08500000</c><c>      4.00000000</c><c> PAW_PBE Si 05Jan2001                   </c></rc>
   </set>
  </array>
 </atominfo>
 <structure name="initialpos" >
  <crystal>
   <varray name="basis" >
    <v>      -2.33432000       2.33432000       1.33205600 </v>
    <v>       2.33432000      -2.33432000       1.33205600 </v>
    <v>       2.33432000       2.33432000      -1.33205600 </v>
   </varray>
   <i name="volume">     29.03375825 </i>
   <varray name="rec_basis" >
    <v>       0.00000000       0.21419514       0.37535959 </v>
    <v>       0.21419514       0.00000000       0.37535959 </v>
    <v>       0.21419514       0.21419514      -0.00000000 </v>
   </varray>
  </crystal>
  <varray name="positions" >
   <v>       0.00000000       0.00000000       0.00000000 </v>
   <v>       0.25000000       0.75000000       0.50000000 </v>
  </varray>
 </structure>
 <calculation>
  <scstep>
   <time name="dav">    0.34    0.35</time>
   <time name="total">    0.38    0.39</time>
   <energy>
    <i name="alphaZ">      4.63778449 </i>
    <i name="ewald">   -269.83718697 </i>
    <i name="hartreedc">     -1.92604898 </i>
    <i name="XCdc">    -17.55458722 </i>
    <i name="pawpsdc">     65.95520812 </i>
    <i name="pawaedc">    -30.76852678 </i>
    <i name="eentropy">     -0.01576182 </i>
    <i name="bandstr">     44.98880208 </i>
    <i name="atom">    206.13125414 </i>
    <i name="e_fr_energy">      1.61093704 </i>
    <i name="e_wo_entrp">      1.62669886 </i>
    <i name="e_0_energy">      1.61881795 </i>
   </energy>
  </scstep>
  <scstep>
   <time name="dav">    0.55    0.55</time>
   <time name="total">    0.55    0.56</time>
   <energy>
    <i name="e_fr_energy">    -10.14149639 </i>
    <i name="e_wo_entrp">    -10.12558469 </i>
    <i name="e_0_energy">    -10.13354054 </i>
   </energy>
  </scstep>
  <scstep>
   <time name="dav">    0.47    0.48</time>
   <time name="total">    0.47    0.48</time>
   <energy>
    <i name="e_fr_energy">    -10.25531809 </i>
    <i name="e_wo_entrp">    -10.23863630 </i>
    <i name="e_0_energy">    -10.24697719 </i>
   </energy>
  </scstep>
  <scstep>
   <time name="dav">    0.57    0.57</time>
   <time name="total">    0.57    0.58</time>
   <energy>
    <i name="e_fr_energy">    -10.25555553 </i>
    <i name="e_wo_entrp">    -10.23886441 </i>
    <i name="e_0_energy">    -10.24720997 </i>
   </energy>
  </scstep>
  <scstep>
   <time name="dav">    0.50    0.50</time>
   <time name="total">    0.52    0.52</time>
   <energy>
    <i name="e_fr_energy">    -10.25555565 </i>
    <i name="e_wo_entrp">    -10.23886452 </i>
    <i name="e_0_energy">    -10.24721008 </i>
   </energy>
  </scstep>
  <scstep>
   <time name="dav">    0.47    0.47</time>
   <time name="total">    0.51    0.52</time>
   <energy>
    <i name="e_fr_energy">    -10.24168185 </i>
    <i name="e_wo_entrp">    -10.22499484 </i>
    <i name="e_0_energy">    -10.23333834 </i>
   </energy>
  </scstep>
  <scstep>
   <time name="dav">    0.45    0.45</time>
   <time name="total">    0.48    0.49</time>
   <energy>
    <i name="e_fr_energy">    -10.23332205 </i>
    <i name="e_wo_entrp">    -10.21661698 </i>
    <i name="e_0_energy">    -10.22496951 </i>
   </energy>
  </scstep>
  <scstep>
   <time name="dav">    0.32    0.32</time>
   <time name="total">    0.34    0.36</time>
   <energy>
    <i name="alphaZ">      4.63778449 </i>
    <i name="ewald">   -269.83718697 </i>
    <i name="hartreedc">     -2.26216488 </i>
    <i name="XCdc">    -17.28130510 </i>
    <i name="pawpsdc">     71.75928608 </i>
    <i name="pawaedc">    -36.71471257 </i>
    <i name="eentropy">     -0.01670145 </i>
    <i name="bandstr">     33.35050846 </i>
    <i name="atom">    206.13125414 </i>
    <i name="e_fr_energy">    -10.23323781 </i>
    <i name="e_wo_entrp">    -10.21653635 </i>
    <i name="e_0_energy">    -10.22488708 </i>
   </energy>
  </scstep>
  <structure>
   <crystal>
    <varray name="basis" >
     <v>      -2.33432000       2.33432000       1.33205600 </v>
     <v>       2.33432000      -2.33432000       1.33205600 </v>
     <v>       2.33432000       2.33432000      -1.33205600 </v>
    </varray>
    <i name="volume">     29.03375825 </i>
    <varray name="rec_basis" >
     <v>       0.00000000       0.21419514       0.37535959 </v>
     <v>       0.21419514       0.00000000       0.37535959 </v>
     <v>       0.21419514       0.21419514      -0.00000000 </v>
    </varray>
   </crystal>
   <varray name="positions" >
    <v>       0.00000000       0.00000000       0.00000000 </v>
    <v>       0.25000000       0.75000000       0.50000000 </v>
   </varray>
  </structure>
  <varray name="forces" >
   <v>       0.00000000      -0.00000000       0.00000000 </v>
   <v>      -0.00000000       0.00000000      -0.00000000 </v>
  </varray>
  <varray name="stress" >
   <v>      81.27520233      -0.00000000       0.00000000 </v>
   <v>      -0.00000000      81.27520233       0.00000000 </v>
   <v>       0.00000000       0.00000000      55.07237779 </v>
  </varray>
  <energy>
   <i name="e_fr_energy">    -10.23323781 </i>
   <i name="e_wo_entrp">    -10.22488708 </i>
   <i name="e_0_energy">     -0.01670145 </i>
  </energy>
  <time name="totalsc">    4.80    5.28</time>
  <eigenvalues>
   <array>
    <dimension dim="1">band</dimension>
    <dimension dim="2">kpoint</dimension>
    <dimension dim="3">spin</dimension>
    <field>eigene</field>
    <field>occ</field>
    <set>
     <set comment="spin 1">
      <set comment="kpoint 1">
       <r>   -3.8689    1.0000 </r>
       <r>    5.5852    1.0000 </r>
       <r>    7.7993    1.0000 </r>
       <r>    9.8475    0.2512 </r>
       <r>   12.9034    0.0000 </r>
       <r>   14.8695    0.0000 </r>
       <r>   15.3050    0.0000 </r>
       <r>   17.7640    0.0000 </r>
      </set>
      <set comment="kpoint 2">
       <r>   -2.6169    1.0000 </r>
       <r>    5.2428    1.0000 </r>
       <r>    8.0401    1.0000 </r>
       <r>   10.0639    0.0139 </r>
       <r>   11.8653    0.0000 </r>
       <r>   12.3862    0.0000 </r>
       <r>   14.8254    0.0000 </r>
       <r>   15.9441    0.0000 </r>
      </set>
      <set comment="kpoint 3">
       <r>   -0.5593    1.0000 </r>
       <r>    5.3820    1.0000 </r>
       <r>    6.2464    1.0000 </r>
       <r>    8.1790    1.0000 </r>
       <r>    9.7053    0.6311 </r>
       <r>   12.6319    0.0000 </r>
       <r>   14.9174    0.0000 </r>
       <r>   15.1881    0.0000 </r>
      </set>
      <set comment="kpoint 4">
       <r>    1.8834    1.0000 </r>
       <r>    2.7394    1.0000 </r>
       <r>    6.6476    1.0000 </r>
       <r>    7.1138    1.0000 </r>
       <r>    9.6191    0.8274 </r>
       <r>   11.4481    0.0000 </r>
       <r>   14.6744    0.0000 </r>
       <r>   15.4323    0.0000 </r>
      </set>
      <set comment="kpoint 5">
       <r>   -4.2886    1.0000 </r>
       <r>    6.3642    1.0000 </r>
       <r>    6.9042    1.0000 </r>
       <r>    9.5851    0.8819 </r>
       <r>   11.9290    0.0000 </r>
       <r>   16.3014    0.0000 </r>
       <r>   18.6799    0.0000 </r>
       <r>   18.9687    0.0000 </r>
      </set>
      <set comment="kpoint 6">
       <r>   -0.7593    1.0000 </r>
       <r>    5.4047    1.0000 </r>
       <r>    7.1734    1.0000 </r>
       <r>    7.3825    1.0000 </r>
       <r>   10.7602    0.0000 </r>
       <r>   13.2586    0.0000 </r>
       <r>   13.9312    0.0000 </r>
       <r>   14.2241    0.0000 </r>
      </set>
      <set comment="kpoint 7">
       <r>    1.7936    1.0000 </r>
       <r>    3.5784    1.0000 </r>
       <r>    5.0536    1.0000 </r>
       <r>    6.6458    1.0000 </r>
       <r>   11.0074    0.0000 </r>
       <r>   12.7242    0.0000 </r>
       <r>   13.9419    0.0000 </r>
       <r>   16.2525    0.0000 </r>
      </set>
      <set comment="kpoint 8">
       <r>    0.4385    1.0000 </r>
       <r>    3.5333    1.0000 </r>
       <r>    5.4793    1.0000 </r>
       <r>    8.1056    1.0000 </r>
       <r>   10.2381    0.0003 </r>
       <r>   13.0721    0.0000 </r>
       <r>   14.9806    0.0000 </r>
       <r>   16.3121    0.0000 </r>
      </set>
      <set comment="kpoint 9">
       <r>   -1.8017    1.0000 </r>
       <r>    2.9761    1.0000 </r>
       <r>    8.5548    1.0000 </r>
       <r>    9.5937    0.8695 </r>
       <r>   11.3052    0.0000 </r>
       <r>   13.0663    0.0000 </r>
       <r>   14.1306    0.0000 </r>
       <r>   16.6970    0.0000 </r>
      </set>
      <set comment="kpoint 10">
       <r>   -3.2521    1.0000 </r>
       <r>    3.1502    1.0000 </r>
       <r>    8.3352    1.0000 </r>
       <r>   10.6833    0.0000 </r>
       <r>   13.2831    0.0000 </r>
       <r>   14.5942    0.0000 </r>
       <r>   15.4914    0.0000 </r>
       <r>   16.6503    0.0000 </r>
      </set>
      <set comment="kpoint 11">
       <r>   -3.8762    1.0000 </r>
       <r>    4.0846    1.0000 </r>
       <r>    7.0947    1.0000 </r>
       <r>   10.7414    0.0000 </r>
       <r>   14.2129    0.0000 </r>
       <r>   14.2760    0.0000 </r>
       <r>   17.5700    0.0000 </r>
       <r>   18.2470    0.0000 </r>
      </set>
      <set comment="kpoint 12">
       <r>   -3.6632    1.0000 </r>
       <r>    5.4224    1.0000 </r>
       <r>    6.2603    1.0000 </r>
       <r>   11.3588    0.0000 </r>
       <r>   13.6693    0.0000 </r>
       <r>   13.9802    0.0000 </r>
       <r>   14.8845    0.0000 </r>
       <r>   17.1925    0.0000 </r>
      </set>
      <set comment="kpoint 13">
       <r>    1.7861    1.0000 </r>
       <r>    1.8462    1.0000 </r>
       <r>    5.2659    1.0000 </r>
       <r>    8.0193    1.0000 </r>
       <r>   11.0586    0.0000 </r>
       <r>   11.9227    0.0000 </r>
       <r>   16.3740    0.0000 </r>
       <r>   17.0908    0.0000 </r>
      </set>
      <set comment="kpoint 14">
       <r>   -0.5876    1.0000 </r>
       <r>    1.0129    1.0000 </r>
       <r>    8.8364    1.0000 </r>
       <r>    9.5961    0.8659 </r>
       <r>   11.1402    0.0000 </r>
       <r>   12.6141    0.0000 </r>
       <r>   14.1629    0.0000 </r>
       <r>   15.6465    0.0000 </r>
      </set>
      <set comment="kpoint 15">
       <r>   -2.2294    1.0000 </r>
       <r>    0.9932    1.0000 </r>
       <r>    9.2143    0.9999 </r>
       <r>   11.5531    0.0000 </r>
       <r>   11.9782    0.0000 </r>
       <r>   13.9664    0.0000 </r>
       <r>   14.8535    0.0000 </r>
       <r>   15.1391    0.0000 </r>
      </set>
      <set comment="kpoint 16">
       <r>   -3.0545    1.0000 </r>
       <r>    1.7733    1.0000 </r>
       <r>    7.8376    1.0000 </r>
       <r>   11.6455    0.0000 </r>
       <r>   12.2225    0.0000 </r>
       <r>   15.8809    0.0000 </r>
       <r>   17.1558    0.0000 </r>
       <r>   17.9827    0.0000 </r>
      </set>
      <set comment="kpoint 17">
       <r>   -3.0475    1.0000 </r>
       <r>    3.3180    1.0000 </r>
       <r>    6.5065    1.0000 </r>
       <r>   11.9042    0.0000 </r>
       <r>   12.5810    0.0000 </r>
       <r>   14.0605    0.0000 </r>
       <r>   15.9408    0.0000 </r>
       <r>   17.0776    0.0000 </r>
      </set>
      <set comment="kpoint 18">
       <r>   -2.2093    1.0000 </r>
       <r>    5.2116    1.0000 </r>
       <r>    6.1687    1.0000 </r>
       <r>    9.1343    1.0000 </r>
       <r>   12.3023    0.0000 </r>
       <r>   14.3606    0.0000 </r>
       <r>   14.4828    0.0000 </r>
       <r>   15.0865    0.0000 </r>
      </set>
      <set comment="kpoint 19">
       <r>   -0.8094    1.0000 </r>
       <r>   -0.8094    1.0000 </r>
       <r>   10.3999    0.0000 </r>
       <r>   10.3999    0.0000 </r>
       <r>   12.9348    0.0000 </r>
       <r>   12.9348    0.0000 </r>
       <r>   14.5350    0.0000 </r>
       <r>   14.5350    0.0000 </r>
      </set>
      <set comment="kpoint 20">
       <r>   -1.8301    1.0000 </r>
       <r>   -0.2142    1.0000 </r>
       <r>    8.9538    1.0000 </r>
       <r>   10.4252    0.0000 </r>
       <r>   12.7954    0.0000 </r>
       <r>   14.2305    0.0000 </r>
       <r>   17.5154    0.0000 </r>
       <r>   17.6675    0.0000 </r>
      </set>
      <set comment="kpoint 21">
       <r>   -2.0269    1.0000 </r>
       <r>    1.1845    1.0000 </r>
       <r>    7.4279    1.0000 </r>
       <r>   10.3333    0.0000 </r>
       <r>   12.3427    0.0000 </r>
       <r>   14.4014    0.0000 </r>
       <r>   15.8825    0.0000 </r>
       <r>   17.1663    0.0000 </r>
      </set>
      <set comment="kpoint 22">
       <r>   -1.3976    1.0000 </r>
       <r>    3.3270    1.0000 </r>
       <r>    6.5182    1.0000 </r>
       <r>    8.4342    1.0000 </r>
       <r>   10.9058    0.0000 </r>
       <r>   13.6379    0.0000 </r>
       <r>   15.6607    0.0000 </r>
       <r>   16.7732    0.0000 </r>
      </set>
      <set comment="kpoint 23">
       <r>    0.0376    1.0000 </r>
       <r>    4.7738    1.0000 </r>
       <r>    6.1720    1.0000 </r>
       <r>    6.7190    1.0000 </r>
       <r>   10.2998    0.0001 </r>
       <r>   12.3236    0.0000 </r>
       <r>   13.3536    0.0000 </r>
       <r>   16.9775    0.0000 </r>
      </set>
      <set comment="kpoint 24">
       <r>   -0.6134    1.0000 </r>
       <r>   -0.6080    1.0000 </r>
       <r>    8.7186    1.0000 </r>
       <r>    8.7266    1.0000 </r>
       <r>   12.2523    0.0000 </r>
       <r>   15.1169    0.0000 </r>
       <r>   15.8441    0.0000 </r>
       <r>   15.9809    0.0000 </r>
      </set>
      <set comment="kpoint 25">
       <r>   -0.1899    1.0000 </r>
       <r>    1.3986    1.0000 </r>
       <r>    7.4248    1.0000 </r>
       <r>    8.1632    1.0000 </r>
       <r>    9.3160    0.9990 </r>
       <r>   13.1860    0.0000 </r>
       <r>   16.9173    0.0000 </r>
       <r>   18.2991    0.0000 </r>
      </set>
      <set comment="kpoint 26">
       <r>    1.0206    1.0000 </r>
       <r>    3.8497    1.0000 </r>
       <r>    4.7724    1.0000 </r>
       <r>    7.3321    1.0000 </r>
       <r>    9.7419    0.5303 </r>
       <r>   11.7848    0.0000 </r>
       <r>   14.2140    0.0000 </r>
       <r>   18.3989    0.0000 </r>
      </set>
      <set comment="kpoint 27">
       <r>    1.4081    1.0000 </r>
       <r>    3.2151    1.0000 </r>
       <r>    7.3142    1.0000 </r>
       <r>    7.6771    1.0000 </r>
       <r>    8.8036    1.0000 </r>
       <r>   10.9747    0.0000 </r>
       <r>   12.9988    0.0000 </r>
       <r>   17.0649    0.0000 </r>
      </set>
      <set comment="kpoint 28">
       <r>    2.2769    1.0000 </r>
       <r>    2.4448    1.0000 </r>
       <r>    4.3825    1.0000 </r>
       <r>    8.2712    1.0000 </r>
       <r>    8.7615    1.0000 </r>
       <r>   11.3364    0.0000 </r>
       <r>   16.1930    0.0000 </r>
       <r>   17.2736    0.0000 </r>
      </set>
      <set comment="kpoint 29">
       <r>    1.0538    1.0000 </r>
       <r>    4.3255    1.0000 </r>
       <r>    5.8112    1.0000 </r>
       <r>    8.1011    1.0000 </r>
       <r>    9.3194    0.9989 </r>
       <r>   11.2094    0.0000 </r>
       <r>   12.8356    0.0000 </r>
       <r>   15.7102    0.0000 </r>
      </set>
      <set comment="kpoint 30">
       <r>   -1.1626    1.0000 </r>
       <r>    6.6574    1.0000 </r>
       <r>    7.9411    1.0000 </r>
       <r>    8.0506    1.0000 </r>
       <r>    9.5702    0.9014 </r>
       <r>   11.6442    0.0000 </r>
       <r>   13.2431    0.0000 </r>
       <r>   14.7645    0.0000 </r>
      </set>
      <set comment="kpoint 31">
       <r>   -1.3644    1.0000 </r>
       <r>    7.4613    1.0000 </r>
       <r>    7.9472    1.0000 </r>
       <r>    8.3657    1.0000 </r>
       <r>    9.8924    0.1614 </r>
       <r>   12.0460    0.0000 </r>
       <r>   12.6873    0.0000 </r>
       <r>   12.8153    0.0000 </r>
      </set>
      <set comment="kpoint 32">
       <r>   -3.0261    1.0000 </r>
       <r>    7.4243    1.0000 </r>
       <r>    7.8855    1.0000 </r>
       <r>   10.1843    0.0011 </r>
       <r>   12.0312    0.0000 </r>
       <r>   12.5436    0.0000 </r>
       <r>   12.9796    0.0000 </r>
       <r>   14.6810    0.0000 </r>
      </set>
      <set comment="kpoint 33">
       <r>   -4.0750    1.0000 </r>
       <r>    7.6195    1.0000 </r>
       <r>    7.6195    1.0000 </r>
       <r>    8.7129    1.0000 </r>
       <r>   11.5872    0.0000 </r>
       <r>   15.6258    0.0000 </r>
       <r>   15.7701    0.0000 </r>
       <r>   17.7049    0.0000 </r>
      </set>
      <set comment="kpoint 34">
       <r>    0.2425    1.0000 </r>
       <r>    3.3720    1.0000 </r>
       <r>    6.6856    1.0000 </r>
       <r>    6.7740    1.0000 </r>
       <r>   11.8229    0.0000 </r>
       <r>   14.0441    0.0000 </r>
       <r>   15.1164    0.0000 </r>
       <r>   15.5918    0.0000 </r>
      </set>
      <set comment="kpoint 35">
       <r>    2.6540    1.0000 </r>
       <r>    3.3840    1.0000 </r>
       <r>    4.4821    1.0000 </r>
       <r>    5.1408    1.0000 </r>
       <r>   12.7877    0.0000 </r>
       <r>   14.6405    0.0000 </r>
       <r>   15.2065    0.0000 </r>
       <r>   15.5648    0.0000 </r>
      </set>
      <set comment="kpoint 36">
       <r>   -3.4654    1.0000 </r>
       <r>    4.0545    1.0000 </r>
       <r>    5.0525    1.0000 </r>
       <r>   12.1044    0.0000 </r>
       <r>   13.0357    0.0000 </r>
       <r>   15.2928    0.0000 </r>
       <r>   17.1293    0.0000 </r>
       <r>   17.7685    0.0000 </r>
      </set>
      <set comment="kpoint 37">
       <r>    1.6282    1.0000 </r>
       <r>    1.6282    1.0000 </r>
       <r>    6.5448    1.0000 </r>
       <r>    6.5449    1.0000 </r>
       <r>   13.1692    0.0000 </r>
       <r>   13.1692    0.0000 </r>
       <r>   15.3304    0.0000 </r>
       <r>   15.3304    0.0000 </r>
      </set>
      <set comment="kpoint 38">
       <r>   -2.6469    1.0000 </r>
       <r>    2.1308    1.0000 </r>
       <r>    5.4327    1.0000 </r>
       <r>    9.9458    0.0860 </r>
       <r>   14.2275    0.0000 </r>
       <r>   16.3406    0.0000 </r>
       <r>   17.1229    0.0000 </r>
       <r>   18.3968    0.0000 </r>
      </set>
      <set comment="kpoint 39">
       <r>   -2.4356    1.0000 </r>
       <r>    3.4581    1.0000 </r>
       <r>    4.5304    1.0000 </r>
       <r>   10.0691    0.0126 </r>
       <r>   12.1179    0.0000 </r>
       <r>   15.9777    0.0000 </r>
       <r>   17.3345    0.0000 </r>
       <r>   17.6818    0.0000 </r>
      </set>
      <set comment="kpoint 40">
       <r>   -1.4284    1.0000 </r>
       <r>    0.1763    1.0000 </r>
       <r>    6.5583    1.0000 </r>
       <r>    8.0764    1.0000 </r>
       <r>   15.0379    0.0000 </r>
       <r>   15.6929    0.0000 </r>
       <r>   17.3816    0.0000 </r>
       <r>   18.1956    0.0000 </r>
      </set>
      <set comment="kpoint 41">
       <r>   -1.4221    1.0000 </r>
       <r>    1.7375    1.0000 </r>
       <r>    5.0741    1.0000 </r>
       <r>    8.0768    1.0000 </r>
       <r>   11.6194    0.0000 </r>
       <r>   17.2300    0.0000 </r>
       <r>   17.6752    0.0000 </r>
       <r>   19.7235    0.0000 </r>
      </set>
      <set comment="kpoint 42">
       <r>   -0.5939    1.0000 </r>
       <r>    3.6404    1.0000 </r>
       <r>    4.7530    1.0000 </r>
       <r>    7.6219    1.0000 </r>
       <r>    8.9810    1.0000 </r>
       <r>   15.1115    0.0000 </r>
       <r>   16.0733    0.0000 </r>
       <r>   18.7089    0.0000 </r>
      </set>
      <set comment="kpoint 43">
       <r>   -0.0252    1.0000 </r>
       <r>   -0.0138    1.0000 </r>
       <r>    6.3744    1.0000 </r>
       <r>    6.3951    1.0000 </r>
       <r>   11.4449    0.0000 </r>
       <r>   17.3503    0.0000 </r>
       <r>   18.4127    0.0000 </r>
       <r>   19.1233    0.0000 </r>
      </set>
      <set comment="kpoint 44">
       <r>    0.5976    1.0000 </r>
       <r>    2.1428    1.0000 </r>
       <r>    5.4401    1.0000 </r>
       <r>    6.7748    1.0000 </r>
       <r>    7.6310    1.0000 </r>
       <r>   15.1516    0.0000 </r>
       <r>   17.9813    0.0000 </r>
       <r>   19.7305    0.0000 </r>
      </set>
      <set comment="kpoint 45">
       <r>    1.9555    1.0000 </r>
       <r>    3.6544    1.0000 </r>
       <r>    5.0304    1.0000 </r>
       <r>    5.7120    1.0000 </r>
       <r>    8.2776    1.0000 </r>
       <r>   13.1384    0.0000 </r>
       <r>   13.9774    0.0000 </r>
       <r>   18.4929    0.0000 </r>
      </set>
      <set comment="kpoint 46">
       <r>    2.8502    1.0000 </r>
       <r>    3.4015    1.0000 </r>
       <r>    4.1566    1.0000 </r>
       <r>    6.6168    1.0000 </r>
       <r>    6.7506    1.0000 </r>
       <r>   13.2598    0.0000 </r>
       <r>   15.5966    0.0000 </r>
       <r>   16.8872    0.0000 </r>
      </set>
      <set comment="kpoint 47">
       <r>    0.6704    1.0000 </r>
       <r>    5.4434    1.0000 </r>
       <r>    6.6141    1.0000 </r>
       <r>    7.2884    1.0000 </r>
       <r>    8.3376    1.0000 </r>
       <r>   11.9713    0.0000 </r>
       <r>   12.5383    0.0000 </r>
       <r>   14.6587    0.0000 </r>
      </set>
      <set comment="kpoint 48">
       <r>   -1.5667    1.0000 </r>
       <r>    8.6771    1.0000 </r>
       <r>    8.6771    1.0000 </r>
       <r>    8.9360    1.0000 </r>
       <r>    9.2038    0.9999 </r>
       <r>   11.4593    0.0000 </r>
       <r>   12.2478    0.0000 </r>
       <r>   12.2478    0.0000 </r>
      </set>
      <set comment="kpoint 49">
       <r>   -1.8360    1.0000 </r>
       <r>    2.4521    1.0000 </r>
       <r>    3.5917    1.0000 </r>
       <r>    7.7303    1.0000 </r>
       <r>   15.2532    0.0000 </r>
       <r>   15.7680    0.0000 </r>
       <r>   18.5623    0.0000 </r>
       <r>   19.6712    0.0000 </r>
      </set>
      <set comment="kpoint 50">
       <r>   -0.6324    1.0000 </r>
       <r>    0.9305    1.0000 </r>
       <r>    4.3145    1.0000 </r>
       <r>    5.8285    1.0000 </r>
       <r>   15.2573    0.0000 </r>
       <r>   15.3784    0.0000 </r>
       <r>   19.8261    0.0000 </r>
       <r>   20.9822    0.0000 </r>
      </set>
      <set comment="kpoint 51">
       <r>   -0.4241    1.0000 </r>
       <r>    2.2500    1.0000 </r>
       <r>    3.4162    1.0000 </r>
       <r>    6.0183    1.0000 </r>
       <r>   11.0910    0.0000 </r>
       <r>   18.7981    0.0000 </r>
       <r>   19.8615    0.0000 </r>
       <r>   20.2504    0.0000 </r>
      </set>
      <set comment="kpoint 52">
       <r>    0.9252    1.0000 </r>
       <r>    0.9446    1.0000 </r>
       <r>    4.3138    1.0000 </r>
       <r>    4.3297    1.0000 </r>
       <r>   10.9103    0.0000 </r>
       <r>   18.9140    0.0000 </r>
       <r>   20.5554    0.0000 </r>
       <r>   21.2866    0.0000 </r>
      </set>
      <set comment="kpoint 53">
       <r>    1.7419    1.0000 </r>
       <r>    2.8404    1.0000 </r>
       <r>    4.0134    1.0000 </r>
       <r>    5.0726    1.0000 </r>
       <r>    7.0747    1.0000 </r>
       <r>   17.1513    0.0000 </r>
       <r>   17.9726    0.0000 </r>
       <r>   19.6950    0.0000 </r>
      </set>
      <set comment="kpoint 54">
       <r>    2.9888    1.0000 </r>
       <r>    4.3407    1.0000 </r>
       <r>    4.8500    1.0000 </r>
       <r>    5.3582    1.0000 </r>
       <r>    5.3582    1.0000 </r>
       <r>   15.3969    0.0000 </r>
       <r>   15.3969    0.0000 </r>
       <r>   15.6839    0.0000 </r>
      </set>
      <set comment="kpoint 55">
       <r>    0.5268    1.0000 </r>
       <r>    1.6386    1.0000 </r>
       <r>    2.8374    1.0000 </r>
       <r>    3.9336    1.0000 </r>
       <r>   15.0405    0.0000 </r>
       <r>   15.0687    0.0000 </r>
       <r>   22.4451    0.0000 </r>
       <r>   23.1579    0.0000 </r>
      </set>
      <set comment="kpoint 56">
       <r>    1.8255    1.0000 </r>
       <r>    1.8611    1.0000 </r>
       <r>    3.0384    1.0000 </r>
       <r>    3.0384    1.0000 </r>
       <r>   10.7283    0.0000 </r>
       <r>   19.2094    0.0000 </r>
       <r>   21.8598    0.0000 </r>
       <r>   21.8678    0.0000 </r>
      </set>
     </set>
    </set>
   </array>
  </eigenvalues>
  <separator name="orbital magnetization" >
   <v name="MAGDIPOLOUT">      0.00000000      0.00000000      0.00000000</v>
  </separator>
  <dos>
   <i name="efermi">      9.75264237 </i>
   <total>
    <array>
     <dimension dim="1">gridpoints</dimension>
     <dimension dim="2">spin</dimension>
     <field>energy</field>
     <field>total</field>
     <field>integrated</field>
     <set>
      <set comment="spin 1">
       <r>    -6.2886     0.0000     0.0000 </r>
       <r>    -6.1838     0.0000     0.0000 </r>
       <r>    -6.0790     0.0000     0.0000 </r>
       <r>    -5.9742     0.0000     0.0000 </r>
       <r>    -5.8693     0.0000     0.0000 </r>
       <r>    -5.7645     0.0000     0.0000 </r>
       <r>    -5.6597     0.0000     0.0000 </r>
       <r>    -5.5549     0.0000     0.0000 </r>
       <r>    -5.4501     0.0000     0.0000 </r>
       <r>    -5.3452     0.0000     0.0000 </r>
       <r>    -5.2404     0.0000     0.0000 </r>
       <r>    -5.1356     0.0000     0.0000 </r>
       <r>    -5.0308     0.0000     0.0000 </r>
       <r>    -4.9259     0.0000     0.0000 </r>
       <r>    -4.8211     0.0000     0.0000 </r>
       <r>    -4.7163     0.0002     0.0000 </r>
       <r>    -4.6115     0.0015     0.0002 </r>
       <r>    -4.5067     0.0076     0.0010 </r>
       <r>    -4.4018     0.0231     0.0034 </r>
       <r>    -4.2970     0.0438     0.0080 </r>
       <r>    -4.1922     0.0583     0.0141 </r>
       <r>    -4.0874     0.0766     0.0221 </r>
       <r>    -3.9825     0.1250     0.0352 </r>
       <r>    -3.8777     0.1902     0.0552 </r>
       <r>    -3.7729     0.2164     0.0778 </r>
       <r>    -3.6681     0.1895     0.0977 </r>
       <r>    -3.5633     0.1464     0.1131 </r>
       <r>    -3.4584     0.1174     0.1254 </r>
       <r>    -3.3536     0.1225     0.1382 </r>
       <r>    -3.2488     0.1791     0.1570 </r>
       <r>    -3.1440     0.2862     0.1870 </r>
       <r>    -3.0391     0.3754     0.2263 </r>
       <r>    -2.9343     0.3464     0.2626 </r>
       <r>    -2.8295     0.2435     0.2882 </r>
       <r>    -2.7247     0.2200     0.3112 </r>
       <r>    -2.6199     0.2819     0.3408 </r>
       <r>    -2.5150     0.3049     0.3727 </r>
       <r>    -2.4102     0.2647     0.4005 </r>
       <r>    -2.3054     0.2428     0.4259 </r>
       <r>    -2.2006     0.2696     0.4542 </r>
       <r>    -2.0958     0.3085     0.4865 </r>
       <r>    -1.9909     0.3432     0.5225 </r>
       <r>    -1.8861     0.3799     0.5623 </r>
       <r>    -1.7813     0.3840     0.6026 </r>
       <r>    -1.6765     0.3291     0.6371 </r>
       <r>    -1.5716     0.3186     0.6705 </r>
       <r>    -1.4668     0.4410     0.7167 </r>
       <r>    -1.3620     0.5484     0.7742 </r>
       <r>    -1.2572     0.4693     0.8234 </r>
       <r>    -1.1524     0.2862     0.8534 </r>
       <r>    -1.0475     0.1550     0.8696 </r>
       <r>    -0.9427     0.1305     0.8833 </r>
       <r>    -0.8379     0.2337     0.9078 </r>
       <r>    -0.7331     0.4632     0.9563 </r>
       <r>    -0.6282     0.7199     1.0318 </r>
       <r>    -0.5234     0.7963     1.1153 </r>
       <r>    -0.4186     0.6267     1.1810 </r>
       <r>    -0.3138     0.4320     1.2263 </r>
       <r>    -0.2090     0.3871     1.2668 </r>
       <r>    -0.1041     0.4243     1.3113 </r>
       <r>     0.0007     0.4346     1.3569 </r>
       <r>     0.1055     0.3975     1.3985 </r>
       <r>     0.2103     0.3430     1.4345 </r>
       <r>     0.3151     0.3145     1.4675 </r>
       <r>     0.4200     0.3414     1.5032 </r>
       <r>     0.5248     0.3986     1.5450 </r>
       <r>     0.6296     0.4161     1.5886 </r>
       <r>     0.7344     0.3946     1.6300 </r>
       <r>     0.8393     0.4727     1.6796 </r>
       <r>     0.9441     0.7187     1.7549 </r>
       <r>     1.0489     0.9118     1.8505 </r>
       <r>     1.1537     0.8286     1.9373 </r>
       <r>     1.2585     0.5948     1.9997 </r>
       <r>     1.3634     0.4414     2.0459 </r>
       <r>     1.4682     0.4015     2.0880 </r>
       <r>     1.5730     0.4560     2.1358 </r>
       <r>     1.6778     0.6499     2.2039 </r>
       <r>     1.7827     0.8734     2.2955 </r>
       <r>     1.8875     0.8858     2.3883 </r>
       <r>     1.9923     0.6939     2.4611 </r>
       <r>     2.0971     0.5351     2.5172 </r>
       <r>     2.2019     0.4845     2.5680 </r>
       <r>     2.3068     0.4327     2.6133 </r>
       <r>     2.4116     0.3435     2.6493 </r>
       <r>     2.5164     0.2732     2.6780 </r>
       <r>     2.6212     0.2675     2.7060 </r>
       <r>     2.7261     0.3362     2.7412 </r>
       <r>     2.8309     0.4351     2.7869 </r>
       <r>     2.9357     0.4931     2.8385 </r>
       <r>     3.0405     0.4934     2.8903 </r>
       <r>     3.1453     0.5201     2.9448 </r>
       <r>     3.2502     0.6762     3.0157 </r>
       <r>     3.3550     0.9104     3.1111 </r>
       <r>     3.4598     1.0377     3.2199 </r>
       <r>     3.5646     0.9729     3.3218 </r>
       <r>     3.6694     0.7754     3.4031 </r>
       <r>     3.7743     0.5603     3.4619 </r>
       <r>     3.8791     0.4395     3.5079 </r>
       <r>     3.9839     0.4222     3.5522 </r>
       <r>     4.0887     0.4554     3.5999 </r>
       <r>     4.1936     0.5338     3.6559 </r>
       <r>     4.2984     0.6510     3.7241 </r>
       <r>     4.4032     0.6929     3.7967 </r>
       <r>     4.5080     0.5822     3.8578 </r>
       <r>     4.6128     0.4471     3.9046 </r>
       <r>     4.7177     0.4271     3.9494 </r>
       <r>     4.8225     0.4850     4.0002 </r>
       <r>     4.9273     0.5724     4.0602 </r>
       <r>     5.0321     0.7385     4.1376 </r>
       <r>     5.1370     0.9213     4.2342 </r>
       <r>     5.2418     1.0302     4.3422 </r>
       <r>     5.3466     1.1234     4.4599 </r>
       <r>     5.4514     1.1569     4.5812 </r>
       <r>     5.5562     0.9758     4.6835 </r>
       <r>     5.6611     0.6792     4.7547 </r>
       <r>     5.7659     0.4954     4.8066 </r>
       <r>     5.8707     0.4204     4.8507 </r>
       <r>     5.9755     0.3670     4.8892 </r>
       <r>     6.0804     0.3822     4.9292 </r>
       <r>     6.1852     0.5050     4.9822 </r>
       <r>     6.2900     0.6617     5.0515 </r>
       <r>     6.3948     0.8232     5.1378 </r>
       <r>     6.4996     1.0540     5.2483 </r>
       <r>     6.6045     1.2936     5.3839 </r>
       <r>     6.7093     1.3234     5.5226 </r>
       <r>     6.8141     1.0519     5.6329 </r>
       <r>     6.9189     0.6780     5.7039 </r>
       <r>     7.0237     0.4791     5.7542 </r>
       <r>     7.1286     0.5161     5.8083 </r>
       <r>     7.2334     0.6888     5.8805 </r>
       <r>     7.3382     0.9098     5.9758 </r>
       <r>     7.4430     1.0393     6.0848 </r>
       <r>     7.5479     0.9750     6.1870 </r>
       <r>     7.6527     0.8281     6.2738 </r>
       <r>     7.7575     0.7465     6.3520 </r>
       <r>     7.8623     0.8148     6.4374 </r>
       <r>     7.9671     1.0851     6.5512 </r>
       <r>     8.0720     1.4225     6.7003 </r>
       <r>     8.1768     1.5236     6.8600 </r>
       <r>     8.2816     1.3074     6.9970 </r>
       <r>     8.3864     0.9950     7.1013 </r>
       <r>     8.4913     0.7575     7.1807 </r>
       <r>     8.5961     0.6415     7.2480 </r>
       <r>     8.7009     0.6527     7.3164 </r>
       <r>     8.8057     0.6995     7.3897 </r>
       <r>     8.9105     0.6551     7.4584 </r>
       <r>     9.0154     0.5320     7.5142 </r>
       <r>     9.1202     0.4566     7.5620 </r>
       <r>     9.2250     0.4910     7.6135 </r>
       <r>     9.3298     0.5581     7.6720 </r>
       <r>     9.4347     0.6047     7.7354 </r>
       <r>     9.5395     0.7195     7.8108 </r>
       <r>     9.6443     0.8798     7.9030 </r>
       <r>     9.7491     0.8969     7.9970 </r>
       <r>     9.8539     0.7579     8.0765 </r>
       <r>     9.9588     0.6313     8.1427 </r>
       <r>    10.0636     0.6060     8.2062 </r>
       <r>    10.1684     0.6514     8.2745 </r>
       <r>    10.2732     0.6992     8.3478 </r>
       <r>    10.3780     0.6600     8.4169 </r>
       <r>    10.4829     0.5055     8.4699 </r>
       <r>    10.5877     0.3631     8.5080 </r>
       <r>    10.6925     0.3693     8.5467 </r>
       <r>    10.7973     0.5024     8.5994 </r>
       <r>    10.9022     0.6759     8.6702 </r>
       <r>    11.0070     0.8252     8.7567 </r>
       <r>    11.1118     0.8941     8.8504 </r>
       <r>    11.2166     0.8827     8.9430 </r>
       <r>    11.3214     0.8364     9.0306 </r>
       <r>    11.4263     0.7837     9.1128 </r>
       <r>    11.5311     0.7547     9.1919 </r>
       <r>    11.6359     0.7784     9.2735 </r>
       <r>    11.7407     0.8585     9.3635 </r>
       <r>    11.8456     0.9842     9.4666 </r>
       <r>    11.9504     1.0610     9.5778 </r>
       <r>    12.0552     0.9909     9.6817 </r>
       <r>    12.1600     0.8705     9.7730 </r>
       <r>    12.2648     0.8522     9.8623 </r>
       <r>    12.3697     0.9045     9.9571 </r>
       <r>    12.4745     0.9597    10.0577 </r>
       <r>    12.5793     1.0661    10.1695 </r>
       <r>    12.6841     1.1866    10.2938 </r>
       <r>    12.7890     1.2094    10.4206 </r>
       <r>    12.8938     1.1598    10.5422 </r>
       <r>    12.9986     1.1417    10.6619 </r>
       <r>    13.1034     1.1679    10.7843 </r>
       <r>    13.2082     1.1222    10.9019 </r>
       <r>    13.3131     0.9036    10.9966 </r>
       <r>    13.4179     0.5826    11.0577 </r>
       <r>    13.5227     0.3575    11.0952 </r>
       <r>    13.6275     0.3126    11.1279 </r>
       <r>    13.7323     0.3607    11.1657 </r>
       <r>    13.8372     0.4904    11.2171 </r>
       <r>    13.9420     0.7742    11.2983 </r>
       <r>    14.0468     1.1184    11.4155 </r>
       <r>    14.1516     1.3360    11.5556 </r>
       <r>    14.2565     1.3206    11.6940 </r>
       <r>    14.3613     1.0999    11.8093 </r>
       <r>    14.4661     0.8642    11.8999 </r>
       <r>    14.5709     0.7804    11.9817 </r>
       <r>    14.6757     0.8408    12.0698 </r>
       <r>    14.7806     0.9664    12.1711 </r>
       <r>    14.8854     1.1148    12.2880 </r>
       <r>    14.9902     1.2694    12.4210 </r>
       <r>    15.0950     1.4071    12.5685 </r>
       <r>    15.1999     1.4309    12.7185 </r>
       <r>    15.3047     1.2631    12.8509 </r>
       <r>    15.4095     1.0364    12.9596 </r>
       <r>    15.5143     0.9671    13.0609 </r>
       <r>    15.6191     1.0851    13.1747 </r>
       <r>    15.7240     1.2074    13.3012 </r>
       <r>    15.8288     1.2245    13.4296 </r>
       <r>    15.9336     1.1671    13.5519 </r>
       <r>    16.0384     1.0071    13.6575 </r>
       <r>    16.1433     0.8063    13.7420 </r>
       <r>    16.2481     0.7193    13.8174 </r>
       <r>    16.3529     0.6721    13.8879 </r>
       <r>    16.4577     0.5250    13.9429 </r>
       <r>    16.5625     0.3944    13.9842 </r>
       <r>    16.6674     0.4336    14.0297 </r>
       <r>    16.7722     0.5733    14.0898 </r>
       <r>    16.8770     0.7112    14.1643 </r>
       <r>    16.9818     0.8908    14.2577 </r>
       <r>    17.0866     1.1362    14.3768 </r>
       <r>    17.1915     1.2789    14.5109 </r>
       <r>    17.2963     1.1504    14.6314 </r>
       <r>    17.4011     0.8560    14.7212 </r>
       <r>    17.5059     0.6456    14.7888 </r>
       <r>    17.6108     0.6190    14.8537 </r>
       <r>    17.7156     0.6511    14.9220 </r>
       <r>    17.8204     0.6070    14.9856 </r>
       <r>    17.9252     0.5343    15.0416 </r>
       <r>    18.0300     0.4955    15.0935 </r>
       <r>    18.1349     0.4834    15.1442 </r>
       <r>    18.2397     0.5444    15.2013 </r>
       <r>    18.3445     0.6584    15.2703 </r>
       <r>    18.4493     0.6782    15.3414 </r>
       <r>    18.5542     0.5530    15.3994 </r>
       <r>    18.6590     0.4066    15.4420 </r>
       <r>    18.7638     0.3345    15.4770 </r>
       <r>    18.8686     0.3039    15.5089 </r>
       <r>    18.9734     0.2661    15.5368 </r>
       <r>    19.0783     0.2177    15.5596 </r>
       <r>    19.1831     0.1636    15.5768 </r>
       <r>    19.2879     0.1033    15.5876 </r>
       <r>    19.3927     0.0626    15.5941 </r>
       <r>    19.4976     0.1011    15.6047 </r>
       <r>    19.6024     0.2704    15.6331 </r>
       <r>    19.7072     0.5041    15.6859 </r>
       <r>    19.8120     0.5948    15.7483 </r>
       <r>    19.9168     0.4525    15.7957 </r>
       <r>    20.0217     0.2355    15.8204 </r>
       <r>    20.1265     0.1135    15.8323 </r>
       <r>    20.2313     0.0944    15.8422 </r>
       <r>    20.3361     0.1007    15.8527 </r>
       <r>    20.4409     0.0991    15.8631 </r>
       <r>    20.5458     0.0999    15.8736 </r>
       <r>    20.6506     0.0898    15.8830 </r>
       <r>    20.7554     0.0653    15.8899 </r>
       <r>    20.8602     0.0609    15.8963 </r>
       <r>    20.9651     0.0839    15.9050 </r>
       <r>    21.0699     0.0994    15.9155 </r>
       <r>    21.1747     0.0992    15.9259 </r>
       <r>    21.2795     0.0997    15.9363 </r>
       <r>    21.3843     0.0867    15.9454 </r>
       <r>    21.4892     0.0515    15.9508 </r>
       <r>    21.5940     0.0219    15.9531 </r>
       <r>    21.6988     0.0178    15.9550 </r>
       <r>    21.8036     0.0323    15.9584 </r>
       <r>    21.9085     0.0431    15.9629 </r>
       <r>    22.0133     0.0346    15.9665 </r>
       <r>    22.1181     0.0177    15.9683 </r>
       <r>    22.2229     0.0117    15.9696 </r>
       <r>    22.3277     0.0224    15.9719 </r>
       <r>    22.4326     0.0390    15.9760 </r>
       <r>    22.5374     0.0415    15.9804 </r>
       <r>    22.6422     0.0262    15.9831 </r>
       <r>    22.7470     0.0100    15.9841 </r>
       <r>    22.8518     0.0041    15.9846 </r>
       <r>    22.9567     0.0095    15.9856 </r>
       <r>    23.0615     0.0254    15.9882 </r>
       <r>    23.1663     0.0411    15.9926 </r>
       <r>    23.2711     0.0394    15.9967 </r>
       <r>    23.3760     0.0224    15.9990 </r>
       <r>    23.4808     0.0075    15.9998 </r>
       <r>    23.5856     0.0015    16.0000 </r>
       <r>    23.6904     0.0002    16.0000 </r>
       <r>    23.7952     0.0000    16.0000 </r>
       <r>    23.9001     0.0000    16.0000 </r>
       <r>    24.0049     0.0000    16.0000 </r>
       <r>    24.1097     0.0000    16.0000 </r>
       <r>    24.2145     0.0000    16.0000 </r>
       <r>    24.3194     0.0000    16.0000 </r>
       <r>    24.4242     0.0000    16.0000 </r>
       <r>    24.5290     0.0000    16.0000 </r>
       <r>    24.6338     0.0000    16.0000 </r>
       <r>    24.7386     0.0000    16.0000 </r>
       <r>    24.8435     0.0000    16.0000 </r>
       <r>    24.9483     0.0000    16.0000 </r>
       <r>    25.0531     0.0000    16.0000 </r>
       <r>    25.1579     0.0000    16.0000 </r>
      </set>
     </set>
    </array>
   </total>
  </dos>
 </calculation>
 <structure name="finalpos" >
  <crystal>
   <varray name="basis" >
    <v>      -2.33432000       2.33432000       1.33205600 </v>
    <v>       2.33432000      -2.33432000       1.33205600 </v>
    <v>       2.33432000       2.33432000      -1.33205600 </v>
   </varray>
   <i name="volume">     29.03375825 </i>
   <varray name="rec_basis" >
    <v>       0.00000000       0.21419514       0.37535959 </v>
    <v>       0.21419514       0.00000000       0.37535959 </v>
    <v>       0.21419514       0.21419514      -0.00000000 </v>
   </varray>
  </crystal>
  <varray name="positions" >
   <v>       0.00000000       0.00000000       0.00000000 </v>
   <v>       0.25000000       0.75000000       0.50000000 </v>
  </varray>
 </structure>
</modeling>
