unknown system                          
           1
    -2.334320    2.334320    1.332056
     2.334320   -2.334320    1.332056
     2.334320    2.334320   -1.332056
   Si
   2
Direct configuration=     1
   0.00000000  0.00000000  0.00000000
   0.25000000  0.75000000  0.50000000
