unknown system                          
   1.00000000000000     
     0.000000    2.715000    2.715000
     2.715000    0.000000    2.715000
     2.715000    2.715000    0.000000
   Si
     2
Direct
  0.500000  0.500000  0.500000
  0.750000  0.750000  0.750000
 
   32   32   32
 0.84540394165E+00 0.86699760150E+00 0.93303013964E+00 0.10473585296E+01 0.12162131712E+01
 0.14478714433E+01 0.17519317375E+01 0.21377114771E+01 0.26113555796E+01 0.31717094558E+01
 0.38057638857E+01 0.44851677311E+01 0.51655177831E+01 0.57896723334E+01 0.62953046433E+01
 0.66255732943E+01 0.67404588633E+01 0.66255212976E+01 0.62952055436E+01 0.57895381356E+01
 0.51653724928E+01 0.44850488767E+01 0.38057116804E+01 0.31717471822E+01 0.26114760108E+01
 0.21378781067E+01 0.17520921213E+01 0.14479771183E+01 0.12162403792E+01 0.10473192147E+01
 0.93296421489E+00 0.86695039015E+00 0.86699760150E+00 0.90431906376E+00 0.98107844272E+00
 0.11013189153E+01 0.12706074212E+01 0.14955580627E+01 0.17830398692E+01 0.21386480806E+01
 0.25641253067E+01 0.30539045310E+01 0.35916444361E+01 0.41481747153E+01 0.46822802254E+01
 0.51450836307E+01 0.54876356442E+01 0.56700996190E+01 0.56700780355E+01 0.54875748826E+01
 0.51449974662E+01 0.46821957988E+01 0.41481309061E+01 0.35916762697E+01 0.30540190757E+01
 0.25642907687E+01 0.21388112673E+01 0.17831582396E+01 0.14956171751E+01 0.12706136377E+01
 0.11012853755E+01 0.98102269479E+00 0.90426675198E+00 0.86697609018E+00 0.93303013964E+00
 0.98107844272E+00 0.10639426026E+01 0.11854060778E+01 0.13501134333E+01 0.15630486543E+01
 0.18286949062E+01 0.21495502283E+01 0.25238447458E+01 0.29427764957E+01 0.33881630908E+01
 0.38317393148E+01 0.42371124693E+01 0.45645981217E+01 0.47780973709E+01 0.48522874215E+01
 0.47780610601E+01 0.45645484935E+01 0.42370843863E+01 0.38317627070E+01 0.33882483080E+01
 0.29429088405E+01 0.25239906608E+01 0.21496721688E+01 0.18287672003E+01 0.15630659208E+01
 0.13500881007E+01 0.11853588242E+01 0.10638928617E+01 0.98103954275E+00 0.93300925264E+00
 0.91729933440E+00 0.10473585296E+01 0.11013189153E+01 0.11854060778E+01 0.13029491495E+01
 0.14577254400E+01 0.16533825556E+01 0.18925037108E+01 0.21751402963E+01 0.24968497214E+01
 0.28466797952E+01 0.32059327953E+01 0.35486326051E+01 0.38442300184E+01 0.40623089141E+01
 0.41782371281E+01 0.41782194057E+01 0.40622700695E+01 0.38442061715E+01 0.35486609798E+01
 0.32060245252E+01 0.28468070065E+01 0.24969619651E+01 0.21751984025E+01 0.18925007342E+01
 0.16533371392E+01 0.14576624897E+01 0.13028887256E+01 0.11853621818E+01 0.11012975584E+01
 0.10473543843E+01 0.10210455110E+01 0.10210447256E+01 0.12162131712E+01 0.12706074212E+01
 0.13501134333E+01 0.14577254400E+01 0.15966416521E+01 0.17695590208E+01 0.19776193436E+01
 0.22190007218E+01 0.24873608316E+01 0.27706235799E+01 0.30507738446E+01 0.33052044539E+01
 0.35097025786E+01 0.36425358036E+01 0.36886042761E+01 0.36425082421E+01 0.35096695257E+01
 0.33051958826E+01 0.30508076260E+01 0.27706919534E+01 0.24874320647E+01 0.22190357451E+01
 0.19775933992E+01 0.17694755232E+01 0.15965307034E+01 0.14576282332E+01 0.13500611808E+01
 0.12706060734E+01 0.12162423048E+01 0.11846014157E+01 0.11742083050E+01 0.11845747307E+01
 0.14478714433E+01 0.14955580627E+01 0.15630486543E+01 0.16533825556E+01 0.17695590208E+01
 0.19136647801E+01 0.20857591022E+01 0.22826491064E+01 0.24968504031E+01 0.27161741874E+01
 0.29243637398E+01 0.31029465201E+01 0.32340444566E+01 0.33034945379E+01 0.33034798952E+01
 0.32340117540E+01 0.31029192332E+01 0.29243579447E+01 0.27161884996E+01 0.24968702403E+01
 0.22826554349E+01 0.20857341176E+01 0.19135984263E+01 0.17694592567E+01 0.16532803511E+01
 0.15629858819E+01 0.14955609897E+01 0.14479294807E+01 0.14175583126E+01 0.14027586688E+01
 0.14027285498E+01 0.14174894176E+01 0.17519317375E+01 0.17830398692E+01 0.18286949062E+01
 0.18925037108E+01 0.19776193436E+01 0.20857591022E+01 0.22161839391E+01 0.23648262667E+01
 0.25238447458E+01 0.26819151268E+01 0.28254218975E+01 0.29404081852E+01 0.30148346812E+01
 0.30405887728E+01 0.30148177007E+01 0.29403855801E+01 0.28254091001E+01 0.26819207486E+01
 0.25238627084E+01 0.23648372906E+01 0.22161670290E+01 0.20857066163E+01 0.19775453963E+01
 0.18924394851E+01 0.18286728606E+01 0.17830754957E+01 0.17520132103E+01 0.17322041361E+01
 0.17212298683E+01 0.17176962915E+01 0.17211697421E+01 0.17321121888E+01 0.21377114771E+01
 0.21386480806E+01 0.21495502283E+01 0.21751402963E+01 0.22190007218E+01 0.22826491064E+01
 0.23648262667E+01 0.24611235391E+01 0.25641246251E+01 0.26642082488E+01 0.27509565436E+01
 0.28148342645E+01 0.28486770697E+01 0.28486780225E+01 0.28148373411E+01 0.27509643185E+01
 0.26642268509E+01 0.25641580653E+01 0.24611646663E+01 0.23648558471E+01 0.22826494561E+01
 0.22189745566E+01 0.21751162146E+01 0.21495647858E+01 0.21387168100E+01 0.21378154530E+01
 0.21419821980E+01 0.21471029349E+01 0.21503505326E+01 0.21503275473E+01 0.21470352107E+01
 0.21418811460E+01 0.26113555796E+01 0.25641253067E+01 0.25238447458E+01 0.24968497214E+01
 0.24873608316E+01 0.24968504031E+01 0.25238447458E+01 0.25641246251E+01 0.26113555796E+01
 0.26581525259E+01 0.26973830488E+01 0.27233274479E+01 0.27323879082E+01 0.27233497662E+01
 0.26974246782E+01 0.26582092230E+01 0.26114215843E+01 0.25641916149E+01 0.25239051433E+01
 0.24969030387E+01 0.24874110815E+01 0.24969037203E+01 0.25239051433E+01 0.25641909333E+01
 0.26114215843E+01 0.26582099046E+01 0.26974246782E+01 0.27233490845E+01 0.27323879082E+01
 0.27233281296E+01 0.26973830488E+01 0.26581518443E+01 0.31717094558E+01 0.30539045310E+01
 0.29427764957E+01 0.28466797952E+01 0.27706235799E+01 0.27161741874E+01 0.26819151268E+01
 0.26642082488E+01 0.26581525259E+01 0.26586621719E+01 0.26614391125E+01 0.26635549353E+01
 0.26635798291E+01 0.26615075043E+01 0.26587605944E+01 0.26582668119E+01 0.26643222958E+01
 0.26820128523E+01 0.27162525643E+01 0.27706981875E+01 0.28467663986E+01 0.29428666396E+01
 0.30539683851E+01 0.31717252444E+01 0.32853703260E+01 0.33833356251E+01 0.34551621036E+01
 0.34931098522E+01 0.34931208569E+01 0.34551930873E+01 0.33833758479E+01 0.32853958241E+01
 0.38057638857E+01 0.35916444361E+01 0.33881630908E+01 0.32059327953E+01 0.30507738446E+01
 0.29243637398E+01 0.28254218975E+01 0.27509565436E+01 0.26973830488E+01 0.26614391125E+01
 0.26407621402E+01 0.26340335164E+01 0.26408392686E+01 0.26615727976E+01 0.26975444520E+01
 0.27511186695E+01 0.28255634361E+01 0.29244737627E+01 0.30508549056E+01 0.32059925510E+01
 0.33882000075E+01 0.35916462338E+01 0.38057209716E+01 0.40154930742E+01 0.42034983553E+01
 0.43524609310E+01 0.44480709394E+01 0.44810306480E+01 0.44481299762E+01 0.43525576515E+01
 0.42036021629E+01 0.40155759194E+01 0.44851677311E+01 0.41481747153E+01 0.38317393148E+01
 0.35486326051E+01 0.33052044539E+01 0.31029465201E+01 0.29404081852E+01 0.28148342645E+01
 0.27233274479E+01 0.26635549353E+01 0.26340335164E+01 0.26340847598E+01 0.26636961821E+01
 0.27235246981E+01 0.28150420790E+01 0.29405851936E+01 0.31030706621E+01 0.33052756411E+01
 0.35486581262E+01 0.38317178890E+01 0.41481009337E+01 0.44850488095E+01 0.48230906621E+01
 0.51376609764E+01 0.54025202168E+01 0.55939410513E+01 0.56943076649E+01 0.56943419004E+01
 0.55940323275E+01 0.54026457791E+01 0.51378026923E+01 0.48232324578E+01 0.51655177831E+01
 0.46822802254E+01 0.42371124693E+01 0.38442300184E+01 0.35097025786E+01 0.32340444566E+01
 0.30148346812E+01 0.28486770697E+01 0.27323879082E+01 0.26635798291E+01 0.26408392686E+01
 0.26636961821E+01 0.27325883241E+01 0.28489097093E+01 0.30150445865E+01 0.32341877982E+01
 0.35097588424E+01 0.38442062337E+01 0.42370325101E+01 0.46821673403E+01 0.51653863027E+01
 0.56629638081E+01 0.61426959173E+01 0.65676299308E+01 0.69016108038E+01 0.71148858221E+01
 0.71882041321E+01 0.71149442611E+01 0.69017140060E+01 0.65677598065E+01 0.61428372718E+01
 0.56631048941E+01 0.57896723334E+01 0.51450836307E+01 0.45645981217E+01 0.40623089141E+01
 0.36425358036E+01 0.33034945379E+01 0.30405887728E+01 0.28486780225E+01 0.27233497662E+01
 0.26615075043E+01 0.26615727976E+01 0.27235246981E+01 0.28489097093E+01 0.30408141701E+01
 0.33036586158E+01 0.36426026240E+01 0.40622705178E+01 0.45644788893E+01 0.51449316821E+01
 0.57895356996E+01 0.64717194619E+01 0.71523208566E+01 0.77829533991E+01 0.83124319540E+01
 0.86945051441E+01 0.88946780387E+01 0.88946920419E+01 0.86945404307E+01 0.83124752842E+01
 0.77830002239E+01 0.71523830691E+01 0.64718163260E+01 0.62953046433E+01 0.54876356442E+01
 0.47780973709E+01 0.41782371281E+01 0.36886042761E+01 0.33034798952E+01 0.30148177007E+01
 0.28148373411E+01 0.26974246782E+01 0.26587605944E+01 0.26975444520E+01 0.28150420790E+01
 0.30150445865E+01 0.33036586158E+01 0.36886852292E+01 0.41782089085E+01 0.47779838158E+01
 0.54874822962E+01 0.62951629812E+01 0.71743449994E+01 0.80814618957E+01 0.89580890517E+01
 0.97370637224E+01 0.10351627261E+02 0.10745429111E+02 0.10881034858E+02 0.10745366538E+02
 0.10351528378E+02 0.97369682358E+01 0.89580351979E+01 0.80814758315E+01 0.71744328194E+01
 0.66255732943E+01 0.56700996190E+01 0.48522874215E+01 0.41782194057E+01 0.36425082421E+01
 0.32340117540E+01 0.29403855801E+01 0.27509643185E+01 0.26582092230E+01 0.26582668119E+01
 0.27511186695E+01 0.29405851936E+01 0.32341877982E+01 0.36426026240E+01 0.41782089085E+01
 0.48521884402E+01 0.56699573637E+01 0.66254429121E+01 0.76955615276E+01 0.88366653736E+01
 0.99844600082E+01 0.11058216222E+02 0.11969328985E+02 0.12633394151E+02 0.12983800855E+02
 0.12983730088E+02 0.12633219479E+02 0.11969130913E+02 0.11058060762E+02 0.99843767217E+01
 0.88366621816E+01 0.76956357502E+01 0.67404588633E+01 0.56700780355E+01 0.47780610601E+01
 0.40622700695E+01 0.35096695257E+01 0.31029192332E+01 0.28254091001E+01 0.26642268509E+01
 0.26114215843E+01 0.26643222958E+01 0.28255634361E+01 0.31030706621E+01 0.35097588424E+01
 0.40622705178E+01 0.47779838158E+01 0.56699573637E+01 0.67403389454E+01 0.79736181068E+01
 0.93314010179E+01 0.10749984266E+02 0.12141455266E+02 0.13399117007E+02 0.14408511460E+02
 0.15064045013E+02 0.15291041333E+02 0.15063958950E+02 0.14408369968E+02 0.13398959681E+02
 0.12141317850E+02 0.10749900381E+02 0.93313961962E+01 0.79736914757E+01 0.66255212976E+01
 0.54875748826E+01 0.45645484935E+01 0.38442061715E+01 0.33051958826E+01 0.29243579447E+01
 0.26819207486E+01 0.25641580653E+01 0.25641916149E+01 0.26820128523E+01 0.29244737627E+01
 0.33052756411E+01 0.38442062337E+01 0.45644788893E+01 0.54874822962E+01 0.66254429121E+01
 0.79736181068E+01 0.95038029817E+01 0.11160042555E+02 0.12856481224E+02 0.14477809661E+02
 0.15882593230E+02 0.16915868274E+02 0.17461759724E+02 0.17461771308E+02 0.16915883659E+02
 0.15882577010E+02 0.14477752900E+02 0.12856415356E+02 0.11160008376E+02 0.95038153759E+01
 0.79736685227E+01 0.62952055436E+01 0.51449974662E+01 0.42370843863E+01 0.35486609798E+01
 0.30508076260E+01 0.27161884996E+01 0.25238627084E+01 0.24611646663E+01 0.25239051433E+01
 0.27162525643E+01 0.30508549056E+01 0.35486581262E+01 0.42370325101E+01 0.51449316821E+01
 0.62951629812E+01 0.76955615276E+01 0.93314010179E+01 0.11160042555E+02 0.13106746806E+02
 0.15060372436E+02 0.16860249421E+02 0.18307864504E+02 0.19243339109E+02 0.19566563086E+02
 0.19243425614E+02 0.18307998506E+02 0.16860374346E+02 0.15060446401E+02 0.13106764147E+02
 0.11160027446E+02 0.93313844642E+01 0.76955686429E+01 0.57895381356E+01 0.46821957988E+01
 0.38317627070E+01 0.32060245252E+01 0.27706919534E+01 0.24968702403E+01 0.23648372906E+01
 0.23648558471E+01 0.24969030387E+01 0.27706981875E+01 0.32059925510E+01 0.38317178890E+01
 0.46821673403E+01 0.57895356996E+01 0.71743449994E+01 0.88366653736E+01 0.10749984266E+02
 0.12856481224E+02 0.15060372436E+02 0.17202686266E+02 0.19055406655E+02 0.20415337294E+02
 0.21134657930E+02 0.21134720965E+02 0.20415513248E+02 0.19055644450E+02 0.17202898152E+02
 0.15060481898E+02 0.12856480591E+02 0.10749929537E+02 0.88366145855E+01 0.71743206842E+01
 0.51653724928E+01 0.41481309061E+01 0.33882483080E+01 0.28468070065E+01 0.24874320647E+01
 0.22826554349E+01 0.22161670290E+01 0.22826494561E+01 0.24874110815E+01 0.28467663986E+01
 0.33882000075E+01 0.41481009337E+01 0.51653863027E+01 0.64717194619E+01 0.80814618957E+01
 0.99844600082E+01 0.12141455266E+02 0.14477809661E+02 0.16860249421E+02 0.19055406655E+02
 0.20824472868E+02 0.21973156517E+02 0.22371510141E+02 0.21973283801E+02 0.20824677243E+02
 0.19055611067E+02 0.16860385561E+02 0.14477844147E+02 0.12141398896E+02 0.99843549149E+01
 0.80813569969E+01 0.64716527659E+01 0.44850488767E+01 0.35916762697E+01 0.29429088405E+01
 0.24969619651E+01 0.22190357451E+01 0.20857341176E+01 0.20857066163E+01 0.22189745566E+01
 0.24969037203E+01 0.29428666396E+01 0.35916462338E+01 0.44850488095E+01 0.56629638081E+01
 0.71523208566E+01 0.89580890517E+01 0.11058216222E+02 0.13399117007E+02 0.15882593230E+02
 0.18307864504E+02 0.20415337294E+02 0.21973156517E+02 0.22802117142E+02 0.22802154558E+02
 0.21973239068E+02 0.20415410457E+02 0.18307900599E+02 0.15882588621E+02 0.13399056941E+02
 0.11058086699E+02 0.89579173655E+01 0.71521754792E+01 0.56628956585E+01 0.38057116804E+01
 0.30540190757E+01 0.25239906608E+01 0.21751984025E+01 0.19775933992E+01 0.19135984263E+01
 0.19775453963E+01 0.21751162146E+01 0.25239051433E+01 0.30539683851E+01 0.38057209716E+01
 0.48230906621E+01 0.61426959173E+01 0.77829533991E+01 0.97370637224E+01 0.11969328985E+02
 0.14408511460E+02 0.16915868274E+02 0.19243339109E+02 0.21134657930E+02 0.22371510141E+02
 0.22802154558E+02 0.22371485551E+02 0.21134598983E+02 0.19243241987E+02 0.16915741283E+02
 0.14408362103E+02 0.11969160739E+02 0.97368877444E+01 0.77827901754E+01 0.61425689851E+01
 0.48230173899E+01 0.31717471822E+01 0.25642907687E+01 0.21496721688E+01 0.18925007342E+01
 0.17694755232E+01 0.17694592567E+01 0.18924394851E+01 0.21495647858E+01 0.25641909333E+01
 0.31717252444E+01 0.40154930742E+01 0.51376609764E+01 0.65676299308E+01 0.83124319540E+01
 0.10351627261E+02 0.12633394151E+02 0.15064045013E+02 0.17461759724E+02 0.19566563086E+02
 0.21134720965E+02 0.21973283801E+02 0.21973239068E+02 0.21134598983E+02 0.19566387832E+02
 0.17461549685E+02 0.15063814842E+02 0.12633169275E+02 0.10351440258E+02 0.83122887429E+01
 0.65675058053E+01 0.51375453986E+01 0.40154231781E+01 0.26114760108E+01 0.21388112673E+01
 0.18287672003E+01 0.16533371392E+01 0.15965307034E+01 0.16532803511E+01 0.18286728606E+01
 0.21387168100E+01 0.26114215843E+01 0.32853703260E+01 0.42034983553E+01 0.54025202168E+01
 0.69016108038E+01 0.86945051441E+01 0.10745429111E+02 0.12983800855E+02 0.15291041333E+02
 0.17461771308E+02 0.19243425614E+02 0.20415513248E+02 0.20824677243E+02 0.20415410457E+02
 0.19243241987E+02 0.17461549685E+02 0.15290826548E+02 0.12983612623E+02 0.10745263166E+02
 0.86943531566E+01 0.69014758247E+01 0.54024144485E+01 0.42034354204E+01 0.32853642873E+01
 0.21378781067E+01 0.17831582396E+01 0.15630659208E+01 0.14576624897E+01 0.14576282332E+01
 0.15629858819E+01 0.17830754957E+01 0.21378154530E+01 0.26582099046E+01 0.33833356251E+01
 0.43524609310E+01 0.55939410513E+01 0.71148858221E+01 0.88946780387E+01 0.10881034858E+02
 0.12983730088E+02 0.15063958950E+02 0.16915883659E+02 0.18307998506E+02 0.19055644450E+02
 0.19055611067E+02 0.18307900599E+02 0.16915741283E+02 0.15063814842E+02 0.12983612623E+02
 0.10880928193E+02 0.88945482552E+01 0.71147375293E+01 0.55938232441E+01 0.43524111178E+01
 0.33833456880E+01 0.26582516312E+01 0.17520921213E+01 0.14956171751E+01 0.13500881007E+01
 0.13028887256E+01 0.13500611808E+01 0.14955609897E+01 0.17520132103E+01 0.21419821980E+01
 0.26974246782E+01 0.34551621036E+01 0.44480709394E+01 0.56943076649E+01 0.71882041321E+01
 0.88946920419E+01 0.10745366538E+02 0.12633219479E+02 0.14408369968E+02 0.15882577010E+02
 0.16860374346E+02 0.17202898152E+02 0.16860385561E+02 0.15882588621E+02 0.14408362103E+02
 0.12633169275E+02 0.10745263166E+02 0.88945482552E+01 0.71880555620E+01 0.56941951911E+01
 0.44480183429E+01 0.34551710378E+01 0.26974811911E+01 0.21420632558E+01 0.14479771183E+01
 0.12706136377E+01 0.11853588242E+01 0.11853621818E+01 0.12706060734E+01 0.14479294807E+01
 0.17322041361E+01 0.21471029349E+01 0.27233490845E+01 0.34931098522E+01 0.44810306480E+01
 0.56943419004E+01 0.71149442611E+01 0.86945404307E+01 0.10351528378E+02 0.11969130913E+02
 0.13398959681E+02 0.14477752900E+02 0.15060446401E+02 0.15060481898E+02 0.14477844147E+02
 0.13399056941E+02 0.11969160739E+02 0.10351440258E+02 0.86943531566E+01 0.71147375293E+01
 0.56941951911E+01 0.44809743521E+01 0.34931321283E+01 0.27234252817E+01 0.21472042896E+01
 0.17322937661E+01 0.12162403792E+01 0.11012853755E+01 0.10638928617E+01 0.11012975584E+01
 0.12162423048E+01 0.14175583126E+01 0.17212298683E+01 0.21503505326E+01 0.27323879082E+01
 0.34931208569E+01 0.44481299762E+01 0.55940323275E+01 0.69017140060E+01 0.83124752842E+01
 0.97369682358E+01 0.11058060762E+02 0.12141317850E+02 0.12856415356E+02 0.13106764147E+02
 0.12856480591E+02 0.12141398896E+02 0.11058086699E+02 0.97368877444E+01 0.83122887429E+01
 0.69014758247E+01 0.55938232441E+01 0.44480183429E+01 0.34931321283E+01 0.27324933333E+01
 0.21504843600E+01 0.17213295511E+01 0.14175990983E+01 0.10473192147E+01 0.98102269479E+00
 0.98103954275E+00 0.10473543843E+01 0.11846014157E+01 0.14027586688E+01 0.17176962915E+01
 0.21503275473E+01 0.27233281296E+01 0.34551930873E+01 0.43525576515E+01 0.54026457791E+01
 0.65677598065E+01 0.77830002239E+01 0.89580351979E+01 0.99843767217E+01 0.10749900381E+02
 0.11160008376E+02 0.11160027446E+02 0.10749929537E+02 0.99843549149E+01 0.89579173655E+01
 0.77827901754E+01 0.65675058053E+01 0.54024144485E+01 0.43524111178E+01 0.34551710378E+01
 0.27234252817E+01 0.21504843600E+01 0.17178292770E+01 0.14028155264E+01 0.11845896727E+01
 0.93296421489E+00 0.90426675198E+00 0.93300925264E+00 0.10210455110E+01 0.11742083050E+01
 0.14027285498E+01 0.17211697421E+01 0.21470352107E+01 0.26973830488E+01 0.33833758479E+01
 0.42036021629E+01 0.51378026923E+01 0.61428372718E+01 0.71523830691E+01 0.80814758315E+01
 0.88366621816E+01 0.93313961962E+01 0.95038153759E+01 0.93313844642E+01 0.88366145855E+01
 0.80813569969E+01 0.71521754792E+01 0.61425689851E+01 0.51375453986E+01 0.42034354204E+01
 0.33833456880E+01 0.26974811911E+01 0.21472042896E+01 0.17213295511E+01 0.14028155264E+01
 0.11742081919E+01 0.10209946687E+01 0.86695039015E+00 0.86697609018E+00 0.91729933440E+00
 0.10210447256E+01 0.11845747307E+01 0.14174894176E+01 0.17321121888E+01 0.21418811460E+01
 0.26581518443E+01 0.32853958241E+01 0.40155759194E+01 0.48232324578E+01 0.56631048941E+01
 0.64718163260E+01 0.71744328194E+01 0.76956357502E+01 0.79736914757E+01 0.79736685227E+01
 0.76955686429E+01 0.71743206842E+01 0.64716527659E+01 0.56628956585E+01 0.48230173899E+01
 0.40154231781E+01 0.32853642873E+01 0.26582516312E+01 0.21420632558E+01 0.17322937661E+01
 0.14175990983E+01 0.11845896727E+01 0.10209946687E+01 0.91723885456E+00 0.86699839281E+00
 0.90431939376E+00 0.98107844593E+00 0.11013190064E+01 0.12706075391E+01 0.14955578714E+01
 0.17830394958E+01 0.21386479425E+01 0.25641254164E+01 0.30539046784E+01 0.35916448380E+01
 0.41481757519E+01 0.46822817197E+01 0.51450850868E+01 0.54876369925E+01 0.56701010264E+01
 0.56700792054E+01 0.54875752826E+01 0.51449970708E+01 0.46821949246E+01 0.41481295362E+01
 0.35916742590E+01 0.30540168068E+01 0.25642888653E+01 0.21388098304E+01 0.17831570425E+01
 0.14956163811E+01 0.12706135977E+01 0.11012859175E+01 0.98102333333E+00 0.90426741194E+00
 0.86697693788E+00 0.90431939376E+00 0.95112850753E+00 0.10319872290E+01 0.11507177035E+01
 0.13119357847E+01 0.15205067688E+01 0.17807235854E+01 0.20948860393E+01 0.24611245507E+01
 0.28707594859E+01 0.33060388903E+01 0.37394324720E+01 0.41354823957E+01 0.44554695959E+01
 0.46641137980E+01 0.47366269531E+01 0.46640793686E+01 0.44554094906E+01 0.41354235704E+01
 0.37394182982E+01 0.33061047023E+01 0.28709030785E+01 0.24613008869E+01 0.20950349451E+01
 0.17808072898E+01 0.15205259776E+01 0.13119150955E+01 0.11506803916E+01 0.10319447755E+01
 0.95108845072E+00 0.90429370937E+00 0.88900686758E+00 0.98107844593E+00 0.10319872290E+01
 0.11116908674E+01 0.12236034039E+01 0.13714383397E+01 0.15586131586E+01 0.17873948949E+01
 0.20575982332E+01 0.23648262699E+01 0.26986200460E+01 0.30412696725E+01 0.33681674260E+01
 0.36502683978E+01 0.38585156503E+01 0.39692718328E+01 0.39692557177E+01 0.38584778187E+01
 0.36502374516E+01 0.33681784992E+01 0.30413442926E+01 0.26987491024E+01 0.23649711249E+01
 0.20577116454E+01 0.17874465732E+01 0.15586027466E+01 0.13713896674E+01 0.12235470534E+01
 0.11116478133E+01 0.10319630409E+01 0.98106838564E+00 0.95633703349E+00 0.95633948789E+00
 0.11013190064E+01 0.11507177035E+01 0.12236034039E+01 0.13230716470E+01 0.14522129537E+01
 0.16134304827E+01 0.18075410362E+01 0.20326132936E+01 0.22826485159E+01 0.25464834066E+01
 0.28075164835E+01 0.30448170868E+01 0.32357916185E+01 0.33599882112E+01 0.34030933188E+01
 0.33599652046E+01 0.32357651563E+01 0.30448196141E+01 0.28075725979E+01 0.25465851591E+01
 0.22827539088E+01 0.20326759257E+01 0.18075422644E+01 0.16133834935E+01 0.14521434096E+01
 0.13230026101E+01 0.12235540392E+01 0.11507008623E+01 0.11013307410E+01 0.10728424226E+01
 0.10635337194E+01 0.10728250501E+01 0.12706075391E+01 0.13119357847E+01 0.13714383397E+01
 0.14522129537E+01 0.15571070321E+01 0.16879273050E+01 0.18445254208E+01 0.20238300581E+01
 0.22190008397E+01 0.24190355091E+01 0.26092272424E+01 0.27727119316E+01 0.28929761164E+01
 0.29567878827E+01 0.29567794348E+01 0.28929563115E+01 0.27726976411E+01 0.26092404402E+01
 0.24190849729E+01 0.22190669124E+01 0.20238732914E+01 0.18445150573E+01 0.16878624062E+01
 0.15570127983E+01 0.14521229522E+01 0.13713806621E+01 0.13119253433E+01 0.12706384450E+01
 0.12447639307E+01 0.12323204148E+01 0.12323003549E+01 0.12447203908E+01 0.14955578714E+01
 0.15205067688E+01 0.15586131586E+01 0.16134304827E+01 0.16879273050E+01 0.17836251551E+01
 0.18997628599E+01 0.20326136929E+01 0.21751407867E+01 0.23172233377E+01 0.24466203653E+01
 0.25506288522E+01 0.26181269606E+01 0.26415200848E+01 0.26181167773E+01 0.25506189322E+01
 0.24466229781E+01 0.23172426739E+01 0.21751690124E+01 0.20326340006E+01 0.18997565162E+01
 0.17835805861E+01 0.16878491837E+01 0.16133433155E+01 0.15585522927E+01 0.15204983370E+01
 0.14956009262E+01 0.14804630425E+01 0.14724415519E+01 0.14699262588E+01 0.14723948001E+01
 0.14803978254E+01 0.17830394958E+01 0.17807235854E+01 0.17873948949E+01 0.18075410362E+01
 0.18445254208E+01 0.18997628599E+01 0.19721138328E+01 0.20575978566E+01 0.21495498548E+01
 0.22393186630E+01 0.23174664929E+01 0.23752331784E+01 0.24059223009E+01 0.24059242925E+01
 0.23752411751E+01 0.23174850036E+01 0.22393492961E+01 0.21495846667E+01 0.20576193298E+01
 0.19721054565E+01 0.18997221160E+01 0.18444669566E+01 0.18074885312E+01 0.17873698228E+01
 0.17807374970E+01 0.17830897470E+01 0.17897188560E+01 0.17965447349E+01 0.18006765165E+01
 0.18006532894E+01 0.17964857209E+01 0.17896501817E+01 0.21386479425E+01 0.20948860393E+01
 0.20575982332E+01 0.20326132936E+01 0.20238300581E+01 0.20326136929E+01 0.20575978566E+01
 0.20948848895E+01 0.21386472608E+01 0.21820918042E+01 0.22186110531E+01 0.22428287703E+01
 0.22513025540E+01 0.22428549077E+01 0.22186587495E+01 0.21821531234E+01 0.21387091454E+01
 0.20949280107E+01 0.20576050804E+01 0.20325847978E+01 0.20237863061E+01 0.20325843429E+01
 0.20576032068E+01 0.20949250256E+01 0.21387065385E+01 0.21821512005E+01 0.22186566072E+01
 0.22428527299E+01 0.22513016017E+01 0.22428290539E+01 0.22186113112E+01 0.21820918228E+01
 0.25641254164E+01 0.24611245507E+01 0.23648262699E+01 0.22826485159E+01 0.22190008397E+01
 0.21751407867E+01 0.21495498548E+01 0.21386472608E+01 0.21377115867E+01 0.21418819751E+01
 0.21470356126E+01 0.21503279023E+01 0.21503520270E+01 0.21471050726E+01 0.21419835463E+01
 0.21378161787E+01 0.21387179800E+01 0.21495658675E+01 0.21751158193E+01 0.22189730007E+01
 0.22826480861E+01 0.23648545181E+01 0.24611623974E+01 0.25641554802E+01 0.26642254140E+01
 0.27509638030E+01 0.28148365471E+01 0.28486773008E+01 0.28486776117E+01 0.28148355847E+01
 0.27509572036E+01 0.26642084149E+01 0.30539046784E+01 0.28707594859E+01 0.26986200460E+01
 0.25464834066E+01 0.24190355091E+01 0.23172233377E+01 0.22393186630E+01 0.21820918042E+01
 0.21418819751E+01 0.21154444887E+01 0.21004548981E+01 0.20956179943E+01 0.21005295024E+01
 0.21155765105E+01 0.21420322857E+01 0.21822061042E+01 0.22393565964E+01 0.23171912503E+01
 0.24189855230E+01 0.25464689196E+01 0.26986485623E+01 0.28707925661E+01 0.30539016396E+01
 0.32350483175E+01 0.33987951153E+01 0.35294909450E+01 0.36138313409E+01 0.36429808025E+01
 0.36138577138E+01 0.35295418944E+01 0.33988572852E+01 0.32350935069E+01 0.35916448380E+01
 0.33060388903E+01 0.30412696725E+01 0.28075164835E+01 0.26092272424E+01 0.24466203653E+01
 0.23174664929E+01 0.22186110531E+01 0.21470356126E+01 0.21004548981E+01 0.20774917778E+01
 0.20775450554E+01 0.21005989356E+01 0.21472220368E+01 0.22187683776E+01 0.23175348245E+01
 0.24465919966E+01 0.26091510125E+01 0.28074530621E+01 0.30412403074E+01 0.33060188567E+01
 0.35915999705E+01 0.38816248044E+01 0.41546723472E+01 0.43870215513E+01 0.45564146349E+01
 0.46457456907E+01 0.46457735927E+01 0.45564892923E+01 0.43871218353E+01 0.41547740917E+01
 0.38817049877E+01 0.41481757519E+01 0.37394324720E+01 0.33681674260E+01 0.30448170868E+01
 0.27727119316E+01 0.25506288522E+01 0.23752331784E+01 0.22428287703E+01 0.21503279023E+01
 0.20956179943E+01 0.20775450554E+01 0.20957403955E+01 0.21505252347E+01 0.22430166311E+01
 0.23753293383E+01 0.25506062982E+01 0.27726137473E+01 0.30447092997E+01 0.33680786249E+01
 0.37393457911E+01 0.41480700204E+01 0.45750871787E+01 0.49927711633E+01 0.53678033329E+01
 0.56660452181E+01 0.58581752681E+01 0.59245391234E+01 0.58582314314E+01 0.56661362244E+01
 0.53679107141E+01 0.49928892114E+01 0.45752076355E+01 0.46822817197E+01 0.41354823957E+01
 0.36502683978E+01 0.32357916185E+01 0.28929761164E+01 0.26181269606E+01 0.24059223009E+01
 0.22513025540E+01 0.21503520270E+01 0.21005295024E+01 0.21005989356E+01 0.21505252347E+01
 0.22514915164E+01 0.24060339023E+01 0.26181172595E+01 0.28928700934E+01 0.32356488303E+01
 0.36501296227E+01 0.41353509533E+01 0.46821476753E+01 0.52700652014E+01 0.58662250862E+01
 0.64273463369E+01 0.69051171931E+01 0.72537626852E+01 0.74377585019E+01 0.74377768778E+01
 0.72538126072E+01 0.69051904706E+01 0.64274416746E+01 0.58663436041E+01 0.52701986103E+01
 0.51450850868E+01 0.44554695959E+01 0.38585156503E+01 0.33599882112E+01 0.29567878827E+01
 0.26415200848E+01 0.24059242925E+01 0.22428549077E+01 0.21471050726E+01 0.21155765105E+01
 0.21472220368E+01 0.22430166311E+01 0.24060339023E+01 0.26415194936E+01 0.29566876082E+01
 0.33598387519E+01 0.38583554357E+01 0.44553078792E+01 0.51449267434E+01 0.59079869504E+01
 0.67087994530E+01 0.74955831019E+01 0.82052267172E+01 0.87720201016E+01 0.91384284128E+01
 0.92652055404E+01 0.91384332797E+01 0.87720255416E+01 0.82052375992E+01 0.74956204665E+01
 0.67088851809E+01 0.59081205857E+01 0.54876369925E+01 0.46641137980E+01 0.39692718328E+01
 0.34030933188E+01 0.29567794348E+01 0.26181167773E+01 0.23752411751E+01 0.22186587495E+01
 0.21419835463E+01 0.21420322857E+01 0.22187683776E+01 0.23753293383E+01 0.26181172595E+01
 0.29566876082E+01 0.34029524043E+01 0.39691188734E+01 0.46639527417E+01 0.54874666915E+01
 0.64249170439E+01 0.74417477292E+01 0.84815071865E+01 0.94685054412E+01 0.10315990972E+02
 0.10939033925E+02 0.11269527566E+02 0.11269502855E+02 0.10938965994E+02 0.10315901453E+02
 0.94684343693E+01 0.84815014918E+01 0.74418307915E+01 0.64250673520E+01 0.56701010264E+01
 0.47366269531E+01 0.39692557177E+01 0.33599652046E+01 0.28929563115E+01 0.25506189322E+01
 0.23174850036E+01 0.21821531234E+01 0.21378161787E+01 0.21822061042E+01 0.23175348245E+01
 0.25506062982E+01 0.28928700934E+01 0.33598387519E+01 0.39691188734E+01 0.47364791521E+01
 0.56699374383E+01 0.67626255151E+01 0.79858843240E+01 0.92844617796E+01 0.10575813023E+02
 0.11755361409E+02 0.12708877776E+02 0.13331236277E+02 0.13547700724E+02 0.13331155197E+02
 0.12708751552E+02 0.11755238331E+02 0.10575736626E+02 0.92844653114E+01 0.79859768293E+01
 0.67627779833E+01 0.56700792054E+01 0.46640793686E+01 0.38584778187E+01 0.32357651563E+01
 0.27726976411E+01 0.24466229781E+01 0.22393492961E+01 0.21387091454E+01 0.21387179800E+01
 0.22393565964E+01 0.24465919966E+01 0.27726137473E+01 0.32356488303E+01 0.38583554357E+01
 0.46639527417E+01 0.56699374383E+01 0.68801200929E+01 0.82763068884E+01 0.98111261098E+01
 0.11403589613E+02 0.12939517974E+02 0.14279835233E+02 0.15279336008E+02 0.15814785822E+02
 0.15814772588E+02 0.15279297839E+02 0.14279776281E+02 0.12939451347E+02 0.11403547499E+02
 0.98111484725E+01 0.82764055935E+01 0.68802625744E+01 0.54875752826E+01 0.44554094906E+01
 0.36502374516E+01 0.30448196141E+01 0.26092404402E+01 0.23172426739E+01 0.21495846667E+01
 0.20949280107E+01 0.21495658675E+01 0.23171912503E+01 0.26091510125E+01 0.30447092997E+01
 0.36501296227E+01 0.44553078792E+01 0.54874666915E+01 0.67626255151E+01 0.82763068884E+01
 0.99947711686E+01 0.11847563077E+02 0.13722635968E+02 0.15467634865E+02 0.16903355743E+02
 0.17853550190E+02 0.18186518518E+02 0.17853610165E+02 0.16903436985E+02 0.15467689076E+02
 0.13722647133E+02 0.11847563289E+02 0.99948083506E+01 0.82763961390E+01 0.67627395961E+01
 0.51449970708E+01 0.41354235704E+01 0.33681784992E+01 0.28075725979E+01 0.24190849729E+01
 0.21751690124E+01 0.20576193298E+01 0.20576050804E+01 0.21751158193E+01 0.24189855230E+01
 0.28074530621E+01 0.33680786249E+01 0.41353509533E+01 0.51449267434E+01 0.64249170439E+01
 0.79858843240E+01 0.98111261098E+01 0.11847563077E+02 0.13996968862E+02 0.16109741171E+02
 0.17988651585E+02 0.19410168196E+02 0.20176676146E+02 0.20176726705E+02 0.19410306063E+02
 0.17988829601E+02 0.16109887851E+02 0.13997038409E+02 0.11847576444E+02 0.98111449665E+01