unknown system                          
   1.00000000000000     
    -2.436422    2.436422    1.291243
     2.436422   -2.436422    1.291243
     2.436422    2.436422   -1.291243
   Si
     2
Direct
  0.250000  0.750000  0.500000
  0.000000  0.000000  0.000000
 
   28   28   28
 -5.4781     -3.9433     0.46844E-01  4.9670      9.1309      11.429      11.681      10.494      8.8031      7.1909    
  5.8323      4.7938      4.0783      3.6631      3.5272      3.6630      4.0783      4.7940      5.8324      7.1908    
  8.8031      10.494      11.681      11.429      9.1309      4.9671     0.46726E-01 -3.9435     -3.9435     -4.7335    
 -2.5810      1.6484      6.3555      9.9806      11.656      11.427      10.020      8.3285      6.7790      5.5076    
  4.5603      3.9298      3.5915      3.5272      3.7332      4.2206      5.0119      6.1263      7.5498      9.1978    
  10.850      11.813      11.187      8.5156      4.1899     -.52466     0.46726E-01 -2.5811     -2.6388     -.11182    
  3.9709      8.0667      10.853      11.752      11.022      9.4527      7.7991      6.3368      5.1696      4.3233    
  3.7822      3.5217      3.5272      3.7985      4.3494      5.2028      6.3734      7.8366      9.4931      11.084    
  11.867      11.034      8.2913      4.1899      4.9671      1.6484     -.11188     0.42325      3.0158      6.5849    
  9.7634      11.539      11.634      10.471      8.8297      7.2440      5.8887      4.8363      4.0947      3.6426    
  3.4572      3.5273      3.8556      4.4578      5.3561      6.5602      8.0362      9.6754      11.198      11.881    
  11.034      8.5156      9.1309      6.3556      3.9709      3.0159      3.9184      6.2685      9.0447      11.143    
  11.890      11.271      9.8146      8.1866      6.6943      5.4589      4.5246      3.8855      3.5177      3.4011    
  3.5274      3.9016      4.5400      5.4635      6.6765      8.1385      9.7370      11.198      11.867      11.187    
  11.429      9.9806      8.0667      6.5849      6.2686      7.2862      9.1503      10.990      12.007      11.848    
  10.704      9.1256      7.5599      6.1797      5.0692      4.2495      3.7057      3.4137      3.3563      3.5277    
  3.9338      4.5913      5.5187      6.7159      8.1385      9.6754      11.084      11.813      11.681      11.656    
  10.853      9.7634      9.0448      9.1504      10.064      11.307      12.216      12.296      11.461      10.028    
  8.4582      6.9846      5.7265      4.7379      4.0233      3.5634      3.3356      3.3252      3.5279      3.9504    
  4.6088      5.5187      6.6765      8.0362      9.4931      10.850      10.494      11.427      11.752      11.539    
  11.143      10.990      11.307      11.973      12.584      12.700      12.091      10.860      9.3576      7.8533    
  6.4907      5.3553      4.4786      3.8554      3.4650      3.2872      3.3092      3.5279      3.9504      4.5913    
  5.4635      6.5602      7.8366      9.1978      8.8031      10.020      11.022      11.634      11.890      12.007    
  12.216      12.584      12.954      13.032      12.581      11.572      10.214      8.7540      7.3462      6.1018    
  5.0810      4.3011      3.7521      3.4147      3.2708      3.3092      3.5279      3.9338      4.5400      5.3561    
  6.3734      7.5498      7.1908      8.3284      9.4527      10.471      11.271      11.848      12.296      12.700    
  13.032      13.143      12.858      12.100      10.966      9.6366      8.2609      6.9647      5.8343      4.9131    
  4.2109      3.7173      3.4147      3.2872      3.3252      3.5277      3.9016      4.4578      5.2028      6.1263    
  5.8324      6.7789      7.7990      8.8297      9.8147      10.704      11.461      12.091      12.581      12.858    
  12.810      12.358      11.531      10.430      9.1818      7.9127      6.7284      5.6982      4.8566      4.2109    
  3.7521      3.4650      3.3356      3.3563      3.5274      3.8556      4.3494      5.0119      4.7940      5.5076    
  6.3367      7.2439      8.1865      9.1256      10.029      10.860      11.572      12.100      12.358      12.275    
  11.827      11.051      10.035      8.8916      7.7327      6.6483      5.6982      4.9131      4.3011      3.8554    
  3.5634      3.4137      3.4011      3.5273      3.7985      4.2206      4.0783      4.5604      5.1697      5.8887    
  6.6942      7.5599      8.4583      9.3577      10.214      10.966      11.531      11.827      11.793      11.417    
  10.734      9.8252      8.7919      7.7327      6.7284      5.8343      5.0810      4.4786      4.0233      3.7057    
  3.5177      3.4572      3.5272      3.7332      3.6630      3.9297      4.3233      4.8363      5.4589      6.1797    
  6.9845      7.8533      8.7540      9.6366      10.430      11.051      11.417      11.469      11.194      10.623    
  9.8252      8.8916      7.9127      6.9647      6.1018      5.3553      4.7379      4.2495      3.8855      3.6426    
  3.5217      3.5272      3.5272      3.5913      3.7820      4.0946      4.5246      5.0692      5.7265      6.4906    
  7.3462      8.2609      9.1818      10.035      10.734      11.194      11.355      11.194      10.734      10.035    
  9.1818      8.2609      7.3462      6.4907      5.7265      5.0692      4.5246      4.0947      3.7822      3.5915    
  3.6631      3.5272      3.5215      3.6424      3.8854      4.2495      4.7379      5.3553      6.1017      6.9647    
  7.9127      8.8916      9.8252      10.623      11.194      11.469      11.417      11.051      10.430      9.6366    
  8.7540      7.8533      6.9846      6.1797      5.4589      4.8363      4.3233      3.9298      4.0783      3.7332    
  3.5272      3.4570      3.5175      3.7055      4.0232      4.4786      5.0810      5.8343      6.7283      7.7327    
  8.7919      9.8252      10.734      11.417      11.793      11.827      11.531      10.966      10.214      9.3576    
  8.4582      7.5599      6.6943      5.8887      5.1696      4.5603      4.7938      4.2205      3.7984      3.5272    
  3.4010      3.4136      3.5633      3.8553      4.3010      4.9131      5.6982      6.6483      7.7327      8.8916    
  10.035      11.051      11.827      12.275      12.358      12.100      11.572      10.860      10.028      9.1256    
  8.1866      7.2440      6.3368      5.5076      5.8323      5.0118      4.3492      3.8555      3.5274      3.3563    
  3.3356      3.4649      3.7520      4.2109      4.8566      5.6982      6.7283      7.9127      9.1818      10.430    
  11.531      12.358      12.810      12.858      12.581      12.091      11.461      10.704      9.8146      8.8297    
  7.7991      6.7790      7.1909      6.1263      5.2026      4.4576      3.9014      3.5276      3.3252      3.2872    
  3.4147      3.7172      4.2109      4.9131      5.8343      6.9647      8.2609      9.6366      10.966      12.100    
  12.858      13.143      13.032      12.700      12.296      11.848      11.271      10.471      9.4527      8.3285    
  8.8031      7.5498      6.3734      5.3561      4.5399      3.9336      3.5278      3.3093      3.2709      3.4147    
  3.7520      4.3010      5.0810      6.1017      7.3462      8.7540      10.214      11.572      12.581      13.032    
  12.954      12.584      12.216      12.007      11.890      11.634      11.022      10.020      10.494      9.1977    
  7.8365      6.5602      5.4635      4.5913      3.9503      3.5279      3.3093      3.2872      3.4649      3.8553    
  4.4786      5.3553      6.4906      7.8533      9.3577      10.860      12.091      12.700      12.584      11.973    
  11.307      10.990      11.143      11.539      11.752      11.427      11.681      10.850      9.4929      8.0360    
  6.6764      5.5188      4.6087      3.9503      3.5278      3.3252      3.3356      3.5633      4.0232      4.7379    
  5.7265      6.9845      8.4583      10.029      11.461      12.296      12.216      11.307      10.064      9.1503    
  9.0447      9.7634      10.853      11.656      11.429      11.813      11.084      9.6752      8.1383      6.7159    
  5.5188      4.5913      3.9336      3.5276      3.3563      3.4136      3.7055      4.2495      5.0692      6.1797    
  7.5599      9.1256      10.704      11.848      12.007      10.990      9.1504      7.2862      6.2685      6.5849    
  8.0667      9.9806      9.1309      11.187      11.868      11.198      9.7369      8.1383      6.6764      5.4635    
  4.5399      3.9014      3.5274      3.4010      3.5175      3.8854      4.5246      5.4589      6.6942      8.1865    
  9.8147      11.271      11.890      11.143      9.0448      6.2686      3.9184      3.0158      3.9709      6.3555    
  4.9670      8.5155      11.034      11.881      11.198      9.6752      8.0360      6.5602      5.3561      4.4576    
  3.8555      3.5272      3.4570      3.6424      4.0946      4.8363      5.8887      7.2439      8.8297      10.471    
  11.634      11.539      9.7634      6.5849      3.0159     0.42325     -.11182      1.6484     0.46844E-01  4.1898    
  8.2912      11.034      11.868      11.084      9.4929      7.8365      6.3734      5.2026      4.3492      3.7984    
  3.5272      3.5215      3.7820      4.3233      5.1697      6.3367      7.7990      9.4527      11.022      11.752    
  10.853      8.0667      3.9709     -.11188     -2.6388     -2.5810     -3.9433     -.52452      4.1898      8.5155    
  11.187      11.813      10.850      9.1977      7.5498      6.1263      5.0118      4.2205      3.7332      3.5272    
  3.5913      3.9297      4.5604      5.5076      6.7789      8.3284      10.020      11.427      11.656      9.9806    
  6.3556      1.6484     -2.5811     -4.7335     -3.9430     -2.8324     0.64246      5.1310      9.0441      11.267    
  11.544      10.398      8.7182      7.0982      5.7219      4.6611      3.9212      3.4786      3.3089      3.4015    
  3.7626      4.4136      5.3806      6.6689      8.2258      9.9044      11.242      11.358      9.6020      6.0283    
  1.5683     -2.2457     -2.8326     -3.9430     -2.2455      1.5684      6.0284      9.6022      11.358      11.242    
  9.9044      8.2259      6.6690      5.3806      4.4135      3.7626      3.4016      3.3089      3.4786      3.9213    
  4.6612      5.7219      7.0981      8.7181      10.398      11.543      11.267      9.0441      5.1311     0.64234    
 0.76341     -2.1129     -2.5807     -.46716      3.3507      7.3973      10.310      11.405      10.835      9.3350    
  7.6922      6.2217      5.0386      4.1758      3.6189      3.3411      3.3250      3.5690      4.0878      4.9066    
  6.0451      7.4871      9.1449      10.797      11.769      11.230      8.8029      4.9114      5.4294      1.9135    
 -.22149     -.11162      2.1657      5.6379      8.9402      10.967      11.314      10.313      8.7221      7.1433    
  5.7786      4.7123      3.9585      3.4960      3.2996      3.3563      3.6688      4.2541      5.1374      6.3332    
  7.8155      9.4849      11.093      11.948      11.316      8.9638      9.5052      6.5831      3.8707      2.4900    
  3.0159      5.1768      8.0058      10.345      11.399      11.029      9.6964      8.0971      6.6064      5.3614    
  4.4167      3.7707      3.3987      3.2785      3.4013      3.7728      4.4114      5.3408      6.5701      8.0651    
  9.7199      11.279      12.090      11.535      11.840      10.304      8.1354      6.2655      5.5395      6.2685    
  8.0645      10.059      11.365      11.499      10.550      9.0403      7.4907      6.1079      4.9895      4.1645    
  3.6200      3.3309      3.2786      3.4575      3.8755      4.5510      5.5052      6.7419      8.2212      9.8354    
  11.345      12.179      12.178      12.134      11.170      9.7755      8.6708      8.4284      9.1502      10.415    
  11.521      11.871      11.262      9.9421      8.4009      6.9334      5.6714      4.6790      3.9657      3.5124    
  3.2954      3.2997      3.5222      3.9712      4.6648      5.6207      6.8380      8.2733      9.8217      11.278    
  11.064      12.039      12.305      11.899      11.196      10.703      10.752      11.307      11.983      12.281    
  11.870      10.770      9.3076      7.8153      6.4532      5.3162      4.4423      3.8281      3.4524      3.2942    
  3.3413      3.5919      4.0548      4.7461      5.6801      6.8517      8.2162      9.6751      9.3997      10.700    
  11.726      12.259      12.323      12.168      12.101      12.276      12.584      12.725      12.397      11.493    
  10.173      8.7229      7.3173      6.0732      5.0569      4.2881      3.7569      3.4429      3.3278      3.4016    
  3.6635      4.1216      4.7901      5.6794      6.7811      8.0508      7.7848      9.0085      10.199      11.230    
  11.952      12.358      12.584      12.776      12.966      13.032      12.773      12.059      10.939      9.6090    
  8.2317      6.9355      5.8107      4.9031      4.2219      3.7554      3.4852      3.3958      3.4785      3.7334    
  4.1681      4.7943      5.6184      6.6292      6.4043      7.4328      8.5230      9.5977      10.583      11.402    
  12.019      12.474      12.801      12.964      12.858      12.381      11.526      10.405      9.1440      7.8707    
  6.6917      5.6773      4.8605      4.2465      3.8246      3.5789      3.4959      3.5688      3.7984      4.1919    
  4.7583      5.5003      5.3315      6.1192      7.0154      7.9727      8.9359      9.8550      10.692      11.409    
  11.982      12.375      12.525      12.358      11.845      11.025      9.9806      8.8243      7.6678      6.6002    
  5.6789      4.9313      4.3622      3.9631      3.7209      3.6243      3.6683      3.8553      4.1919      4.6843    
  4.5762      5.1217      5.7904      6.5579      7.3914      8.2551      9.1147      9.9381      10.689      11.318    
  11.761      11.949      11.827      11.382      10.654      9.7201      8.6831      7.6399      6.6678      5.8174    
  5.1147      4.5664      4.1670      3.9061      3.7752      3.7722      3.9010      4.1679      4.1213      4.4399    
  4.8826      5.4373      6.0875      6.8141      7.5965      8.4110      9.2277      10.004      10.681      11.187    
  11.449      11.417      11.078      10.469      9.6587      8.7379      7.7930      6.8942      6.0896      5.4063    
  4.8534      4.4290      4.1263      3.9412      3.8749      3.9332      3.9498      4.0544      4.2827      4.6277    
  5.0800      5.6312      6.2736      6.9974      7.7856      8.6092      9.4223      10.161      10.748      11.111    
  11.194      10.982      10.500      9.8091      8.9897      8.1217      7.2719      6.4878      5.7974      5.2133    
  4.7381      4.3710      4.1135      3.9708      4.0545      3.9498      3.9707      4.1134      4.3710      4.7381    
  5.2133      5.7974      6.4877      7.2719      8.1217      8.9897      9.8091      10.500      10.982      11.194    
  11.111      10.748      10.161      9.4223      8.6093      7.7857      6.9974      6.2737      5.6313      5.0800    
  4.6277      4.2828      4.4399      4.1214      3.9333      3.8749      3.9411      4.1263      4.4289      4.8534    
  5.4062      6.0896      6.8941      7.7930      8.7379      9.6587      10.469      11.078      11.417      11.449    
  11.187      10.681      10.004      9.2278      8.4111      7.5966      6.8142      6.0876      5.4373      4.8826    
  5.1216      4.5762      4.1681      3.9012      3.7723      3.7752      3.9061      4.1670      4.5664      5.1146    
  5.8174      6.6677      7.6399      8.6831      9.7202      10.654      11.382      11.827      11.949      11.762    
  11.318      10.689      9.9382      9.1148      8.2551      7.3915      6.5580      5.7904      6.1191      5.3314    
  4.6843      4.1920      3.8554      3.6684      3.6244      3.7209      3.9631      4.3621      4.9313      5.6790    
  6.6002      7.6678      8.8244      9.9806      11.025      11.845      12.358      12.525      12.375      11.982    
  11.410      10.692      9.8549      8.9360      7.9728      7.0155      7.4329      6.4042      5.5002      4.7583    
  4.1920      3.7985      3.5689      3.4960      3.5788      3.8245      4.2465      4.8605      5.6773      6.6917    
  7.8708      9.1441      10.405      11.526      12.381      12.858      12.964      12.801      12.474      12.019    
  11.402      10.583      9.5977      8.5231      9.0085      7.7848      6.6292      5.6184      4.7942      4.1681    
  3.7334      3.4786      3.3958      3.4852      3.7553      4.2219      4.9031      5.8107      6.9355      8.2317    
  9.6091      10.939      12.059      12.773      13.032      12.966      12.776      12.584      12.358      11.952    
  11.230      10.199      10.699      9.3996      8.0507      6.7810      5.6794      4.7900      4.1215      3.6634    
  3.4016      3.3278      3.4428      3.7569      4.2881      5.0569      6.0732      7.3173      8.7230      10.173    
  11.493      12.396      12.725      12.584      12.276      12.101      12.168      12.323      12.259      11.726    
  12.039      11.064      9.6749      8.2161      6.8517      5.6801      4.7460      4.0546      3.5918      3.3412    
  3.2941      3.4523      3.8281      4.4424      5.3163      6.4531      7.8154      9.3077      10.770      11.870    
  12.280      11.983      11.307      10.751      10.702      11.196      11.898      12.304      12.133      12.178    
  11.278      9.8215      8.2732      6.8380      5.6207      4.6647      3.9710      3.5220      3.2996      3.2953    
  3.5123      3.9657      4.6791      5.6714      6.9334      8.4010      9.9422      11.262      11.871      11.521    
  10.415      9.1501      8.4281      8.6706      9.7753      11.170      10.304      11.839      12.179      11.345    
  9.8352      8.2211      6.7420      5.5052      4.5509      3.8753      3.4574      3.2785      3.3307      3.6199    
  4.1645      4.9896      6.1079      7.4907      9.0404      10.550      11.499      11.365      10.059      8.0645    
  6.2684      5.5394      6.2654      8.1353      6.5830      9.5050      11.535      12.090      11.279      9.7198    
  8.0650      6.5702      5.3408      4.4113      3.7726      3.4012      3.2784      3.3985      3.7707      4.4168    
  5.3615      6.6064      8.0971      9.6964      11.029      11.398      10.345      8.0058      5.1768      3.0159    
  2.4900      3.8707      1.9136      5.4293      8.9636      11.316      11.948      11.093      9.4848      7.8155    
  6.3333      5.1373      4.2540      3.6687      3.3563      3.2995      3.4958      3.9585      4.7124      5.7786    
  7.1432      8.7221      10.313      11.314      10.967      8.9400      5.6379      2.1657     -.11158     -.22137    
 -2.1127     0.76353      4.9114      8.8028      11.231      11.769      10.797      9.1449      7.4872      6.0452    
  4.9065      4.0877      3.5690      3.3250      3.3411      3.6188      4.1759      5.0386      6.2216      7.6921    
  9.3350      10.835      11.405      10.310      7.3972      3.3506     -.46722     -2.5807     0.47806E-01 0.76416    
  3.4368      6.9816      10.061      11.709      11.687      10.449      8.7748      7.1683      5.7957      4.7266    
  3.9678      3.4963      3.2872      3.3279      3.6216      4.1869      5.0503      6.2245      7.6743      9.2850    
  10.764      11.393      10.521      8.0561      4.6602      1.5689     0.64303     -.52344     0.64314      3.6507    
  7.2803      10.196      11.550      11.261      9.8952      8.2388      6.6993      5.4168      4.4449      3.7799    
  3.3961      3.2708      3.3960      3.7799      4.4450      5.4169      6.6992      8.2387      9.8952      11.261    
  11.549      10.196      7.2803      3.6507      3.4367     0.76409     0.47870E-01  1.5690      4.6602      8.0561    
  10.522      11.393      10.764      9.2849      7.6743      6.2246      5.0503      4.1869      3.6217      3.3280    
  3.2872      3.4962      3.9679      4.7267      5.7957      7.1682      8.7748      10.449      11.687      11.709    
  10.061      6.9816      7.2576      4.0780      1.9140      1.6492      3.3511      6.2403      9.1028      10.891    
  11.167      10.191      8.6489      7.1078      5.7666      4.7125      3.9630      3.4987      3.2942      3.3356    
  3.6246      4.1775      5.0191      6.1680      7.6077      9.2554      10.922      12.054      11.926      10.208    
  10.645      8.0698      5.4537      3.8711      3.9713      5.6381      8.0594      10.163      11.149      10.818    
  9.5563      8.0148      6.5645      5.3455      4.4171      3.7814      3.4149      3.2954      3.4137      3.7755    
  4.3987      5.3072      6.5139      7.9933      9.6537      11.294      12.360      12.216      12.545      11.288    
  9.2540      7.2939      6.2655      6.5849      8.0057      9.7644      10.999      11.181      10.328      8.8996    
  7.4089      6.0678      4.9784      4.1750      3.6478      3.3725      3.3307      3.5177      3.9414      4.6199    
  5.5747      6.8130      8.3018      9.9446      11.543      12.589      12.701      12.837      11.990      10.563    
  9.2482      8.6706      9.0444      10.059      11.068      11.453      10.947      9.7330      8.2671      6.8572    
  5.6382      4.6793      3.9943      3.5663      3.3724      3.3984      3.6426      4.1136      4.8287      5.8058    
  7.0466      8.5126      10.106      11.646      11.582      12.653      12.995      12.579      11.732      10.971    
  10.702      10.989      11.521      11.809      11.481      10.490      9.1130      7.6898      6.3838      5.2928    
  4.4585      3.8807      3.5394      3.4146      3.4957      3.7822      4.2828      5.0128      5.9862      7.1992    
  8.6098      10.123      9.9886      11.340      12.409      12.937      12.903      12.543      12.200      12.101    
  12.215      12.280      11.981      11.158      9.9186      8.5384      7.1969      6.0097      5.0447      4.3237    
  3.8383      3.5687      3.4983      3.6186      3.9298      4.4398      5.1614      6.1042      7.2598      8.5844    
  8.4351      9.7068      10.928      11.957      12.615      12.874      12.875      12.810      12.776      12.700    
  12.396      11.708      10.639      9.3639      8.0485      6.8149      5.7513      4.9030      4.2796      3.8693    
  3.6545      3.6212      3.7623      4.0783      4.5761      5.2656      6.1522      7.2232      7.0908      8.1696    
  9.2937      10.375      11.323      12.042      12.490      12.723      12.823      12.800      12.581      12.059    
  11.204      10.107      8.8928      7.6784      6.5652      5.6201      4.8735      4.3287      3.9743      3.7952    
  3.7794      3.9209      4.2205      4.6842      5.3194      6.1269      6.0295      6.8702      7.8044      8.7760    
  9.7189      10.571      11.287      11.829      12.195      12.387      12.375      12.100      11.526      10.689    
  9.6630      8.5506      7.4562      6.4633      5.6233      4.9587      4.4714      4.1519      3.9873      3.9673    
  4.0873      4.3491      4.7584      5.3196      5.2661      5.8658      6.5751      7.3630      8.1883      9.0055    
  9.7729      10.457      11.032      11.469      11.728      11.761      11.531      11.025      10.277      9.3616    
  8.3729      7.4019      6.5179      5.7635      5.1584      4.7054      4.3975      4.2242      4.1770      4.2536    
  4.4575      4.7944      4.7903      5.1619      5.6456      6.2240      6.8740      7.5690      8.2811      8.9834    
  9.6488      10.247      10.737      11.069      11.187      11.051      10.654      10.028      9.2432      8.3827    
  7.5254      6.7315      6.0395      5.4689      5.0249      4.7033      4.4962      4.3984      4.4110      4.5398    
  4.5912      4.7463      5.0133      5.3822      5.8386      6.3679      6.9565      7.5898      8.2503      8.9144    
  9.5480      10.104      10.524      10.748      10.734      10.469      9.9808      9.3296      8.5884      7.8270    
  7.1002      6.4451      5.8822      5.4197      5.0569      4.7904      4.6199      4.5508      4.6649      4.6088    
  4.6649      4.8291      5.0915      5.4421      5.8745      6.3850      6.9684      7.6130      8.2967      8.9837    
  9.6226      10.150      10.500      10.623      10.500      10.150      9.6226      8.9837      8.2967      7.6130    
  6.9683      6.3849      5.8744      5.4420      5.0914      4.8290      5.0134      4.7464      4.5913      4.5509    
  4.6201      4.7905      5.0569      5.4197      5.8823      6.4451      7.1002      7.8269      8.5884      9.3296    
  9.9808      10.469      10.734      10.748      10.524      10.104      9.5480      8.9144      8.2504      7.5898    
  6.9564      6.3679      5.8385      5.3821      5.6456      5.1620      4.7905      4.5400      4.4112      4.3986    
  4.4963      4.7033      5.0249      5.4689      6.0395      6.7315      7.5254      8.3827      9.2432      10.028    
  10.654      11.051      11.187      11.069      10.737      10.247      9.6488      8.9834      8.2811      7.5690    
  6.8740      6.2239      6.5751      5.8659      5.2662      4.7946      4.4577      4.2537      4.1771      4.2243    
  4.3975      4.7054      5.1584      5.7636      6.5179      7.4019      8.3730      9.3616      10.277      11.025    
  11.531      11.761      11.727      11.469      11.032      10.458      9.7729      9.0055      8.1883      7.3631    
  7.8045      6.8703      6.0296      5.3198      4.7585      4.3492      4.0874      3.9674      3.9873      4.1518    
  4.4714      4.9588      5.6233      6.4633      7.4562      8.5506      9.6630      10.689      11.526      12.100    
  12.375      12.387      12.195      11.829      11.287      10.571      9.7189      8.7761      9.2938      8.1697    
  7.0909      6.1271      5.3196      4.6843      4.2204      3.9209      3.7794      3.7952      3.9743      4.3287    
  4.8736      5.6201      6.5652      7.6784      8.8928      10.107      11.204      12.059      12.581      12.800    
  12.823      12.723      12.490      12.042      11.323      10.375      10.928      9.7069      8.4351      7.2233    
  6.1524      5.2658      4.5761      4.0782      3.7623      3.6212      3.6545      3.8692      4.2796      4.9031    
  5.7512      6.8148      8.0486      9.3640      10.639      11.708      12.396      12.700      12.776      12.810    
  12.875      12.874      12.615      11.957      12.409      11.340      9.9886      8.5844      7.2598      6.1044    
  5.1614      4.4397      3.9297      3.6186      3.4983      3.5687      3.8383      4.3238      5.0447      6.0096    
  7.1969      8.5384      9.9187      11.158      11.980      12.280      12.215      12.101      12.200      12.543    
  12.903      12.936      12.995      12.653      11.582      10.123      8.6098      7.1992      5.9863      5.0128    
  4.2827      3.7821      3.4957      3.4146      3.5393      3.8808      4.4586      5.2927      6.3837      7.6898    
  9.1131      10.490      11.481      11.809      11.521      10.989      10.702      10.971      11.732      12.579    
  11.990      12.837      12.701      11.646      10.106      8.5125      7.0466      5.8059      4.8286      4.1135    
  3.6426      3.3985      3.3723      3.5662      3.9943      4.6793      5.6381      6.8571      8.2672      9.7330    
  10.947      11.452      11.067      10.059      9.0442      8.6704      9.2482      10.563      9.2539      11.288    
  12.545      12.589      11.543      9.9445      8.3017      6.8130      5.5747      4.6198      3.9413      3.5178    
  3.3307      3.3724      3.6478      4.1751      4.9784      6.0677      7.4088      8.8996      10.328      11.181    
  10.999      9.7644      8.0056      6.5847      6.2654      7.2939      5.4537      8.0697      10.644      12.216    
  12.360      11.294      9.6537      7.9933      6.5139      5.3071      4.3986      3.7755      3.4138      3.2954    
  3.4149      3.7814      4.4172      5.3455      6.5645      8.0148      9.5563      10.818      11.149      10.163    
  8.0594      5.6380      3.9712      3.8710      1.9140      4.0780      7.2575      10.208      11.926      12.054    
  10.922      9.2553      7.6077      6.1681      5.0190      4.1774      3.6247      3.3357      3.2942      3.4987    
  3.9631      4.7126      5.7666      7.1078      8.6489      10.191      11.167      10.890      9.1027      6.2403    
  3.3510      1.6491      4.9678      5.4298      7.2574      9.6609      11.636      12.459      11.983      10.608    
  8.9641      7.4017      6.0585      4.9969      4.2243      3.7211      3.4648      3.4428      3.6547      4.1141    
  4.8440      5.8618      7.1500      8.6273      10.126      11.198      11.258      10.088      8.0562      6.0288    
  5.1316      4.1909      4.9120      6.9815      9.4877      11.398      12.055      11.421      9.9818      8.3692    
  6.8754      5.6232      4.6613      3.9876      3.5790      3.4146      3.4852      3.7956      4.3632      5.2124    
  6.3539      7.7547      9.3107      10.797      11.645      11.297      9.6638      7.2803      6.9815      4.9120    
  4.1910      5.1317      7.2802      9.6637      11.297      11.645      10.797      9.3105      7.7546      6.3540    
  5.2124      4.3631      3.7956      3.4853      3.4146      3.5789      3.9876      4.6614      5.6232      6.8754    
  8.3693      9.9820      11.421      12.055      11.398      9.4878      9.6610      7.2574      5.4299      4.9680    
  6.0289      8.0560      10.088      11.259      11.198      10.126      8.6271      7.1500      5.8619      4.8440    