<?xml version="1.0" encoding="ISO-8859-1"?>
<modeling>
 <generator>
  <i name="program" type="string">vasp </i>
  <i name="version" type="string">5.4.4.18Apr17-6-g9f103f2a35  </i>
  <i name="subversion" type="string">(build Dec 09 2018 21:25:21) complex            parallel </i>
  <i name="platform" type="string">IFC18.0.1.163_CrayMPICH7.7.0_MKL18.0.1.163 </i>
  <i name="date" type="string">2019 03 20 </i>
  <i name="time" type="string">09:17:11 </i>
 </generator>
 <incar>
  <i type="string" name="PREC">normal</i>
  <i type="int" name="IBRION">     2</i>
  <i name="EDIFF">      0.00040000</i>
  <i name="EDIFFG">     -0.01000000</i>
  <i type="int" name="NSW">    15</i>
  <i type="int" name="ISIF">     3</i>
  <i name="ENCUT">    250.00000000</i>
  <i type="int" name="NBANDS">     8</i>
  <i type="logical" name="LREAL"> F  </i>
  <i type="int" name="ISMEAR">     0</i>
  <i name="SIGMA">      0.20000000</i>
  <v type="int" name="KPOINT_BSE">    -1     0     0     0</v>
 </incar>
 <structure name="primitive_cell" >
  <crystal>
   <varray name="basis" >
    <v>      -2.45000000       2.45000000       1.27400000 </v>
    <v>       2.45000000      -2.45000000       1.27400000 </v>
    <v>       2.45000000       2.45000000      -1.27400000 </v>
   </varray>
   <i name="volume">     30.58874000 </i>
   <varray name="rec_basis" >
    <v>       0.00000000       0.20408163       0.39246468 </v>
    <v>       0.20408163       0.00000000       0.39246468 </v>
    <v>       0.20408163       0.20408163      -0.00000000 </v>
   </varray>
  </crystal>
  <varray name="positions" >
   <v>       0.25000000      -0.25000000      -0.50000000 </v>
   <v>       0.00000000       0.00000000       0.00000000 </v>
  </varray>
 </structure>
 <varray name="primitive_index" >
  <v type="int" >        1 </v>
  <v type="int" >        2 </v>
 </varray>
 <kpoints>
  <generation param="Monkhorst-Pack">
   <v type="int" name="divisions">      10       10       10 </v>
   <v name="usershift">      0.00000000       0.00000000       0.00000000 </v>
   <v name="genvec1">      0.10000000       0.00000000      -0.00000000 </v>
   <v name="genvec2">      0.00000000       0.10000000      -0.00000000 </v>
   <v name="genvec3">      0.00000000      -0.00000000       0.10000000 </v>
   <v name="shift">      0.50000000       0.50000000       0.50000000 </v>
  </generation>
  <varray name="kpointlist" >
   <v>       0.05000000       0.05000000       0.05000000 </v>
   <v>       0.15000000       0.05000000       0.05000000 </v>
   <v>       0.25000000       0.05000000       0.05000000 </v>
   <v>       0.35000000       0.05000000       0.05000000 </v>
   <v>       0.45000000       0.05000000       0.05000000 </v>
   <v>      -0.05000000       0.05000000       0.05000000 </v>
   <v>       0.15000000       0.15000000       0.05000000 </v>
   <v>       0.25000000       0.15000000       0.05000000 </v>
   <v>       0.35000000       0.15000000       0.05000000 </v>
   <v>       0.45000000       0.15000000       0.05000000 </v>
   <v>      -0.45000000       0.15000000       0.05000000 </v>
   <v>      -0.35000000       0.15000000       0.05000000 </v>
   <v>      -0.25000000       0.15000000       0.05000000 </v>
   <v>      -0.15000000       0.15000000       0.05000000 </v>
   <v>      -0.05000000       0.15000000       0.05000000 </v>
   <v>       0.25000000       0.25000000       0.05000000 </v>
   <v>       0.35000000       0.25000000       0.05000000 </v>
   <v>       0.45000000       0.25000000       0.05000000 </v>
   <v>      -0.45000000       0.25000000       0.05000000 </v>
   <v>      -0.35000000       0.25000000       0.05000000 </v>
   <v>      -0.25000000       0.25000000       0.05000000 </v>
   <v>      -0.15000000       0.25000000       0.05000000 </v>
   <v>      -0.05000000       0.25000000       0.05000000 </v>
   <v>       0.35000000       0.35000000       0.05000000 </v>
   <v>       0.45000000       0.35000000       0.05000000 </v>
   <v>      -0.45000000       0.35000000       0.05000000 </v>
   <v>      -0.35000000       0.35000000       0.05000000 </v>
   <v>      -0.25000000       0.35000000       0.05000000 </v>
   <v>      -0.15000000       0.35000000       0.05000000 </v>
   <v>      -0.05000000       0.35000000       0.05000000 </v>
   <v>       0.45000000       0.45000000       0.05000000 </v>
   <v>      -0.45000000       0.45000000       0.05000000 </v>
   <v>      -0.35000000       0.45000000       0.05000000 </v>
   <v>      -0.25000000       0.45000000       0.05000000 </v>
   <v>      -0.15000000       0.45000000       0.05000000 </v>
   <v>      -0.05000000       0.45000000       0.05000000 </v>
   <v>      -0.45000000      -0.45000000       0.05000000 </v>
   <v>      -0.35000000      -0.45000000       0.05000000 </v>
   <v>      -0.25000000      -0.45000000       0.05000000 </v>
   <v>      -0.15000000      -0.45000000       0.05000000 </v>
   <v>      -0.05000000      -0.45000000       0.05000000 </v>
   <v>      -0.35000000      -0.35000000       0.05000000 </v>
   <v>      -0.25000000      -0.35000000       0.05000000 </v>
   <v>      -0.15000000      -0.35000000       0.05000000 </v>
   <v>      -0.05000000      -0.35000000       0.05000000 </v>
   <v>      -0.25000000      -0.25000000       0.05000000 </v>
   <v>      -0.15000000      -0.25000000       0.05000000 </v>
   <v>      -0.05000000      -0.25000000       0.05000000 </v>
   <v>      -0.15000000      -0.15000000       0.05000000 </v>
   <v>      -0.05000000      -0.15000000       0.05000000 </v>
   <v>      -0.05000000      -0.05000000       0.05000000 </v>
   <v>       0.15000000       0.15000000       0.15000000 </v>
   <v>       0.25000000       0.15000000       0.15000000 </v>
   <v>       0.35000000       0.15000000       0.15000000 </v>
   <v>      -0.15000000       0.15000000       0.15000000 </v>
   <v>       0.25000000       0.25000000       0.15000000 </v>
   <v>       0.35000000       0.25000000       0.15000000 </v>
   <v>       0.45000000       0.25000000       0.15000000 </v>
   <v>      -0.25000000       0.25000000       0.15000000 </v>
   <v>      -0.15000000       0.25000000       0.15000000 </v>
   <v>       0.35000000       0.35000000       0.15000000 </v>
   <v>      -0.35000000       0.35000000       0.15000000 </v>
   <v>      -0.25000000       0.35000000       0.15000000 </v>
   <v>      -0.15000000       0.35000000       0.15000000 </v>
   <v>      -0.45000000       0.45000000       0.15000000 </v>
   <v>      -0.35000000       0.45000000       0.15000000 </v>
   <v>      -0.25000000       0.45000000       0.15000000 </v>
   <v>      -0.15000000       0.45000000       0.15000000 </v>
   <v>      -0.45000000      -0.45000000       0.15000000 </v>
   <v>      -0.35000000      -0.45000000       0.15000000 </v>
   <v>      -0.25000000      -0.45000000       0.15000000 </v>
   <v>      -0.15000000      -0.45000000       0.15000000 </v>
   <v>      -0.35000000      -0.35000000       0.15000000 </v>
   <v>      -0.25000000      -0.35000000       0.15000000 </v>
   <v>      -0.15000000      -0.35000000       0.15000000 </v>
   <v>      -0.25000000      -0.25000000       0.15000000 </v>
   <v>      -0.15000000      -0.25000000       0.15000000 </v>
   <v>      -0.15000000      -0.15000000       0.15000000 </v>
   <v>       0.25000000       0.25000000       0.25000000 </v>
   <v>      -0.25000000       0.25000000       0.25000000 </v>
   <v>      -0.35000000       0.35000000       0.25000000 </v>
   <v>      -0.25000000       0.35000000       0.25000000 </v>
   <v>      -0.45000000       0.45000000       0.25000000 </v>
   <v>      -0.35000000       0.45000000       0.25000000 </v>
   <v>      -0.25000000       0.45000000       0.25000000 </v>
   <v>      -0.45000000      -0.45000000       0.25000000 </v>
   <v>      -0.35000000      -0.45000000       0.25000000 </v>
   <v>      -0.25000000      -0.45000000       0.25000000 </v>
   <v>      -0.35000000      -0.35000000       0.25000000 </v>
   <v>      -0.25000000      -0.35000000       0.25000000 </v>
   <v>      -0.25000000      -0.25000000       0.25000000 </v>
   <v>      -0.35000000       0.35000000       0.35000000 </v>
   <v>      -0.45000000       0.45000000       0.35000000 </v>
   <v>      -0.35000000       0.45000000       0.35000000 </v>
   <v>      -0.45000000      -0.45000000       0.35000000 </v>
   <v>      -0.35000000      -0.45000000       0.35000000 </v>
   <v>      -0.35000000      -0.35000000       0.35000000 </v>
   <v>      -0.45000000       0.45000000       0.45000000 </v>
   <v>      -0.45000000      -0.45000000       0.45000000 </v>
  </varray>
  <varray name="weights" >
   <v>       0.00800000 </v>
   <v>       0.01600000 </v>
   <v>       0.01600000 </v>
   <v>       0.01600000 </v>
   <v>       0.00800000 </v>
   <v>       0.00400000 </v>
   <v>       0.00800000 </v>
   <v>       0.01600000 </v>
   <v>       0.01600000 </v>
   <v>       0.01600000 </v>
   <v>       0.01600000 </v>
   <v>       0.01600000 </v>
   <v>       0.00800000 </v>
   <v>       0.00800000 </v>
   <v>       0.00800000 </v>
   <v>       0.00800000 </v>
   <v>       0.01600000 </v>
   <v>       0.01600000 </v>
   <v>       0.01600000 </v>
   <v>       0.00800000 </v>
   <v>       0.00800000 </v>
   <v>       0.01600000 </v>
   <v>       0.00800000 </v>
   <v>       0.00800000 </v>
   <v>       0.01600000 </v>
   <v>       0.00800000 </v>
   <v>       0.00800000 </v>
   <v>       0.01600000 </v>
   <v>       0.01600000 </v>
   <v>       0.00800000 </v>
   <v>       0.00400000 </v>
   <v>       0.00800000 </v>
   <v>       0.01600000 </v>
   <v>       0.01600000 </v>
   <v>       0.01600000 </v>
   <v>       0.00800000 </v>
   <v>       0.00800000 </v>
   <v>       0.01600000 </v>
   <v>       0.01600000 </v>
   <v>       0.01600000 </v>
   <v>       0.00800000 </v>
   <v>       0.00800000 </v>
   <v>       0.01600000 </v>
   <v>       0.01600000 </v>
   <v>       0.00800000 </v>
   <v>       0.00800000 </v>
   <v>       0.01600000 </v>
   <v>       0.00800000 </v>
   <v>       0.00800000 </v>
   <v>       0.00800000 </v>
   <v>       0.00200000 </v>
   <v>       0.00800000 </v>
   <v>       0.01600000 </v>
   <v>       0.00800000 </v>
   <v>       0.00400000 </v>
   <v>       0.00800000 </v>
   <v>       0.01600000 </v>
   <v>       0.00800000 </v>
   <v>       0.00800000 </v>
   <v>       0.00800000 </v>
   <v>       0.00400000 </v>
   <v>       0.00800000 </v>
   <v>       0.01600000 </v>
   <v>       0.00800000 </v>
   <v>       0.00800000 </v>
   <v>       0.01600000 </v>
   <v>       0.01600000 </v>
   <v>       0.00800000 </v>
   <v>       0.00800000 </v>
   <v>       0.01600000 </v>
   <v>       0.01600000 </v>
   <v>       0.00800000 </v>
   <v>       0.00800000 </v>
   <v>       0.01600000 </v>
   <v>       0.00800000 </v>
   <v>       0.00800000 </v>
   <v>       0.00800000 </v>
   <v>       0.00200000 </v>
   <v>       0.00200000 </v>
   <v>       0.00400000 </v>
   <v>       0.00800000 </v>
   <v>       0.00800000 </v>
   <v>       0.00800000 </v>
   <v>       0.01600000 </v>
   <v>       0.00800000 </v>
   <v>       0.00800000 </v>
   <v>       0.01600000 </v>
   <v>       0.00800000 </v>
   <v>       0.00800000 </v>
   <v>       0.00800000 </v>
   <v>       0.00200000 </v>
   <v>       0.00400000 </v>
   <v>       0.00800000 </v>
   <v>       0.00800000 </v>
   <v>       0.00800000 </v>
   <v>       0.00800000 </v>
   <v>       0.00200000 </v>
   <v>       0.00400000 </v>
   <v>       0.00200000 </v>
  </varray>
 </kpoints>
 <parameters>
  <separator name="general" >
   <i type="string" name="SYSTEM">unknown system</i>
   <i type="logical" name="LCOMPAT"> F  </i>
  </separator>
  <separator name="electronic" >
   <i type="string" name="PREC">normal</i>
   <i name="ENMAX">    250.00000000</i>
   <i name="ENAUG">    322.06900000</i>
   <i name="EDIFF">      0.00040000</i>
   <i type="int" name="IALGO">    38</i>
   <i type="int" name="IWAVPR">    11</i>
   <i type="int" name="NBANDS">     8</i>
   <i name="NELECT">      8.00000000</i>
   <i type="int" name="TURBO">     0</i>
   <i type="int" name="IRESTART">     0</i>
   <i type="int" name="NREBOOT">     0</i>
   <i type="int" name="NMIN">     0</i>
   <i name="EREF">      0.00000000</i>
   <separator name="electronic smearing" >
    <i type="int" name="ISMEAR">     0</i>
    <i name="SIGMA">      0.20000000</i>
    <i name="KSPACING">      0.50000000</i>
    <i type="logical" name="KGAMMA"> T  </i>
   </separator>
   <separator name="electronic projectors" >
    <i type="logical" name="LREAL"> F  </i>
    <v name="ROPT">      0.00000000</v>
    <i type="int" name="LMAXPAW">  -100</i>
    <i type="int" name="LMAXMIX">     2</i>
    <i type="logical" name="NLSPLINE"> F  </i>
   </separator>
   <separator name="electronic startup" >
    <i type="int" name="ISTART">     0</i>
    <i type="int" name="ICHARG">     2</i>
    <i type="int" name="INIWAV">     1</i>
   </separator>
   <separator name="electronic spin" >
    <i type="int" name="ISPIN">     1</i>
    <i type="logical" name="LNONCOLLINEAR"> F  </i>
    <v name="MAGMOM">      1.00000000      1.00000000</v>
    <i name="NUPDOWN">     -1.00000000</i>
    <i type="logical" name="LSORBIT"> F  </i>
    <v name="SAXIS">      0.00000000      0.00000000      1.00000000</v>
    <i type="logical" name="LSPIRAL"> F  </i>
    <v name="QSPIRAL">      0.00000000      0.00000000      0.00000000</v>
    <i type="logical" name="LZEROZ"> F  </i>
   </separator>
   <separator name="electronic exchange-correlation" >
    <i type="logical" name="LASPH"> F  </i>
    <i type="logical" name="LMETAGGA"> F  </i>
   </separator>
   <separator name="electronic convergence" >
    <i type="int" name="NELM">    60</i>
    <i type="int" name="NELMDL">    -5</i>
    <i type="int" name="NELMIN">     2</i>
    <i name="ENINI">    250.00000000</i>
    <separator name="electronic convergence detail" >
     <i type="logical" name="LDIAG"> T  </i>
     <i type="logical" name="LSUBROT"> F  </i>
     <i name="WEIMIN">      0.00100000</i>
     <i name="EBREAK">      0.00001250</i>
     <i name="DEPER">      0.30000000</i>
     <i type="int" name="NRMM">     4</i>
     <i name="TIME">      0.40000000</i>
    </separator>
   </separator>
   <separator name="electronic mixer" >
    <i name="AMIX">      0.40000000</i>
    <i name="BMIX">      1.00000000</i>
    <i name="AMIN">      0.10000000</i>
    <i name="AMIX_MAG">      1.60000000</i>
    <i name="BMIX_MAG">      1.00000000</i>
    <separator name="electronic mixer details" >
     <i type="int" name="IMIX">     4</i>
     <i type="logical" name="MIXFIRST"> F  </i>
     <i type="int" name="MAXMIX">   -45</i>
     <i name="WC">    100.00000000</i>
     <i type="int" name="INIMIX">     1</i>
     <i type="int" name="MIXPRE">     1</i>
     <i type="int" name="MREMOVE">     5</i>
    </separator>
   </separator>
   <separator name="electronic dipolcorrection" >
    <i type="logical" name="LDIPOL"> F  </i>
    <i type="logical" name="LMONO"> F  </i>
    <i type="int" name="IDIPOL">     0</i>
    <i name="EPSILON">      1.00000000</i>
    <v name="DIPOL">   -100.00000000   -100.00000000   -100.00000000</v>
    <i name="EFIELD">      0.00000000</i>
   </separator>
  </separator>
  <separator name="grids" >
   <i type="int" name="NGX">    14</i>
   <i type="int" name="NGY">    14</i>
   <i type="int" name="NGZ">    14</i>
   <i type="int" name="NGXF">    28</i>
   <i type="int" name="NGYF">    28</i>
   <i type="int" name="NGZF">    28</i>
   <i type="logical" name="ADDGRID"> F  </i>
  </separator>
  <separator name="ionic" >
   <i type="int" name="NSW">    15</i>
   <i type="int" name="IBRION">     2</i>
   <i type="int" name="MDALGO">     0</i>
   <i type="int" name="ISIF">     3</i>
   <i name="PSTRESS">      0.00000000</i>
   <i name="EDIFFG">     -0.01000000</i>
   <i type="int" name="NFREE">     1</i>
   <i name="POTIM">      0.50000000</i>
   <i name="SMASS">     -3.00000000</i>
   <i name="SCALEE">      1.00000000</i>
  </separator>
  <separator name="ionic md" >
   <i name="TEBEG">      0.00010000</i>
   <i name="TEEND">      0.00010000</i>
   <i type="int" name="NBLOCK">     1</i>
   <i type="int" name="KBLOCK">    15</i>
   <i type="int" name="NPACO">   256</i>
   <i name="APACO">     16.00000000</i>
  </separator>
  <separator name="symmetry" >
   <i type="int" name="ISYM">     2</i>
   <i name="SYMPREC">      0.00001000</i>
  </separator>
  <separator name="dos" >
   <i type="int" name="LORBIT">     0</i>
   <v name="RWIGS">     -1.00000000</v>
   <i type="int" name="NEDOS">   301</i>
   <i name="EMIN">     10.00000000</i>
   <i name="EMAX">    -10.00000000</i>
   <i name="EFERMI">      0.00000000</i>
  </separator>
  <separator name="writing" >
   <i type="int" name="NWRITE">     2</i>
   <i type="logical" name="LWAVE"> T  </i>
   <i type="logical" name="LDOWNSAMPLE"> F  </i>
   <i type="logical" name="LCHARG"> T  </i>
   <i type="logical" name="LPARD"> F  </i>
   <i type="logical" name="LVTOT"> F  </i>
   <i type="logical" name="LVHAR"> F  </i>
   <i type="logical" name="LELF"> F  </i>
   <i type="logical" name="LOPTICS"> F  </i>
   <v name="STM">      0.00000000      0.00000000      0.00000000      0.00000000      0.00000000      0.00000000      0.00000000</v>
  </separator>
  <separator name="performance" >
   <i type="int" name="NPAR">     8</i>
   <i type="int" name="NSIM">     4</i>
   <i type="int" name="NBLK">    -1</i>
   <i type="logical" name="LPLANE"> T  </i>
   <i type="logical" name="LSCALAPACK"> T  </i>
   <i type="logical" name="LSCAAWARE"> F  </i>
   <i type="logical" name="LSCALU"> F  </i>
   <i type="logical" name="LASYNC"> F  </i>
   <i type="logical" name="LORBITALREAL"> F  </i>
  </separator>
  <separator name="miscellaneous" >
   <i type="int" name="IDIOT">     3</i>
   <i type="int" name="ISPECIAL">     0</i>
   <i type="logical" name="LMUSIC"> F  </i>
   <v name="POMASS">     28.08500000</v>
   <v name="DARWINR">      0.00000000</v>
   <v name="DARWINV">      1.00000000</v>
   <i type="logical" name="LCORR"> T  </i>
  </separator>
  <i type="logical" name="GGA_COMPAT"> T  </i>
  <i type="logical" name="LBERRY"> F  </i>
  <i type="int" name="ICORELEVEL">     0</i>
  <i type="logical" name="LDAU"> F  </i>
  <i type="int" name="I_CONSTRAINED_M">     0</i>
  <separator name="electronic exchange-correlation" >
   <i type="string" name="GGA">--</i>
   <i type="int" name="VOSKOWN">     0</i>
   <i type="logical" name="LHFCALC"> F  </i>
   <i type="string" name="PRECFOCK"></i>
   <i type="logical" name="LSYMGRAD"> F  </i>
   <i type="logical" name="LHFONE"> F  </i>
   <i type="logical" name="LRHFCALC"> F  </i>
   <i type="logical" name="LTHOMAS"> F  </i>
   <i type="logical" name="LMODELHF"> F  </i>
   <i name="ENCUT4O">     -1.00000000</i>
   <i type="int" name="EXXOEP">     0</i>
   <i type="int" name="FOURORBIT">     0</i>
   <i name="AEXX">      0.00000000</i>
   <i name="HFALPHA">      0.00000000</i>
   <i name="MCALPHA">      0.00000000</i>
   <i name="ALDAX">      1.00000000</i>
   <i name="AGGAX">      1.00000000</i>
   <i name="ALDAC">      1.00000000</i>
   <i name="AGGAC">      1.00000000</i>
   <i type="int" name="NKREDX">     1</i>
   <i type="int" name="NKREDY">     1</i>
   <i type="int" name="NKREDZ">     1</i>
   <i type="logical" name="SHIFTRED"> F  </i>
   <i type="logical" name="ODDONLY"> F  </i>
   <i type="logical" name="EVENONLY"> F  </i>
   <i type="int" name="LMAXFOCK">     0</i>
   <i type="int" name="NMAXFOCKAE">     0</i>
   <i type="logical" name="LFOCKAEDFT"> F  </i>
   <i name="HFSCREEN">      0.00000000</i>
   <i name="HFSCREENC">      0.00000000</i>
   <i type="int" name="NBANDSGWLOW">     0</i>
  </separator>
  <separator name="vdW DFT" >
   <i type="logical" name="LUSE_VDW"> F  </i>
   <i name="Zab_VDW">     -0.84910000</i>
   <i name="PARAM1">      0.12340000</i>
   <i name="PARAM2">      1.00000000</i>
   <i name="PARAM3">      0.00000000</i>
  </separator>
  <separator name="model GW" >
   <i type="int" name="MODEL_GW">     0</i>
   <i name="MODEL_EPS0">      9.17662200</i>
   <i name="MODEL_ALPHA">      1.00000000</i>
  </separator>
  <separator name="linear response parameters" >
   <i type="logical" name="LEPSILON"> F  </i>
   <i type="logical" name="LRPA"> F  </i>
   <i type="logical" name="LNABLA"> F  </i>
   <i type="logical" name="LVEL"> F  </i>
   <i type="int" name="KINTER">     0</i>
   <i name="CSHIFT">      0.10000000</i>
   <i name="OMEGAMAX">     -1.00000000</i>
   <i name="DEG_THRESHOLD">      0.00200000</i>
   <i name="RTIME">     -0.10000000</i>
   <i name="WPLASMAI">      0.00000000</i>
   <v name="DFIELD">      0.00000000      0.00000000      0.00000000</v>
   <v name="WPLASMA">      0.00000000      0.00000000      0.00000000      0.00000000      0.00000000      0.00000000      0.00000000      0.00000000      0.00000000</v>
  </separator>
  <separator name="orbital magnetization" >
   <i type="logical" name="NUCIND"> F  </i>
   <v name="MAGPOS">      0.00000000      0.00000000      0.00000000</v>
   <i type="logical" name="LNICSALL"> T  </i>
   <i type="logical" name="ORBITALMAG"> F  </i>
   <i type="logical" name="LMAGBLOCH"> F  </i>
   <i type="logical" name="LCHIMAG"> F  </i>
   <i type="logical" name="LGAUGE"> T  </i>
   <i type="int" name="MAGATOM">     0</i>
   <v name="MAGDIPOL">      0.00000000      0.00000000      0.00000000</v>
   <v name="AVECCONST">      0.00000000      0.00000000      0.00000000</v>
  </separator>
  <separator name="response functions" >
   <i type="logical" name="LADDER"> F  </i>
   <i type="logical" name="LRPAFORCE"> F  </i>
   <i type="logical" name="LFXC"> F  </i>
   <i type="logical" name="LHARTREE"> T  </i>
   <i type="int" name="IBSE">     0</i>
   <v type="int" name="KPOINT">    -1     0     0     0</v>
   <i type="logical" name="LTCTE"> F  </i>
   <i type="logical" name="LTETE"> F  </i>
   <i type="logical" name="LTRIPLET"> F  </i>
   <i type="logical" name="LFXCEPS"> F  </i>
   <i type="logical" name="LFXHEG"> F  </i>
   <i type="int" name="NATURALO">     2</i>
   <i type="logical" name="L2ORDER"> F  </i>
   <i type="logical" name="LMP2LT"> F  </i>
   <i type="logical" name="LUSEW"> F  </i>
   <i name="ENCUTGW">     -2.00000000</i>
   <i name="ENCUTGWSOFT">     -2.00000000</i>
   <i name="ENCUTLF">     -1.00000000</i>
   <i type="int" name="LMAXMP2">    -1</i>
   <i name="SCISSOR">      0.00000000</i>
   <i type="int" name="NOMEGA">     0</i>
   <i type="int" name="NOMEGAR">     0</i>
   <i type="int" name="NBANDSGW">    -1</i>
   <i type="int" name="NBANDSO">    -1</i>
   <i type="int" name="NBANDSV">    -1</i>
   <i type="int" name="NELM">     1</i>
   <i type="int" name="NELMHF">     1</i>
   <i type="int" name="DIM">     3</i>
   <i type="int" name="ANTIRES">     0</i>
   <i name="OMEGAMAX">    -30.00000000</i>
   <i name="OMEGAMIN">    -30.00000000</i>
   <i name="OMEGATL">   -200.00000000</i>
   <i type="int" name="OMEGAGRID">   140</i>
   <i name="CSHIFT">     -0.10000000</i>
   <i type="logical" name="SELFENERGY"> F  </i>
   <i type="logical" name="LSPECTRAL"> F  </i>
   <i type="logical" name="LSPECTRALGW"> F  </i>
   <i type="logical" name="LSINGLES"> F  </i>
   <i type="logical" name="LFERMIGW"> F  </i>
   <i type="logical" name="ODDONLYGW"> F  </i>
   <i type="logical" name="EVENONLYGW"> F  </i>
   <i type="int" name="NKREDLFX">     1</i>
   <i type="int" name="NKREDLFY">     1</i>
   <i type="int" name="NKREDLFZ">     1</i>
   <i type="int" name="MAXMEM">  2800</i>
   <i type="int" name="TELESCOPE">     0</i>
   <i type="int" name="TAUPAR">     1</i>
   <i type="int" name="OMEGAPAR">    -1</i>
   <i name="LAMBDA">      1.00000000</i>
  </separator>
  <separator name="External order field" >
   <i name="OFIELD_KAPPA">      0.00000000</i>
   <v name="OFIELD_K">      0.00000000      0.00000000      0.00000000</v>
   <i name="OFIELD_Q6_NEAR">      0.00000000</i>
   <i name="OFIELD_Q6_FAR">      0.00000000</i>
   <i name="OFIELD_A">      0.00000000</i>
  </separator>
 </parameters>
 <atominfo>
  <atoms>       2 </atoms>
  <types>       1 </types>
  <array name="atoms" >
   <dimension dim="1">ion</dimension>
   <field type="string">element</field>
   <field type="int">atomtype</field>
   <set>
    <rc><c>Si</c><c>   1</c></rc>
    <rc><c>Si</c><c>   1</c></rc>
   </set>
  </array>
  <array name="atomtypes" >
   <dimension dim="1">type</dimension>
   <field type="int">atomspertype</field>
   <field type="string">element</field>
   <field>mass</field>
   <field>valence</field>
   <field type="string">pseudopotential</field>
   <set>
    <rc><c>   2</c><c>Si</c><c>     28.08500000</c><c>      4.00000000</c><c> PAW_PBE Si 05Jan2001                   </c></rc>
   </set>
  </array>
 </atominfo>
 <structure name="initialpos" >
  <crystal>
   <varray name="basis" >
    <v>      -2.45000000       2.45000000       1.27400000 </v>
    <v>       2.45000000      -2.45000000       1.27400000 </v>
    <v>       2.45000000       2.45000000      -1.27400000 </v>
   </varray>
   <i name="volume">     30.58874000 </i>
   <varray name="rec_basis" >
    <v>       0.00000000       0.20408163       0.39246468 </v>
    <v>       0.20408163       0.00000000       0.39246468 </v>
    <v>       0.20408163       0.20408163      -0.00000000 </v>
   </varray>
  </crystal>
  <varray name="positions" >
   <v>       0.25000000       0.75000000       0.50000000 </v>
   <v>       0.00000000       0.00000000       0.00000000 </v>
  </varray>
 </structure>
 <calculation>
  <scstep>
   <time name="dav">    0.80    0.81</time>
   <time name="total">    0.84    0.86</time>
   <energy>
    <i name="alphaZ">      4.40202223 </i>
    <i name="ewald">   -265.18101312 </i>
    <i name="hartreedc">     -2.30415367 </i>
    <i name="XCdc">    -17.81545108 </i>
    <i name="pawpsdc">     65.95520812 </i>
    <i name="pawaedc">    -30.76852678 </i>
    <i name="eentropy">     -0.01310204 </i>
    <i name="bandstr">     38.16540805 </i>
    <i name="atom">    206.12349923 </i>
    <i name="e_fr_energy">     -1.43610906 </i>
    <i name="e_wo_entrp">     -1.42300702 </i>
    <i name="e_0_energy">     -1.42955804 </i>
   </energy>
  </scstep>
  <scstep>
   <time name="dav">    1.20    1.21</time>
   <time name="total">    1.20    1.21</time>
   <energy>
    <i name="e_fr_energy">    -10.14703265 </i>
    <i name="e_wo_entrp">    -10.12957989 </i>
    <i name="e_0_energy">    -10.13830627 </i>
   </energy>
  </scstep>
  <scstep>
   <time name="dav">    0.98    0.99</time>
   <time name="total">    0.98    1.00</time>
   <energy>
    <i name="e_fr_energy">    -10.23584358 </i>
    <i name="e_wo_entrp">    -10.21910185 </i>
    <i name="e_0_energy">    -10.22747272 </i>
   </energy>
  </scstep>
  <scstep>
   <time name="dav">    1.33    1.34</time>
   <time name="total">    1.34    1.35</time>
   <energy>
    <i name="e_fr_energy">    -10.23608913 </i>
    <i name="e_wo_entrp">    -10.21935601 </i>
    <i name="e_0_energy">    -10.22772257 </i>
   </energy>
  </scstep>
  <scstep>
   <time name="dav">    0.98    0.99</time>
   <time name="total">    1.02    1.03</time>
   <energy>
    <i name="e_fr_energy">    -10.23608919 </i>
    <i name="e_wo_entrp">    -10.21935608 </i>
    <i name="e_0_energy">    -10.22772264 </i>
   </energy>
  </scstep>
  <scstep>
   <time name="dav">    1.06    1.06</time>
   <time name="total">    1.12    1.13</time>
   <energy>
    <i name="e_fr_energy">    -10.23110661 </i>
    <i name="e_wo_entrp">    -10.21439872 </i>
    <i name="e_0_energy">    -10.22275266 </i>
   </energy>
  </scstep>
  <scstep>
   <time name="dav">    0.90    0.90</time>
   <time name="total">    0.96    0.97</time>
   <energy>
    <i name="e_fr_energy">    -10.22701321 </i>
    <i name="e_wo_entrp">    -10.21034074 </i>
    <i name="e_0_energy">    -10.21867698 </i>
   </energy>
  </scstep>
  <scstep>
   <time name="dav">    0.63    0.63</time>
   <time name="total">    0.66    0.67</time>
   <energy>
    <i name="alphaZ">      4.40202223 </i>
    <i name="ewald">   -265.18101312 </i>
    <i name="hartreedc">     -2.50234243 </i>
    <i name="XCdc">    -17.57507095 </i>
    <i name="pawpsdc">     70.75338989 </i>
    <i name="pawaedc">    -35.67140988 </i>
    <i name="eentropy">     -0.01667855 </i>
    <i name="bandstr">     29.44060489 </i>
    <i name="atom">    206.12349923 </i>
    <i name="e_fr_energy">    -10.22699869 </i>
    <i name="e_wo_entrp">    -10.21032014 </i>
    <i name="e_0_energy">    -10.21865941 </i>
   </energy>
  </scstep>
  <structure>
   <crystal>
    <varray name="basis" >
     <v>      -2.45000000       2.45000000       1.27400000 </v>
     <v>       2.45000000      -2.45000000       1.27400000 </v>
     <v>       2.45000000       2.45000000      -1.27400000 </v>
    </varray>
    <i name="volume">     30.58874000 </i>
    <varray name="rec_basis" >
     <v>       0.00000000       0.20408163       0.39246468 </v>
     <v>       0.20408163       0.00000000       0.39246468 </v>
     <v>       0.20408163       0.20408163      -0.00000000 </v>
    </varray>
   </crystal>
   <varray name="positions" >
    <v>       0.25000000       0.75000000       0.50000000 </v>
    <v>       0.00000000       0.00000000       0.00000000 </v>
   </varray>
  </structure>
  <varray name="forces" >
   <v>      -0.00000000       0.00000000      -0.00000000 </v>
   <v>       0.00000000      -0.00000000       0.00000000 </v>
  </varray>
  <varray name="stress" >
   <v>     -12.03394618       0.00000000       0.00000000 </v>
   <v>      -0.00000000     -12.03394618       0.00000000 </v>
   <v>       0.00000000       0.00000000      29.39026083 </v>
  </varray>
  <energy>
   <i name="e_fr_energy">    -10.22699869 </i>
   <i name="e_wo_entrp">    -10.21865941 </i>
   <i name="e_0_energy">     -0.01667855 </i>
  </energy>
  <time name="totalsc">    9.12    9.90</time>
 </calculation>
 <calculation>
  <scstep>
   <time name="dav">    1.25    1.25</time>
   <time name="total">    1.31    1.32</time>
   <energy>
    <i name="alphaZ">      4.39177978 </i>
    <i name="ewald">   -265.05194999 </i>
    <i name="hartreedc">     -2.49367812 </i>
    <i name="XCdc">    -17.58608632 </i>
    <i name="pawpsdc">     70.74780661 </i>
    <i name="pawaedc">    -35.66613597 </i>
    <i name="eentropy">     -0.01693299 </i>
    <i name="bandstr">     29.31344537 </i>
    <i name="atom">    206.12349923 </i>
    <i name="e_fr_energy">    -10.23825241 </i>
    <i name="e_wo_entrp">    -10.22131941 </i>
    <i name="e_0_energy">    -10.22978591 </i>
   </energy>
  </scstep>
  <scstep>
   <time name="dav">    0.98    0.98</time>
   <time name="total">    1.03    1.05</time>
   <energy>
    <i name="e_fr_energy">    -10.23547562 </i>
    <i name="e_wo_entrp">    -10.21861212 </i>
    <i name="e_0_energy">    -10.22704387 </i>
   </energy>
  </scstep>
  <scstep>
   <time name="dav">    1.09    1.09</time>
   <time name="total">    1.14    1.16</time>
   <energy>
    <i name="e_fr_energy">    -10.23416149 </i>
    <i name="e_wo_entrp">    -10.21737928 </i>
    <i name="e_0_energy">    -10.22577038 </i>
   </energy>
  </scstep>
  <scstep>
   <time name="dav">    0.52    0.52</time>
   <time name="total">    0.55    0.56</time>
   <energy>
    <i name="alphaZ">      4.39177978 </i>
    <i name="ewald">   -265.05194999 </i>
    <i name="hartreedc">     -2.48114936 </i>
    <i name="XCdc">    -17.58861450 </i>
    <i name="pawpsdc">     70.68720893 </i>
    <i name="pawaedc">    -35.60392342 </i>
    <i name="eentropy">     -0.01678381 </i>
    <i name="bandstr">     29.30576040 </i>
    <i name="atom">    206.12349923 </i>
    <i name="e_fr_energy">    -10.23417274 </i>
    <i name="e_wo_entrp">    -10.21738893 </i>
    <i name="e_0_energy">    -10.22578084 </i>
   </energy>
  </scstep>
  <structure>
   <crystal>
    <varray name="basis" >
     <v>      -2.43642230       2.43642230       1.29124349 </v>
     <v>       2.43642230      -2.43642230       1.29124349 </v>
     <v>       2.43642230       2.43642230      -1.29124349 </v>
    </varray>
    <i name="volume">     30.66007868 </i>
    <varray name="rec_basis" >
     <v>      -0.00000000       0.20521894       0.38722364 </v>
     <v>       0.20521894      -0.00000000       0.38722364 </v>
     <v>       0.20521894       0.20521894       0.00000000 </v>
    </varray>
   </crystal>
   <varray name="positions" >
    <v>       0.25000000       0.75000000       0.50000000 </v>
    <v>       0.00000000       0.00000000      -0.00000000 </v>
   </varray>
  </structure>
  <varray name="forces" >
   <v>       0.00000000      -0.00000000      -0.00000000 </v>
   <v>      -0.00000000       0.00000000       0.00000000 </v>
  </varray>
  <varray name="stress" >
   <v>      -8.89442660       0.00000000       0.00000000 </v>
   <v>       0.00000000      -8.89442660       0.00000000 </v>
   <v>       0.00000000       0.00000000      12.79119402 </v>
  </varray>
  <energy>
   <i name="e_fr_energy">    -10.23417274 </i>
   <i name="e_wo_entrp">    -10.22578084 </i>
   <i name="e_0_energy">     -0.01678381 </i>
  </energy>
  <time name="totalsc">    4.58    4.82</time>
 </calculation>
 <calculation>
  <scstep>
   <time name="dav">    1.22    1.22</time>
   <time name="total">    1.28    1.28</time>
   <energy>
    <i name="alphaZ">      4.38216549 </i>
    <i name="ewald">   -264.89539922 </i>
    <i name="hartreedc">     -2.47037837 </i>
    <i name="XCdc">    -17.60066933 </i>
    <i name="pawpsdc">     70.68356011 </i>
    <i name="pawaedc">    -35.60010876 </i>
    <i name="eentropy">     -0.01740668 </i>
    <i name="bandstr">     29.15154771 </i>
    <i name="atom">    206.12349923 </i>
    <i name="e_fr_energy">    -10.24318983 </i>
    <i name="e_wo_entrp">    -10.22578315 </i>
    <i name="e_0_energy">    -10.23448649 </i>
   </energy>
  </scstep>
  <scstep>
   <time name="dav">    0.99    0.99</time>
   <time name="total">    1.04    1.06</time>
   <energy>
    <i name="e_fr_energy">    -10.24035620 </i>
    <i name="e_wo_entrp">    -10.22296279 </i>
    <i name="e_0_energy">    -10.23165949 </i>
   </energy>
  </scstep>
  <scstep>
   <time name="dav">    1.07    1.07</time>
   <time name="total">    1.13    1.14</time>
   <energy>
    <i name="e_fr_energy">    -10.23899590 </i>
    <i name="e_wo_entrp">    -10.22162444 </i>
    <i name="e_0_energy">    -10.23031017 </i>
   </energy>
  </scstep>
  <scstep>
   <time name="dav">    0.51    0.51</time>
   <time name="total">    0.54    0.55</time>
   <energy>
    <i name="alphaZ">      4.38216549 </i>
    <i name="ewald">   -264.89539922 </i>
    <i name="hartreedc">     -2.47404756 </i>
    <i name="XCdc">    -17.60111389 </i>
    <i name="pawpsdc">     70.66957192 </i>
    <i name="pawaedc">    -35.58585531 </i>
    <i name="eentropy">     -0.01737194 </i>
    <i name="bandstr">     29.15954409 </i>
    <i name="atom">    206.12349923 </i>
    <i name="e_fr_energy">    -10.23900720 </i>
    <i name="e_wo_entrp">    -10.22163526 </i>
    <i name="e_0_energy">    -10.23032123 </i>
   </energy>
  </scstep>
  <structure>
   <crystal>
    <varray name="basis" >
     <v>      -2.42213565       2.42213565       1.30938732 </v>
     <v>       2.42213565      -2.42213565       1.30938732 </v>
     <v>       2.42213565       2.42213565      -1.30938732 </v>
    </varray>
    <i name="volume">     30.72734561 </i>
    <varray name="rec_basis" >
     <v>      -0.00000000       0.20642940       0.38185798 </v>
     <v>       0.20642940      -0.00000000       0.38185798 </v>
     <v>       0.20642940       0.20642940      -0.00000000 </v>
    </varray>
   </crystal>
   <varray name="positions" >
    <v>       0.25000000       0.75000000       0.50000000 </v>
    <v>       0.00000000       0.00000000      -0.00000000 </v>
   </varray>
  </structure>
  <varray name="forces" >
   <v>       0.00000000      -0.00000000       0.00000000 </v>
   <v>      -0.00000000       0.00000000      -0.00000000 </v>
  </varray>
  <varray name="stress" >
   <v>      -8.99086609       0.00000000       0.00000000 </v>
   <v>       0.00000000      -8.99086609       0.00000000 </v>
   <v>       0.00000000       0.00000000       5.77600825 </v>
  </varray>
  <energy>
   <i name="e_fr_energy">    -10.23900720 </i>
   <i name="e_wo_entrp">    -10.23032123 </i>
   <i name="e_0_energy">     -0.01737194 </i>
  </energy>
  <time name="totalsc">    4.54    4.83</time>
 </calculation>
 <calculation>
  <scstep>
   <time name="dav">    1.16    1.16</time>
   <time name="total">    1.22    1.23</time>
   <energy>
    <i name="alphaZ">      4.36640643 </i>
    <i name="ewald">   -264.52757102 </i>
    <i name="hartreedc">     -2.46004349 </i>
    <i name="XCdc">    -17.62111186 </i>
    <i name="pawpsdc">     70.66513103 </i>
    <i name="pawaedc">    -35.58117286 </i>
    <i name="eentropy">     -0.01642150 </i>
    <i name="bandstr">     28.79115557 </i>
    <i name="atom">    206.12349923 </i>
    <i name="e_fr_energy">    -10.26012849 </i>
    <i name="e_wo_entrp">    -10.24370698 </i>
    <i name="e_0_energy">    -10.25191773 </i>
   </energy>
  </scstep>
  <scstep>
   <time name="dav">    0.96    0.96</time>
   <time name="total">    1.01    1.02</time>
   <energy>
    <i name="e_fr_energy">    -10.24932664 </i>
    <i name="e_wo_entrp">    -10.23284508 </i>
    <i name="e_0_energy">    -10.24108586 </i>
   </energy>
  </scstep>
  <scstep>
   <time name="dav">    1.12    1.12</time>
   <time name="total">    1.17    1.18</time>
   <energy>
    <i name="e_fr_energy">    -10.24408820 </i>
    <i name="e_wo_entrp">    -10.22749096 </i>
    <i name="e_0_energy">    -10.23578958 </i>
   </energy>
  </scstep>
  <scstep>
   <time name="dav">    0.59    0.59</time>
   <time name="total">    0.62    0.63</time>
   <energy>
    <i name="alphaZ">      4.36640643 </i>
    <i name="ewald">   -264.52757102 </i>
    <i name="hartreedc">     -2.52858647 </i>
    <i name="XCdc">    -17.61353215 </i>
    <i name="pawpsdc">     70.78988481 </i>
    <i name="pawaedc">    -35.70981532 </i>
    <i name="eentropy">     -0.01659429 </i>
    <i name="bandstr">     28.87218159 </i>
    <i name="atom">    206.12349923 </i>
    <i name="e_fr_energy">    -10.24412719 </i>
    <i name="e_wo_entrp">    -10.22753290 </i>
    <i name="e_0_energy">    -10.23583005 </i>
   </energy>
  </scstep>
  <structure>
   <crystal>
    <varray name="basis" >
     <v>      -2.39356235       2.39356235       1.34567499 </v>
     <v>       2.39356235      -2.39356235       1.34567499 </v>
     <v>       2.39356235       2.39356235      -1.34567499 </v>
    </varray>
    <i name="volume">     30.83824555 </i>
    <varray name="rec_basis" >
     <v>      -0.00000000       0.20889366       0.37156074 </v>
     <v>       0.20889366      -0.00000000       0.37156074 </v>
     <v>       0.20889366       0.20889366       0.00000000 </v>
    </varray>
   </crystal>
   <varray name="positions" >
    <v>       0.25000000       0.75000000       0.50000000 </v>
    <v>       0.00000000       0.00000000      -0.00000000 </v>
   </varray>
  </structure>
  <varray name="forces" >
   <v>      -0.00000000       0.00000000      -0.00000000 </v>
   <v>       0.00000000      -0.00000000       0.00000000 </v>
  </varray>
  <varray name="stress" >
   <v>      -5.38982324       0.00000000       0.00000000 </v>
   <v>       0.00000000      -5.38982324      -0.00000000 </v>
   <v>       0.00000000       0.00000000      -3.46378867 </v>
  </varray>
  <energy>
   <i name="e_fr_energy">    -10.24412719 </i>
   <i name="e_wo_entrp">    -10.23583005 </i>
   <i name="e_0_energy">     -0.01659429 </i>
  </energy>
  <time name="totalsc">    4.58    4.87</time>
 </calculation>
 <calculation>
  <scstep>
   <time name="dav">    1.13    1.13</time>
   <time name="total">    1.19    1.19</time>
   <energy>
    <i name="alphaZ">      4.36536406 </i>
    <i name="ewald">   -264.49610035 </i>
    <i name="hartreedc">     -2.52475766 </i>
    <i name="XCdc">    -17.61545203 </i>
    <i name="pawpsdc">     70.77441304 </i>
    <i name="pawaedc">    -35.69351683 </i>
    <i name="eentropy">     -0.01637609 </i>
    <i name="bandstr">     28.83864388 </i>
    <i name="atom">    206.12349923 </i>
    <i name="e_fr_energy">    -10.24428276 </i>
    <i name="e_wo_entrp">    -10.22790667 </i>
    <i name="e_0_energy">    -10.23609471 </i>
   </energy>
  </scstep>
  <scstep>
   <time name="dav">    0.53    0.53</time>
   <time name="total">    0.56    0.57</time>
   <energy>
    <i name="alphaZ">      4.36536406 </i>
    <i name="ewald">   -264.49610035 </i>
    <i name="hartreedc">     -2.52749232 </i>
    <i name="XCdc">    -17.61522465 </i>
    <i name="pawpsdc">     70.77892492 </i>
    <i name="pawaedc">    -35.69818043 </i>
    <i name="eentropy">     -0.01638192 </i>
    <i name="bandstr">     28.84135667 </i>
    <i name="atom">    206.12349923 </i>
    <i name="e_fr_energy">    -10.24423480 </i>
    <i name="e_wo_entrp">    -10.22785288 </i>
    <i name="e_0_energy">    -10.23604384 </i>
   </energy>
  </scstep>
  <structure>
   <crystal>
    <varray name="basis" >
     <v>      -2.39132671       2.39132671       1.34851422 </v>
     <v>       2.39132671      -2.39132671       1.34851422 </v>
     <v>       2.39132671       2.39132671      -1.34851422 </v>
    </varray>
    <i name="volume">     30.84560916 </i>
    <varray name="rec_basis" >
     <v>       0.00000000       0.20908895       0.37077844 </v>
     <v>       0.20908895       0.00000000       0.37077844 </v>
     <v>       0.20908895       0.20908895       0.00000000 </v>
    </varray>
   </crystal>
   <varray name="positions" >
    <v>       0.25000000       0.75000000       0.50000000 </v>
    <v>       0.00000000       0.00000000      -0.00000000 </v>
   </varray>
  </structure>
  <varray name="forces" >
   <v>      -0.00000000       0.00000000      -0.00000000 </v>
   <v>       0.00000000      -0.00000000       0.00000000 </v>
  </varray>
  <varray name="stress" >
   <v>      -5.43163435       0.00000000       0.00000000 </v>
   <v>       0.00000000      -5.43163435       0.00000000 </v>
   <v>       0.00000000       0.00000000      -1.40264975 </v>
  </varray>
  <energy>
   <i name="e_fr_energy">    -10.24423480 </i>
   <i name="e_wo_entrp">    -10.23604384 </i>
   <i name="e_0_energy">     -0.01638192 </i>
  </energy>
  <time name="totalsc">    2.30    2.54</time>
 </calculation>
 <calculation>
  <scstep>
   <time name="dav">    1.18    1.18</time>
   <time name="total">    1.24    1.25</time>
   <energy>
    <i name="alphaZ">      4.36336091 </i>
    <i name="ewald">   -264.43211341 </i>
    <i name="hartreedc">     -2.53116564 </i>
    <i name="XCdc">    -17.61743819 </i>
    <i name="pawpsdc">     70.78212647 </i>
    <i name="pawaedc">    -35.70150483 </i>
    <i name="eentropy">     -0.01605237 </i>
    <i name="bandstr">     28.78482325 </i>
    <i name="atom">    206.12349923 </i>
    <i name="e_fr_energy">    -10.24446459 </i>
    <i name="e_wo_entrp">    -10.22841222 </i>
    <i name="e_0_energy">    -10.23643841 </i>
   </energy>
  </scstep>
  <scstep>
   <time name="dav">    0.78    0.78</time>
   <time name="total">    0.81    0.82</time>
   <energy>
    <i name="alphaZ">      4.36336091 </i>
    <i name="ewald">   -264.43211341 </i>
    <i name="hartreedc">     -2.53821318 </i>
    <i name="XCdc">    -17.61656808 </i>
    <i name="pawpsdc">     70.79906720 </i>
    <i name="pawaedc">    -35.71891915 </i>
    <i name="eentropy">     -0.01606428 </i>
    <i name="bandstr">     28.79173573 </i>
    <i name="atom">    206.12349923 </i>
    <i name="e_fr_energy">    -10.24421504 </i>
    <i name="e_wo_entrp">    -10.22815076 </i>
    <i name="e_0_energy">    -10.23618290 </i>
   </energy>
  </scstep>
  <structure>
   <crystal>
    <varray name="basis" >
     <v>      -2.38685543       2.38685543       1.35419268 </v>
     <v>       2.38685543      -2.38685543       1.35419268 </v>
     <v>       2.38685543       2.38685543      -1.35419268 </v>
    </varray>
    <i name="volume">     30.85976988 </i>
    <varray name="rec_basis" >
     <v>       0.00000000       0.20948064       0.36922368 </v>
     <v>       0.20948064       0.00000000       0.36922368 </v>
     <v>       0.20948064       0.20948064      -0.00000000 </v>
    </varray>
   </crystal>
   <varray name="positions" >
    <v>       0.25000000       0.75000000       0.50000000 </v>
    <v>       0.00000000       0.00000000      -0.00000000 </v>
   </varray>
  </structure>
  <varray name="forces" >
   <v>       0.00000000      -0.00000000      -0.00000000 </v>
   <v>      -0.00000000       0.00000000       0.00000000 </v>
  </varray>
  <varray name="stress" >
   <v>      -4.14796736      -0.00000000       0.00000000 </v>
   <v>      -0.00000000      -4.14796736       0.00000000 </v>
   <v>       0.00000000       0.00000000      -1.65892838 </v>
  </varray>
  <energy>
   <i name="e_fr_energy">    -10.24421504 </i>
   <i name="e_wo_entrp">    -10.23618290 </i>
   <i name="e_0_energy">     -0.01606428 </i>
  </energy>
  <time name="totalsc">    2.60    2.83</time>
 </calculation>
 <calculation>
  <scstep>
   <time name="dav">    1.14    1.14</time>
   <time name="total">    1.20    1.20</time>
   <energy>
    <i name="alphaZ">      4.35967860 </i>
    <i name="ewald">   -264.30017227 </i>
    <i name="hartreedc">     -2.54824370 </i>
    <i name="XCdc">    -17.62010324 </i>
    <i name="pawpsdc">     70.81467635 </i>
    <i name="pawaedc">    -35.73496718 </i>
    <i name="eentropy">     -0.01494656 </i>
    <i name="bandstr">     28.67626665 </i>
    <i name="atom">    206.12349923 </i>
    <i name="e_fr_energy">    -10.24431212 </i>
    <i name="e_wo_entrp">    -10.22936556 </i>
    <i name="e_0_energy">    -10.23683884 </i>
   </energy>
  </scstep>
  <scstep>
   <time name="dav">    0.99    0.99</time>
   <time name="total">    1.04    1.05</time>
   <energy>
    <i name="e_fr_energy">    -10.24329276 </i>
    <i name="e_wo_entrp">    -10.22827607 </i>
    <i name="e_0_energy">    -10.23578442 </i>
   </energy>
  </scstep>
  <scstep>
   <time name="dav">    0.81    0.81</time>
   <time name="total">    0.87    0.88</time>
   <energy>
    <i name="e_fr_energy">    -10.24280561 </i>
    <i name="e_wo_entrp">    -10.22770344 </i>
    <i name="e_0_energy">    -10.23525453 </i>
   </energy>
  </scstep>
  <scstep>
   <time name="dav">    0.46    0.46</time>
   <time name="total">    0.50    0.50</time>
   <energy>
    <i name="alphaZ">      4.35967860 </i>
    <i name="ewald">   -264.30017227 </i>
    <i name="hartreedc">     -2.58415870 </i>
    <i name="XCdc">    -17.61597385 </i>
    <i name="pawpsdc">     70.88224299 </i>
    <i name="pawaedc">    -35.80440833 </i>
    <i name="eentropy">     -0.01510072 </i>
    <i name="bandstr">     28.71158195 </i>
    <i name="atom">    206.12349923 </i>
    <i name="e_fr_energy">    -10.24281109 </i>
    <i name="e_wo_entrp">    -10.22771037 </i>
    <i name="e_0_energy">    -10.23526073 </i>
   </energy>
  </scstep>
  <structure>
   <crystal>
    <varray name="basis" >
     <v>      -2.37791287       2.37791287       1.36554960 </v>
     <v>       2.37791287      -2.37791287       1.36554960 </v>
     <v>       2.37791287       2.37791287      -1.36554960 </v>
    </varray>
    <i name="volume">     30.88583490 </i>
    <varray name="rec_basis" >
     <v>       0.00000000       0.21026843       0.36615294 </v>
     <v>       0.21026843       0.00000000       0.36615294 </v>
     <v>       0.21026843       0.21026843       0.00000000 </v>
    </varray>
   </crystal>
   <varray name="positions" >
    <v>       0.25000000       0.75000000       0.50000000 </v>
    <v>       0.00000000       0.00000000      -0.00000000 </v>
   </varray>
  </structure>
  <varray name="forces" >
   <v>      -0.00000000       0.00000000       0.00000000 </v>
   <v>       0.00000000      -0.00000000      -0.00000000 </v>
  </varray>
  <varray name="stress" >
   <v>       1.54531405       0.00000000      -0.00000000 </v>
   <v>      -0.00000000       1.54531405       0.00000000 </v>
   <v>       0.00000000       0.00000000     -11.44499705 </v>
  </varray>
  <energy>
   <i name="e_fr_energy">    -10.24281109 </i>
   <i name="e_wo_entrp">    -10.23526073 </i>
   <i name="e_0_energy">     -0.01510072 </i>
  </energy>
  <time name="totalsc">    4.15    4.39</time>
 </calculation>
 <calculation>
  <scstep>
   <time name="dav">    1.14    1.13</time>
   <time name="total">    1.19    1.19</time>
   <energy>
    <i name="alphaZ">      4.36289554 </i>
    <i name="ewald">   -264.41652943 </i>
    <i name="hartreedc">     -2.58202446 </i>
    <i name="XCdc">    -17.61223806 </i>
    <i name="pawpsdc">     70.88220486 </i>
    <i name="pawaedc">    -35.80436510 </i>
    <i name="eentropy">     -0.01604899 </i>
    <i name="bandstr">     28.81733453 </i>
    <i name="atom">    206.12349923 </i>
    <i name="e_fr_energy">    -10.24527189 </i>
    <i name="e_wo_entrp">    -10.22922290 </i>
    <i name="e_0_energy">    -10.23724739 </i>
   </energy>
  </scstep>
  <scstep>
   <time name="dav">    1.00    1.00</time>
   <time name="total">    1.06    1.06</time>
   <energy>
    <i name="e_fr_energy">    -10.24442879 </i>
    <i name="e_wo_entrp">    -10.22840006 </i>
    <i name="e_0_energy">    -10.23641443 </i>
   </energy>
  </scstep>
  <scstep>
   <time name="dav">    0.68    0.68</time>
   <time name="total">    0.73    0.74</time>
   <energy>
    <i name="e_fr_energy">    -10.24400973 </i>
    <i name="e_wo_entrp">    -10.22800873 </i>
    <i name="e_0_energy">    -10.23600923 </i>
   </energy>
  </scstep>
  <scstep>
   <time name="dav">    0.46    0.46</time>
   <time name="total">    0.49    0.50</time>
   <energy>
    <i name="alphaZ">      4.36289554 </i>
    <i name="ewald">   -264.41652943 </i>
    <i name="hartreedc">     -2.54813265 </i>
    <i name="XCdc">    -17.61637147 </i>
    <i name="pawpsdc">     70.81197869 </i>
    <i name="pawaedc">    -35.73203460 </i>
    <i name="eentropy">     -0.01600201 </i>
    <i name="bandstr">     28.78668154 </i>
    <i name="atom">    206.12349923 </i>
    <i name="e_fr_energy">    -10.24401516 </i>
    <i name="e_wo_entrp">    -10.22801315 </i>
    <i name="e_0_energy">    -10.23601415 </i>
   </energy>
  </scstep>
  <structure>
   <crystal>
    <varray name="basis" >
     <v>      -2.38578060       2.38578060       1.35555770 </v>
     <v>       2.38578060      -2.38578060       1.35555770 </v>
     <v>       2.38578060       2.38578060      -1.35555770 </v>
    </varray>
    <i name="volume">     30.86306153 </i>
    <varray name="rec_basis" >
     <v>      -0.00000000       0.20957501       0.36885188 </v>
     <v>       0.20957501      -0.00000000       0.36885188 </v>
     <v>       0.20957501       0.20957501      -0.00000000 </v>
    </varray>
   </crystal>
   <varray name="positions" >
    <v>       0.25000000       0.75000000       0.50000000 </v>
    <v>       0.00000000       0.00000000      -0.00000000 </v>
   </varray>
  </structure>
  <varray name="forces" >
   <v>      -0.00000000      -0.00000000      -0.00000000 </v>
   <v>       0.00000000       0.00000000       0.00000000 </v>
  </varray>
  <varray name="stress" >
   <v>      -2.15647128       0.00000000       0.00000000 </v>
   <v>       0.00000000      -2.15647128      -0.00000000 </v>
   <v>       0.00000000      -0.00000000      -6.39357301 </v>
  </varray>
  <energy>
   <i name="e_fr_energy">    -10.24401516 </i>
   <i name="e_wo_entrp">    -10.23601415 </i>
   <i name="e_0_energy">     -0.01600201 </i>
  </energy>
  <time name="totalsc">    4.02    4.28</time>
 </calculation>
 <calculation>
  <scstep>
   <time name="dav">    0.80    0.80</time>
   <time name="total">    0.85    0.86</time>
   <energy>
    <i name="alphaZ">      4.36323325 </i>
    <i name="ewald">   -264.42786675 </i>
    <i name="hartreedc">     -2.54803474 </i>
    <i name="XCdc">    -17.61597256 </i>
    <i name="pawpsdc">     70.81201184 </i>
    <i name="pawaedc">    -35.73207016 </i>
    <i name="eentropy">     -0.01606149 </i>
    <i name="bandstr">     28.79717817 </i>
    <i name="atom">    206.12349923 </i>
    <i name="e_fr_energy">    -10.24408322 </i>
    <i name="e_wo_entrp">    -10.22802173 </i>
    <i name="e_0_energy">    -10.23605247 </i>
   </energy>
  </scstep>
  <scstep>
   <time name="dav">    0.46    0.46</time>
   <time name="total">    0.50    0.50</time>
   <energy>
    <i name="alphaZ">      4.36323325 </i>
    <i name="ewald">   -264.42786675 </i>
    <i name="hartreedc">     -2.54733639 </i>
    <i name="XCdc">    -17.61602232 </i>
    <i name="pawpsdc">     70.81118593 </i>
    <i name="pawaedc">    -35.73125618 </i>
    <i name="eentropy">     -0.01605990 </i>
    <i name="bandstr">     28.79654367 </i>
    <i name="atom">    206.12349923 </i>
    <i name="e_fr_energy">    -10.24407948 </i>
    <i name="e_wo_entrp">    -10.22801958 </i>
    <i name="e_0_energy">    -10.23604953 </i>
   </energy>
  </scstep>
  <structure>
   <crystal>
    <varray name="basis" >
     <v>      -2.38656201       2.38656201       1.35456532 </v>
     <v>       2.38656201      -2.38656201       1.35456532 </v>
     <v>       2.38656201       2.38656201      -1.35456532 </v>
    </varray>
    <i name="volume">     30.86067279 </i>
    <varray name="rec_basis" >
     <v>      -0.00000000       0.20950639       0.36912210 </v>
     <v>       0.20950639      -0.00000000       0.36912210 </v>
     <v>       0.20950639       0.20950639      -0.00000000 </v>
    </varray>
   </crystal>
   <varray name="positions" >
    <v>       0.25000000       0.75000000       0.50000000 </v>
    <v>       0.00000000       0.00000000      -0.00000000 </v>
   </varray>
  </structure>
  <varray name="forces" >
   <v>      -0.00000000      -0.00000000      -0.00000000 </v>
   <v>       0.00000000       0.00000000       0.00000000 </v>
  </varray>
  <varray name="stress" >
   <v>      -2.29284010       0.00000000       0.00000000 </v>
   <v>       0.00000000      -2.29284010       0.00000000 </v>
   <v>       0.00000000       0.00000000      -6.75496334 </v>
  </varray>
  <energy>
   <i name="e_fr_energy">    -10.24407948 </i>
   <i name="e_wo_entrp">    -10.23604953 </i>
   <i name="e_0_energy">     -0.01605990 </i>
  </energy>
  <time name="totalsc">    1.90    2.09</time>
 </calculation>
 <calculation>
  <scstep>
   <time name="dav">    0.46    0.45</time>
   <time name="total">    0.51    0.52</time>
   <energy>
    <i name="alphaZ">      4.36332733 </i>
    <i name="ewald">   -264.43099836 </i>
    <i name="hartreedc">     -2.54642520 </i>
    <i name="XCdc">    -17.61593650 </i>
    <i name="pawpsdc">     70.81095077 </i>
    <i name="pawaedc">    -35.73105880 </i>
    <i name="eentropy">     -0.01607378 </i>
    <i name="bandstr">     28.79862227 </i>
    <i name="atom">    206.12349923 </i>
    <i name="e_fr_energy">    -10.24409304 </i>
    <i name="e_wo_entrp">    -10.22801926 </i>
    <i name="e_0_energy">    -10.23605615 </i>
   </energy>
  </scstep>
  <scstep>
   <time name="dav">    0.46    0.46</time>
   <time name="total">    0.49    0.49</time>
   <energy>
    <i name="alphaZ">      4.36332733 </i>
    <i name="ewald">   -264.43099836 </i>
    <i name="hartreedc">     -2.54619188 </i>
    <i name="XCdc">    -17.61595564 </i>
    <i name="pawpsdc">     70.81048841 </i>
    <i name="pawaedc">    -35.73058687 </i>
    <i name="eentropy">     -0.01607328 </i>
    <i name="bandstr">     28.79839842 </i>
    <i name="atom">    206.12349923 </i>
    <i name="e_fr_energy">    -10.24409266 </i>
    <i name="e_wo_entrp">    -10.22801938 </i>
    <i name="e_0_energy">    -10.23605602 </i>
   </energy>
  </scstep>
  <structure>
   <crystal>
    <varray name="basis" >
     <v>      -2.38677835       2.38677835       1.35429057 </v>
     <v>       2.38677835      -2.38677835       1.35429057 </v>
     <v>       2.38677835       2.38677835      -1.35429057 </v>
    </varray>
    <i name="volume">     30.86000739 </i>
    <varray name="rec_basis" >
     <v>       0.00000000       0.20948740       0.36919699 </v>
     <v>       0.20948740       0.00000000       0.36919699 </v>
     <v>       0.20948740       0.20948740       0.00000000 </v>
    </varray>
   </crystal>
   <varray name="positions" >
    <v>       0.25000000       0.75000000       0.50000000 </v>
    <v>       0.00000000       0.00000000      -0.00000000 </v>
   </varray>
  </structure>
  <varray name="forces" >
   <v>      -0.00000000      -0.00000000      -0.00000000 </v>
   <v>       0.00000000       0.00000000       0.00000000 </v>
  </varray>
  <varray name="stress" >
   <v>      -2.55018508       0.00000000       0.00000000 </v>
   <v>       0.00000000      -2.55018508      -0.00000000 </v>
   <v>       0.00000000       0.00000000      -6.23522727 </v>
  </varray>
  <energy>
   <i name="e_fr_energy">    -10.24409266 </i>
   <i name="e_wo_entrp">    -10.23605602 </i>
   <i name="e_0_energy">     -0.01607328 </i>
  </energy>
  <time name="totalsc">    1.55    1.77</time>
 </calculation>
 <calculation>
  <scstep>
   <time name="dav">    0.46    0.46</time>
   <time name="total">    0.51    0.52</time>
   <energy>
    <i name="alphaZ">      4.36335099 </i>
    <i name="ewald">   -264.43178416 </i>
    <i name="hartreedc">     -2.54589510 </i>
    <i name="XCdc">    -17.61594329 </i>
    <i name="pawpsdc">     70.80999832 </i>
    <i name="pawaedc">    -35.73008663 </i>
    <i name="eentropy">     -0.01607668 </i>
    <i name="bandstr">     28.79884116 </i>
    <i name="atom">    206.12349923 </i>
    <i name="e_fr_energy">    -10.24409617 </i>
    <i name="e_wo_entrp">    -10.22801949 </i>
    <i name="e_0_energy">    -10.23605783 </i>
   </energy>
  </scstep>
  <scstep>
   <time name="dav">    0.46    0.46</time>
   <time name="total">    0.49    0.50</time>
   <energy>
    <i name="alphaZ">      4.36335099 </i>
    <i name="ewald">   -264.43178416 </i>
    <i name="hartreedc">     -2.54583565 </i>
    <i name="XCdc">    -17.61594785 </i>
    <i name="pawpsdc">     70.80990854 </i>
    <i name="pawaedc">    -35.72999571 </i>
    <i name="eentropy">     -0.01607654 </i>
    <i name="bandstr">     28.79878501 </i>
    <i name="atom">    206.12349923 </i>
    <i name="e_fr_energy">    -10.24409614 </i>
    <i name="e_wo_entrp">    -10.22801960 </i>
    <i name="e_0_energy">    -10.23605787 </i>
   </energy>
  </scstep>
  <structure>
   <crystal>
    <varray name="basis" >
     <v>      -2.38683267       2.38683267       1.35422159 </v>
     <v>       2.38683267      -2.38683267       1.35422159 </v>
     <v>       2.38683267       2.38683267      -1.35422159 </v>
    </varray>
    <i name="volume">     30.85984004 </i>
    <varray name="rec_basis" >
     <v>       0.00000000       0.20948264       0.36921579 </v>
     <v>       0.20948264       0.00000000       0.36921579 </v>
     <v>       0.20948264       0.20948264       0.00000000 </v>
    </varray>
   </crystal>
   <varray name="positions" >
    <v>       0.25000000       0.75000000       0.50000000 </v>
    <v>       0.00000000       0.00000000      -0.00000000 </v>
   </varray>
  </structure>
  <varray name="forces" >
   <v>      -0.00000000      -0.00000000       0.00000000 </v>
   <v>       0.00000000       0.00000000      -0.00000000 </v>
  </varray>
  <varray name="stress" >
   <v>      -2.61008401       0.00000000       0.00000000 </v>
   <v>       0.00000000      -2.61008401       0.00000000 </v>
   <v>       0.00000000       0.00000000      -6.08921626 </v>
  </varray>
  <energy>
   <i name="e_fr_energy">    -10.24409614 </i>
   <i name="e_wo_entrp">    -10.23605787 </i>
   <i name="e_0_energy">     -0.01607654 </i>
  </energy>
  <time name="totalsc">    2.01    2.61</time>
 </calculation>
 <calculation>
  <scstep>
   <time name="dav">    0.46    0.46</time>
   <time name="total">    0.51    0.52</time>
   <energy>
    <i name="alphaZ">      4.36335788 </i>
    <i name="ewald">   -264.43201285 </i>
    <i name="hartreedc">     -2.54576325 </i>
    <i name="XCdc">    -17.61594338 </i>
    <i name="pawpsdc">     70.80981139 </i>
    <i name="pawaedc">    -35.72989777 </i>
    <i name="eentropy">     -0.01607754 </i>
    <i name="bandstr">     28.79892911 </i>
    <i name="atom">    206.12349923 </i>
    <i name="e_fr_energy">    -10.24409719 </i>
    <i name="e_wo_entrp">    -10.22801964 </i>
    <i name="e_0_energy">    -10.23605841 </i>
   </energy>
  </scstep>
  <scstep>
   <time name="dav">    0.46    0.45</time>
   <time name="total">    0.49    0.50</time>
   <energy>
    <i name="alphaZ">      4.36335788 </i>
    <i name="ewald">   -264.43201285 </i>
    <i name="hartreedc">     -2.54574495 </i>
    <i name="XCdc">    -17.61594484 </i>
    <i name="pawpsdc">     70.80978107 </i>
    <i name="pawaedc">    -35.72986704 </i>
    <i name="eentropy">     -0.01607750 </i>
    <i name="bandstr">     28.79891183 </i>
    <i name="atom">    206.12349923 </i>
    <i name="e_fr_energy">    -10.24409718 </i>
    <i name="e_wo_entrp">    -10.22801968 </i>
    <i name="e_0_energy">    -10.23605843 </i>
   </energy>
  </scstep>
  <structure>
   <crystal>
    <varray name="basis" >
     <v>      -2.38684848       2.38684848       1.35420151 </v>
     <v>       2.38684848      -2.38684848       1.35420151 </v>
     <v>       2.38684848       2.38684848      -1.35420151 </v>
    </varray>
    <i name="volume">     30.85979131 </i>
    <varray name="rec_basis" >
     <v>      -0.00000000       0.20948125       0.36922127 </v>
     <v>       0.20948125      -0.00000000       0.36922127 </v>
     <v>       0.20948125       0.20948125       0.00000000 </v>
    </varray>
   </crystal>
   <varray name="positions" >
    <v>       0.25000000       0.75000000       0.50000000 </v>
    <v>       0.00000000       0.00000000      -0.00000000 </v>
   </varray>
  </structure>
  <varray name="forces" >
   <v>       0.00000000      -0.00000000       0.00000000 </v>
   <v>      -0.00000000       0.00000000      -0.00000000 </v>
  </varray>
  <varray name="stress" >
   <v>      -2.62573951       0.00000000       0.00000000 </v>
   <v>       0.00000000      -2.62573951      -0.00000000 </v>
   <v>       0.00000000       0.00000000      -6.05301109 </v>
  </varray>
  <energy>
   <i name="e_fr_energy">    -10.24409718 </i>
   <i name="e_wo_entrp">    -10.23605843 </i>
   <i name="e_0_energy">     -0.01607750 </i>
  </energy>
  <time name="totalsc">    1.44    1.67</time>
 </calculation>
 <calculation>
  <scstep>
   <time name="dav">    0.32    0.32</time>
   <time name="total">    0.36    0.37</time>
   <energy>
    <i name="alphaZ">      4.36335998 </i>
    <i name="ewald">   -264.43208243 </i>
    <i name="hartreedc">     -2.54572285 </i>
    <i name="XCdc">    -17.61594350 </i>
    <i name="pawpsdc">     70.80974983 </i>
    <i name="pawaedc">    -35.72983551 </i>
    <i name="eentropy">     -0.01607781 </i>
    <i name="bandstr">     28.79895556 </i>
    <i name="atom">    206.12349923 </i>
    <i name="e_fr_energy">    -10.24409750 </i>
    <i name="e_wo_entrp">    -10.22801970 </i>
    <i name="e_0_energy">    -10.23605860 </i>
   </energy>
  </scstep>
  <scstep>
   <time name="dav">    0.32    0.32</time>
   <time name="total">    0.35    0.35</time>
   <energy>
    <i name="alphaZ">      4.36335998 </i>
    <i name="ewald">   -264.43208243 </i>
    <i name="hartreedc">     -2.54571730 </i>
    <i name="XCdc">    -17.61594395 </i>
    <i name="pawpsdc">     70.80974055 </i>
    <i name="pawaedc">    -35.72982610 </i>
    <i name="eentropy">     -0.01607779 </i>
    <i name="bandstr">     28.79895032 </i>
    <i name="atom">    206.12349923 </i>
    <i name="e_fr_energy">    -10.24409750 </i>
    <i name="e_wo_entrp">    -10.22801971 </i>
    <i name="e_0_energy">    -10.23605860 </i>
   </energy>
  </scstep>
  <structure>
   <crystal>
    <varray name="basis" >
     <v>      -2.38685329       2.38685329       1.35419540 </v>
     <v>       2.38685329      -2.38685329       1.35419540 </v>
     <v>       2.38685329       2.38685329      -1.35419540 </v>
    </varray>
    <i name="volume">     30.85977648 </i>
    <varray name="rec_basis" >
     <v>       0.00000000       0.20948083       0.36922293 </v>
     <v>       0.20948083       0.00000000       0.36922293 </v>
     <v>       0.20948083       0.20948083       0.00000000 </v>
    </varray>
   </crystal>
   <varray name="positions" >
    <v>       0.25000000       0.75000000       0.50000000 </v>
    <v>       0.00000000       0.00000000      -0.00000000 </v>
   </varray>
  </structure>
  <varray name="forces" >
   <v>       0.00000000      -0.00000000       0.00000000 </v>
   <v>      -0.00000000       0.00000000      -0.00000000 </v>
  </varray>
  <varray name="stress" >
   <v>      -2.63051205       0.00000000       0.00000000 </v>
   <v>       0.00000000      -2.63051205       0.00000000 </v>
   <v>       0.00000000      -0.00000000      -6.04198877 </v>
  </varray>
  <energy>
   <i name="e_fr_energy">    -10.24409750 </i>
   <i name="e_wo_entrp">    -10.23605860 </i>
   <i name="e_0_energy">     -0.01607779 </i>
  </energy>
  <time name="totalsc">    1.15    1.39</time>
 </calculation>
 <calculation>
  <scstep>
   <time name="dav">    0.32    0.32</time>
   <time name="total">    0.36    0.37</time>
   <energy>
    <i name="alphaZ">      4.36336062 </i>
    <i name="ewald">   -264.43210384 </i>
    <i name="hartreedc">     -2.54571065 </i>
    <i name="XCdc">    -17.61594351 </i>
    <i name="pawpsdc">     70.80973109 </i>
    <i name="pawaedc">    -35.72981657 </i>
    <i name="eentropy">     -0.01607789 </i>
    <i name="bandstr">     28.79896392 </i>
    <i name="atom">    206.12349923 </i>
    <i name="e_fr_energy">    -10.24409760 </i>
    <i name="e_wo_entrp">    -10.22801971 </i>
    <i name="e_0_energy">    -10.23605866 </i>
   </energy>
  </scstep>
  <scstep>
   <time name="dav">    0.32    0.32</time>
   <time name="total">    0.35    0.35</time>
   <energy>
    <i name="alphaZ">      4.36336062 </i>
    <i name="ewald">   -264.43210384 </i>
    <i name="hartreedc">     -2.54570893 </i>
    <i name="XCdc">    -17.61594365 </i>
    <i name="pawpsdc">     70.80972817 </i>
    <i name="pawaedc">    -35.72981360 </i>
    <i name="eentropy">     -0.01607788 </i>
    <i name="bandstr">     28.79896229 </i>
    <i name="atom">    206.12349923 </i>
    <i name="e_fr_energy">    -10.24409760 </i>
    <i name="e_wo_entrp">    -10.22801972 </i>
    <i name="e_0_energy">    -10.23605866 </i>
   </energy>
  </scstep>
  <structure>
   <crystal>
    <varray name="basis" >
     <v>      -2.38685477       2.38685477       1.35419352 </v>
     <v>       2.38685477      -2.38685477       1.35419352 </v>
     <v>       2.38685477       2.38685477      -1.35419352 </v>
    </varray>
    <i name="volume">     30.85977192 </i>
    <varray name="rec_basis" >
     <v>       0.00000000       0.20948070       0.36922345 </v>
     <v>       0.20948070       0.00000000       0.36922345 </v>
     <v>       0.20948070       0.20948070      -0.00000000 </v>
    </varray>
   </crystal>
   <varray name="positions" >
    <v>       0.25000000       0.75000000       0.50000000 </v>
    <v>       0.00000000       0.00000000      -0.00000000 </v>
   </varray>
  </structure>
  <varray name="forces" >
   <v>       0.00000000      -0.00000000      -0.00000000 </v>
   <v>      -0.00000000       0.00000000       0.00000000 </v>
  </varray>
  <varray name="stress" >
   <v>      -2.63196186       0.00000000       0.00000000 </v>
   <v>       0.00000000      -2.63196186       0.00000000 </v>
   <v>       0.00000000       0.00000000      -6.03866761 </v>
  </varray>
  <energy>
   <i name="e_fr_energy">    -10.24409760 </i>
   <i name="e_wo_entrp">    -10.23605866 </i>
   <i name="e_0_energy">     -0.01607788 </i>
  </energy>
  <time name="totalsc">    1.15    1.49</time>
 </calculation>
 <calculation>
  <scstep>
   <time name="dav">    0.32    0.32</time>
   <time name="total">    0.36    0.37</time>
   <energy>
    <i name="alphaZ">      4.36336082 </i>
    <i name="ewald">   -264.43211045 </i>
    <i name="hartreedc">     -2.54570689 </i>
    <i name="XCdc">    -17.61594351 </i>
    <i name="pawpsdc">     70.80972520 </i>
    <i name="pawaedc">    -35.72981061 </i>
    <i name="eentropy">     -0.01607791 </i>
    <i name="bandstr">     28.79896649 </i>
    <i name="atom">    206.12349923 </i>
    <i name="e_fr_energy">    -10.24409763 </i>
    <i name="e_wo_entrp">    -10.22801972 </i>
    <i name="e_0_energy">    -10.23605867 </i>
   </energy>
  </scstep>
  <scstep>
   <time name="dav">    0.32    0.32</time>
   <time name="total">    0.34    0.36</time>
   <energy>
    <i name="alphaZ">      4.36336082 </i>
    <i name="ewald">   -264.43211045 </i>
    <i name="hartreedc">     -2.54570635 </i>
    <i name="XCdc">    -17.61594356 </i>
    <i name="pawpsdc">     70.80972429 </i>
    <i name="pawaedc">    -35.72980968 </i>
    <i name="eentropy">     -0.01607791 </i>
    <i name="bandstr">     28.79896599 </i>
    <i name="atom">    206.12349923 </i>
    <i name="e_fr_energy">    -10.24409763 </i>
    <i name="e_wo_entrp">    -10.22801972 </i>
    <i name="e_0_energy">    -10.23605867 </i>
   </energy>
  </scstep>
  <structure>
   <crystal>
    <varray name="basis" >
     <v>      -2.38685523       2.38685523       1.35419294 </v>
     <v>       2.38685523      -2.38685523       1.35419294 </v>
     <v>       2.38685523       2.38685523      -1.35419294 </v>
    </varray>
    <i name="volume">     30.85977051 </i>
    <varray name="rec_basis" >
     <v>       0.00000000       0.20948066       0.36922361 </v>
     <v>       0.20948066       0.00000000       0.36922361 </v>
     <v>       0.20948066       0.20948066       0.00000000 </v>
    </varray>
   </crystal>
   <varray name="positions" >
    <v>       0.25000000       0.75000000       0.50000000 </v>
    <v>       0.00000000       0.00000000      -0.00000000 </v>
   </varray>
  </structure>
  <varray name="forces" >
   <v>      -0.00000000       0.00000000      -0.00000000 </v>
   <v>       0.00000000      -0.00000000       0.00000000 </v>
  </varray>
  <varray name="stress" >
   <v>      -2.63241022       0.00000000       0.00000000 </v>
   <v>       0.00000000      -2.63241022       0.00000000 </v>
   <v>       0.00000000       0.00000000      -6.03764280 </v>
  </varray>
  <energy>
   <i name="e_fr_energy">    -10.24409763 </i>
   <i name="e_wo_entrp">    -10.23605867 </i>
   <i name="e_0_energy">     -0.01607791 </i>
  </energy>
  <time name="totalsc">    1.22    1.78</time>
  <eigenvalues>
   <array>
    <dimension dim="1">band</dimension>
    <dimension dim="2">kpoint</dimension>
    <dimension dim="3">spin</dimension>
    <field>eigene</field>
    <field>occ</field>
    <set>
     <set comment="spin 1">
      <set comment="kpoint 1">
       <r>   -4.3110    1.0000 </r>
       <r>    5.2608    1.0000 </r>
       <r>    6.9453    1.0000 </r>
       <r>    8.5756    0.9981 </r>
       <r>   11.7499    0.0000 </r>
       <r>   14.5380    0.0000 </r>
       <r>   15.1970    0.0000 </r>
       <r>   17.0095    0.0000 </r>
      </set>
      <set comment="kpoint 2">
       <r>   -3.5379    1.0000 </r>
       <r>    4.8453    1.0000 </r>
       <r>    7.0886    1.0000 </r>
       <r>    9.7521    0.0000 </r>
       <r>   11.7020    0.0000 </r>
       <r>   12.3476    0.0000 </r>
       <r>   13.3837    0.0000 </r>
       <r>   15.4241    0.0000 </r>
      </set>
      <set comment="kpoint 3">
       <r>   -2.2594    1.0000 </r>
       <r>    4.8382    1.0000 </r>
       <r>    7.0728    1.0000 </r>
       <r>    7.9613    1.0000 </r>
       <r>   10.1475    0.0000 </r>
       <r>   12.3103    0.0000 </r>
       <r>   13.1083    0.0000 </r>
       <r>   14.5522    0.0000 </r>
      </set>
      <set comment="kpoint 4">
       <r>   -0.5029    1.0000 </r>
       <r>    4.3663    1.0000 </r>
       <r>    5.6541    1.0000 </r>
       <r>    7.3466    1.0000 </r>
       <r>    8.6363    0.9931 </r>
       <r>   11.3681    0.0000 </r>
       <r>   13.7269    0.0000 </r>
       <r>   14.3499    0.0000 </r>
      </set>
      <set comment="kpoint 5">
       <r>    1.2982    1.0000 </r>
       <r>    2.2828    1.0000 </r>
       <r>    6.2084    1.0000 </r>
       <r>    6.6417    1.0000 </r>
       <r>    8.4799    0.9998 </r>
       <r>   10.6156    0.0000 </r>
       <r>   13.5483    0.0000 </r>
       <r>   14.4974    0.0000 </r>
      </set>
      <set comment="kpoint 6">
       <r>   -4.5699    1.0000 </r>
       <r>    5.8328    1.0000 </r>
       <r>    6.4004    1.0000 </r>
       <r>    8.2668    1.0000 </r>
       <r>   11.1438    0.0000 </r>
       <r>   15.6441    0.0000 </r>
       <r>   17.8812    0.0000 </r>
       <r>   17.9974    0.0000 </r>
      </set>
      <set comment="kpoint 7">
       <r>   -2.3833    1.0000 </r>
       <r>    4.7787    1.0000 </r>
       <r>    7.8387    1.0000 </r>
       <r>    8.6599    0.9892 </r>
       <r>    9.8173    0.0000 </r>
       <r>   11.0658    0.0000 </r>
       <r>   13.8394    0.0000 </r>
       <r>   14.0639    0.0000 </r>
      </set>
      <set comment="kpoint 8">
       <r>   -0.7435    1.0000 </r>
       <r>    4.8806    1.0000 </r>
       <r>    5.7890    1.0000 </r>
       <r>    6.6968    1.0000 </r>
       <r>    9.7165    0.0000 </r>
       <r>   12.2829    0.0000 </r>
       <r>   12.5865    0.0000 </r>
       <r>   13.7497    0.0000 </r>
      </set>
      <set comment="kpoint 9">
       <r>    1.2425    1.0000 </r>
       <r>    2.7919    1.0000 </r>
       <r>    4.9854    1.0000 </r>
       <r>    6.2690    1.0000 </r>
       <r>    9.6142    0.0000 </r>
       <r>   11.6724    0.0000 </r>
       <r>   12.7707    0.0000 </r>
       <r>   15.4402    0.0000 </r>
      </set>
      <set comment="kpoint 10">
       <r>    0.2185    1.0000 </r>
       <r>    3.4956    1.0000 </r>
       <r>    4.5088    1.0000 </r>
       <r>    7.2914    1.0000 </r>
       <r>    9.1009    0.2060 </r>
       <r>   12.1956    0.0000 </r>
       <r>   13.3143    0.0000 </r>
       <r>   15.2535    0.0000 </r>
      </set>
      <set comment="kpoint 11">
       <r>   -1.6408    1.0000 </r>
       <r>    3.1652    1.0000 </r>
       <r>    6.9952    1.0000 </r>
       <r>    7.9146    1.0000 </r>
       <r>    9.8176    0.0000 </r>
       <r>   12.9945    0.0000 </r>
       <r>   13.0894    0.0000 </r>
       <r>   14.8360    0.0000 </r>
      </set>
      <set comment="kpoint 12">
       <r>   -3.0377    1.0000 </r>
       <r>    3.0344    1.0000 </r>
       <r>    7.4992    1.0000 </r>
       <r>   10.0918    0.0000 </r>
       <r>   11.3589    0.0000 </r>
       <r>   11.8650    0.0000 </r>
       <r>   14.1288    0.0000 </r>
       <r>   15.7393    0.0000 </r>
      </set>
      <set comment="kpoint 13">
       <r>   -3.9339    1.0000 </r>
       <r>    3.3635    1.0000 </r>
       <r>    7.2803    1.0000 </r>
       <r>    9.3477    0.0051 </r>
       <r>   13.1517    0.0000 </r>
       <r>   13.9404    0.0000 </r>
       <r>   14.6955    0.0000 </r>
       <r>   16.0934    0.0000 </r>
      </set>
      <set comment="kpoint 14">
       <r>   -4.3180    1.0000 </r>
       <r>    4.1324    1.0000 </r>
       <r>    6.4745    1.0000 </r>
       <r>    9.2982    0.0134 </r>
       <r>   12.5915    0.0000 </r>
       <r>   14.1209    0.0000 </r>
       <r>   16.8822    0.0000 </r>
       <r>   17.2653    0.0000 </r>
      </set>
      <set comment="kpoint 15">
       <r>   -4.1854    1.0000 </r>
       <r>    5.0133    1.0000 </r>
       <r>    5.9417    1.0000 </r>
       <r>    9.6888    0.0000 </r>
       <r>   12.2926    0.0000 </r>
       <r>   13.8358    0.0000 </r>
       <r>   14.8961    0.0000 </r>
       <r>   16.6038    0.0000 </r>
      </set>
      <set comment="kpoint 16">
       <r>    1.1704    1.0000 </r>
       <r>    3.6162    1.0000 </r>
       <r>    3.9346    1.0000 </r>
       <r>    6.1579    1.0000 </r>
       <r>   10.3262    0.0000 </r>
       <r>   11.4847    0.0000 </r>
       <r>   13.6215    0.0000 </r>
       <r>   14.3509    0.0000 </r>
      </set>
      <set comment="kpoint 17">
       <r>    1.1615    1.0000 </r>
       <r>    2.3107    1.0000 </r>
       <r>    4.0831    1.0000 </r>
       <r>    7.1938    1.0000 </r>
       <r>    9.8380    0.0000 </r>
       <r>   11.2276    0.0000 </r>
       <r>   14.7731    0.0000 </r>
       <r>   15.8614    0.0000 </r>
      </set>
      <set comment="kpoint 18">
       <r>   -0.7800    1.0000 </r>
       <r>    1.6393    1.0000 </r>
       <r>    6.7602    1.0000 </r>
       <r>    8.2411    1.0000 </r>
       <r>    9.7717    0.0000 </r>
       <r>   11.7525    0.0000 </r>
       <r>   13.9207    0.0000 </r>
       <r>   15.7573    0.0000 </r>
      </set>
      <set comment="kpoint 19">
       <r>   -2.2903    1.0000 </r>
       <r>    1.3779    1.0000 </r>
       <r>    8.0974    1.0000 </r>
       <r>    9.9322    0.0000 </r>
       <r>   11.1659    0.0000 </r>
       <r>   11.9271    0.0000 </r>
       <r>   12.9592    0.0000 </r>
       <r>   15.0109    0.0000 </r>
      </set>
      <set comment="kpoint 20">
       <r>   -3.3073    1.0000 </r>
       <r>    1.5981    1.0000 </r>
       <r>    7.8354    1.0000 </r>
       <r>   10.0658    0.0000 </r>
       <r>   11.9938    0.0000 </r>
       <r>   14.1240    0.0000 </r>
       <r>   14.8585    0.0000 </r>
       <r>   14.9162    0.0000 </r>
      </set>
      <set comment="kpoint 21">
       <r>   -3.8154    1.0000 </r>
       <r>    2.2980    1.0000 </r>
       <r>    6.9246    1.0000 </r>
       <r>   10.0226    0.0000 </r>
       <r>   12.4891    0.0000 </r>
       <r>   14.8855    0.0000 </r>
       <r>   15.5429    0.0000 </r>
       <r>   16.9449    0.0000 </r>
      </set>
      <set comment="kpoint 22">
       <r>   -3.8087    1.0000 </r>
       <r>    3.4359    1.0000 </r>
       <r>    5.9828    1.0000 </r>
       <r>   10.6702    0.0000 </r>
       <r>   12.4738    0.0000 </r>
       <r>   13.8449    0.0000 </r>
       <r>   14.3485    0.0000 </r>
       <r>   16.1761    0.0000 </r>
      </set>
      <set comment="kpoint 23">
       <r>   -3.2878    1.0000 </r>
       <r>    4.6500    1.0000 </r>
       <r>    5.7432    1.0000 </r>
       <r>   10.0791    0.0000 </r>
       <r>   12.2578    0.0000 </r>
       <r>   12.5022    0.0000 </r>
       <r>   13.7702    0.0000 </r>
       <r>   14.6717    0.0000 </r>
      </set>
      <set comment="kpoint 24">
       <r>    0.3036    1.0000 </r>
       <r>    0.3303    1.0000 </r>
       <r>    6.6655    1.0000 </r>
       <r>    8.3860    1.0000 </r>
       <r>    9.9986    0.0000 </r>
       <r>   11.0477    0.0000 </r>
       <r>   14.5667    0.0000 </r>
       <r>   15.3699    0.0000 </r>
      </set>
      <set comment="kpoint 25">
       <r>   -1.3003    1.0000 </r>
       <r>   -0.0740    1.0000 </r>
       <r>    8.8033    0.9004 </r>
       <r>    9.5009    0.0001 </r>
       <r>   10.8291    0.0000 </r>
       <r>   12.2505    0.0000 </r>
       <r>   12.7086    0.0000 </r>
       <r>   13.8845    0.0000 </r>
      </set>
      <set comment="kpoint 26">
       <r>   -2.4343    1.0000 </r>
       <r>    0.0286    1.0000 </r>
       <r>    8.6043    0.9964 </r>
       <r>   10.6857    0.0000 </r>
       <r>   10.9728    0.0000 </r>
       <r>   13.1342    0.0000 </r>
       <r>   14.3234    0.0000 </r>
       <r>   14.4555    0.0000 </r>
      </set>
      <set comment="kpoint 27">
       <r>   -3.0644    1.0000 </r>
       <r>    0.6262    1.0000 </r>
       <r>    7.6103    1.0000 </r>
       <r>   10.8067    0.0000 </r>
       <r>   10.9803    0.0000 </r>
       <r>   14.1685    0.0000 </r>
       <r>   16.5755    0.0000 </r>
       <r>   16.9340    0.0000 </r>
[...]
       <r>    2.7630    1.0000 </r>
       <r>    4.2094    1.0000 </r>
       <r>    5.1758    1.0000 </r>
       <r>    6.2139    1.0000 </r>
       <r>   14.1385    0.0000 </r>
       <r>   15.3029    0.0000 </r>
       <r>   18.1217    0.0000 </r>
      </set>
      <set comment="kpoint 89">
       <r>    1.8909    1.0000 </r>
       <r>    2.0721    1.0000 </r>
       <r>    4.5129    1.0000 </r>
       <r>    4.8065    1.0000 </r>
       <r>    5.5111    1.0000 </r>
       <r>   14.4140    0.0000 </r>
       <r>   16.3674    0.0000 </r>
       <r>   17.0935    0.0000 </r>
      </set>
      <set comment="kpoint 90">
       <r>    2.0033    1.0000 </r>
       <r>    3.5099    1.0000 </r>
       <r>    4.3527    1.0000 </r>
       <r>    5.2635    1.0000 </r>
       <r>    6.0194    1.0000 </r>
       <r>   12.8830    0.0000 </r>
       <r>   13.7273    0.0000 </r>
       <r>   15.0518    0.0000 </r>
      </set>
      <set comment="kpoint 91">
       <r>    0.1443    1.0000 </r>
       <r>    5.6963    1.0000 </r>
       <r>    5.8828    1.0000 </r>
       <r>    6.6593    1.0000 </r>
       <r>    6.6593    1.0000 </r>
       <r>   11.9514    0.0000 </r>
       <r>   12.2864    0.0000 </r>
       <r>   12.2864    0.0000 </r>
      </set>
      <set comment="kpoint 92">
       <r>   -1.5899    1.0000 </r>
       <r>    1.4720    1.0000 </r>
       <r>    2.8726    1.0000 </r>
       <r>    5.8538    1.0000 </r>
       <r>   14.4220    0.0000 </r>
       <r>   14.6621    0.0000 </r>
       <r>   18.2370    0.0000 </r>
       <r>   20.0842    0.0000 </r>
      </set>
      <set comment="kpoint 93">
       <r>   -0.6286    1.0000 </r>
       <r>    0.5160    1.0000 </r>
       <r>    3.3403    1.0000 </r>
       <r>    4.4578    1.0000 </r>
       <r>   14.3635    0.0000 </r>
       <r>   14.4276    0.0000 </r>
       <r>   19.4418    0.0000 </r>
       <r>   20.3017    0.0000 </r>
      </set>
      <set comment="kpoint 94">
       <r>   -0.4998    1.0000 </r>
       <r>    1.3489    1.0000 </r>
       <r>    2.7675    1.0000 </r>
       <r>    4.5779    1.0000 </r>
       <r>   11.0820    0.0000 </r>
       <r>   17.4225    0.0000 </r>
       <r>   19.5540    0.0000 </r>
       <r>   20.1032    0.0000 </r>
      </set>
      <set comment="kpoint 95">
       <r>    0.5073    1.0000 </r>
       <r>    0.5319    1.0000 </r>
       <r>    3.3406    1.0000 </r>
       <r>    3.3538    1.0000 </r>
       <r>   10.9747    0.0000 </r>
       <r>   17.4449    0.0000 </r>
       <r>   20.2080    0.0000 </r>
       <r>   20.4805    0.0000 </r>
      </set>
      <set comment="kpoint 96">
       <r>    1.0188    1.0000 </r>
       <r>    1.7218    1.0000 </r>
       <r>    3.1417    1.0000 </r>
       <r>    3.8276    1.0000 </r>
       <r>    7.8714    1.0000 </r>
       <r>   17.3384    0.0000 </r>
       <r>   18.4711    0.0000 </r>
       <r>   19.2997    0.0000 </r>
      </set>
      <set comment="kpoint 97">
       <r>    2.3665    1.0000 </r>
       <r>    2.6754    1.0000 </r>
       <r>    3.9857    1.0000 </r>
       <r>    3.9857    1.0000 </r>
       <r>    5.2162    1.0000 </r>
       <r>   15.8642    0.0000 </r>
       <r>   16.2497    0.0000 </r>
       <r>   16.2498    0.0000 </r>
      </set>
      <set comment="kpoint 98">
       <r>    0.2679    1.0000 </r>
       <r>    0.9721    1.0000 </r>
       <r>    2.4110    1.0000 </r>
       <r>    3.1068    1.0000 </r>
       <r>   14.2178    0.0000 </r>
       <r>   14.2348    0.0000 </r>
       <r>   21.2508    0.0000 </r>
       <r>   21.7286    0.0000 </r>
      </set>
      <set comment="kpoint 99">
       <r>    1.0802    1.0000 </r>
       <r>    1.1177    1.0000 </r>
       <r>    2.5365    1.0000 </r>
       <r>    2.5365    1.0000 </r>
       <r>   10.8638    0.0000 </r>
       <r>   17.4676    0.0000 </r>
       <r>   21.1233    0.0000 </r>
       <r>   21.1504    0.0000 </r>
      </set>
     </set>
    </set>
   </array>
  </eigenvalues>
  <separator name="orbital magnetization" >
   <v name="MAGDIPOLOUT">      0.00000000      0.00000000      0.00000000</v>
  </separator>
  <dos>
   <i name="efermi">      8.98484140 </i>
   <total>
    <array>
     <dimension dim="1">gridpoints</dimension>
     <dimension dim="2">spin</dimension>
     <field>energy</field>
     <field>total</field>
     <field>integrated</field>
     <set>
      <set comment="spin 1">
       <r>    -6.5699     0.0000     0.0000 </r>
       <r>    -6.4689     0.0000     0.0000 </r>
       <r>    -6.3679     0.0000     0.0000 </r>
       <r>    -6.2669     0.0000     0.0000 </r>
       <r>    -6.1659     0.0000     0.0000 </r>
       <r>    -6.0650     0.0000     0.0000 </r>
       <r>    -5.9640     0.0000     0.0000 </r>
       <r>    -5.8630     0.0000     0.0000 </r>
       <r>    -5.7620     0.0000     0.0000 </r>
       <r>    -5.6610     0.0000     0.0000 </r>
       <r>    -5.5600     0.0000     0.0000 </r>
       <r>    -5.4590     0.0000     0.0000 </r>
       <r>    -5.3580     0.0000     0.0000 </r>
       <r>    -5.2570     0.0000     0.0000 </r>
       <r>    -5.1560     0.0000     0.0000 </r>
       <r>    -5.0550     0.0000     0.0000 </r>
       <r>    -4.9540     0.0002     0.0000 </r>
       <r>    -4.8530     0.0016     0.0002 </r>
       <r>    -4.7520     0.0068     0.0009 </r>
       <r>    -4.6510     0.0192     0.0028 </r>
       <r>    -4.5500     0.0406     0.0069 </r>
       <r>    -4.4490     0.0730     0.0143 </r>
       <r>    -4.3480     0.1130     0.0257 </r>
       <r>    -4.2470     0.1397     0.0398 </r>
       <r>    -4.1460     0.1387     0.0538 </r>
       <r>    -4.0451     0.1343     0.0674 </r>
       <r>    -3.9441     0.1624     0.0838 </r>
       <r>    -3.8431     0.2147     0.1055 </r>
       <r>    -3.7421     0.2417     0.1299 </r>
       <r>    -3.6411     0.2329     0.1534 </r>
       <r>    -3.5401     0.2253     0.1761 </r>
       <r>    -3.4391     0.2272     0.1991 </r>
       <r>    -3.3381     0.2322     0.2225 </r>
       <r>    -3.2371     0.2506     0.2478 </r>
       <r>    -3.1361     0.2773     0.2758 </r>
       <r>    -3.0351     0.2938     0.3055 </r>
       <r>    -2.9341     0.3069     0.3365 </r>
       <r>    -2.8331     0.3321     0.3701 </r>
       <r>    -2.7321     0.3310     0.4035 </r>
       <r>    -2.6311     0.2715     0.4309 </r>
       <r>    -2.5301     0.2275     0.4539 </r>
       <r>    -2.4291     0.2901     0.4832 </r>
       <r>    -2.3281     0.4238     0.5260 </r>
       <r>    -2.2271     0.4931     0.5758 </r>
       <r>    -2.1261     0.4492     0.6211 </r>
       <r>    -2.0252     0.3778     0.6593 </r>
       <r>    -1.9242     0.3351     0.6931 </r>
       <r>    -1.8232     0.3050     0.7239 </r>
       <r>    -1.7222     0.2873     0.7530 </r>
       <r>    -1.6212     0.2991     0.7832 </r>
       <r>    -1.5202     0.3400     0.8175 </r>
       <r>    -1.4192     0.4195     0.8599 </r>
       <r>    -1.3182     0.5283     0.9132 </r>
       <r>    -1.2172     0.5732     0.9711 </r>
       <r>    -1.1162     0.5013     1.0217 </r>
       <r>    -1.0152     0.4122     1.0634 </r>
       <r>    -0.9142     0.4144     1.1052 </r>
       <r>    -0.8132     0.4880     1.1545 </r>
       <r>    -0.7122     0.5420     1.2092 </r>
       <r>    -0.6112     0.5385     1.2636 </r>
       <r>    -0.5102     0.4911     1.3132 </r>
       <r>    -0.4092     0.4075     1.3544 </r>
       <r>    -0.3082     0.3219     1.3869 </r>
       <r>    -0.2072     0.2982     1.4170 </r>
       <r>    -0.1062     0.3639     1.4538 </r>
       <r>    -0.0053     0.4942     1.5037 </r>
       <r>     0.0957     0.6428     1.5686 </r>
       <r>     0.1967     0.7337     1.6427 </r>
       <r>     0.2977     0.6982     1.7132 </r>
       <r>     0.3987     0.5987     1.7737 </r>
       <r>     0.4997     0.5706     1.8313 </r>
       <r>     0.6007     0.6171     1.8936 </r>
       <r>     0.7017     0.6180     1.9561 </r>
       <r>     0.8027     0.5371     2.0103 </r>
       <r>     0.9037     0.4815     2.0589 </r>
       <r>     1.0047     0.5187     2.1113 </r>
       <r>     1.1057     0.6012     2.1720 </r>
       <r>     1.2067     0.6786     2.2406 </r>
       <r>     1.3077     0.7036     2.3116 </r>
       <r>     1.4087     0.6471     2.3770 </r>
       <r>     1.5097     0.5823     2.4358 </r>
       <r>     1.6107     0.5710     2.4935 </r>
       <r>     1.7117     0.5644     2.5505 </r>
       <r>     1.8127     0.5526     2.6063 </r>
       <r>     1.9137     0.5992     2.6668 </r>
       <r>     2.0146     0.6645     2.7339 </r>
       <r>     2.1156     0.6373     2.7983 </r>
       <r>     2.2166     0.5362     2.8524 </r>
       <r>     2.3176     0.4631     2.8992 </r>
       <r>     2.4186     0.4474     2.9444 </r>
       <r>     2.5196     0.4584     2.9907 </r>
       <r>     2.6206     0.4704     3.0382 </r>
       <r>     2.7216     0.4798     3.0866 </r>
       <r>     2.8226     0.4801     3.1351 </r>
       <r>     2.9236     0.4660     3.1822 </r>
       <r>     3.0246     0.4886     3.2315 </r>
       <r>     3.1256     0.5982     3.2919 </r>
       <r>     3.2266     0.7472     3.3674 </r>
       <r>     3.3276     0.8662     3.4549 </r>
       <r>     3.4286     0.9202     3.5478 </r>
       <r>     3.5296     0.8686     3.6355 </r>
       <r>     3.6306     0.7278     3.7091 </r>
       <r>     3.7316     0.5990     3.7695 </r>
       <r>     3.8326     0.5455     3.8246 </r>
       <r>     3.9336     0.5427     3.8795 </r>
       <r>     4.0345     0.5442     3.9344 </r>
       <r>     4.1355     0.5181     3.9867 </r>
       <r>     4.2365     0.4770     4.0349 </r>
       <r>     4.3375     0.4906     4.0845 </r>
       <r>     4.4385     0.5856     4.1436 </r>
       <r>     4.5395     0.6948     4.2138 </r>
       <r>     4.6405     0.7831     4.2929 </r>
       <r>     4.7415     0.9002     4.3838 </r>
       <r>     4.8425     1.0254     4.4873 </r>
       <r>     4.9435     1.0533     4.5937 </r>
       <r>     5.0445     0.9838     4.6931 </r>
       <r>     5.1455     0.8856     4.7825 </r>
       <r>     5.2465     0.7371     4.8570 </r>
       <r>     5.3475     0.5412     4.9116 </r>
       <r>     5.4485     0.4335     4.9554 </r>
       <r>     5.5495     0.4984     5.0057 </r>
       <r>     5.6505     0.6669     5.0731 </r>
       <r>     5.7515     0.8504     5.1590 </r>
       <r>     5.8525     1.0089     5.2609 </r>
       <r>     5.9535     1.0962     5.3716 </r>
       <r>     6.0544     1.0637     5.4790 </r>
       <r>     6.1554     0.9435     5.5743 </r>
       <r>     6.2564     0.8238     5.6575 </r>
       <r>     6.3574     0.7588     5.7341 </r>
       <r>     6.4584     0.7843     5.8133 </r>
       <r>     6.5594     0.8885     5.9031 </r>
       <r>     6.6604     0.9861     6.0027 </r>
       <r>     6.7614     1.0008     6.1038 </r>
       <r>     6.8624     0.9425     6.1989 </r>
       <r>     6.9634     0.9028     6.2901 </r>
       <r>     7.0644     0.9277     6.3838 </r>
       <r>     7.1654     0.9956     6.4844 </r>
       <r>     7.2664     1.0939     6.5948 </r>
       <r>     7.3674     1.1462     6.7106 </r>
       <r>     7.4684     1.0648     6.8181 </r>
       <r>     7.5694     0.9193     6.9110 </r>
       <r>     7.6704     0.8393     6.9958 </r>
       <r>     7.7714     0.8621     7.0828 </r>
       <r>     7.8724     0.8971     7.1734 </r>
       <r>     7.9734     0.8323     7.2575 </r>
       <r>     8.0743     0.7179     7.3300 </r>
       <r>     8.1753     0.6867     7.3993 </r>
       <r>     8.2763     0.7479     7.4749 </r>
       <r>     8.3773     0.8141     7.5571 </r>
       <r>     8.4783     0.8284     7.6408 </r>
       <r>     8.5793     0.7811     7.7196 </r>
       <r>     8.6803     0.6888     7.7892 </r>
       <r>     8.7813     0.6271     7.8525 </r>
       <r>     8.8823     0.6740     7.9206 </r>
       <r>     8.9833     0.7738     7.9988 </r>
       <r>     9.0843     0.7855     8.0781 </r>
       <r>     9.1853     0.6658     8.1453 </r>
       <r>     9.2863     0.5150     8.1974 </r>
       <r>     9.3873     0.4554     8.2433 </r>
       <r>     9.4883     0.5341     8.2973 </r>
       <r>     9.5893     0.6936     8.3673 </r>
       <r>     9.6903     0.8179     8.4499 </r>
       <r>     9.7913     0.8489     8.5357 </r>
       <r>     9.8923     0.8242     8.6189 </r>
       <r>     9.9933     0.8194     8.7017 </r>
       <r>    10.0942     0.8367     8.7862 </r>
       <r>    10.1952     0.7910     8.8661 </r>
       <r>    10.2962     0.6587     8.9326 </r>
       <r>    10.3972     0.5258     8.9857 </r>
       <r>    10.4982     0.4963     9.0358 </r>
       <r>    10.5992     0.5983     9.0962 </r>
       <r>    10.7002     0.7396     9.1709 </r>
       <r>    10.8012     0.8151     9.2533 </r>
       <r>    10.9022     0.8232     9.3364 </r>
       <r>    11.0032     0.8215     9.4194 </r>
       <r>    11.1042     0.8479     9.5050 </r>
       <r>    11.2052     0.9177     9.5977 </r>
       <r>    11.3062     1.0427     9.7030 </r>
       <r>    11.4072     1.1686     9.8210 </r>
       <r>    11.5082     1.1815     9.9403 </r>
       <r>    11.6092     1.0933    10.0508 </r>
       <r>    11.7102     1.0235    10.1541 </r>
       <r>    11.8112     0.9943    10.2545 </r>
       <r>    11.9122     0.9629    10.3518 </r>
       <r>    12.0132     0.9253    10.4452 </r>
       <r>    12.1141     0.9146    10.5376 </r>
       <r>    12.2151     0.9721    10.6358 </r>
       <r>    12.3161     1.0616    10.7430 </r>
       <r>    12.4171     1.0848    10.8526 </r>
       <r>    12.5181     1.0258    10.9562 </r>
       <r>    12.6191     0.9535    11.0525 </r>
       <r>    12.7201     0.9351    11.1469 </r>
       <r>    12.8211     0.9772    11.2456 </r>
       <r>    12.9221     1.0263    11.3492 </r>
       <r>    13.0231     1.0515    11.4554 </r>
       <r>    13.1241     1.0479    11.5613 </r>
       <r>    13.2251     1.0006    11.6623 </r>
       <r>    13.3261     0.9166    11.7549 </r>
       <r>    13.4271     0.8220    11.8379 </r>
       <r>    13.5281     0.7592    11.9146 </r>
       <r>    13.6291     0.8068    11.9961 </r>
       <r>    13.7301     0.9856    12.0956 </r>
       <r>    13.8311     1.1602    12.2128 </r>
       <r>    13.9321     1.1796    12.3319 </r>
       <r>    14.0331     1.0907    12.4421 </r>
       <r>    14.1340     1.0653    12.5496 </r>
       <r>    14.2350     1.1711    12.6679 </r>
       <r>    14.3360     1.3483    12.8041 </r>
       <r>    14.4370     1.4805    12.9536 </r>
       <r>    14.5380     1.4361    13.0987 </r>
       <r>    14.6390     1.2130    13.2212 </r>
       <r>    14.7400     0.9793    13.3201 </r>
       <r>    14.8410     0.8716    13.4081 </r>
       <r>    14.9420     0.8636    13.4953 </r>
       <r>    15.0430     0.8765    13.5838 </r>
       <r>    15.1440     0.8919    13.6739 </r>
       <r>    15.2450     0.9498    13.7698 </r>
       <r>    15.3460     1.0640    13.8773 </r>
       <r>    15.4470     1.1519    13.9936 </r>
       <r>    15.5480     1.0899    14.1037 </r>
       <r>    15.6490     0.8828    14.1929 </r>
       <r>    15.7500     0.6825    14.2618 </r>
       <r>    15.8510     0.5874    14.3211 </r>
       <r>    15.9520     0.5839    14.3801 </r>
       <r>    16.0530     0.6333    14.4441 </r>
       <r>    16.1539     0.6900    14.5138 </r>
       <r>    16.2549     0.7189    14.5864 </r>
       <r>    16.3559     0.7453    14.6616 </r>
       <r>    16.4569     0.8014    14.7426 </r>
       <r>    16.5579     0.8377    14.8272 </r>
       <r>    16.6589     0.7970    14.9077 </r>
       <r>    16.7599     0.7185    14.9802 </r>
       <r>    16.8609     0.6848    15.0494 </r>
       <r>    16.9619     0.7212    15.1222 </r>
       <r>    17.0629     0.7771    15.2007 </r>
       <r>    17.1639     0.7885    15.2803 </r>
       <r>    17.2649     0.7369    15.3548 </r>
       <r>    17.3659     0.6305    15.4184 </r>
       <r>    17.4669     0.4729    15.4662 </r>
       <r>    17.5679     0.2880    15.4953 </r>
       <r>    17.6689     0.1449    15.5099 </r>
       <r>    17.7699     0.1073    15.5207 </r>
       <r>    17.8709     0.1747    15.5384 </r>
       <r>    17.9719     0.2937    15.5681 </r>
       <r>    18.0729     0.3961    15.6081 </r>
       <r>    18.1738     0.4278    15.6513 </r>
       <r>    18.2748     0.3748    15.6891 </r>
       <r>    18.3758     0.2747    15.7169 </r>
       <r>    18.4768     0.1866    15.7357 </r>
       <r>    18.5778     0.1384    15.7497 </r>
       <r>    18.6788     0.1139    15.7612 </r>
       <r>    18.7798     0.0940    15.7707 </r>
       <r>    18.8808     0.0874    15.7795 </r>
       <r>    18.9818     0.1153    15.7911 </r>
       <r>    19.0828     0.1740    15.8087 </r>
       <r>    19.1838     0.2219    15.8311 </r>
       <r>    19.2848     0.2192    15.8533 </r>
       <r>    19.3858     0.1776    15.8712 </r>
       <r>    19.4868     0.1346    15.8848 </r>
       <r>    19.5878     0.0977    15.8947 </r>
       <r>    19.6888     0.0590    15.9006 </r>
       <r>    19.7898     0.0286    15.9035 </r>
       <r>    19.8908     0.0229    15.9058 </r>
       <r>    19.9918     0.0485    15.9107 </r>
       <r>    20.0928     0.0939    15.9202 </r>
       <r>    20.1937     0.1299    15.9333 </r>
       <r>    20.2947     0.1347    15.9469 </r>
       <r>    20.3957     0.1141    15.9584 </r>
       <r>    20.4967     0.0847    15.9670 </r>
       <r>    20.5977     0.0535    15.9724 </r>
       <r>    20.6987     0.0256    15.9750 </r>
       <r>    20.7997     0.0089    15.9759 </r>
       <r>    20.9007     0.0053    15.9764 </r>
       <r>    21.0017     0.0125    15.9777 </r>
       <r>    21.1027     0.0272    15.9804 </r>
       <r>    21.2037     0.0395    15.9844 </r>
       <r>    21.3047     0.0381    15.9882 </r>
       <r>    21.4057     0.0249    15.9908 </r>
       <r>    21.5067     0.0137    15.9921 </r>
       <r>    21.6077     0.0136    15.9935 </r>
       <r>    21.7087     0.0201    15.9955 </r>
       <r>    21.8097     0.0217    15.9977 </r>
       <r>    21.9107     0.0146    15.9992 </r>
       <r>    22.0117     0.0060    15.9998 </r>
       <r>    22.1127     0.0015    16.0000 </r>
       <r>    22.2136     0.0002    16.0000 </r>
       <r>    22.3146     0.0000    16.0000 </r>
       <r>    22.4156     0.0000    16.0000 </r>
       <r>    22.5166     0.0000    16.0000 </r>
       <r>    22.6176     0.0000    16.0000 </r>
       <r>    22.7186     0.0000    16.0000 </r>
       <r>    22.8196     0.0000    16.0000 </r>
       <r>    22.9206     0.0000    16.0000 </r>
       <r>    23.0216     0.0000    16.0000 </r>
       <r>    23.1226     0.0000    16.0000 </r>
       <r>    23.2236     0.0000    16.0000 </r>
       <r>    23.3246     0.0000    16.0000 </r>
       <r>    23.4256     0.0000    16.0000 </r>
       <r>    23.5266     0.0000    16.0000 </r>
       <r>    23.6276     0.0000    16.0000 </r>
       <r>    23.7286     0.0000    16.0000 </r>
      </set>
     </set>
    </array>
   </total>
  </dos>
 </calculation>
 <structure name="finalpos" >
  <crystal>
   <varray name="basis" >
    <v>      -2.38685523       2.38685523       1.35419294 </v>
    <v>       2.38685523      -2.38685523       1.35419294 </v>
    <v>       2.38685523       2.38685523      -1.35419294 </v>
   </varray>
   <i name="volume">     30.85977051 </i>
   <varray name="rec_basis" >
    <v>       0.00000000       0.20948066       0.36922361 </v>
    <v>       0.20948066       0.00000000       0.36922361 </v>
    <v>       0.20948066       0.20948066       0.00000000 </v>
   </varray>
  </crystal>
  <varray name="positions" >
   <v>       0.25000000       0.75000000       0.50000000 </v>
   <v>       0.00000000       0.00000000      -0.00000000 </v>
  </varray>
 </structure>
</modeling>
