    2    2   15    1
  0.2001288E+02  0.3839590E-09  0.3839590E-09  0.3839590E-09  0.5000000E-15
  1.000000000000000E-004
  CAR 
 unknown system                          
      8     28      8
 
  0.8333333E-01  0.8333333E-01  0.8333333E-01  0.9259259E-02
    1       -6.040748   1.000000
    2        4.971659   1.000000
    3        5.685580   0.999257
    4        5.685580   0.999257
    5        8.441766   0.000000
    6        8.608295   0.000000
    7        8.608295   0.000000
    8        9.866715   0.000000
 
  0.2500000E+00  0.8333333E-01  0.8333333E-01  0.2777778E-01
    1       -5.562225   1.000000
    2        2.888477   1.000000
    3        4.444517   1.000000
    4        5.476124   0.999998
    5        8.551343   0.000000
    6        9.004244   0.000000
    7        9.364181   0.000000
    8       11.576097   0.000000
 
  0.4166667E+00  0.8333333E-01  0.8333333E-01  0.2777778E-01
    1       -4.465002   1.000000
    2        0.114556   1.000000
    3        3.981054   1.000000
    4        4.837096   1.000000
    5        8.042106   0.000000
    6        9.384177   0.000000
    7        9.423507   0.000000
    8       13.319484   0.000000
 
 -0.4166667E+00  0.8333333E-01  0.8333333E-01  0.2777778E-01
    1       -3.761821   1.000000
    2       -1.035989   1.000000
    3        4.049338   1.000000
    4        4.454585   1.000000
    5        7.881726   0.000000
    6        9.097915   0.000000
    7        9.526467   0.000000
    8       13.751360   0.000000
 
 -0.2500000E+00  0.8333333E-01  0.8333333E-01  0.2777778E-01
    1       -4.878855   1.000000
    2        0.964874   1.000000
    3        4.513352   1.000000
    4        4.550552   1.000000
    5        8.126657   0.000000
    6        9.131192   0.000000
    7        9.922253   0.000000
    8       11.801466   0.000000
 
 -0.8333333E-01  0.8333333E-01  0.8333333E-01  0.2777778E-01
    1       -5.799190   1.000000
    2        3.903556   1.000000
    3        5.036008   1.000000
    4        5.226801   1.000000
    5        8.143458   0.000000
    6        9.060328   0.000000
    7        9.514119   0.000000
    8       10.737440   0.000000
 
  0.2500000E+00  0.2500000E+00  0.8333333E-01  0.2777778E-01
    1       -5.320160   1.000000
    2        2.706134   1.000000
    3        4.290324   1.000000
    4        4.303074   1.000000
    5        7.555667   0.000000
    6        9.730803   0.000000
    7       10.514606   0.000000
    8       10.741562   0.000000
 
  0.4166667E+00  0.2500000E+00  0.8333333E-01  0.5555556E-01
    1       -4.405981   1.000000
    2        0.860729   1.000000
    3        2.963704   1.000000
    4        3.915170   1.000000
    5        7.954043   0.000000
    6        9.578900   0.000000
    7       10.395450   0.000000
    8       11.856357   0.000000
 
 -0.4166667E+00  0.2500000E+00  0.8333333E-01  0.5555556E-01
    1       -3.282865   1.000000
    2       -0.901506   1.000000
    3        2.361573   1.000000
    4        3.686200   1.000000
    5        8.203445   0.000000
    6        9.768516   0.000000
    7       11.729557   0.000000
    8       12.113517   0.000000
 
 -0.2500000E+00  0.2500000E+00  0.8333333E-01  0.5555556E-01
    1       -4.009376   1.000000
    2        0.163629   1.000000
    3        2.316874   1.000000
    4        4.175967   1.000000
    5        8.813614   0.000000
    6        9.437095   0.000000
    7       11.125709   0.000000
    8       11.599268   0.000000
 
 -0.8333333E-01  0.2500000E+00  0.8333333E-01  0.5555556E-01
    1       -5.093733   1.000000
    2        1.862858   1.000000
    3        3.664338   1.000000
    4        4.848878   1.000000
    5        8.450701   0.000000
    6        9.350203   0.000000
    7       10.396049   0.000000
    8       10.726317   0.000000
 
  0.4166667E+00  0.4166667E+00  0.8333333E-01  0.2777778E-01
    1       -3.691791   1.000000
    2        0.034697   1.000000
    3        2.927156   1.000000
    4        3.270722   1.000000
    5        6.719044   0.000018
    6        7.691657   0.000000
    7       13.424335   0.000000
    8       13.468348   0.000000
 
 -0.4166667E+00  0.4166667E+00  0.8333333E-01  0.5555556E-01
    1       -2.490028   1.000000
    2       -1.310331   1.000000
    3        2.078288   1.000000
    4        2.860138   1.000000
    5        7.343521   0.000000
    6        8.470971   0.000000
    7       12.954880   0.000000
    8       14.442171   0.000000
 
 -0.2500000E+00  0.4166667E+00  0.8333333E-01  0.5555556E-01
    1       -2.861147   1.000000
    2       -0.976660   1.000000
    3        1.592872   1.000000
    4        3.408642   1.000000
    5        7.967814   0.000000
    6       10.888884   0.000000
    7       11.885599   0.000000
    8       12.570340   0.000000
 
 -0.8333333E-01  0.4166667E+00  0.8333333E-01  0.5555556E-01
    1       -3.896118   1.000000
    2       -0.529790   1.000000
    3        3.268032   1.000000
    4        4.274926   1.000000
    5        8.437715   0.000000
    6        9.032664   0.000000
    7       10.372402   0.000000
    8       12.593922   0.000000
 
 -0.4166667E+00 -0.4166667E+00  0.8333333E-01  0.2777778E-01
    1       -2.583026   1.000000
    2       -1.318805   1.000000
    3        2.656220   1.000000
    4        3.054710   1.000000
    5        6.602045   0.000479
    6        7.171467   0.000000
    7       14.909525   0.000000
    8       15.010824   0.000000
 
 -0.2500000E+00 -0.4166667E+00  0.8333333E-01  0.5555556E-01
    1       -3.522043   1.000000
    2       -0.190290   1.000000
    3        2.403161   1.000000
    4        3.202037   1.000000
    5        7.557066   0.000000
    6        8.839260   0.000000
    7       11.596868   0.000000
    8       13.417116   0.000000
 
 -0.2500000E+00 -0.2500000E+00  0.8333333E-01  0.2777778E-01
    1       -4.612583   1.000000
    2        1.404443   1.000000
    3        3.475314   1.000000
    4        3.694398   1.000000
    5        7.044334   0.000000
    6        8.609557   0.000000
    7       11.879688   0.000000
    8       12.073002   0.000000
 
  0.2500000E+00  0.2500000E+00  0.2500000E+00  0.9259259E-02
    1       -5.331752   1.000000
    2        1.903915   1.000000
    3        5.070266   1.000000
    4        5.070266   1.000000
    5        7.862354   0.000000
    6        9.339155   0.000000
    7        9.339155   0.000000
    8       12.754433   0.000000
 
  0.4166667E+00  0.2500000E+00  0.2500000E+00  0.2777778E-01
    1       -4.649726   1.000000
    2        0.971979   1.000000
    3        2.927537   1.000000
    4        4.901107   1.000000
    5        8.617572   0.000000
    6        9.835807   0.000000
    7       10.007952   0.000000
    8       11.967076   0.000000
 
 -0.4166667E+00  0.2500000E+00  0.2500000E+00  0.2777778E-01
    1       -3.464682   1.000000
    2       -0.472135   1.000000
    3        1.813708   1.000000
    4        4.110564   1.000000
    5        7.854909   0.000000
    6       11.156529   0.000000
    7       11.270174   0.000000
    8       13.016716   0.000000
 
 -0.2500000E+00  0.2500000E+00  0.2500000E+00  0.2777778E-01
    1       -3.412575   1.000000
    2       -0.551557   1.000000
    3        2.296353   1.000000
    4        3.625897   1.000000
    5        7.350203   0.000000
    6       10.278554   0.000000
    7       11.579723   0.000000
    8       11.752669   0.000000
 
  0.4166667E+00  0.4166667E+00  0.2500000E+00  0.2777778E-01
    1       -4.223690   1.000000
    2        0.159822   1.000000
    3        3.398583   1.000000
    4        4.000660   1.000000
    5        7.841425   0.000000
    6       10.091899   0.000000
    7       10.727933   0.000000
    8       10.883069   0.000000
 
 -0.4166667E+00  0.4166667E+00  0.2500000E+00  0.5555556E-01
    1       -3.216853   1.000000
    2       -0.582653   1.000000
    3        1.913875   1.000000
    4        3.198617   1.000000
    5        9.058152   0.000000
    6        9.598081   0.000000
    7       10.588468   0.000000
    8       13.329027   0.000000
 
 -0.2500000E+00  0.4166667E+00  0.2500000E+00  0.5555556E-01
    1       -2.381763   1.000000
    2       -1.318095   1.000000
    3        1.746360   1.000000
    4        2.526628   1.000000
    5        8.854153   0.000000
    6       10.116050   0.000000
    7       10.944416   0.000000
    8       12.330275   0.000000
 
 -0.4166667E+00 -0.4166667E+00  0.2500000E+00  0.2777778E-01
    1       -2.593097   1.000000
    2       -1.225542   1.000000
    3        1.619455   1.000000
    4        3.430617   1.000000
    5        7.069751   0.000000
    6        9.994278   0.000000
    7       12.935005   0.000000
    8       13.149057   0.000000
 
  0.4166667E+00  0.4166667E+00  0.4166667E+00  0.9259259E-02
    1       -4.133598   1.000000
    2       -0.633595   1.000000
    3        4.681474   1.000000
    4        4.681474   1.000000
    5        7.427768   0.000000
    6        9.226969   0.000000
    7        9.226969   0.000000
    8       13.638056   0.000000
 
 -0.4166667E+00  0.4166667E+00  0.4166667E+00  0.2777778E-01
    1       -3.525320   1.000000
    2       -0.934802   1.000000
    3        2.839957   1.000000
    4        4.238341   1.000000
    5        8.018423   0.000000
    6        9.900052   0.000000
    7       10.228648   0.000000
    8       13.811305   0.000000
