unknown system                          
           1
    -2.450000    2.450000    1.274000
     2.450000   -2.450000    1.274000
     2.450000    2.450000   -1.274000
   Si
   2
Direct configuration=     1
   0.25000000  0.75000000  0.50000000
   0.00000000  0.00000000  0.00000000
unknown system                          
           1
    -2.385397    2.385397    1.366640
     2.385397   -2.385397    1.366640
     2.385397    2.385397   -1.366640
   Si
   2
Direct configuration=     2
   0.25000000  0.75000000  0.50000000
   0.00000000 -0.00000000  0.00000000
unknown system                          
           1
    -2.325318    2.325318    1.452793
     2.325318   -2.325318    1.452793
     2.325318    2.325318   -1.452793
   Si
   2
Direct configuration=     3
   0.25000000  0.75000000  0.50000000
   0.00000000 -0.00000000  0.00000000
unknown system                          
           1
    -2.304508    2.304508    1.482633
     2.304508   -2.304508    1.482633
     2.304508    2.304508   -1.482633
   Si
   2
Direct configuration=     4
   0.25000000  0.75000000  0.50000000
   0.00000000 -0.00000000  0.00000000
unknown system                          
           1
    -2.307598    2.307598    1.478202
     2.307598   -2.307598    1.478202
     2.307598    2.307598   -1.478202
   Si
   2
Direct configuration=     5
   0.25000000  0.75000000  0.50000000
   0.00000000 -0.00000000  0.00000000
unknown system                          
           1
    -2.312907    2.312907    1.470590
     2.312907   -2.312907    1.470590
     2.312907    2.312907   -1.470590
   Si
   2
Direct configuration=     6
   0.25000000  0.75000000  0.50000000
   0.00000000 -0.00000000  0.00000000
unknown system                          
           1
    -2.310848    2.310848    1.473542
     2.310848   -2.310848    1.473542
     2.310848    2.310848   -1.473542
   Si
   2
Direct configuration=     7
   0.25000000  0.75000000  0.50000000
   0.00000000 -0.00000000  0.00000000
unknown system                          
           1
    -2.308894    2.308894    1.476343
     2.308894   -2.308894    1.476343
     2.308894    2.308894   -1.476343
   Si
   2
Direct configuration=     8
   0.25000000  0.75000000  0.50000000
   0.00000000 -0.00000000  0.00000000
unknown system                          
           1
    -2.308397    2.308397    1.477056
     2.308397   -2.308397    1.477056
     2.308397    2.308397   -1.477056
   Si
   2
Direct configuration=     9
   0.25000000  0.75000000  0.50000000
   0.00000000 -0.00000000  0.00000000
unknown system                          
           1
    -2.308323    2.308323    1.477162
     2.308323   -2.308323    1.477162
     2.308323    2.308323   -1.477162
   Si
   2
Direct configuration=    10
   0.25000000  0.75000000  0.50000000
   0.00000000 -0.00000000  0.00000000
unknown system                          
           1
    -2.298308    2.298308    1.473244
     2.298308   -2.298308    1.473244
     2.298308    2.298308   -1.473244
   Si
   2
Direct configuration=    11
   0.25000000  0.75000000  0.50000000
   0.00000000  0.00000000  0.00000000
unknown system                          
           1
    -2.302369    2.302369    1.474833
     2.302369   -2.302369    1.474833
     2.302369    2.302369   -1.474833
   Si
   2
Direct configuration=    12
   0.25000000  0.75000000  0.50000000
   0.00000000 -0.00000000  0.00000000
unknown system                          
           1
    -2.304267    2.304267    1.475575
     2.304267   -2.304267    1.475575
     2.304267    2.304267   -1.475575
   Si
   2
Direct configuration=    13
   0.25000000  0.75000000  0.50000000
   0.00000000 -0.00000000  0.00000000
unknown system                          
           1
    -2.304110    2.304110    1.475514
     2.304110   -2.304110    1.475514
     2.304110    2.304110   -1.475514
   Si
   2
Direct configuration=    14
   0.25000000  0.75000000  0.50000000
   0.00000000 -0.00000000  0.00000000
unknown system                          
           1
    -2.303240    2.303240    1.475173
     2.303240   -2.303240    1.475173
     2.303240    2.303240   -1.475173
   Si
   2
Direct configuration=    15
   0.25000000  0.75000000  0.50000000
   0.00000000 -0.00000000  0.00000000
