unknown system                          
   1.00000000000000     
     0.000000    2.779640    2.779640
     2.779640    0.000000    2.779640
     2.779640    2.779640    0.000000
   Si
     2
Direct
  0.500000  0.500000  0.500000
  0.750000  0.750000  0.750000
 
   36   36   36
 0.69910     0.71561     0.76628     0.85442     0.98501      1.1642      1.3985      1.6948      2.0587      2.4939    
  2.9993      3.5670      4.1792      4.8072      5.4123      5.9497      6.3738      6.6459      6.7397      6.6459    
  6.3738      5.9497      5.4124      4.8073      4.1793      3.5670      2.9993      2.4938      2.0587      1.6948    
  1.3985      1.1641     0.98501     0.85442     0.76628     0.71561     0.71561     0.74460     0.80446     0.89868    
  1.0319      1.2096      1.4371      1.7193      2.0595      2.4582      2.9109      3.4065      3.9257      4.4405    
  4.9165      5.3166      5.6061      5.7582      5.7582      5.6061      5.3166      4.9166      4.4405      3.9257    
  3.4066      2.9109      2.4581      2.0595      1.7193      1.4371      1.2096      1.0320     0.89868     0.80446    
 0.74460     0.71560     0.76628     0.80446     0.87057     0.96800      1.1010      1.2740      1.4912      1.7557    
  2.0686      2.4277      2.8258      3.2499      3.6806      4.0922      4.4554      4.7409      4.9236      4.9865    
  4.9236      4.7409      4.4554      4.0922      3.6806      3.2499      2.8257      2.4276      2.0686      1.7557    
  1.4912      1.2740      1.1010     0.96801     0.87056     0.80445     0.76627     0.75380     0.85442     0.89868    
 0.96800      1.0656      1.1950      1.3600      1.5633      1.8066      2.0888      2.4056      2.7483      3.1034    
  3.4523      3.7725      4.0404      4.2336      4.3349      4.3349      4.2336      4.0404      3.7725      3.4522    
  3.1034      2.7483      2.4055      2.0887      1.8066      1.5633      1.3600      1.1950      1.0656     0.96801    
 0.89867     0.85440     0.83288     0.83289     0.98501      1.0319      1.1010      1.1950      1.3172      1.4701    
  1.6556      1.8735      2.1216      2.3940      2.6816      2.9712      3.2461      3.4876      3.6769      3.7978    
  3.8394      3.7978      3.6769      3.4875      3.2460      2.9711      2.6816      2.3940      2.1216      1.8736    
  1.6556      1.4701      1.3172      1.1950      1.1010      1.0319     0.98499     0.95782     0.94894     0.95783    
  1.1642      1.2096      1.2740      1.3600      1.4701      1.6062      1.7690      1.9573      2.1677      2.3940    
  2.6273      2.8557      3.0648      3.2394      3.3654      3.4314      3.4314      3.3654      3.2394      3.0648    
  2.8556      2.6273      2.3940      2.1677      1.9573      1.7691      1.6063      1.4701      1.3600      1.2740    
  1.2096      1.1641      1.1353      1.1213      1.1213      1.1353      1.3985      1.4371      1.4912      1.5633    
  1.6556      1.7690      1.9035      2.0573      2.2266      2.4056      2.5861      2.7578      2.9091      3.0280    
  3.1040      3.1302      3.1040      3.0280      2.9091      2.7578      2.5861      2.4056      2.2266      2.0573    
  1.9036      1.7691      1.6556      1.5633      1.4912      1.4371      1.3985      1.3730      1.3586      1.3540    
  1.3586      1.3731      1.6948      1.7193      1.7557      1.8066      1.8735      1.9573      2.0573      2.1716    
  2.2967      2.4277      2.5574      2.6774      2.7785      2.8518      2.8904      2.8904      2.8518      2.7785    
  2.6774      2.5574      2.4277      2.2968      2.1716      2.0573      1.9573      1.8735      1.8066      1.7557    
  1.7193      1.6948      1.6795      1.6710      1.6672      1.6672      1.6709      1.6795      2.0587      2.0595    
  2.0686      2.0888      2.1216      2.1677      2.2266      2.2967      2.3753      2.4582      2.5396      2.6131    
  2.6718      2.7098      2.7230      2.7098      2.6718      2.6131      2.5396      2.4582      2.3753      2.2967    
  2.2266      2.1676      2.1215      2.0887      2.0686      2.0595      2.0587      2.0630      2.0691      2.0740    
  2.0759      2.0740      2.0691      2.0630      2.4939      2.4582      2.4277      2.4056      2.3940      2.3940    
  2.4056      2.4277      2.4582      2.4939      2.5305      2.5636      2.5885      2.6019      2.6019      2.5885    
  2.5636      2.5306      2.4939      2.4581      2.4276      2.4055      2.3940      2.3940      2.4055      2.4276    
  2.4581      2.4939      2.5306      2.5636      2.5885      2.6019      2.6019      2.5885      2.5636      2.5305    
  2.9993      2.9109      2.8258      2.7483      2.6816      2.6273      2.5861      2.5574      2.5396      2.5305    
  2.5274      2.5274      2.5284      2.5289      2.5284      2.5274      2.5274      2.5305      2.5396      2.5573    
  2.5860      2.6273      2.6816      2.7483      2.8257      2.9109      2.9993      3.0852      3.1621      3.2230    
  3.2622      3.2758      3.2622      3.2230      3.1620      3.0852      3.5670      3.4065      3.2499      3.1034    
  2.9712      2.8557      2.7578      2.6774      2.6131      2.5636      2.5274      2.5037      2.4919      2.4919    
  2.5037      2.5274      2.5636      2.6130      2.6773      2.7577      2.8556      2.9711      3.1034      3.2500    
  3.4066      3.5670      3.7232      3.8657      3.9842      4.0695      4.1141      4.1141      4.0695      3.9842    
  3.8656      3.7232      4.1792      3.9257      3.6806      3.4523      3.2461      3.0648      2.9091      2.7785    
  2.6718      2.5885      2.5284      2.4919      2.4797      2.4919      2.5284      2.5885      2.6718      2.7784    
  2.9090      3.0647      3.2460      3.4523      3.6807      3.9257      4.1792      4.4299      4.6644      4.8677    
  5.0256      5.1259      5.1603      5.1259      5.0257      4.8677      4.6643      4.4299      4.8072      4.4405    
  4.0922      3.7725      3.4876      3.2394      3.0280      2.8518      2.7098      2.6019      2.5289      2.4919    
  2.4919      2.5289      2.6019      2.7097      2.8517      3.0278      3.2394      3.4875      3.7726      4.0922    
  4.4405      4.8072      5.1775      5.5330      5.8528      6.1160      6.3037      6.4014      6.4014      6.3037    
  6.1161      5.8528      5.5330      5.1775      5.4123      4.9165      4.4554      4.0404      3.6769      3.3654    
  3.1040      2.8904      2.7230      2.6019      2.5284      2.5037      2.5284      2.6019      2.7229      2.8903    
  3.1039      3.3653      3.6769      4.0405      4.4555      4.9166      5.4124      5.9247      6.4298      6.8996    
  7.3048      7.6178      7.8157      7.8835      7.8157      7.6178      7.3048      6.8996      6.4298      5.9247    
  5.9497      5.3166      4.7409      4.2336      3.7978      3.4314      3.1302      2.8904      2.7098      2.5885    
  2.5274      2.5274      2.5885      2.7097      2.8903      3.1301      3.4314      3.7978      4.2337      4.7410    
  5.3167      5.9496      6.6198      7.2981      7.9491      8.5339      9.0142      9.3561      9.5339      9.5339    
  9.3561      9.0142      8.5339      7.9491      7.2981      6.6198      6.3738      5.6061      4.9236      4.3349    
  3.8394      3.4314      3.1040      2.8518      2.6718      2.5636      2.5274      2.5636      2.6718      2.8517    
  3.1039      3.4314      3.8394      4.3350      4.9237      5.6061      6.3738      7.2065      8.0720      8.9280    
  9.7262      10.416      10.950      11.289      11.405      11.289      10.950      10.416      9.7262      8.9280    
  8.0720      7.2065      6.6459      5.7582      4.9865      4.3349      3.7978      3.3654      3.0280      2.7785    
  2.6131      2.5306      2.5305      2.6130      2.7784      3.0278      3.3653      3.7978      4.3350      4.9866    
  5.7582      6.6458      7.6322      8.6846      9.7567      10.792      11.729      12.504      13.059      13.350    
  13.350      13.059      12.504      11.729      10.792      9.7567      8.6847      7.6323      6.7397      5.7582    
  4.9236      4.2336      3.6769      3.2394      2.9091      2.6774      2.5396      2.4939      2.5396      2.6773    
  2.9090      3.2394      3.6769      4.2337      4.9237      5.7582      6.7396      7.8562      9.0785      10.360    
  11.639      12.846      13.903      14.733      15.264      15.447      15.264      14.733      13.903      12.846    
  11.639      10.360      9.0785      7.8563      6.6459      5.6061      4.7409      4.0404      3.4875      3.0648    
  2.7578      2.5574      2.4582      2.4581      2.5573      2.7577      3.0647      3.4875      4.0405      4.7410    
  5.6061      6.6458      7.8562      9.2144      10.678      12.185      13.664      15.026      16.171      16.999    
  17.432      17.432      16.999      16.171      15.025      13.663      12.185      10.678      9.2144      7.8563    
  6.3738      5.3166      4.4554      3.7725      3.2460      2.8556      2.5861      2.4277      2.3753      2.4276    
  2.5860      2.8556      3.2460      3.7726      4.4555      5.3167      6.3738      7.6322      9.0785      10.678    
  12.374      14.097      15.755      17.229      18.389      19.132      19.388      19.132      18.389      17.228    
  15.755      14.097      12.374      10.678      9.0785      7.6322      5.9497      4.9166      4.0922      3.4522    
  2.9711      2.6273      2.4056      2.2968      2.2967      2.4055      2.6273      2.9711      3.4523      4.0922    
  4.9166      5.9496      7.2065      8.6846      10.360      12.185      14.097      16.008      17.789      19.291    
  20.380      20.953      20.953      20.380      19.291      17.789      16.008      14.097      12.185      10.360    
  8.6846      7.2065      5.4124      4.4405      3.6806      3.1034      2.6816      2.3940      2.2266      2.1716    
  2.2266      2.3940      2.6816      3.1034      3.6807      4.4405      5.4124      6.6198      8.0720      9.7567    
  11.639      13.664      15.755      17.789      19.603      21.042      21.971      22.293      21.971      21.042    
  19.603      17.789      15.755      13.664      11.639      9.7567      8.0719      6.6198      4.8073      3.9257    
  3.2499      2.7483      2.3940      2.1677      2.0573      2.0573      2.1676      2.3940      2.7483      3.2500    
  3.9257      4.8072      5.9247      7.2981      8.9280      10.792      12.846      15.026      17.229      19.291    
  21.042      22.325      23.005      23.005      22.325      21.042      19.291      17.228      15.025      12.846    
  10.792      8.9280      7.2981      5.9248      4.1793      3.4066      2.8257      2.4055      2.1216      1.9573    
  1.9036      1.9573      2.1215      2.4055      2.8257      3.4066      4.1792      5.1775      6.4298      7.9491    
  9.7262      11.729      13.903      16.171      18.389      20.380      21.971      23.005      23.365      23.005    
  21.971      20.380      18.389      16.171      13.903      11.729      9.7261      7.9490      6.4298      5.1776    
  3.5670      2.9109      2.4276      2.0887      1.8736      1.7691      1.7691      1.8735      2.0887      2.4276    
  2.9109      3.5670      4.4299      5.5330      6.8996      8.5339      10.416      12.504      14.733      16.999    
  19.132      20.953      22.293      23.005      23.005      22.293      20.954      19.132      16.999      14.733    
  12.504      10.416      8.5338      6.8996      5.5331      4.4300      2.9993      2.4581      2.0686      1.8066    
  1.6556      1.6063      1.6556      1.8066      2.0686      2.4581      2.9993      3.7232      4.6644      5.8528    
  7.3048      9.0142      10.950      13.059      15.264      17.432      19.388      20.953      21.971      22.325    
  21.971      20.954      19.388      17.432      15.264      13.059      10.950      9.0141      7.3048      5.8529    
  4.6644      3.7233      2.4938      2.0595      1.7557      1.5633      1.4701      1.4701      1.5633      1.7557    
  2.0595      2.4939      3.0852      3.8657      4.8677      6.1160      7.6178      9.3561      11.289      13.350    
  15.447      17.432      19.132      20.380      21.042      21.042      20.380      19.132      17.432      15.447    
  13.350      11.289      9.3560      7.6178      6.1161      4.8678      3.8658      3.0853      2.0587      1.7193    
  1.4912      1.3600      1.3172      1.3600      1.4912      1.7193      2.0587      2.5306      3.1621      3.9842    
  5.0256      6.3037      7.8157      9.5339      11.405      13.350      15.264      16.999      18.389      19.291    
  19.603      19.291      18.389      16.999      15.264      13.350      11.405      9.5339      7.8157      6.3038    
  5.0258      3.9843      3.1621      2.5306      1.6948      1.4371      1.2740      1.1950      1.1950      1.2740    
  1.4371      1.6948      2.0630      2.5636      3.2230      4.0695      5.1259      6.4014      7.8835      9.5339    
  11.289      13.059      14.733      16.171      17.228      17.789      17.789      17.228      16.171      14.733    
  13.059      11.289      9.5339      7.8835      6.4015      5.1260      4.0696      3.2231      2.5636      2.0630    
  1.3985      1.2096      1.1010      1.0656      1.1010      1.2096      1.3985      1.6795      2.0691      2.5885    
  3.2622      4.1141      5.1603      6.4014      7.8157      9.3561      10.950      12.504      13.903      15.025    
  15.755      16.008      15.755      15.025      13.903      12.504      10.950      9.3560      7.8157      6.4015    
  5.1604      4.1142      3.2623      2.5885      2.0691      1.6795      1.1641      1.0320     0.96801     0.96801    
  1.0319      1.1641      1.3730      1.6710      2.0740      2.6019      3.2758      4.1141      5.1259      6.3037    
  7.6178      9.0142      10.416      11.729      12.846      13.663      14.097      14.097      13.664      12.846    
  11.729      10.416      9.0141      7.6178      6.3038      5.1260      4.1142      3.2758      2.6019      2.0740    
  1.6709      1.3730     0.98501     0.89868     0.87056     0.89867     0.98499      1.1353      1.3586      1.6672    
  2.0759      2.6019      3.2622      4.0695      5.0257      6.1161      7.3048      8.5339      9.7262      10.792    
  11.639      12.185      12.374      12.185      11.639      10.792      9.7261      8.5338      7.3048      6.1161    
  5.0258      4.0696      3.2623      2.6019      2.0759      1.6671      1.3586      1.1353     0.85442     0.80446    
 0.80445     0.85440     0.95782      1.1213      1.3540      1.6672      2.0740      2.5885      3.2230      3.9842    
  4.8677      5.8528      6.8996      7.9491      8.9280      9.7567      10.360      10.678      10.678      10.360    
  9.7567      8.9280      7.9490      6.8996      5.8529      4.8678      3.9843      3.2231      2.5885      2.0740    
  1.6671      1.3539      1.1213     0.95783     0.76628     0.74460     0.76627     0.83288     0.94894      1.1213    
  1.3586      1.6709      2.0691      2.5636      3.1620      3.8656      4.6643      5.5330      6.4298      7.2981    
  8.0720      8.6847      9.0785      9.2144      9.0785      8.6846      8.0719      7.2981      6.4298      5.5331    
  4.6644      3.8658      3.1621      2.5636      2.0691      1.6709      1.3586      1.1213     0.94894     0.83290    
 0.71561     0.71560     0.75380     0.83289     0.95783      1.1353      1.3731      1.6795      2.0630      2.5305    
  3.0852      3.7232      4.4299      5.1775      5.9247      6.6198      7.2065      7.6323      7.8563      7.8563    
  7.6322      7.2065      6.6198      5.9248      5.1776      4.4300      3.7233      3.0853      2.5306      2.0630    
  1.6795      1.3730      1.1353     0.95783     0.83290     0.75381     0.71561     0.74460     0.80446     0.89868    
  1.0319      1.2096      1.4371      1.7193      2.0595      2.4582      2.9109      3.4065      3.9257      4.4405    
  4.9165      5.3166      5.6061      5.7582      5.7582      5.6061      5.3166      4.9166      4.4405      3.9257    
  3.4066      2.9109      2.4581      2.0595      1.7193      1.4371      1.2096      1.0320     0.89868     0.80446    
 0.74460     0.71561     0.74460     0.78206     0.84687     0.94237      1.0727      1.2422      1.4552      1.7149    
  2.0223      2.3753      2.7671      3.1845      3.6083      4.0132      4.3703      4.6509      4.8304      4.8921    
  4.8304      4.6509      4.3703      4.0132      3.6084      3.1846      2.7671      2.3753      2.0222      1.7148    
  1.4552      1.2422      1.0727     0.94237     0.84687     0.78205     0.74459     0.73236     0.80446     0.84687    
 0.91324      1.0066      1.1305      1.2886      1.4839      1.7181      1.9904      2.2967      2.6285      2.9723    
  3.3098      3.6194      3.8780      4.0643      4.1620      4.1620      4.0643      3.8780      3.6194      3.3098    
  2.9722      2.6285      2.2967      1.9904      1.7180      1.4839      1.2886      1.1305      1.0066     0.91324    
 0.84686     0.80445     0.78381     0.78382     0.89868     0.94237      1.0066      1.0941      1.2081      1.3513    
  1.5258      1.7319      1.9673      2.2266      2.5006      2.7764      3.0379      3.2672      3.4467      3.5612    
  3.6005      3.5612      3.4467      3.2672      3.0379      2.7763      2.5005      2.2266      1.9673      1.7319    
  1.5258      1.3513      1.2081      1.0941      1.0066     0.94236     0.89867     0.87336     0.86508     0.87337    
  1.0319      1.0727      1.1305      1.2081      1.3081      1.4328      1.5832      1.7584      1.9552      2.1677    
  2.3869      2.6012      2.7971      2.9603      3.0778      3.1393      3.1393      3.0778      2.9603      2.7971    
  2.6012      2.3868      2.1676      1.9552      1.7584      1.5832      1.4329      1.3082      1.2081      1.1305    
  1.0727      1.0319      1.0061     0.99360     0.99360      1.0061      1.2096      1.2422      1.2886      1.3513    
  1.4328      1.5347      1.6570      1.7984      1.9552      2.1216      2.2895      2.4490      2.5892      2.6991    
  2.7693      2.7935      2.7693      2.6991      2.5892      2.4490      2.2895      2.1216      1.9552      1.7984    
  1.6571      1.5347      1.4329      1.3513      1.2886      1.2422      1.2096      1.1883      1.1763      1.1725    
  1.1763      1.1883      1.4371      1.4552      1.4839      1.5258      1.5832      1.6570      1.7471      1.8517    
  1.9673      2.0888      2.2092      2.3206      2.4142      2.4820      2.5176      2.5176      2.4820      2.4142    
  2.3206      2.2092      2.0888      1.9673      1.8517      1.7472      1.6571      1.5832      1.5258      1.4839    
  1.4552      1.4371      1.4267      1.4213      1.4191      1.4191      1.4213      1.4267      1.7193      1.7149    
  1.7181      1.7319      1.7584      1.7984      1.8517      1.9167      1.9904      2.0686      2.1458      2.2154    
  2.2710      2.3069      2.3193      2.3069      2.2710      2.2154      2.1458      2.0686      1.9904      1.9167    
  1.8517      1.7984      1.7584      1.7319      1.7181      1.7148      1.7193      1.7279      1.7371      1.7440    
  1.7465      1.7439      1.7371      1.7279      2.0595      2.0223      1.9904      1.9673      1.9552      1.9552    
  1.9673      1.9904      2.0223      2.0595      2.0977      2.1320      2.1580      2.1719      2.1719      2.1580    
  2.1321      2.0977      2.0595      2.0223      1.9904      1.9673      1.9552      1.9552      1.9673      1.9904    
  2.0223      2.0595      2.0977      2.1321      2.1580      2.1719      2.1719      2.1580      2.1320      2.0977    
  2.4582      2.3753      2.2967      2.2266      2.1677      2.1216      2.0888      2.0686      2.0595      2.0587    
  2.0630      2.0691      2.0740      2.0759      2.0740      2.0691      2.0630      2.0587      2.0595      2.0686    
  2.0887      2.1215      2.1676      2.2266      2.2967      2.3753      2.4582      2.5396      2.6131      2.6718    
  2.7098      2.7230      2.7098      2.6718      2.6131      2.5396      2.9109      2.7671      2.6285      2.5006    
  2.3869      2.2895      2.2092      2.1458      2.0977      2.0630      2.0395      2.0251      2.0183      2.0183    
  2.0251      2.0395      2.0630      2.0977      2.1457      2.2092      2.2895      2.3869      2.5006      2.6285    
  2.7671      2.9109      3.0527      3.1835      3.2934      3.3730      3.4149      3.4149      3.3730      3.2934    
  3.1834      3.0527      3.4065      3.1845      2.9723      2.7764      2.6012      2.4490      2.3206      2.2154    
  2.1320      2.0691      2.0251      1.9992      1.9906      1.9992      2.0251      2.0691      2.1320      2.2153    
  2.3206      2.4490      2.6012      2.7764      2.9723      3.1846      3.4066      3.6288      3.8392      4.0239    
  4.1688      4.2615      4.2934      4.2615      4.1688      4.0239      3.8391      3.6287      3.9257      3.6083    
  3.3098      3.0379      2.7971      2.5892      2.4142      2.2710      2.1580      2.0740      2.0183      1.9906    
  1.9906      2.0183      2.0740      2.1579      2.2709      2.4142      2.5892      2.7971      3.0379      3.3099    
  3.6084      3.9257      4.2500      4.5656      4.8535      5.0935      5.2663      5.3569      5.3569      5.2663    
  5.0935      4.8535      4.5656      4.2500      4.4405      4.0132      3.6194      3.2672      2.9603      2.6991    
  2.4820      2.3069      2.1719      2.0759      2.0183      1.9992      2.0183      2.0759      2.1718      2.3068    
  2.4819      2.6991      2.9604      3.2673      3.6194      4.0133      4.4405      4.8875      5.3346      5.7570    
  6.1269      6.4162      6.6009      6.6644      6.6009      6.4162      6.1269      5.7570      5.3346      4.8875    
  4.9165      4.3703      3.8780      3.4467      3.0778      2.7693      2.5176      2.3193      2.1719      2.0740    
  2.0251      2.0251      2.0740      2.1718      2.3192      2.5176      2.7693      3.0779      3.4467      3.8780    
  4.3704      4.9166      5.5021      6.1040      6.6915      7.2283      7.6756      7.9976      8.1663      8.1663    
  7.9976      7.6756      7.2283      6.6915      6.1040      5.5021      5.3166      4.6509      4.0643      3.5612    
  3.1393      2.7935      2.5176      2.3069      2.1580      2.0691      2.0395      2.0691      2.1579      2.3068    
  2.5176      2.7934      3.1394      3.5612      4.0644      4.6509      5.3166      6.0481      6.8205      7.5983    
  8.3363      8.9844      9.4923      9.8168      9.9284      9.8168      9.4922      8.9843      8.3363      7.5983    
  6.8205      6.0480      5.6061      4.8304      4.1620      3.6005      3.1393      2.7693      2.4820      2.2710    
  2.1321      2.0630      2.0630      2.1320      2.2709      2.4819      2.7693      3.1394      3.6006      4.1620    
  4.8304      5.6061      6.4793      7.4261      8.4081      9.3734      10.260      11.003      11.540      11.821    
  11.821      11.539      11.003      10.260      9.3733      8.4081      7.4261      6.4792      5.7582      4.8921    
  4.1620      3.5612      3.0778      2.6991      2.4142      2.2154      2.0977      2.0587      2.0977      2.2153    
  2.4142      2.6991      3.0779      3.5612      4.1620      4.8921      5.7582      6.7560      7.8659      9.0503    
  10.254      11.405      12.425      13.230      13.747      13.925      13.747      13.230      12.425      11.405    
  10.254      9.0503      7.8659      6.7560      5.7582      4.8304      4.0643      3.4467      2.9603      2.5892    
  2.3206      2.1458      2.0595      2.0595      2.1457      2.3206      2.5892      2.9604      3.4467      4.0644    
  4.8304      5.7582      6.8514      8.0975      9.4637      10.895      12.318      13.640      14.759      15.576    
  16.008      16.008      15.576      14.759      13.639      12.318      10.895      9.4636      8.0974      6.8513    
  5.6061      4.6509      3.8780      3.2672      2.7971      2.4490      2.2092      2.0686      2.0223      2.0686    
  2.2092      2.4490      2.7971      3.2673      3.8780      4.6509      5.6061      6.7560      8.0975      9.6064    
  11.234      12.908      14.531      15.989      17.155      17.912      18.175      17.912      17.155      15.988    
  14.531      12.908      11.234      9.6063      8.0974      6.7559      5.3166      4.3703      3.6194      3.0379    
  2.6012      2.2895      2.0888      1.9904      1.9904      2.0887      2.2895      2.6012      3.0379      3.6194    
  4.3704      5.3166      6.4793      7.8659      9.4637      11.234      13.112      15.004      16.789      18.325    
  19.457      20.059      20.059      19.457      18.325      16.789      15.004      13.112      11.234      9.4636    
  7.8659      6.4792      4.9166      4.0132      3.3098      2.7763      2.3868      2.1216      1.9673      1.9167    
  1.9673      2.1215      2.3869      2.7764      3.3099      4.0133      4.9166      6.0481      7.4261      9.0503    
  10.895      12.908      15.004      17.067      18.948      20.467      21.457      21.801      21.457      20.467    
  18.949      17.067      15.004      12.908      10.895      9.0502      7.4260      6.0481      4.4405      3.6084    
  2.9722      2.5005      2.1676      1.9552      1.8517      1.8517      1.9552      2.1676      2.5006      2.9723    
  3.6084      4.4405      5.5021      6.8205      8.4081      10.254      12.318      14.531      16.789      18.948    
  20.819      22.203      22.940      22.940      22.203      20.819      18.949      16.789      14.531      12.318    
  10.254      8.4080      6.8205      5.5021      3.9257      3.1846      2.6285      2.2266      1.9552      1.7984    
  1.7472      1.7984      1.9552      2.2266      2.6285      3.1846      3.9257      4.8875      6.1040      7.5983    
  9.3734      11.405      13.640      15.989      18.325      20.467      22.203      23.337      23.732      23.337    
  22.203      20.467      18.325      15.989      13.640      11.405      9.3733      7.5983      6.1040      4.8876    
  3.4066      2.7671      2.2967      1.9673      1.7584      1.6571      1.6571      1.7584      1.9673      2.2967    
  2.7671      3.4066      4.2500      5.3346      6.6915      8.3363      10.260      12.425      14.759      17.155    
  19.457      21.457      22.940      23.732      23.733      22.940      21.457      19.457      17.155      14.759    
  12.425      10.260      8.3363      6.6916      5.3347      4.2501      2.9109      2.3753      1.9904      1.7319    
  1.5832      1.5347      1.5832      1.7319      1.9904      2.3753      2.9109      3.6288      4.5656      5.7570    
  7.2283      8.9844      11.003      13.230      15.576      17.912      20.059      21.801      22.940      23.337    
  22.940      21.801      20.059      17.912      15.576      13.230      11.003      8.9844      7.2283      5.7571    
  4.5657      3.6288      2.4581      2.0222      1.7180      1.5258      1.4329      1.4329      1.5258      1.7181    
  2.0223      2.4582      3.0527      3.8392      4.8535      6.1269      7.6756      9.4923      11.540      13.747    
  16.008      18.175      20.059      21.457      22.203      22.203      21.457      20.059      18.175      16.008    
  13.747      11.540      9.4922      7.6757      6.1270      4.8537      3.8392      3.0527      2.0595      1.7148    
  1.4839      1.3513      1.3082      1.3513      1.4839      1.7148      2.0595      2.5396      3.1835      4.0239    
  5.0935      6.4162      7.9976      9.8168      11.821      13.925      16.008      17.912      19.457      20.467    
  20.819      20.467      19.457      17.912      16.008      13.926      11.821      9.8168      7.9977      6.4164    
  5.0936      4.0240      3.1835      2.5396      1.7193      1.4552      1.2886      1.2081      1.2081      1.2886    
  1.4552      1.7193      2.0977      2.6131      3.2934      4.1688      5.2663      6.6009      8.1663      9.9284    
  11.821      13.747      15.576      17.155      18.325      18.949      18.949      18.325      17.155      15.576    
  13.747      11.821      9.9285      8.1664      6.6010      5.2665      4.1689      3.2934      2.6131      2.0977    
  1.4371      1.2422      1.1305      1.0941      1.1305      1.2422      1.4371      1.7279      2.1321      2.6718    
  3.3730      4.2615      5.3569      6.6644      8.1663      9.8168      11.539      13.230      14.759      15.988    
  16.789      17.067      16.789      15.989      14.759      13.230      11.540      9.8168      8.1664      6.6645    
  5.3570      4.2615      3.3730      2.6718      2.1320      1.7278      1.2096      1.0727      1.0066      1.0066    
  1.0727      1.2096      1.4267      1.7371      2.1580      2.7098      3.4149      4.2934      5.3569      6.6009    
  7.9976      9.4922      11.003      12.425      13.639      14.531      15.004      15.004      14.531      13.640    
  12.425      11.003      9.4922      7.9977      6.6010      5.3570      4.2934      3.4149      2.7098      2.1579    
  1.7370      1.4266      1.0320     0.94237     0.91324     0.94236      1.0319      1.1883      1.4213      1.7440    
  2.1719      2.7230      3.4149      4.2615      5.2663      6.4162      7.6756      8.9843      10.260      11.405    
  12.318      12.908      13.112      12.908      12.318      11.405      10.260      8.9844      7.6757      6.4164    
  5.2665      4.2615      3.4149      2.7229      2.1718      1.7439      1.4213      1.1883     0.89868     0.84687    