    2    2   15    1
  0.1529437E+02  0.3691622E-09  0.3691622E-09  0.3691622E-09  0.5000000E-15
  1.000000000000000E-004
  CAR 
 unknown system                          
      8    126      8
 
  0.0000000E+00  0.0000000E+00  0.0000000E+00  0.7513148E-03
    1       -4.614802   1.000000
    2        6.186580   1.000000
    3        6.299724   1.000000
    4        6.299748   1.000000
    5       10.542078   0.000000
    6       16.872403   0.000000
    7       17.370191   0.000000
    8       17.370214   0.000000
 
  0.9090909E-01 -0.1249769E-17  0.1249769E-17  0.6010518E-02
    1       -4.381521   1.000000
    2        5.430577   1.000000
    3        6.255315   1.000000
    4        7.465312   1.000000
    5       11.023867   0.000000
    6       15.562430   0.000000
    7       16.635344   0.000000
    8       17.380734   0.000000
 
  0.1818182E+00 -0.2499539E-17  0.2499539E-17  0.6010518E-02
    1       -3.683171   1.000000
    2        5.049873   1.000000
    3        6.254739   1.000000
    4        8.998705   0.794032
    5       12.309097   0.000000
    6       13.429278   0.000000
    7       13.831674   0.000000
    8       15.835055   0.000000
 
  0.2727273E+00 -0.2456599E-16  0.2456599E-16  0.6010518E-02
    1       -2.525690   1.000000
    2        5.100232   1.000000
    3        6.480548   1.000000
    4        9.310575   0.083063
    5       11.387535   0.000000
    6       12.093738   0.000000
    7       13.616493   0.000000
    8       14.537731   0.000000
 
  0.3636364E+00 -0.4999077E-17  0.4999077E-17  0.6010518E-02
    1       -0.920276   1.000000
    2        5.521111   1.000000
    3        6.521121   1.000000
    4        6.991398   1.000000
    5        9.654469   0.000068
    6       12.063108   0.000000
    7       13.688757   0.000000
    8       13.831097   0.000000
 
  0.4545455E+00 -0.5101859E-16 -0.4492561E-17  0.6010518E-02
    1        1.102941   1.000000
    2        3.610905   1.000000
    3        6.478026   1.000000
    4        7.628646   1.000000
    5        8.042571   1.000000
    6       10.638789   0.000000
    7       13.528355   0.000000
    8       14.525310   0.000000
 
  0.9090909E-01  0.9090909E-01  0.6302053E-17  0.6010518E-02
    1       -3.781165   1.000000
    2        5.362048   1.000000
    3        7.013516   1.000000
    4        8.071296   1.000000
    5       11.854752   0.000000
    6       13.868276   0.000000
    7       13.999743   0.000000
    8       16.362002   0.000000
 
  0.1818182E+00  0.9090909E-01 -0.1326486E-16  0.1202104E-01
    1       -2.720231   1.000000
    2        5.389982   1.000000
    3        7.491364   1.000000
    4        9.221712   0.224704
    5       11.027470   0.000000
    6       11.554914   0.000000
    7       13.438420   0.000000
    8       14.655275   0.000000
 
  0.2727273E+00  0.9090909E-01  0.1260411E-16  0.1202104E-01
    1       -1.208858   1.000000
    2        5.776721   1.000000
    3        7.117521   1.000000
    4        7.850019   1.000000
    5        9.296311   0.099588
    6       12.056534   0.000000
    7       12.509278   0.000000
    8       13.960112   0.000000
 
  0.3636364E+00  0.9090909E-01  0.3112467E-17  0.1202104E-01
    1        0.731136   1.000000
    2        4.243637   1.000000
    3        6.590874   1.000000
    4        6.988426   1.000000
    5        8.790273   0.989114
    6       10.889201   0.000000
    7       12.824895   0.000000
    8       14.957830   0.000000
 
  0.4545455E+00  0.9090909E-01 -0.2652972E-16  0.1202104E-01
    1        1.648817   1.000000
    2        3.163248   1.000000
    3        5.610792   1.000000
    4        7.434902   1.000000
    5        8.562507   0.999953
    6       11.220738   0.000000
    7       12.571813   0.000000
    8       15.568200   0.000000
 
 -0.4545455E+00  0.9090909E-01 -0.1715602E-16  0.1202104E-01
    1       -0.441357   1.000000
    2        4.511040   1.000000
    3        5.949930   1.000000
    4        7.013097   1.000000
    5        9.649593   0.000078
    6       12.351284   0.000000
    7       13.032551   0.000000
    8       14.810346   0.000000
 
 -0.3636364E+00  0.9090909E-01  0.3189586E-17  0.1202104E-01
    1       -2.137254   1.000000
    2        3.942184   1.000000
    3        6.436131   1.000000
    4        8.925864   0.909153
    5       11.275362   0.000000
    6       12.519290   0.000000
    7       13.375963   0.000000
    8       14.782289   0.000000
 
 -0.2727273E+00  0.9090909E-01  0.1302975E-17  0.1202104E-01
    1       -3.389622   1.000000
    2        3.774331   1.000000
    3        6.205900   1.000000
    4        9.883443   0.000000
    5       12.584172   0.000000
    6       13.081816   0.000000
    7       13.705546   0.000000
    8       15.300321   0.000000
 
 -0.1818182E+00  0.9090909E-01  0.7590381E-17  0.1202104E-01
    1       -4.184952   1.000000
    2        4.031860   1.000000
    3        6.275340   1.000000
    4        8.433339   0.999999
    5       12.118360   0.000000
    6       14.063728   0.000000
    7       15.992243   0.000000
    8       17.050855   0.000000
 
 -0.9090909E-01  0.9090909E-01  0.1699965E-18  0.3005259E-02
    1       -4.516593   1.000000
    2        4.683256   1.000000
    3        6.390975   1.000000
    4        7.447567   1.000000
    5       11.155556   0.000000
    6       15.273680   0.000000
    7       16.605738   0.000000
    8       18.923173   0.000000
 
  0.1818182E+00  0.1818182E+00  0.1260411E-16  0.6010518E-02
    1       -1.305163   1.000000
    2        5.771768   1.000000
    3        7.745935   1.000000
    4        7.858497   1.000000
    5        9.500702   0.003175
    6       11.342011   0.000000
    7       12.941918   0.000000
    8       13.093957   0.000000
 
  0.2727273E+00  0.1818182E+00  0.3086804E-16  0.1202104E-01
    1        0.543668   1.000000
    2        5.042978   1.000000
    3        5.983946   1.000000
    4        6.525074   1.000000
    5        9.782859   0.000001
    6       11.538196   0.000000
    7       12.224677   0.000000
    8       13.610666   0.000000
 
  0.3636364E+00  0.1818182E+00 -0.2652972E-16  0.1202104E-01
    1        2.305224   1.000000
    2        2.958245   1.000000
    3        4.479492   1.000000
    4        7.424763   1.000000
    5        9.097477   0.548579
    6       11.161727   0.000000
    7       12.830472   0.000000
    8       15.946346   0.000000
 
  0.4545455E+00  0.1818182E+00 -0.6607546E-18  0.1202104E-01
    1        0.224846   1.000000
    2        3.262589   1.000000
    3        5.574985   1.000000
    4        7.478150   1.000000
    5        9.376648   0.032015
    6       11.389041   0.000000
    7       14.128920   0.000000
    8       15.685250   0.000000
 
 -0.4545455E+00  0.1818182E+00 -0.2664766E-16  0.1202104E-01
    1       -1.557221   1.000000
    2        2.567945   1.000000
    3        6.881712   1.000000
    4        8.564790   0.999950
    5       10.480032   0.000000
    6       12.464532   0.000000
    7       13.290003   0.000000
    8       15.928028   0.000000
 
 -0.3636364E+00  0.1818182E+00  0.1518076E-16  0.1202104E-01
    1       -2.901828   1.000000
    2        2.298427   1.000000
    3        6.606074   1.000000
    4       10.456794   0.000000
    5       11.427222   0.000000
    6       12.624965   0.000000
    7       14.449433   0.000000
    8       15.970016   0.000000
 
 -0.2727273E+00  0.1818182E+00 -0.1322630E-16  0.1202104E-01
    1       -3.792590   1.000000
    2        2.466880   1.000000
    3        6.623688   1.000000
    4        9.137727   0.435440
    5       12.532724   0.000000
    6       13.961815   0.000000
    7       14.935686   0.000000
    8       16.550365   0.000000
 
 -0.1818182E+00  0.1818182E+00  0.3399929E-18  0.3005259E-02
    1       -4.221624   1.000000
    2        3.061366   1.000000
    3        6.664689   1.000000
    4        8.226851   1.000000
    5       12.770692   0.000000
    6       13.607789   0.000000
    7       15.292663   0.000000
    8       19.325792   0.000000
 
  0.2727273E+00  0.2727273E+00 -0.6379172E-17  0.6010518E-02
    1        2.582825   1.000000
    2        3.362524   1.000000
    3        3.555472   1.000000
    4        7.416674   1.000000
    5        9.513447   0.002407
    6       10.592584   0.000000
    7       14.020205   0.000000
    8       14.846151   0.000000
 
  0.3636364E+00  0.2727273E+00 -0.3602136E-16  0.1202104E-01
    1        1.072848   1.000000
    2        2.093261   1.000000
    3        5.390988   1.000000
    4        8.014792   1.000000
    5        9.028187   0.729740
    6       10.724408   0.000000
    7       15.402578   0.000000
    8       16.223254   0.000000
 
  0.4545455E+00  0.2727273E+00  0.2520821E-16  0.1202104E-01
    1       -0.788764   1.000000
    2        1.288394   1.000000
    3        7.524566   1.000000
    4        8.336127   1.000000
    5        9.507967   0.002713
    6       12.080311   0.000000
    7       13.986962   0.000000
    8       15.869157   0.000000
 
 -0.4545455E+00  0.2727273E+00  0.1937185E-16  0.1202104E-01
    1       -2.221823   1.000000
    2        0.921220   1.000000
    3        7.224383   1.000000
    4       10.093740   0.000000
    5       10.985392   0.000000
    6       12.524931   0.000000
    7       14.206018   0.000000
    8       14.955645   0.000000
 
 -0.3636364E+00  0.2727273E+00 -0.1702881E-16  0.1202104E-01
    1       -3.206049   1.000000
    2        1.000155   1.000000
    3        7.168032   1.000000
    4        9.820458   0.000000
    5       11.136109   0.000000
    6       13.722034   0.000000
    7       15.728755   0.000000
    8       16.351325   0.000000
 
 -0.2727273E+00  0.2727273E+00 -0.1434744E-16  0.3005259E-02
    1       -3.731221   1.000000
    2        1.521799   1.000000
    3        7.120569   1.000000
    4        8.888134   0.945461
    5       12.095712   0.000000
    6       13.941735   0.000000
    7       14.907546   0.000000
    8       19.069287   0.000000
 
  0.3636364E+00  0.3636364E+00  0.2520821E-16  0.6010518E-02
    1        0.158519   1.000000
    2        0.167397   1.000000
    3        8.027372   1.000000
    4        8.317544   1.000000
    5        8.819454   0.981601
    6       11.957715   0.000000
    7       14.537681   0.000000
    8       15.328740   0.000000
 
  0.4545455E+00  0.3636364E+00 -0.3979458E-16  0.1202104E-01
    1       -1.353621   1.000000
    2       -0.302649   1.000000
    3        8.026536   1.000000
    4        8.997798   0.795856
    5       11.148773   0.000000
    6       12.804903   0.000000
    7       14.041754   0.000000
    8       14.083643   0.000000
 
 -0.4545455E+00  0.3636364E+00 -0.1340671E-16  0.1202104E-01
    1       -2.428138   1.000000
    2       -0.316344   1.000000
    3        7.896274   1.000000
    4        9.883680   0.000000
    5       10.608656   0.000000
    6       12.575291   0.000000
    7       15.764447   0.000000
    8       16.510266   0.000000
 
 -0.3636364E+00  0.3636364E+00  0.6799859E-18  0.3005259E-02
    1       -3.047570   1.000000
    2        0.120873   1.000000
    3        7.758254   1.000000
    4        9.622496   0.000165
    5       10.750080   0.000000
    6       12.664136   0.000000
    7       17.226682   0.000000
    8       18.876134   0.000000
 
  0.4545455E+00  0.4545455E+00 -0.4928622E-16  0.6010518E-02
    1       -1.462798   1.000000
    2       -1.462180   1.000000
    3        8.792357   0.988684
    4        8.815123   0.982938
    5       11.465086   0.000000
    6       11.586105   0.000000
    7       15.695133   0.000000
    8       16.475640   0.000000
 
 -0.4545455E+00  0.4545455E+00 -0.2152036E-17  0.3005259E-02
    1       -2.174146   1.000000
    2       -1.114903   1.000000
    3        8.577008   0.999928
    4        9.575254   0.000564
    5       10.491460   0.000000
    6       11.506933   0.000000
    7       18.788883   0.000000
    8       18.825569   0.000000
 
  0.9090909E-01  0.9090909E-01  0.9090909E-01  0.6010518E-02
    1       -3.487240   1.000000
    2        3.757467   1.000000
    3        7.279400   1.000000
    4        8.835020   0.976031
    5       12.833575   0.000000
    6       13.441854   0.000000
    7       13.739857   0.000000
    8       15.481450   0.000000
 
  0.1818182E+00  0.9090909E-01  0.9090909E-01  0.1202104E-01
    1       -2.330760   1.000000
    2        3.859795   1.000000
    3        7.790202   1.000000
    4        9.356600   0.043614
    5       10.848254   0.000000
    6       11.305326   0.000000
    7       14.285977   0.000000
    8       15.158090   0.000000
 
  0.2727273E+00  0.9090909E-01  0.9090909E-01  0.1202104E-01
    1       -0.727354   1.000000
    2        4.368840   1.000000
    3        6.613689   1.000000
    4        7.906791   1.000000
    5        9.361930   0.040241
    6       12.768111   0.000000
    7       13.371967   0.000000
    8       14.153755   0.000000
 
  0.3636364E+00  0.9090909E-01  0.9090909E-01  0.1202104E-01
    1        1.293014   1.000000
    2        3.782326   1.000000
    3        5.359859   1.000000
    4        6.645191   1.000000
    5        9.603829   0.000272
    6       11.773331   0.000000
    7       13.739167   0.000000
    8       14.462006   0.000000
 
 -0.9090909E-01  0.9090909E-01  0.9090909E-01  0.3005259E-02
    1       -4.418202   1.000000
    2        4.365459   1.000000
    3        5.604575   1.000000
    4        8.443207   0.999999
    5       11.615470   0.000000
    6       14.065515   0.000000
    7       17.531979   0.000000
    8       18.146840   0.000000
 
  0.1818182E+00  0.1818182E+00  0.9090909E-01  0.6010518E-02
    1       -0.823057   1.000000
    2        4.304942   1.000000
    3        7.355552   1.000000
    4        7.439951   1.000000
    5        9.987791   0.000000
    6       11.876380   0.000000
    7       14.007436   0.000000
    8       14.251784   0.000000
 
  0.2727273E+00  0.1818182E+00  0.9090909E-01  0.1202104E-01
    1        1.110639   1.000000
    2        4.559614   1.000000
    3        5.194929   1.000000
    4        5.640969   1.000000
    5       10.751869   0.000000
    6       12.709760   0.000000
    7       13.236954   0.000000
    8       14.159258   0.000000
 
  0.3636364E+00  0.1818182E+00  0.9090909E-01  0.1202104E-01
    1        2.027850   1.000000
    2        3.466393   1.000000
    3        4.192775   1.000000
    4        6.438091   1.000000
    5       10.384141   0.000000
    6       12.415698   0.000000
    7       13.530567   0.000000
    8       15.264981   0.000000
 
  0.4545455E+00  0.1818182E+00  0.9090909E-01  0.1202104E-01
    1       -0.057041   1.000000
    2        3.030220   1.000000
    3        6.269650   1.000000
    4        7.868964   1.000000
    5        9.728232   0.000007
    6       12.580334   0.000000
    7       13.547804   0.000000
    8       14.985632   0.000000
 
 -0.4545455E+00  0.1818182E+00  0.9090909E-01  0.1202104E-01
    1       -1.748851   1.000000
    2        2.415582   1.000000
    3        8.217478   1.000000
    4        9.218564   0.231431
    5       10.593981   0.000000
    6       11.571728   0.000000
    7       13.131267   0.000000
    8       15.021488   0.000000
 
 -0.3636364E+00  0.1818182E+00  0.9090909E-01  0.6010518E-02
    1       -2.998779   1.000000
    2        2.229067   1.000000
    3        7.720091   1.000000
    4        9.467471   0.006312
    5       12.101055   0.000000
    6       12.971622   0.000000
    7       14.147065   0.000000
    8       14.835048   0.000000
 
 -0.1818182E+00  0.1818182E+00  0.9090909E-01  0.6010518E-02
    1       -4.123588   1.000000
    2        3.077282   1.000000
    3        5.550583   1.000000
    4        9.422282   0.014828
    5       12.458332   0.000000
    6       13.022153   0.000000
    7       16.477191   0.000000
    8       18.826872   0.000000
 
 -0.9090909E-01  0.1818182E+00  0.9090909E-01  0.6010518E-02
    1       -3.988885   1.000000
    2        3.731386   1.000000
    3        5.180609   1.000000
    4        9.780803   0.000001
    5       12.561304   0.000000
    6       12.847737   0.000000
    7       15.810567   0.000000
    8       18.025179   0.000000
 
  0.2727273E+00  0.2727273E+00  0.9090909E-01  0.6010518E-02
    1        2.802359   1.000000
    2        2.995860   1.000000
    3        3.633999   1.000000
    4        6.364638   1.000000
    5       10.944925   0.000000
    6       11.884129   0.000000
    7       14.706621   0.000000
    8       14.887675   0.000000
 
  0.3636364E+00  0.2727273E+00  0.9090909E-01  0.1202104E-01
    1        0.798143   1.000000
    2        1.831542   1.000000
    3        6.095836   1.000000
    4        7.808045   1.000000
    5       10.337228   0.000000
    6       11.586373   0.000000
    7       14.233008   0.000000
    8       15.411917   0.000000
 
  0.4545455E+00  0.2727273E+00  0.9090909E-01  0.1202104E-01
    1       -0.977329   1.000000
    2        1.114323   1.000000
    3        8.638440   0.999621
    4        9.106948   0.521970
    5       10.420614   0.000000
    6       11.827506   0.000000
    7       12.461170   0.000000
    8       14.150272   0.000000
 
 -0.4545455E+00  0.2727273E+00  0.9090909E-01  0.6010518E-02
    1       -2.317626   1.000000
    2        0.836459   1.000000
    3        8.330629   1.000000
    4       10.123124   0.000000
    5       11.111847   0.000000
    6       12.459992   0.000000
    7       13.616714   0.000000
    8       13.937299   0.000000
 
 -0.2727273E+00  0.2727273E+00  0.9090909E-01  0.6010518E-02
    1       -3.633928   1.000000
    2        1.590709   1.000000
    3        5.956446   1.000000
    4       10.162865   0.000000
    5       10.954654   0.000000
    6       15.067379   0.000000
    7       15.152637   0.000000
    8       18.865456   0.000000
 
 -0.1818182E+00  0.2727273E+00  0.9090909E-01  0.1202104E-01
    1       -3.597535   1.000000
    2        2.548984   1.000000
    3        5.131207   1.000000
    4       10.766755   0.000000
    5       11.033684   0.000000
    6       14.363245   0.000000
    7       15.333916   0.000000
    8       17.236083   0.000000
 
 -0.9090909E-01  0.2727273E+00  0.9090909E-01  0.6010518E-02
    1       -3.097263   1.000000
    2        3.539464   1.000000
    3        5.096800   1.000000
    4       10.789939   0.000000
    5       11.465837   0.000000
    6       12.901030   0.000000
    7       14.504176   0.000000
    8       15.597178   0.000000
 
  0.3636364E+00  0.3636364E+00  0.9090909E-01  0.6010518E-02
    1       -0.022080   1.000000
    2       -0.019175   1.000000
    3        8.781260   0.990815
    4        9.136753   0.438154
    5       10.398318   0.000000
    6       11.498284   0.000000
    7       12.899523   0.000000
    8       13.462254   0.000000
 
  0.4545455E+00  0.3636364E+00  0.9090909E-01  0.6010518E-02
    1       -1.447559   1.000000
    2       -0.393454   1.000000
    3        9.099409   0.543165
    4        9.986762   0.000000
    5       11.005443   0.000000
    6       11.780857   0.000000
    7       13.359962   0.000000
    8       13.432351   0.000000
 
 -0.3636364E+00  0.3636364E+00  0.9090909E-01  0.6010518E-02
    1       -2.951527   1.000000
    2        0.205544   1.000000
    3        6.587211   1.000000
    4        9.603180   0.000276
    5       10.915247   0.000000
    6       13.906034   0.000000
    7       17.306901   0.000000
    8       18.591277   0.000000
 
 -0.2727273E+00  0.3636364E+00  0.9090909E-01  0.1202104E-01
    1       -3.012904   1.000000
    2        1.153602   1.000000
    3        5.603989   1.000000
    4        9.592425   0.000365
    5       11.552320   0.000000
    6       14.623780   0.000000
    7       16.223153   0.000000
    8       16.663045   0.000000
 
 -0.1818182E+00  0.3636364E+00  0.9090909E-01  0.1202104E-01
    1       -2.611733   1.000000
    2        2.462188   1.000000
    3        5.093837   1.000000
    4        9.885446   0.000000
    5       11.067084   0.000000
    6       13.331143   0.000000
    7       15.350965   0.000000
    8       16.420685   0.000000
 
 -0.9090909E-01  0.3636364E+00  0.9090909E-01  0.6010518E-02
    1       -1.751269   1.000000
    2        3.787430   1.000000
    3        5.395735   1.000000
    4        8.397020   1.000000
    5       10.503755   0.000000
    6       13.181372   0.000000
    7       14.354354   0.000000
    8       14.633694   0.000000
 
 -0.4545455E+00  0.4545455E+00  0.9090909E-01  0.6010518E-02
    1       -2.079718   1.000000
    2       -1.023879   1.000000
    3        7.411724   1.000000
    4        8.419516   1.000000
    5       11.778372   0.000000
    6       12.775919   0.000000
    7       18.347415   0.000000
    8       18.437813   0.000000
 
 -0.3636364E+00  0.4545455E+00  0.9090909E-01  0.1202104E-01
    1       -2.237943   1.000000
    2       -0.140902   1.000000
    3        6.318856   1.000000
    4        8.326305   1.000000
    5       12.299332   0.000000
    6       14.006364   0.000000
    7       15.634940   0.000000
    8       17.460400   0.000000
 
 -0.2727273E+00  0.4545455E+00  0.9090909E-01  0.1202104E-01
    1       -1.935431   1.000000
    2        1.164281   1.000000
    3        5.640768   1.000000
    4        8.588862   0.999900
    5       10.883776   0.000000
    6       13.982635   0.000000
    7       15.234480   0.000000
    8       16.787440   0.000000
 
 -0.1818182E+00  0.4545455E+00  0.9090909E-01  0.1202104E-01
    1       -1.175280   1.000000
    2        2.817595   1.000000
    3        5.456948   1.000000
    4        7.973084   1.000000
    5        9.272846   0.131789
    6       13.246592   0.000000
    7       15.034512   0.000000
    8       15.865335   0.000000
 
 -0.9090909E-01  0.4545455E+00  0.9090909E-01  0.6010518E-02
    1        0.032795   1.000000
    2        4.405741   1.000000
    3        5.480666   1.000000
    4        6.077624   1.000000
    5        9.674167   0.000038
    6       11.896968   0.000000
    7       12.828225   0.000000
    8       16.219844   0.000000
 
 -0.4545455E+00 -0.4545455E+00  0.9090909E-01  0.6010518E-02
    1       -1.278276   1.000000
    2       -1.276435   1.000000
    3        7.226351   1.000000
    4        7.236554   1.000000
    5       12.879736   0.000000
    6       13.451061   0.000000
    7       15.420015   0.000000
    8       17.463239   0.000000
 
 -0.3636364E+00 -0.4545455E+00  0.9090909E-01  0.1202104E-01
    1       -1.073416   1.000000
    2       -0.033919   1.000000
    3        6.436535   1.000000
    4        7.427184   1.000000
    5       10.765912   0.000000
    6       14.709289   0.000000
    7       15.124107   0.000000
    8       15.908651   0.000000
 
 -0.2727273E+00 -0.4545455E+00  0.9090909E-01  0.1202104E-01
    1       -0.413929   1.000000
    2        1.622769   1.000000
    3        6.070295   1.000000
    4        7.635207   1.000000
    5        8.163972   1.000000
    6       13.100426   0.000000
    7       15.856295   0.000000
    8       17.035638   0.000000
 
 -0.1818182E+00 -0.4545455E+00  0.9090909E-01  0.1202104E-01
    1        0.690625   1.000000
    2        3.578219   1.000000
    3        5.064377   1.000000
    4        6.239200   1.000000
    5        8.838738   0.974509
    6       11.578360   0.000000
    7       13.814397   0.000000
    8       17.099396   0.000000
 
 -0.9090909E-01 -0.4545455E+00  0.9090909E-01  0.6010518E-02
    1        2.115237   1.000000
    2        2.789690   1.000000
    3        5.654321   1.000000
    4        7.070607   1.000000
    5        8.720656   0.997337
    6       11.343982   0.000000
    7       11.408804   0.000000
    8       16.516385   0.000000
 
 -0.3636364E+00 -0.3636364E+00  0.9090909E-01  0.6010518E-02
    1        0.517467   1.000000
    2        0.532647   1.000000
    3        6.886058   1.000000
    4        6.926594   1.000000
    5        7.785803   1.000000
    6       13.036049   0.000000
    7       16.362450   0.000000
    8       17.335108   0.000000
 
 -0.2727273E+00 -0.3636364E+00  0.9090909E-01  0.1202104E-01
    1        1.522956   1.000000
    2        2.510599   1.000000
    3        4.859625   1.000000
    4        6.919948   1.000000
    5        7.843742   1.000000
    6       11.398021   0.000000
    7       15.232235   0.000000
    8       16.734004   0.000000
 
 -0.1818182E+00 -0.3636364E+00  0.9090909E-01  0.1202104E-01
    1        2.253204   1.000000
    2        3.098795   1.000000
    3        4.904478   1.000000
    4        7.265371   1.000000
    5        8.585409   0.999909
    6       10.617538   0.000000
    7       12.373494   0.000000
    8       15.643395   0.000000
 
 -0.9090909E-01 -0.3636364E+00  0.9090909E-01  0.6010518E-02
    1        0.353211   1.000000
    2        4.870442   1.000000
    3        7.008075   1.000000
    4        7.961258   1.000000
    5        7.968725   1.000000
    6       10.739561   0.000000
    7       11.659986   0.000000
    8       14.315931   0.000000
 
 -0.2727273E+00 -0.2727273E+00  0.9090909E-01  0.6010518E-02
    1        2.201394   1.000000
    2        3.883688   1.000000
    3        3.982627   1.000000
    4        7.697244   1.000000
    5        8.191109   1.000000
    6       10.358741   0.000000
    7       13.511717   0.000000
    8       14.450962   0.000000
 
 -0.1818182E+00 -0.2727273E+00  0.9090909E-01  0.1202104E-01
    1        0.163468   1.000000
    2        5.645400   1.000000
    3        6.501342   1.000000
    4        7.662924   1.000000
    5        8.835750   0.975739
    6       10.682526   0.000000
    7       11.576169   0.000000
    8       13.016524   0.000000
 
 -0.9090909E-01 -0.2727273E+00  0.9090909E-01  0.6010518E-02
    1       -1.498759   1.000000
    2        6.940432   1.000000
    3        7.748117   1.000000
    4        7.937589   1.000000
    5        9.220512   0.227256
    6       11.385726   0.000000
    7       11.801046   0.000000
    8       13.103442   0.000000
 
 -0.1818182E+00 -0.1818182E+00  0.9090909E-01  0.6010518E-02
    1       -1.595483   1.000000
    2        7.239644   1.000000
    3        8.160593   1.000000
    4        8.264342   1.000000
    5        9.163895   0.364081
    6       10.653020   0.000000
    7       12.152239   0.000000
    8       12.316030   0.000000
 
 -0.9090909E-01 -0.1818182E+00  0.9090909E-01  0.6010518E-02
    1       -2.915286   1.000000
    2        6.737185   1.000000
    3        7.472128   1.000000
    4        8.561145   0.999955
    5       11.312759   0.000000
    6       11.801487   0.000000
    7       12.433626   0.000000
    8       14.170366   0.000000
 
 -0.9090909E-01 -0.9090909E-01  0.9090909E-01  0.1502630E-02
    1       -3.879212   1.000000
    2        6.861637   1.000000
    3        6.924664   1.000000
    4        6.924686   1.000000
    5       11.280738   0.000000
    6       14.066246   0.000000
    7       14.378679   0.000000
    8       16.431946   0.000000
 
  0.1818182E+00  0.1818182E+00  0.1818182E+00  0.6010518E-02
    1       -0.151403   1.000000
    2        2.948539   1.000000
    3        7.072143   1.000000
    4        7.122462   1.000000
    5       10.643398   0.000000
    6       12.439479   0.000000
    7       13.859922   0.000000
    8       14.477793   0.000000
 
  0.2727273E+00  0.1818182E+00  0.1818182E+00  0.1202104E-01
    1        1.858834   1.000000
    2        3.819554   1.000000
    3        4.456863   1.000000
    4        5.365615   1.000000
    5       11.688244   0.000000
    6       13.806536   0.000000
    7       13.922909   0.000000
    8       14.515704   0.000000
 
 -0.1818182E+00  0.1818182E+00  0.1818182E+00  0.3005259E-02
    1       -3.830105   1.000000
    2        2.838157   1.000000
    3        4.423253   1.000000
    4       10.852386   0.000000
    5       10.920258   0.000000
    6       13.928152   0.000000
    7       17.754505   0.000000
    8       18.015608   0.000000
 
  0.2727273E+00  0.2727273E+00  0.1818182E+00  0.6010518E-02
    1        2.758063   1.000000
    2        2.797086   1.000000
    3        4.327813   1.000000
    4        5.277227   1.000000
    5       12.378268   0.000000
    6       13.184634   0.000000
    7       14.387560   0.000000
    8       15.246425   0.000000
 
  0.3636364E+00  0.2727273E+00  0.1818182E+00  0.6010518E-02
    1        0.705847   1.000000
    2        1.742783   1.000000
    3        6.933583   1.000000
    4        6.950165   1.000000
    5       11.466962   0.000000
    6       12.385416   0.000000
    7       13.441886   0.000000
    8       14.084049   0.000000
 
 -0.2727273E+00  0.2727273E+00  0.1818182E+00  0.6010518E-02
    1       -3.342702   1.000000
    2        1.753888   1.000000
    3        4.417609   1.000000
    4        9.336591   0.058357
    5       11.997799   0.000000
    6       15.626650   0.000000
    7       16.785091   0.000000
    8       18.477476   0.000000
 
 -0.1818182E+00  0.2727273E+00  0.1818182E+00  0.6010518E-02
    1       -3.208591   1.000000
    2        2.388213   1.000000
    3        4.050118   1.000000
    4        9.451191   0.008678
    5       12.213322   0.000000
    6       15.002940   0.000000
    7       15.459642   0.000000
    8       18.572656   0.000000
 
 -0.3636364E+00  0.3636364E+00  0.1818182E+00  0.6010518E-02
    1       -2.664066   1.000000
    2        0.449220   1.000000
    3        4.969282   1.000000
    4        7.973929   1.000000
    5       12.858764   0.000000
    6       15.718371   0.000000
    7       17.554577   0.000000
    8       18.181823   0.000000
 
 -0.2727273E+00  0.3636364E+00  0.1818182E+00  0.1202104E-01
    1       -2.628086   1.000000
    2        1.404510   1.000000
    3        4.110694   1.000000
    4        8.012668   1.000000
    5       13.022869   0.000000
    6       14.896071   0.000000
    7       17.259777   0.000000
    8       17.962062   0.000000
 