   2   2   0   0
  0.2001288E+02  0.3839590E-09  0.3839590E-09  0.3839590E-09  0.5000000E-15
  1.000000000000000E-004
  CAR 
 unknown system                          
     17.62555992     -8.13610777  301      6.16609143      1.00000000
     -8.136  0.0000E+00  0.0000E+00
     -8.050  0.0000E+00  0.0000E+00
     -7.964  0.0000E+00  0.0000E+00
     -7.878  0.0000E+00  0.0000E+00
     -7.793  0.0000E+00  0.0000E+00
     -7.707  0.0000E+00  0.0000E+00
     -7.621  0.0000E+00  0.0000E+00
     -7.535  0.0000E+00  0.0000E+00
     -7.449  0.0000E+00  0.0000E+00
     -7.363  0.0000E+00  0.0000E+00
     -7.277  0.3885E-18  0.3337E-19
     -7.192  0.5006E-16  0.4332E-17
     -7.106  0.4218E-14  0.3666E-15
     -7.020  0.2495E-12  0.2179E-13
     -6.934  0.1038E-10  0.9128E-12
     -6.848  0.3052E-09  0.2712E-10
     -6.762  0.6402E-08  0.5769E-09
     -6.676  0.9680E-07  0.8889E-08
     -6.590  0.1068E-05  0.1006E-06
     -6.505  0.8689E-05  0.8467E-06
     -6.419  0.5259E-04  0.5363E-05
     -6.333  0.2377E-03  0.2577E-04
     -6.247  0.8039E-03  0.9481E-04
     -6.161  0.2051E-02  0.2709E-03
     -6.075  0.4050E-02  0.6187E-03
     -5.989  0.6536E-02  0.1180E-02
     -5.903  0.9257E-02  0.1975E-02
     -5.818  0.1195E-01  0.3001E-02
     -5.732  0.1392E-01  0.4196E-02
     -5.646  0.1491E-01  0.5476E-02
     -5.560  0.1614E-01  0.6862E-02
     -5.474  0.1865E-01  0.8464E-02
     -5.388  0.2130E-01  0.1029E-01
     -5.302  0.2244E-01  0.1222E-01
     -5.216  0.2204E-01  0.1411E-01
     -5.131  0.2151E-01  0.1596E-01
     -5.045  0.2283E-01  0.1792E-01
     -4.959  0.2671E-01  0.2021E-01
     -4.873  0.3074E-01  0.2285E-01
     -4.787  0.3200E-01  0.2560E-01
     -4.701  0.3069E-01  0.2824E-01
     -4.615  0.2868E-01  0.3070E-01
     -4.529  0.2780E-01  0.3309E-01
     -4.444  0.3025E-01  0.3568E-01
     -4.358  0.3653E-01  0.3882E-01
     -4.272  0.4309E-01  0.4252E-01
     -4.186  0.4551E-01  0.4643E-01
     -4.100  0.4327E-01  0.5015E-01
     -4.014  0.3961E-01  0.5355E-01
     -3.928  0.3877E-01  0.5688E-01
     -3.842  0.4384E-01  0.6064E-01
     -3.757  0.5401E-01  0.6528E-01
     -3.671  0.6268E-01  0.7066E-01
     -3.585  0.6308E-01  0.7608E-01
     -3.499  0.5627E-01  0.8091E-01
     -3.413  0.4828E-01  0.8506E-01
     -3.327  0.4332E-01  0.8878E-01
     -3.241  0.4363E-01  0.9252E-01
     -3.156  0.4848E-01  0.9668E-01
     -3.070  0.5163E-01  0.1011E+00
     -2.984  0.4747E-01  0.1052E+00
     -2.898  0.3869E-01  0.1085E+00
     -2.812  0.3259E-01  0.1113E+00
     -2.726  0.3268E-01  0.1141E+00
     -2.640  0.3647E-01  0.1173E+00
     -2.554  0.3816E-01  0.1205E+00
     -2.469  0.3391E-01  0.1234E+00
     -2.383  0.2587E-01  0.1257E+00
     -2.297  0.1927E-01  0.1273E+00
     -2.211  0.1678E-01  0.1288E+00
     -2.125  0.1695E-01  0.1302E+00
     -2.039  0.1683E-01  0.1317E+00
     -1.953  0.1500E-01  0.1329E+00
     -1.867  0.1244E-01  0.1340E+00
     -1.782  0.1076E-01  0.1349E+00
     -1.696  0.1033E-01  0.1358E+00
     -1.610  0.1081E-01  0.1368E+00
     -1.524  0.1296E-01  0.1379E+00
     -1.438  0.1863E-01  0.1395E+00
     -1.352  0.2844E-01  0.1419E+00
     -1.266  0.3972E-01  0.1453E+00
     -1.180  0.4849E-01  0.1495E+00
     -1.095  0.5494E-01  0.1542E+00
     -1.009  0.6308E-01  0.1596E+00
     -0.923  0.7237E-01  0.1658E+00
     -0.837  0.7670E-01  0.1724E+00
     -0.751  0.7367E-01  0.1787E+00
     -0.665  0.6697E-01  0.1845E+00
     -0.579  0.5897E-01  0.1896E+00
     -0.493  0.4945E-01  0.1938E+00
     -0.408  0.4138E-01  0.1974E+00
     -0.322  0.3914E-01  0.2007E+00
     -0.236  0.4071E-01  0.2042E+00
     -0.150  0.3975E-01  0.2076E+00
     -0.064  0.3509E-01  0.2106E+00
      0.022  0.3109E-01  0.2133E+00
      0.108  0.2980E-01  0.2159E+00
      0.193  0.2860E-01  0.2183E+00
      0.279  0.2604E-01  0.2206E+00
      0.365  0.2478E-01  0.2227E+00
      0.451  0.2638E-01  0.2250E+00
      0.537  0.2768E-01  0.2273E+00
      0.623  0.2545E-01  0.2295E+00
      0.709  0.2105E-01  0.2313E+00
      0.795  0.1832E-01  0.2329E+00
      0.880  0.1920E-01  0.2346E+00
      0.966  0.2161E-01  0.2364E+00
      1.052  0.2122E-01  0.2382E+00
      1.138  0.1643E-01  0.2396E+00
      1.224  0.1129E-01  0.2406E+00
      1.310  0.1207E-01  0.2416E+00
      1.396  0.2196E-01  0.2435E+00
      1.482  0.3821E-01  0.2468E+00
      1.567  0.5346E-01  0.2514E+00
      1.653  0.6172E-01  0.2567E+00
      1.739  0.6300E-01  0.2621E+00
      1.825  0.6252E-01  0.2675E+00
      1.911  0.6622E-01  0.2732E+00
      1.997  0.7442E-01  0.2796E+00
      2.083  0.7968E-01  0.2864E+00
      2.169  0.7570E-01  0.2929E+00
      2.254  0.6641E-01  0.2986E+00
      2.340  0.6075E-01  0.3038E+00
      2.426  0.6166E-01  0.3091E+00
      2.512  0.6673E-01  0.3148E+00
      2.598  0.7430E-01  0.3212E+00
      2.684  0.8236E-01  0.3283E+00
      2.770  0.8642E-01  0.3357E+00
      2.856  0.8460E-01  0.3430E+00
      2.941  0.8280E-01  0.3501E+00
      3.027  0.8883E-01  0.3577E+00
      3.113  0.1010E+00  0.3664E+00
      3.199  0.1076E+00  0.3756E+00
      3.285  0.1014E+00  0.3843E+00
      3.371  0.8992E-01  0.3921E+00
      3.457  0.8601E-01  0.3994E+00
      3.543  0.9011E-01  0.4072E+00
      3.628  0.9163E-01  0.4151E+00
      3.714  0.8571E-01  0.4224E+00
      3.800  0.8005E-01  0.4293E+00
      3.886  0.8326E-01  0.4364E+00
      3.972  0.9227E-01  0.4444E+00
      4.058  0.9653E-01  0.4526E+00
      4.144  0.9156E-01  0.4605E+00
      4.229  0.8315E-01  0.4677E+00
      4.315  0.7810E-01  0.4744E+00
      4.401  0.7507E-01  0.4808E+00
      4.487  0.6916E-01  0.4867E+00
      4.573  0.6219E-01  0.4921E+00
      4.659  0.5968E-01  0.4972E+00
      4.745  0.6024E-01  0.5024E+00
      4.831  0.5763E-01  0.5073E+00
      4.916  0.5117E-01  0.5117E+00
      5.002  0.4520E-01  0.5156E+00
      5.088  0.4060E-01  0.5191E+00
      5.174  0.3477E-01  0.5221E+00
      5.260  0.2781E-01  0.5245E+00
      5.346  0.2230E-01  0.5264E+00
      5.432  0.1869E-01  0.5280E+00
      5.518  0.1547E-01  0.5293E+00
      5.603  0.1258E-01  0.5304E+00
      5.689  0.1084E-01  0.5313E+00
      5.775  0.9425E-02  0.5321E+00
      5.861  0.7069E-02  0.5327E+00
      5.947  0.4156E-02  0.5331E+00
      6.033  0.1879E-02  0.5333E+00
      6.119  0.6857E-03  0.5333E+00
      6.205  0.3403E-03  0.5333E+00
      6.290  0.6566E-03  0.5334E+00
      6.376  0.1759E-02  0.5336E+00
      6.462  0.3839E-02  0.5339E+00
      6.548  0.6892E-02  0.5345E+00
      6.634  0.1070E-01  0.5354E+00
      6.720  0.1469E-01  0.5367E+00
      6.806  0.1796E-01  0.5382E+00
      6.892  0.1990E-01  0.5399E+00
      6.977  0.2095E-01  0.5417E+00
      7.063  0.2280E-01  0.5437E+00
      7.149  0.2740E-01  0.5460E+00
      7.235  0.3447E-01  0.5490E+00
      7.321  0.4143E-01  0.5525E+00
      7.407  0.4764E-01  0.5566E+00
      7.493  0.5499E-01  0.5613E+00
      7.579  0.6266E-01  0.5667E+00
      7.664  0.6670E-01  0.5725E+00
      7.750  0.6638E-01  0.5782E+00
      7.836  0.6608E-01  0.5838E+00
      7.922  0.7012E-01  0.5899E+00
      8.008  0.7924E-01  0.5967E+00
      8.094  0.9057E-01  0.6044E+00
      8.180  0.9805E-01  0.6129E+00
      8.265  0.9657E-01  0.6211E+00
      8.351  0.8857E-01  0.6288E+00
      8.437  0.8265E-01  0.6358E+00
      8.523  0.8356E-01  0.6430E+00
      8.609  0.8705E-01  0.6505E+00
      8.695  0.8649E-01  0.6579E+00
      8.781  0.8129E-01  0.6649E+00
      8.867  0.7650E-01  0.6715E+00
      8.952  0.7807E-01  0.6782E+00
      9.038  0.8958E-01  0.6859E+00
      9.124  0.1092E+00  0.6952E+00
      9.210  0.1278E+00  0.7062E+00
      9.296  0.1347E+00  0.7178E+00
      9.382  0.1290E+00  0.7289E+00
      9.468  0.1205E+00  0.7392E+00
      9.554  0.1167E+00  0.7492E+00
      9.639  0.1148E+00  0.7591E+00
      9.725  0.1072E+00  0.7683E+00
      9.811  0.9187E-01  0.7762E+00
      9.897  0.7560E-01  0.7827E+00
      9.983  0.6647E-01  0.7884E+00
     10.069  0.6613E-01  0.7941E+00
     10.155  0.7067E-01  0.8001E+00
     10.241  0.7412E-01  0.8065E+00
     10.326  0.7311E-01  0.8128E+00
     10.412  0.7279E-01  0.8190E+00
     10.498  0.8294E-01  0.8262E+00
     10.584  0.1034E+00  0.8350E+00
     10.670  0.1200E+00  0.8453E+00
     10.756  0.1207E+00  0.8557E+00
     10.842  0.1095E+00  0.8651E+00
     10.928  0.9724E-01  0.8735E+00
     11.013  0.8723E-01  0.8809E+00
     11.099  0.7680E-01  0.8875E+00
     11.185  0.6557E-01  0.8932E+00
     11.271  0.5632E-01  0.8980E+00
     11.357  0.5103E-01  0.9024E+00
     11.443  0.5091E-01  0.9068E+00
     11.529  0.5705E-01  0.9117E+00
     11.615  0.6741E-01  0.9175E+00
     11.700  0.7520E-01  0.9239E+00
     11.786  0.7400E-01  0.9303E+00
     11.872  0.6592E-01  0.9359E+00
     11.958  0.6071E-01  0.9411E+00
     12.044  0.6457E-01  0.9467E+00
     12.130  0.7479E-01  0.9531E+00
     12.216  0.8465E-01  0.9604E+00
     12.301  0.8838E-01  0.9680E+00
     12.387  0.8283E-01  0.9751E+00
     12.473  0.7003E-01  0.9811E+00
     12.559  0.5767E-01  0.9860E+00
     12.645  0.5171E-01  0.9905E+00
     12.731  0.4990E-01  0.9948E+00
     12.817  0.4682E-01  0.9988E+00
     12.903  0.4128E-01  0.1002E+01
     12.988  0.3656E-01  0.1005E+01
     13.074  0.3671E-01  0.1009E+01
     13.160  0.4179E-01  0.1012E+01
     13.246  0.4596E-01  0.1016E+01
     13.332  0.4359E-01  0.1020E+01
     13.418  0.3645E-01  0.1023E+01
     13.504  0.3233E-01  0.1026E+01
     13.590  0.3692E-01  0.1029E+01
     13.675  0.4726E-01  0.1033E+01
     13.761  0.5468E-01  0.1038E+01
     13.847  0.5457E-01  0.1042E+01
     13.933  0.5012E-01  0.1047E+01
     14.019  0.4605E-01  0.1051E+01
     14.105  0.4214E-01  0.1054E+01
     14.191  0.3460E-01  0.1057E+01
     14.277  0.2284E-01  0.1059E+01
     14.362  0.1130E-01  0.1060E+01
     14.448  0.4046E-02  0.1061E+01
     14.534  0.1030E-02  0.1061E+01
     14.620  0.1847E-03  0.1061E+01
     14.706  0.2383E-04  0.1061E+01
     14.792  0.8860E-05  0.1061E+01
     14.878  0.5358E-04  0.1061E+01
     14.964  0.2949E-03  0.1061E+01
     15.049  0.1150E-02  0.1061E+01
     15.135  0.3202E-02  0.1061E+01
     15.221  0.6459E-02  0.1062E+01
     15.307  0.9701E-02  0.1062E+01
     15.393  0.1139E-01  0.1063E+01
     15.479  0.1119E-01  0.1064E+01
     15.565  0.9805E-02  0.1065E+01
     15.650  0.7668E-02  0.1066E+01
     15.736  0.5056E-02  0.1066E+01
     15.822  0.2628E-02  0.1067E+01
     15.908  0.1027E-02  0.1067E+01
     15.994  0.2931E-03  0.1067E+01
     16.080  0.6008E-04  0.1067E+01
     16.166  0.8754E-05  0.1067E+01
     16.252  0.9003E-06  0.1067E+01
     16.337  0.6505E-07  0.1067E+01
     16.423  0.3291E-08  0.1067E+01
     16.509  0.1164E-09  0.1067E+01
     16.595  0.2869E-11  0.1067E+01
     16.681  0.4928E-13  0.1067E+01
     16.767  0.5906E-15  0.1067E+01
     16.853  0.4663E-17  0.1067E+01
     16.939  0.0000E+00  0.1067E+01
     17.024  0.0000E+00  0.1067E+01
     17.110  0.0000E+00  0.1067E+01
     17.196  0.0000E+00  0.1067E+01
     17.282  0.0000E+00  0.1067E+01
     17.368  0.0000E+00  0.1067E+01
     17.454  0.0000E+00  0.1067E+01
     17.540  0.0000E+00  0.1067E+01
     17.626  0.0000E+00  0.1067E+01
