    2    2   15    1
  0.2001288E+02  0.3839590E-09  0.3839590E-09  0.3839590E-09  0.5000000E-15
  1.000000000000000E-004
  CAR 
 unknown system                          
      8     56      8
 
  0.0000000E+00  0.0000000E+00  0.0000000E+00  0.7513148E-03
    1       -6.134939   1.000000
    2        5.876709   0.980241
    3        5.876710   0.980241
    4        5.876999   0.980142
    5        8.455018   0.000000
    6        8.455018   0.000000
    7        8.455226   0.000000
    8        9.197809   0.000000
 
  0.9090909E-01 -0.1591537E-17  0.3465480E-17  0.6010518E-02
    1       -6.026505   1.000000
    2        4.878113   1.000000
    3        5.705715   0.999458
    4        5.705959   0.999455
    5        8.479601   0.000000
    6        8.705754   0.000000
    7        8.705979   0.000000
    8        9.994016   0.000000
 
  0.1818182E+00 -0.3183074E-17  0.6930960E-17  0.6010518E-02
    1       -5.705386   1.000000
    2        3.184862   1.000000
    3        5.355345   1.000000
    4        5.355561   1.000000
    5        8.181348   0.000000
    6        9.188796   0.000000
    7        9.189112   0.000000
    8       11.593727   0.000000
 
  0.2727273E+00  0.1406449E-16  0.1931292E-16  0.6010518E-02
    1       -5.187943   1.000000
    2        1.515368   1.000000
    3        5.026546   1.000000
    4        5.026751   1.000000
    5        7.840928   0.000000
    6        9.452917   0.000000
    7        9.453317   0.000000
    8       13.151154   0.000000
 
  0.3636364E+00 -0.6366148E-17  0.1386192E-16  0.6010518E-02
    1       -4.525497   1.000000
    2        0.049211   1.000000
    3        4.791068   1.000000
    4        4.791277   1.000000
    5        7.566501   0.000000
    6        9.407542   0.000000
    7        9.407920   0.000000
    8       13.770789   0.000000
 
  0.4545455E+00  0.9587941E-18  0.8410920E-17  0.6010518E-02
    1       -3.911525   1.000000
    2       -0.973637   1.000000
    3        4.669296   1.000000
    4        4.669501   1.000000
    5        7.430150   0.000000
    6        9.301366   0.000000
    7        9.301749   0.000000
    8       13.632802   0.000000
 
  0.9090909E-01  0.9090909E-01  0.7557855E-17  0.4507889E-02
    1       -5.990157   1.000000
    2        5.063867   1.000000
    3        5.374022   1.000000
    4        5.374193   1.000000
    5        8.132773   0.000000
    6        9.138321   0.000000
    7        9.138485   0.000000
    8        9.934376   0.000000
 
  0.1818182E+00  0.9090909E-01  0.7213366E-17  0.1803156E-01
    1       -5.739163   1.000000
    2        3.690282   1.000000
    3        4.968151   1.000000
    4        5.158077   1.000000
    5        8.175947   0.000000
    6        9.200410   0.000000
    7        9.745892   0.000000
    8       10.879141   0.000000
 
  0.2727273E+00  0.9090909E-01  0.5717536E-17  0.1803156E-01
    1       -5.284605   1.000000
    2        2.055557   1.000000
    3        4.643833   1.000000
    4        4.780418   1.000000
    5        8.315291   0.000000
    6        9.195388   0.000000
    7       10.108235   0.000000
    8       11.323568   0.000000
 
  0.3636364E+00  0.9090909E-01  0.2306080E-16  0.1803156E-01
    1       -4.660445   1.000000
    2        0.537381   1.000000
    3        4.394890   1.000000
    4        4.452812   1.000000
    5        8.167876   0.000000
    6        9.239121   0.000000
    7       10.047768   0.000000
    8       12.109754   0.000000
 
  0.4545455E+00  0.9090909E-01  0.7687187E-17  0.1803156E-01
    1       -3.987807   1.000000
    2       -0.664622   1.000000
    3        4.089243   1.000000
    4        4.409885   1.000000
    5        8.014345   0.000000
    6        9.199084   0.000000
    7        9.807992   0.000000
    8       13.329115   0.000000
 
 -0.4545455E+00  0.9090909E-01 -0.2682883E-16  0.1803156E-01
    1       -3.715805   1.000000
    2       -1.069137   1.000000
    3        3.908326   1.000000
    4        4.515779   1.000000
    5        7.988564   0.000000
    6        9.258481   0.000000
    7        9.626715   0.000000
    8       13.968262   0.000000
 
 -0.3636364E+00  0.9090909E-01 -0.4663035E-17  0.1803156E-01
    1       -4.202645   1.000000
    2       -0.314531   1.000000
    3        3.871944   1.000000
    4        4.745465   1.000000
    5        8.090676   0.000000
    6        9.450824   0.000000
    7        9.541233   0.000000
    8       13.689468   0.000000
 
 -0.2727273E+00  0.9090909E-01 -0.1011403E-16  0.1803156E-01
    1       -4.884866   1.000000
    2        1.023176   1.000000
    3        3.996624   1.000000
    4        5.076732   1.000000
    5        8.320620   0.000000
    6        9.464092   0.000000
    7        9.667446   0.000000
    8       12.656897   0.000000
 
 -0.1818182E+00  0.9090909E-01 -0.6648554E-17  0.1803156E-01
    1       -5.458520   1.000000
    2        2.585232   1.000000
    3        4.295595   1.000000
    4        5.447124   1.000000
    5        8.614163   0.000000
    6        9.165084   0.000000
    7        9.541016   0.000000
    8       11.761472   0.000000
 
 -0.9090909E-01  0.9090909E-01 -0.3183074E-17  0.9015778E-02
    1       -5.846876   1.000000
    2        4.068657   1.000000
    3        4.865217   1.000000
    4        5.730081   0.999018
    5        8.754684   0.000000
    6        8.840125   0.000000
    7        8.936470   0.000000
    8       10.874632   0.000000
 
  0.1818182E+00  0.1818182E+00  0.1511571E-16  0.4507889E-02
    1       -5.558490   1.000000
    2        3.553619   1.000000
    3        4.525432   1.000000
    4        4.525582   1.000000
    5        7.484353   0.000000
    6       10.054845   0.000000
    7       10.516675   0.000000
    8       10.516875   0.000000
 
  0.2727273E+00  0.1818182E+00  0.6503012E-17  0.1803156E-01
    1       -5.170284   1.000000
    2        2.381710   1.000000
    3        4.107695   1.000000
    4        4.177983   1.000000
    5        7.541183   0.000000
    6        9.636946   0.000000
    7       10.814198   0.000000
    8       11.114119   0.000000
 
  0.3636364E+00  0.1818182E+00  0.1442673E-16  0.1803156E-01
    1       -4.597146   1.000000
    2        0.998248   1.000000
    3        3.574911   1.000000
    4        3.979791   1.000000
    5        7.787429   0.000000
    6        9.989769   0.000000
    7       10.619759   0.000000
    8       11.199439   0.000000
 
  0.4545455E+00  0.1818182E+00  0.2680869E-16  0.1803156E-01
    1       -3.913791   1.000000
    2       -0.250619   1.000000
    3        3.093825   1.000000
    4        3.946594   1.000000
    5        7.827241   0.000000
    6       10.375137   0.000000
    7       10.946597   0.000000
    8       11.227459   0.000000
 
 -0.4545455E+00  0.1818182E+00  0.1012563E-16  0.1803156E-01
    1       -3.427745   1.000000
    2       -0.967530   1.000000
    3        2.752324   1.000000
    4        4.077975   1.000000
    5        7.926539   0.000000
    6       10.240100   0.000000
    7       10.648091   0.000000
    8       12.874248   0.000000
 
 -0.3636364E+00  0.1818182E+00 -0.1329711E-16  0.1803156E-01
    1       -3.715199   1.000000
    2       -0.551460   1.000000
    3        2.597709   1.000000
    4        4.362522   1.000000
    5        8.187334   0.000000
    6       10.234709   0.000000
    7       10.419860   0.000000
    8       13.696127   0.000000
 
 -0.2727273E+00  0.1818182E+00 -0.9151488E-18  0.1803156E-01
    1       -4.390293   1.000000
    2        0.575190   1.000000
    3        2.678775   1.000000
    4        4.756302   1.000000
    5        8.562437   0.000000
    6       10.161000   0.000000
    7       10.300754   0.000000
    8       12.280034   0.000000
 
 -0.1818182E+00  0.1818182E+00 -0.6366148E-17  0.9015778E-02
    1       -5.009431   1.000000
    2        1.774168   1.000000
    3        3.164271   1.000000
    4        5.175251   1.000000
    5        8.892506   0.000000
    6        9.656940   0.000000
    7        9.984858   0.000000
    8       11.594668   0.000000
 
  0.2727273E+00  0.2727273E+00  0.2267357E-16  0.4507889E-02
    1       -4.848146   1.000000
    2        1.921630   1.000000
    3        3.795316   1.000000
    4        3.795453   1.000000
    5        6.892948   0.000000
    6        8.732626   0.000000
    7       12.109319   0.000000
    8       12.109553   0.000000
 
  0.3636364E+00  0.2727273E+00  0.2858693E-16  0.1803156E-01
    1       -4.332843   1.000000
    2        0.960516   1.000000
    3        3.254654   1.000000
    4        3.561048   1.000000
    5        7.032793   0.000000
    6        8.423023   0.000000
    7       12.406854   0.000000
    8       12.590399   0.000000
 
  0.4545455E+00  0.2727273E+00  0.1817462E-16  0.1803156E-01
    1       -3.670734   1.000000
    2       -0.077298   1.000000
    3        2.523379   1.000000
    4        3.497262   1.000000
    5        7.233520   0.000000
    6        9.184605   0.000000
    7       12.227254   0.000000
    8       12.448067   0.000000
 
 -0.4545455E+00  0.2727273E+00  0.1141417E-16  0.1803156E-01
    1       -3.052692   1.000000
    2       -0.887602   1.000000
    3        1.946352   1.000000
    4        3.610000   1.000000
    5        7.368568   0.000000
    6       10.691237   0.000000
    7       12.045585   0.000000
    8       12.113133   0.000000
 
 -0.3636364E+00  0.2727273E+00  0.5824396E-17  0.1803156E-01
    1       -3.108681   1.000000
    2       -0.808495   1.000000
    3        1.659195   1.000000
    4        3.886789   1.000000
    5        7.662391   0.000000
    6       11.748928   0.000000
    7       11.784089   0.000000
    8       12.671826   0.000000
 
 -0.2727273E+00  0.2727273E+00 -0.2738218E-16  0.9015778E-02
    1       -3.746947   1.000000
    2       -0.043697   1.000000
    3        1.821164   1.000000
    4        4.297079   1.000000
    5        8.118992   0.000000
    6       11.133853   0.000000
    7       11.523954   0.000000
    8       12.318244   0.000000
 
  0.3636364E+00  0.3636364E+00  0.3023142E-16  0.4507889E-02
    1       -3.875183   1.000000
    2        0.293519   1.000000
    3        3.281407   1.000000
    4        3.281536   1.000000
    5        6.541171   0.004149
    6        7.559499   0.000000
    7       13.792606   0.000000
    8       13.792870   0.000000
 
  0.4545455E+00  0.3636364E+00  0.3729612E-16  0.1803156E-01
    1       -3.250666   1.000000
    2       -0.524515   1.000000
    3        2.744086   1.000000
    4        3.175302   1.000000
    5        6.749380   0.000020
    6        7.576965   0.000000
    7       14.119339   0.000000
    8       14.130438   0.000000
 
 -0.4545455E+00  0.3636364E+00 -0.2497548E-16  0.1803156E-01
    1       -2.572991   1.000000
    2       -1.245962   1.000000
    3        1.960738   1.000000
    4        3.247955   1.000000
    5        6.917645   0.000000
    6        8.774306   0.000000
    7       13.832086   0.000000
    8       13.973252   0.000000
 
 -0.3636364E+00  0.3636364E+00 -0.1273230E-16  0.9015778E-02
    1       -2.506516   1.000000
    2       -1.279711   1.000000
    3        1.472119   1.000000
    4        3.494559   1.000000
    5        7.198958   0.000000
    6       10.529728   0.000000
    7       13.134300   0.000000
    8       13.701563   0.000000
 
  0.4545455E+00  0.4545455E+00  0.3778928E-16  0.4507889E-02
    1       -2.663836   1.000000
    2       -1.256275   1.000000
    3        3.020162   1.000000
    4        3.020285   1.000000
    5        6.503815   0.008761
    6        6.821879   0.000002
    7       15.519055   0.000000
    8       15.519222   0.000000
 
 -0.4545455E+00  0.4545455E+00 -0.2569921E-16  0.9015778E-02
    1       -2.016334   1.000000
    2       -1.904876   1.000000
    3        2.575442   1.000000
    4        3.044101   1.000000
    5        6.676801   0.000160
    6        7.262603   0.000000
    7       15.393207   0.000000
    8       15.626652   0.000000
 
  0.2727273E+00  0.1818182E+00  0.9090909E-01  0.1803156E-01
    1       -5.420037   1.000000
    2        2.827484   1.000000
    3        4.016513   1.000000
    4        5.038562   1.000000
    5        8.236431   0.000000
    6        9.532377   0.000000
    7       10.309529   0.000000
    8       10.735326   0.000000
 
  0.3636364E+00  0.1818182E+00  0.9090909E-01  0.3606311E-01
    1       -4.905442   1.000000
    2        1.495861   1.000000
    3        3.450646   1.000000
    4        4.714327   1.000000
    5        8.558961   0.000000
    6        9.482800   0.000000
    7       10.636524   0.000000
    8       10.857161   0.000000
 
  0.4545455E+00  0.1818182E+00  0.9090909E-01  0.3606311E-01
    1       -4.244141   1.000000
    2        0.142809   1.000000
    3        3.193823   1.000000
    4        4.366698   1.000000
    5        8.601926   0.000000
    6        9.276793   0.000000
    7       10.745079   0.000000
    8       11.709599   0.000000
 
 -0.4545455E+00  0.1818182E+00  0.9090909E-01  0.3606311E-01
    1       -3.625919   1.000000
    2       -0.847307   1.000000
    3        3.092680   1.000000
    4        4.150521   1.000000
    5        8.573643   0.000000
    6        9.063701   0.000000
    7       10.681735   0.000000
    8       13.183764   0.000000
 
  0.3636364E+00  0.2727273E+00  0.9090909E-01  0.1803156E-01
    1       -4.719466   1.000000
    2        1.533490   1.000000
    3        3.292992   1.000000
    4        4.017708   1.000000
    5        7.674646   0.000000
    6        9.234504   0.000000
    7       10.930897   0.000000
    8       11.994030   0.000000
 
  0.4545455E+00  0.2727273E+00  0.9090909E-01  0.3606311E-01
    1       -4.099430   1.000000
    2        0.444417   1.000000
    3        2.714732   1.000000
    4        3.697319   1.000000
    5        8.039913   0.000000
    6        9.638824   0.000000
    7       10.609786   0.000000
    8       12.389432   0.000000
 
 -0.4545455E+00  0.2727273E+00  0.9090909E-01  0.3606311E-01
    1       -3.422528   1.000000
    2       -0.574561   1.000000
    3        2.329053   1.000000
    4        3.540904   1.000000
    5        8.178192   0.000000
    6       10.204229   0.000000
    7       11.029871   0.000000
    8       12.348210   0.000000
 
 -0.3636364E+00  0.2727273E+00  0.9090909E-01  0.3606311E-01
    1       -3.153832   1.000000
    2       -0.928445   1.000000
    3        2.095893   1.000000
    4        3.630954   1.000000
    5        8.390561   0.000000
    6        9.933317   0.000000
    7       12.225266   0.000000
    8       12.747082   0.000000
 
 -0.2727273E+00  0.2727273E+00  0.9090909E-01  0.3606311E-01
    1       -3.663665   1.000000
    2       -0.231818   1.000000
    3        2.084198   1.000000
    4        3.929714   1.000000
    5        8.760421   0.000000
    6        9.742285   0.000000
    7       11.491284   0.000000
    8       12.165438   0.000000
 
 -0.1818182E+00  0.2727273E+00  0.9090909E-01  0.1803156E-01
    1       -4.342557   1.000000
    2        0.758663   1.000000
    3        2.462952   1.000000
    4        4.351808   1.000000
    5        9.204888   0.000000
    6        9.319498   0.000000
    7       10.603440   0.000000
    8       11.694504   0.000000
 
  0.4545455E+00  0.3636364E+00  0.9090909E-01  0.1803156E-01
    1       -3.765465   1.000000
    2        0.155946   1.000000
    3        2.810253   1.000000
    4        3.203491   1.000000
    5        7.314638   0.000000
    6        8.167594   0.000000
    7       12.322782   0.000000
    8       13.757664   0.000000
 
 -0.4545455E+00  0.3636364E+00  0.9090909E-01  0.3606311E-01
    1       -3.081366   1.000000
    2       -0.671057   1.000000
    3        2.163603   1.000000
    4        3.024011   1.000000
    5        7.661857   0.000000
    6        8.998143   0.000000
    7       11.962161   0.000000
    8       14.124489   0.000000
 
 -0.3636364E+00  0.3636364E+00  0.9090909E-01  0.3606311E-01
    1       -2.608245   1.000000
    2       -1.174756   1.000000
    3        1.638202   1.000000
    4        3.142315   1.000000
    5        7.881137   0.000000
    6       10.592328   0.000000
    7       11.656998   0.000000
    8       13.271019   0.000000
 
 -0.2727273E+00  0.3636364E+00  0.9090909E-01  0.1803156E-01
    1       -2.996717   1.000000
    2       -0.773171   1.000000
    3        1.533351   1.000000
    4        3.468553   1.000000
    5        8.258018   0.000000
    6       11.026420   0.000000
    7       11.762952   0.000000
    8       12.673510   0.000000
 
 -0.4545455E+00  0.4545455E+00  0.9090909E-01  0.1803156E-01
    1       -2.590693   1.000000
    2       -1.253786   1.000000
    3        2.616171   1.000000
    4        2.738070   1.000000
    5        7.244180   0.000000
    6        7.511777   0.000000
    7       13.873768   0.000000
    8       15.283163   0.000000
 
 -0.3636364E+00  0.4545455E+00  0.9090909E-01  0.1803156E-01
    1       -2.081251   1.000000
    2       -1.703216   1.000000
    3        1.952135   1.000000
    4        2.811605   1.000000
    5        7.527891   0.000000
    6        8.789741   0.000000
    7       13.414156   0.000000
    8       13.642613   0.000000
 
 -0.4545455E+00  0.3636364E+00  0.1818182E+00  0.1803156E-01
    1       -3.452473   1.000000
    2       -0.240774   1.000000
    3        2.049876   1.000000
    4        3.228911   1.000000
    5        8.995186   0.000000
    6        9.642832   0.000000
    7       10.226442   0.000000
    8       13.658867   0.000000
 
 -0.3636364E+00  0.3636364E+00  0.1818182E+00  0.3606311E-01
    1       -2.813805   1.000000
    2       -0.947909   1.000000
    3        1.767656   1.000000
    4        2.906038   1.000000
    5        9.365405   0.000000
    6        9.734543   0.000000
    7       11.019436   0.000000
    8       12.914224   0.000000
 
 -0.3636364E+00  0.4545455E+00  0.1818182E+00  0.1803156E-01
    1       -2.402578   1.000000
    2       -1.296234   1.000000
    3        1.998266   1.000000
    4        2.382422   1.000000
    5        8.910935   0.000000
    6        9.118103   0.000000
    7       11.548436   0.000000
    8       13.155602   0.000000
 
 -0.2727273E+00  0.4545455E+00  0.1818182E+00  0.1803156E-01
    1       -2.200974   1.000000
    2       -1.463931   1.000000
    3        1.715683   1.000000
    4        2.419539   1.000000
    5        9.260896   0.000000
    6       10.557164   0.000000
    7       11.314730   0.000000
    8       11.316524   0.000000
