    2    2   15    1
  0.2001288E+02  0.3839590E-09  0.3839590E-09  0.3839590E-09  0.5000000E-15
  1.000000000000000E-004
  CAR 
 unknown system                          
      8     56      8
 
  0.0000000E+00  0.0000000E+00  0.0000000E+00  0.7513148E-03
    1       -6.136108   1.000000
    2        5.875522   0.980043
    3        5.875522   0.980043
    4        5.875828   0.979938
    5        8.454761   0.000000
    6        8.454761   0.000000
    7        8.454971   0.000000
    8        9.195847   0.000000
 
  0.9090909E-01 -0.1591537E-17  0.3465480E-17  0.6010518E-02
    1       -6.027670   1.000000
    2        4.876994   1.000000
    3        5.704595   0.999449
    4        5.704853   0.999446
    5        8.478668   0.000000
    6        8.705437   0.000000
    7        8.705664   0.000000
    8        9.992197   0.000000
 
  0.1818182E+00 -0.3183074E-17  0.6930960E-17  0.6010518E-02
    1       -5.706538   1.000000
    2        3.183744   1.000000
    3        5.354321   1.000000
    4        5.354550   1.000000
    5        8.179824   0.000000
    6        9.188410   0.000000
    7        9.188728   0.000000
    8       11.591525   0.000000
 
  0.2727273E+00  0.1406449E-16  0.1931292E-16  0.6010518E-02
    1       -5.189069   1.000000
    2        1.514206   1.000000
    3        5.025584   1.000000
    4        5.025802   1.000000
    5        7.839105   0.000000
    6        9.452507   0.000000
    7        9.452905   0.000000
    8       13.148198   0.000000
 
  0.3636364E+00 -0.6366148E-17  0.1386192E-16  0.6010518E-02
    1       -4.526575   1.000000
    2        0.047984   1.000000
    3        4.790140   1.000000
    4        4.790360   1.000000
    5        7.564557   0.000000
    6        9.407118   0.000000
    7        9.407493   0.000000
    8       13.765774   0.000000
 
  0.4545455E+00  0.9587941E-18  0.8410920E-17  0.6010518E-02
    1       -3.912528   1.000000
    2       -0.974951   1.000000
    3        4.668383   1.000000
    4        4.668599   1.000000
    5        7.428158   0.000000
    6        9.300934   0.000000
    7        9.301313   0.000000
    8       13.627186   0.000000
 
  0.9090909E-01  0.9090909E-01  0.7557855E-17  0.4507889E-02
    1       -5.991321   1.000000
    2        5.062645   1.000000
    3        5.373000   1.000000
    4        5.373180   1.000000
    5        8.132002   0.000000
    6        9.137877   0.000000
    7        9.138045   0.000000
    8        9.932487   0.000000
 
  0.1818182E+00  0.9090909E-01  0.7213366E-17  0.1803156E-01
    1       -5.740317   1.000000
    2        3.689167   1.000000
    3        4.967217   1.000000
    4        5.156996   1.000000
    5        8.174789   0.000000
    6        9.199605   0.000000
    7        9.745368   0.000000
    8       10.877410   0.000000
 
  0.2727273E+00  0.9090909E-01  0.5717536E-17  0.1803156E-01
    1       -5.285738   1.000000
    2        2.054427   1.000000
    3        4.642941   1.000000
    4        4.779324   1.000000
    5        8.313624   0.000000
    6        9.194821   0.000000
    7       10.107699   0.000000
    8       11.321784   0.000000
 
  0.3636364E+00  0.9090909E-01  0.2306080E-16  0.1803156E-01
    1       -4.661540   1.000000
    2        0.536197   1.000000
    3        4.393808   1.000000
    4        4.451938   1.000000
    5        8.166057   0.000000
    6        9.238422   0.000000
    7       10.047255   0.000000
    8       12.107874   0.000000
 
  0.4545455E+00  0.9090909E-01  0.7687187E-17  0.1803156E-01
    1       -3.988835   1.000000
    2       -0.665886   1.000000
    3        4.088179   1.000000
    4        4.409012   1.000000
    5        8.012541   0.000000
    6        9.198157   0.000000
    7        9.807505   0.000000
    8       13.326473   0.000000
 
 -0.4545455E+00  0.9090909E-01 -0.2682883E-16  0.1803156E-01
    1       -3.716790   1.000000
    2       -1.070448   1.000000
    3        3.907274   1.000000
    4        4.514895   1.000000
    5        7.986801   0.000000
    6        9.257409   0.000000
    7        9.626259   0.000000
    8       13.963644   0.000000
 
 -0.3636364E+00  0.9090909E-01 -0.4663035E-17  0.1803156E-01
    1       -4.203699   1.000000
    2       -0.315765   1.000000
    3        3.870900   1.000000
    4        4.744552   1.000000
    5        8.088973   0.000000
    6        9.449712   0.000000
    7        9.540828   0.000000
    8       13.685938   0.000000
 
 -0.2727273E+00  0.9090909E-01 -0.1011403E-16  0.1803156E-01
    1       -4.885976   1.000000
    2        1.022013   1.000000
    3        3.995586   1.000000
    4        5.075768   1.000000
    5        8.319016   0.000000
    6        9.463749   0.000000
    7        9.666373   0.000000
    8       12.654423   0.000000
 
 -0.1818182E+00  0.9090909E-01 -0.6648554E-17  0.1803156E-01
    1       -5.459661   1.000000
    2        2.584118   1.000000
    3        4.294564   1.000000
    4        5.446082   1.000000
    5        8.612809   0.000000
    6        9.164793   0.000000
    7        9.539907   0.000000
    8       11.759390   0.000000
 
 -0.9090909E-01  0.9090909E-01 -0.3183074E-17  0.9015778E-02
    1       -5.848034   1.000000
    2        4.067542   1.000000
    3        4.864206   1.000000
    4        5.728958   0.999003
    5        8.754422   0.000000
    6        8.839444   0.000000
    7        8.935101   0.000000
    8       10.872925   0.000000
 
  0.1818182E+00  0.1818182E+00  0.1511571E-16  0.4507889E-02
    1       -5.559637   1.000000
    2        3.552442   1.000000
    3        4.524551   1.000000
    4        4.524708   1.000000
    5        7.482847   0.000000
    6       10.053093   0.000000
    7       10.516034   0.000000
    8       10.516240   0.000000
 
  0.2727273E+00  0.1818182E+00  0.6503012E-17  0.1803156E-01
    1       -5.171416   1.000000
    2        2.380607   1.000000
    3        4.106697   1.000000
    4        4.177141   1.000000
    5        7.539513   0.000000
    6        9.635230   0.000000
    7       10.813146   0.000000
    8       11.113447   0.000000
 
  0.3636364E+00  0.1818182E+00  0.1442673E-16  0.1803156E-01
    1       -4.598249   1.000000
    2        0.997139   1.000000
    3        3.573795   1.000000
    4        3.978963   1.000000
    5        7.785656   0.000000
    6        9.988224   0.000000
    7       10.618250   0.000000
    8       11.198824   0.000000
 
  0.4545455E+00  0.1818182E+00  0.2680869E-16  0.1803156E-01
    1       -3.914841   1.000000
    2       -0.251786   1.000000
    3        3.092663   1.000000
    4        3.945766   1.000000
    5        7.825442   0.000000
    6       10.373591   0.000000
    7       10.946036   0.000000
    8       11.225704   0.000000
 
 -0.4545455E+00  0.1818182E+00  0.1012563E-16  0.1803156E-01
    1       -3.428728   1.000000
    2       -0.968771   1.000000
    3        2.751144   1.000000
    4        4.077136   1.000000
    5        7.924822   0.000000
    6       10.238254   0.000000
    7       10.647584   0.000000
    8       12.872443   0.000000
 
 -0.3636364E+00  0.1818182E+00 -0.1329711E-16  0.1803156E-01
    1       -3.716221   1.000000
    2       -0.552655   1.000000
    3        2.596521   1.000000
    4        4.361660   1.000000
    5        8.185804   0.000000
    6       10.232638   0.000000
    7       10.419426   0.000000
    8       13.693510   0.000000
 
 -0.2727273E+00  0.1818182E+00 -0.9151488E-18  0.1803156E-01
    1       -4.391376   1.000000
    2        0.574074   1.000000
    3        2.677585   1.000000
    4        4.755390   1.000000
    5        8.561212   0.000000
    6       10.160666   0.000000
    7       10.298488   0.000000
    8       12.277705   0.000000
 
 -0.1818182E+00  0.1818182E+00 -0.6366148E-17  0.9015778E-02
    1       -5.010551   1.000000
    2        1.773088   1.000000
    3        3.163124   1.000000
    4        5.174268   1.000000
    5        8.891673   0.000000
    6        9.656664   0.000000
    7        9.982579   0.000000
    8       11.592502   0.000000
 
  0.2727273E+00  0.2727273E+00  0.2267357E-16  0.4507889E-02
    1       -4.849268   1.000000
    2        1.920533   1.000000
    3        3.794498   1.000000
    4        3.794642   1.000000
    5        6.890959   0.000000
    6        8.730593   0.000000
    7       12.108526   0.000000
    8       12.108766   0.000000
 
  0.3636364E+00  0.2727273E+00  0.2858693E-16  0.1803156E-01
    1       -4.333944   1.000000
    2        0.959460   1.000000
    3        3.253681   1.000000
    4        3.560251   1.000000
    5        7.030759   0.000000
    6        8.420945   0.000000
    7       12.405744   0.000000
    8       12.589648   0.000000
 
  0.4545455E+00  0.2727273E+00  0.1817462E-16  0.1803156E-01
    1       -3.671797   1.000000
    2       -0.078351   1.000000
    3        2.522212   1.000000
    4        3.496467   1.000000
    5        7.231432   0.000000
    6        9.182614   0.000000
    7       12.225833   0.000000
    8       12.447423   0.000000
 
 -0.4545455E+00  0.2727273E+00  0.1141417E-16  0.1803156E-01
    1       -3.053691   1.000000
    2       -0.888704   1.000000
    3        1.945083   1.000000
    4        3.609198   1.000000
    5        7.366513   0.000000
    6       10.689081   0.000000
    7       12.044095   0.000000
    8       12.112580   0.000000
 
 -0.3636364E+00  0.2727273E+00  0.5824396E-17  0.1803156E-01
    1       -3.109672   1.000000
    2       -0.809597   1.000000
    3        1.657875   1.000000
    4        3.885967   1.000000
    5        7.660483   0.000000
    6       11.748493   0.000000
    7       11.781305   0.000000
    8       12.670479   0.000000
 
 -0.2727273E+00  0.2727273E+00 -0.2738218E-16  0.9015778E-02
    1       -3.747991   1.000000
    2       -0.044759   1.000000
    3        1.819852   1.000000
    4        4.296224   1.000000
    5        8.117369   0.000000
    6       11.133531   0.000000
    7       11.521188   0.000000
    8       12.316283   0.000000
 
  0.3636364E+00  0.3636364E+00  0.3023142E-16  0.4507889E-02
    1       -3.876272   1.000000
    2        0.292476   1.000000
    3        3.280618   1.000000
    4        3.280753   1.000000
    5        6.538909   0.004192
    6        7.557245   0.000000
    7       13.791701   0.000000
    8       13.791970   0.000000
 
  0.4545455E+00  0.3636364E+00  0.3729612E-16  0.1803156E-01
    1       -3.251731   1.000000
    2       -0.525542   1.000000
    3        2.743105   1.000000
    4        3.174525   1.000000
    5        6.747115   0.000020
    6        7.574764   0.000000
    7       14.118100   0.000000
    8       14.129666   0.000000
 
 -0.4545455E+00  0.3636364E+00 -0.2497548E-16  0.1803156E-01
    1       -2.574008   1.000000
    2       -1.246987   1.000000
    3        1.959514   1.000000
    4        3.247173   1.000000
    5        6.915382   0.000000
    6        8.772265   0.000000
    7       13.831500   0.000000
    8       13.971612   0.000000
 
 -0.3636364E+00  0.3636364E+00 -0.1273230E-16  0.9015778E-02
    1       -2.507484   1.000000
    2       -1.280761   1.000000
    3        1.470771   1.000000
    4        3.493763   1.000000
    5        7.196811   0.000000
    6       10.527635   0.000000
    7       13.133892   0.000000
    8       13.699424   0.000000
 
  0.4545455E+00  0.4545455E+00  0.3778928E-16  0.4507889E-02
    1       -2.664892   1.000000
    2       -1.257309   1.000000
    3        3.019388   1.000000
    4        3.019516   1.000000
    5        6.501424   0.008866
    6        6.819506   0.000002
    7       15.518136   0.000000
    8       15.518314   0.000000
 
 -0.4545455E+00  0.4545455E+00 -0.2569921E-16  0.9015778E-02
    1       -2.017357   1.000000
    2       -1.905921   1.000000
    3        2.574454   1.000000
    4        3.043329   1.000000
    5        6.674441   0.000162
    6        7.260391   0.000000
    7       15.392568   0.000000
    8       15.625560   0.000000
 
  0.2727273E+00  0.1818182E+00  0.9090909E-01  0.1803156E-01
    1       -5.421178   1.000000
    2        2.826390   1.000000
    3        4.015497   1.000000
    4        5.037568   1.000000
    5        8.235119   0.000000
    6        9.531583   0.000000
    7       10.308586   0.000000
    8       10.733657   0.000000
 
  0.3636364E+00  0.1818182E+00  0.9090909E-01  0.3606311E-01
    1       -4.906558   1.000000
    2        1.494756   1.000000
    3        3.449565   1.000000
    4        4.713366   1.000000
    5        8.557456   0.000000
    6        9.482012   0.000000
    7       10.635207   0.000000
    8       10.855593   0.000000
 
  0.4545455E+00  0.1818182E+00  0.9090909E-01  0.3606311E-01
    1       -4.245212   1.000000
    2        0.141645   1.000000
    3        3.192711   1.000000
    4        4.365773   1.000000
    5        8.600347   0.000000
    6        9.275579   0.000000
    7       10.744281   0.000000
    8       11.707743   0.000000
 
 -0.4545455E+00  0.1818182E+00  0.9090909E-01  0.3606311E-01
    1       -3.626920   1.000000
    2       -0.848553   1.000000
    3        3.091547   1.000000
    4        4.149619   1.000000
    5        8.572121   0.000000
    6        9.062205   0.000000
    7       10.680975   0.000000
    8       13.181816   0.000000
 
  0.3636364E+00  0.2727273E+00  0.9090909E-01  0.1803156E-01
    1       -4.720579   1.000000
    2        1.532424   1.000000
    3        3.291970   1.000000
    4        4.016806   1.000000
    5        7.672883   0.000000
    6        9.232618   0.000000
    7       10.929873   0.000000
    8       11.993085   0.000000
 
  0.4545455E+00  0.2727273E+00  0.9090909E-01  0.3606311E-01
    1       -4.100509   1.000000
    2        0.443351   1.000000
    3        2.713592   1.000000
    4        3.696391   1.000000
    5        8.038099   0.000000
    6        9.636895   0.000000
    7       10.608654   0.000000
    8       12.388445   0.000000
 
 -0.4545455E+00  0.2727273E+00  0.9090909E-01  0.3606311E-01
    1       -3.423550   1.000000
    2       -0.575683   1.000000
    3        2.327841   1.000000
    4        3.539975   1.000000
    5        8.176361   0.000000
    6       10.202535   0.000000
    7       11.028387   0.000000
    8       12.347236   0.000000
 
 -0.3636364E+00  0.2727273E+00  0.9090909E-01  0.3606311E-01
    1       -3.154813   1.000000
    2       -0.929608   1.000000
    3        2.094651   1.000000
    4        3.630022   1.000000
    5        8.388818   0.000000
    6        9.931710   0.000000
    7       12.224266   0.000000
    8       12.745142   0.000000
 
 -0.2727273E+00  0.2727273E+00  0.9090909E-01  0.3606311E-01
    1       -3.664703   1.000000
    2       -0.232916   1.000000
    3        2.082946   1.000000
    4        3.928779   1.000000
    5        8.758877   0.000000
    6        9.740696   0.000000
    7       11.489809   0.000000
    8       12.163990   0.000000
 
 -0.1818182E+00  0.2727273E+00  0.9090909E-01  0.1803156E-01
    1       -4.343643   1.000000
    2        0.757600   1.000000
    3        2.461737   1.000000
    4        4.350872   1.000000
    5        9.203714   0.000000
    6        9.318037   0.000000
    7       10.601622   0.000000
    8       11.693149   0.000000
 
  0.4545455E+00  0.3636364E+00  0.9090909E-01  0.1803156E-01
    1       -3.766543   1.000000
    2        0.154920   1.000000
    3        2.809236   1.000000
    4        3.202576   1.000000
    5        7.312617   0.000000
    6        8.165473   0.000000
    7       12.321696   0.000000
    8       13.756703   0.000000
 
 -0.4545455E+00  0.3636364E+00  0.9090909E-01  0.3606311E-01
    1       -3.082403   1.000000
    2       -0.672075   1.000000
    3        2.162405   1.000000
    4        3.023055   1.000000
    5        7.659813   0.000000
    6        8.996115   0.000000
    7       11.960975   0.000000
    8       14.123547   0.000000
 
 -0.3636364E+00  0.3636364E+00  0.9090909E-01  0.3606311E-01
    1       -2.609224   1.000000
    2       -1.175805   1.000000
    3        1.636885   1.000000
    4        3.141357   1.000000
    5        7.879140   0.000000
    6       10.590100   0.000000
    7       11.655958   0.000000
    8       13.269780   0.000000
 
 -0.2727273E+00  0.3636364E+00  0.9090909E-01  0.1803156E-01
    1       -2.997715   1.000000
    2       -0.774213   1.000000
    3        1.532004   1.000000
    4        3.467604   1.000000
    5        8.256172   0.000000
    6       11.024680   0.000000
    7       11.761436   0.000000
    8       12.671839   0.000000
 
 -0.4545455E+00  0.4545455E+00  0.9090909E-01  0.1803156E-01
    1       -2.591734   1.000000
    2       -1.254803   1.000000
    3        2.615174   1.000000
    4        2.737109   1.000000
    5        7.242020   0.000000
    6        7.509584   0.000000
    7       13.872613   0.000000
    8       15.282359   0.000000
 
 -0.3636364E+00  0.4545455E+00  0.9090909E-01  0.1803156E-01
    1       -2.082239   1.000000
    2       -1.704246   1.000000
    3        1.950911   1.000000
    4        2.810633   1.000000
    5        7.525767   0.000000
    6        8.787701   0.000000
    7       13.412993   0.000000
    8       13.641285   0.000000
 
 -0.4545455E+00  0.3636364E+00  0.1818182E+00  0.1803156E-01
    1       -3.453517   1.000000
    2       -0.241795   1.000000
    3        2.048639   1.000000
    4        3.227878   1.000000
    5        8.993414   0.000000
    6        9.640537   0.000000
    7       10.225503   0.000000
    8       13.657682   0.000000
 
 -0.3636364E+00  0.3636364E+00  0.1818182E+00  0.3606311E-01
    1       -2.814799   1.000000
    2       -0.948950   1.000000
    3        1.766369   1.000000
    4        2.904959   1.000000
    5        9.363341   0.000000
    6        9.732959   0.000000
    7       11.017918   0.000000
    8       12.912790   0.000000
 
 -0.3636364E+00  0.4545455E+00  0.1818182E+00  0.1803156E-01
    1       -2.403583   1.000000
    2       -1.297225   1.000000
    3        1.997043   1.000000
    4        2.381267   1.000000
    5        8.908981   0.000000
    6        9.116031   0.000000
    7       11.547188   0.000000
    8       13.154235   0.000000
 
 -0.2727273E+00  0.4545455E+00  0.1818182E+00  0.1803156E-01
    1       -2.201947   1.000000
    2       -1.464932   1.000000
    3        1.714380   1.000000
    4        2.418386   1.000000
    5        9.258891   0.000000
    6       10.554605   0.000000
    7       11.313395   0.000000
    8       11.315800   0.000000
