       N       E                     dE             d eps       ncg     rms          rms(c)
DAV:   1    -0.107447398367E+02   -0.10745E+02   -0.24967E-05   456   0.384E-02    0.134E-03
DAV:   2    -0.107447399767E+02   -0.13992E-06   -0.82372E-07   448   0.714E-03
   1 F= -.10744740E+02 E0= -.10744693E+02  d E =-.107447E+02
