unknown system                          
   1.00000000000000     
    -2.450000    2.450000    1.274000
     2.450000   -2.450000    1.274000
     2.450000    2.450000   -1.274000
   Si
     2
Direct
  0.250000  0.750000  0.500000
  0.000000  0.000000  0.000000
 
   32   32   32
 -5.3401     -4.1641     -1.0062      3.1781      7.2305      10.203      11.629      11.573      10.500      9.0344    
  7.5907      6.3133      5.2743      4.4948      3.9636      3.6579      3.5584      3.6579      3.9636      4.4948    
  5.2743      6.3133      7.5907      9.0344      10.500      11.573      11.629      10.203      7.2306      3.1781    
 -1.0063     -4.1641     -4.1641     -4.7752     -3.1091     0.30710      4.4495      8.1993      10.727      11.708    
  11.321      10.089      8.6124      7.2085      5.9946      5.0278      4.3189      3.8520      3.6042      3.5586    
  3.7112      4.0725      4.6636      5.5061      6.6055      7.9306      9.3961      10.826      11.734      11.513    
  9.7767      6.5747      2.4899     -1.4662     -1.0063     -3.1091     -3.1594     -1.1476      2.2848      6.1120    
  9.3192      11.236      11.690      10.964      9.6070      8.1472      6.8004      5.6630      4.7769      4.1431    
  3.7424      3.5524      3.5590      3.7618      4.1742      4.8181      5.7129      6.8581      8.2133      9.6827    
  11.059      11.824      11.417      9.5383      6.3431      2.4899      3.1781     0.30710     -1.1476     -.71730    
  1.4485      4.6490      7.9223      10.408      11.619      11.531      10.503      9.0790      7.6571      6.3827    
  5.3321      4.5317      3.9744      3.6388      3.5042      3.5595      3.8077      4.2642      4.9510      5.8849    
  7.0594      8.4257      9.8814      11.199      11.863      11.380      9.5383      6.5747      7.2306      4.4495    
  2.2848      1.4485      2.2209      4.3324      7.0825      9.6292      11.300      11.791      11.210      9.9593    
  8.5259      7.1613      5.9723      5.0147      4.3012      3.8186      3.5448      3.4611      3.5597      3.8464    
  4.3383      5.0565      6.0142      7.1994      8.5575      9.9831      11.245      11.863      11.417      9.7767    
  10.203      8.1993      6.1120      4.6490      4.3324      5.2770      7.1428      9.2854      11.021      11.873    
  11.712      10.740      9.3721      7.9695      6.6794      5.5847      4.7221      4.0934      3.6811      3.4634    
  3.4243      3.5594      3.8767      4.3936      5.1296      6.0943      7.2712      8.6023      9.9831      11.199    
  11.824      11.513      11.629      10.727      9.3192      7.9223      7.0825      7.1428      8.0908      9.5675    
  11.027      11.959      12.078      11.393      10.170      8.7801      7.4327      6.2304      5.2340      4.4643    
  3.9148      3.5659      3.3971      3.3954      3.5589      3.8973      4.4276      5.1670      6.1216      7.2712    
  8.5575      9.8814      11.059      11.734      11.573      11.708      11.236      10.408      9.6292      9.2854    
  9.5675      10.381      11.393      12.178      12.401      11.935      10.896      9.5701      8.2109      6.9382    
  5.8315      4.9322      4.2493      3.7707      3.4765      3.3480      3.3752      3.5584      3.9078      4.4391    
  5.1670      6.0943      7.1994      8.4257      9.6827      10.826      10.500      11.321      11.690      11.619    
  11.300      11.021      11.027      11.393      11.987      12.530      12.726      12.393      11.531      10.317    
  8.9928      7.6921      6.5068      5.4968      4.6888      4.0832      3.6652      3.4154      3.3179      3.3649    
  3.5582      3.9078      4.4276      5.1296      6.0142      7.0594      8.2133      9.3961      9.0344      10.089    
  10.964      11.531      11.791      11.873      11.959      12.178      12.530      12.877      13.012      12.760    
  12.058      10.993      9.7524      8.4718      7.2481      6.1552      5.2374      4.5107      3.9703      3.6007    
  3.3844      3.3077      3.3649      3.5584      3.8973      4.3936      5.0565      5.8849      6.8581      7.9306    
  7.5907      8.6124      9.6070      10.503      11.210      11.712      12.078      12.401      12.726      13.012    
  13.140      12.974      12.437      11.556      10.454      9.2489      8.0364      6.8989      5.8960      5.0607    
  4.4021      3.9132      3.5791      3.3844      3.3179      3.3752      3.5589      3.8767      4.3383      4.9510    
  5.7129      6.6055      6.3133      7.2085      8.1472      9.0790      9.9593      10.740      11.393      11.935    
  12.393      12.760      12.974      12.947      12.609      11.953      11.049      9.9826      8.8412      7.7097    
  6.6588      5.7376      4.9713      4.3657      3.9132      3.6007      3.4154      3.3480      3.3954      3.5594    
  3.8464      4.2642      4.8181      5.5061      5.2743      5.9946      6.8004      7.6571      8.5259      9.3721    
  10.170      10.896      11.531      12.058      12.437      12.609      12.515      12.130      11.482      10.621    
  9.6183      8.5553      7.5075      6.5367      5.6843      4.9713      4.4021      3.9703      3.6652      3.4765    
  3.3971      3.4243      3.5597      3.8077      4.1742      4.6636      4.4948      5.0278      5.6630      6.3827    
  7.1613      7.9695      8.7801      9.5701      10.317      10.993      11.556      11.953      12.130      12.050    
  11.701      11.105      10.312      9.3887      8.4082      7.4392      6.5367      5.7376      5.0607      4.5107    
  4.0832      3.7707      3.5659      3.4634      3.4611      3.5595      3.7618      4.0725      3.9636      4.3189    
  4.7769      5.3321      5.9723      6.6795      7.4327      8.2109      8.9928      9.7524      10.454      11.049    
  11.482      11.701      11.672      11.385      10.863      10.151      9.3104      8.4082      7.5075      6.6588    
  5.8960      5.2374      4.6888      4.2493      3.9148      3.6811      3.5448      3.5042      3.5590      3.7112    
  3.6579      3.8520      4.1431      4.5317      5.0147      5.5847      6.2304      6.9382      7.6921      8.4718    
  9.2489      9.9826      10.621      11.105      11.385      11.426      11.219      10.780      10.151      9.3887    
  8.5553      7.7097      6.8989      6.1552      5.4968      4.9322      4.4643      4.0934      3.8186      3.6388    
  3.5524      3.5586      3.5584      3.6043      3.7425      3.9744      4.3012      4.7221      5.2340      5.8315    
  6.5068      7.2481      8.0364      8.8412      9.6183      10.312      10.863      11.219      11.341      11.219    
  10.863      10.312      9.6183      8.8412      8.0364      7.2481      6.5068      5.8315      5.2340      4.7221    
  4.3012      3.9744      3.7424      3.6042      3.6579      3.5587      3.5525      3.6389      3.8187      4.0934    
  4.4643      4.9322      5.4968      6.1552      6.8989      7.7097      8.5553      9.3887      10.151      10.780    
  11.219      11.426      11.385      11.105      10.621      9.9826      9.2489      8.4718      7.6921      6.9382    
  6.2304      5.5847      5.0147      4.5317      4.1431      3.8520      3.9636      3.7112      3.5591      3.5042    
  3.5449      3.6811      3.9148      4.2493      4.6888      5.2374      5.8960      6.6588      7.5075      8.4082    
  9.3104      10.151      10.863      11.385      11.672      11.701      11.482      11.049      10.454      9.7524    
  8.9928      8.2109      7.4327      6.6794      5.9723      5.3321      4.7769      4.3189      4.4948      4.0725    
  3.7619      3.5595      3.4611      3.4635      3.5659      3.7707      4.0832      4.5106      5.0607      5.7376    
  6.5367      7.4392      8.4082      9.3887      10.312      11.105      11.701      12.050      12.130      11.953    
  11.556      10.993      10.317      9.5701      8.7801      7.9695      7.1613      6.3827      5.6630      5.0278    
  5.2743      4.6637      4.1743      3.8077      3.5597      3.4244      3.3971      3.4765      3.6652      3.9703    
  4.4021      4.9713      5.6843      6.5367      7.5075      8.5553      9.6183      10.621      11.482      12.130    
  12.515      12.609      12.437      12.058      11.531      10.896      10.170      9.3721      8.5259      7.6571    
  6.8004      5.9946      6.3133      5.5062      4.8181      4.2642      3.8465      3.5594      3.3953      3.3480    
  3.4154      3.6007      3.9132      4.3657      4.9713      5.7376      6.6588      7.7097      8.8412      9.9826    
  11.049      11.953      12.609      12.947      12.974      12.760      12.393      11.935      11.393      10.740    
  9.9593      9.0790      8.1472      7.2085      7.5907      6.6055      5.7129      4.9511      4.3383      3.8767    
  3.5589      3.3752      3.3178      3.3844      3.5791      3.9132      4.4021      5.0607      5.8960      6.8989    
  8.0364      9.2489      10.454      11.556      12.437      12.974      13.140      13.012      12.726      12.401    
  12.078      11.712      11.210      10.503      9.6070      8.6124      9.0344      7.9307      6.8581      5.8849    
  5.0565      4.3936      3.8973      3.5584      3.3648      3.3077      3.3844      3.6007      3.9703      4.5106    
  5.2374      6.1552      7.2481      8.4718      9.7524      10.993      12.058      12.760      13.012      12.877    
  12.530      12.178      11.959      11.873      11.791      11.531      10.964      10.089      10.500      9.3961    
  8.2133      7.0594      6.0142      5.1296      4.4276      3.9078      3.5582      3.3648      3.3178      3.4154    
  3.6652      4.0832      4.6888      5.4968      6.5068      7.6921      8.9928      10.317      11.531      12.393    
  12.726      12.530      11.987      11.393      11.027      11.021      11.300      11.619      11.690      11.321    
  11.573      10.826      9.6827      8.4258      7.1994      6.0943      5.1670      4.4391      3.9078      3.5584    
  3.3752      3.3480      3.4765      3.7707      4.2493      4.9322      5.8315      6.9382      8.2109      9.5701    
  10.896      11.935      12.401      12.178      11.393      10.381      9.5675      9.2854      9.6292      10.408    
  11.236      11.708      11.629      11.734      11.059      9.8814      8.5576      7.2712      6.1215      5.1670    
  4.4276      3.8973      3.5589      3.3953      3.3971      3.5659      3.9148      4.4643      5.2340      6.2304    
  7.4327      8.7801      10.170      11.393      12.078      11.959      11.027      9.5675      8.0908      7.1428    
  7.0825      7.9223      9.3192      10.727      10.203      11.513      11.824      11.199      9.9831      8.6023    
  7.2712      6.0943      5.1296      4.3936      3.8767      3.5594      3.4244      3.4635      3.6811      4.0934    
  4.7221      5.5847      6.6795      7.9695      9.3721      10.740      11.712      11.873      11.021      9.2854    
  7.1428      5.2770      4.3324      4.6490      6.1120      8.1993      7.2305      9.7767      11.417      11.863    
  11.245      9.9831      8.5576      7.1994      6.0142      5.0565      4.3383      3.8465      3.5597      3.4611    
  3.5449      3.8187      4.3012      5.0147      5.9723      7.1613      8.5259      9.9593      11.210      11.791    
  11.300      9.6292      7.0825      4.3324      2.2209      1.4485      2.2848      4.4495      3.1781      6.5747    
  9.5383      11.380      11.863      11.199      9.8814      8.4258      7.0594      5.8849      4.9511      4.2642    
  3.8077      3.5595      3.5042      3.6389      3.9744      4.5317      5.3321      6.3827      7.6571      9.0790    
  10.503      11.531      11.619      10.408      7.9223      4.6490      1.4485     -.71730     -1.1476     0.30710    
 -1.0062      2.4899      6.3431      9.5383      11.417      11.824      11.059      9.6827      8.2133      6.8581    
  5.7129      4.8181      4.1743      3.7619      3.5591      3.5525      3.7425      4.1431      4.7769      5.6630    
  6.8004      8.1472      9.6070      10.964      11.690      11.236      9.3192      6.1120      2.2848     -1.1476    
 -3.1594     -3.1091     -4.1641     -1.4662      2.4899      6.5747      9.7767      11.513      11.734      10.826    
  9.3961      7.9307      6.6055      5.5062      4.6637      4.0725      3.7112      3.5587      3.6043      3.8520    
  4.3189      5.0278      5.9946      7.2085      8.6124      10.089      11.321      11.708      10.727      8.1993    
  4.4495     0.30710     -3.1091     -4.7752     -4.1640     -3.2997     -.51765      3.3320      7.1604      10.035    
  11.459      11.446      10.414      8.9609      7.5142      6.2247      5.1688      4.3702      3.8185      3.4903    
  3.3650      3.4332      3.7005      4.1853      4.9116      5.8944      7.1204      8.5268      9.9888      11.164    
  11.457      10.386      7.8308      4.1692     0.25089     -2.8397     -3.2998     -4.1641     -2.8398     0.25091    
  4.1693      7.8307      10.386      11.457      11.164      9.9888      8.5268      7.1203      5.8945      4.9116    
  4.1853      3.7005      3.4332      3.3650      3.4903      3.8184      4.3701      5.1689      6.2248      7.5142    
  8.9608      10.414      11.446      11.459      10.035      7.1603      3.3321     -.51757     -.42513     -2.7394    
 -3.1090     -1.4260      1.7653      5.4955      8.7465      10.798      11.409      10.805      9.5055      8.0582    
  6.7078      5.5584      4.6574      4.0085      3.5928      3.3869      3.3753      3.5562      3.9423      4.5559    
  5.4189      6.5359      7.8734      9.3437      10.768      11.666      11.469      9.8377      6.8595      3.1184    
  3.5660     0.51728     -1.2375     -1.1476     0.74026      3.8039      7.1039      9.7436      11.164      11.267    
  10.363      8.9840      7.5717      6.2920      5.2294      4.4157      3.8461      3.4991      3.3529      3.3954    
  3.6284      4.0672      4.7350      5.6513      6.8145      8.1824      9.6591      11.042      11.836      11.525    
  9.8515      6.9885      7.5331      4.6102      2.1745     0.99539      1.4485      3.3588      6.0778      8.7533    
  10.651      11.386      10.996      9.8482      8.4443      7.0846      5.8883      4.9191      4.1947      3.7034    
  3.4225      3.3323      3.4243      3.7038      4.1881      4.9000      5.8556      7.0476      8.4268      9.8925    
  11.231      11.965      11.643      10.088      10.511      8.4071      6.0953      4.3119      3.6541      4.3323    
  6.0827      8.2837      10.214      11.324      11.400      10.590      9.2886      7.9042      6.6141      5.5106    
  4.6380      4.0016      3.5847      3.3649      3.3253      3.4610      3.7798      4.3002      5.0435      6.0223    
  7.2238      8.5941      10.031      11.328      12.048      11.812      11.996      11.040      9.4690      7.8033    
  6.6363      6.3919      7.1427      8.5814      10.159      11.312      11.675      11.189      10.077      8.7217    
  7.3834      6.1770      5.1720      4.3951      3.8420      3.4933      3.3280      3.3323      3.5041      3.8535    
  4.3987      5.1591      6.1433      7.3340      8.6749      10.067      11.325      12.071      12.013      12.140    
  11.573      10.548      9.4926      8.8484      8.8826      9.5675      10.597      11.524      11.953      11.687    
  10.785      9.5148      8.1732      6.9022      5.7894      4.8836      4.1975      3.7204      3.4319      3.3129    
  3.3529      3.5523      3.9221      4.4796      5.2414      6.2122      7.3719      8.6643      9.9965      11.215    
  10.995      11.849      12.187      11.998      11.477      10.942      10.695      10.874      11.393      11.981    
  12.310      12.139      11.410      10.266      8.9623      7.6680      6.4800      5.4649      4.6542      4.0508    
  3.6399      3.4019      3.3202      3.3868      3.6041      3.9831      4.5393      5.2863      6.2256      7.3352    
  8.5618      9.8212      9.5487      10.665      11.562      12.086      12.227      12.123      11.991      12.009    
  12.225      12.530      12.710      12.553      11.952      10.950      9.7274      8.4542      7.2302      6.1339    
  5.2145      4.4907      3.9587      3.6027      3.4043      3.3497      3.4331      3.6578      4.0339      4.5750    
  5.2914      6.1822      7.2253      8.3720      8.1038      9.1908      10.237      11.148      11.811      12.205    
  12.413      12.559      12.731      12.917      13.012      12.869      12.379      11.532      10.437      9.2336    
  8.0203      6.8805      5.8773      5.0461      4.3973      3.9237      3.6098      3.4393      3.4008      3.4903    
  3.7111      4.0723      4.5847      5.2562      6.0840      7.0474      6.8103      7.7699      8.7634      9.7329    
  10.623      11.365      11.927      12.342      12.661      12.907      13.040      12.974      12.625      11.963    
  11.044      9.9679      8.8206      7.6857      6.6351      5.7194      4.9648      4.3767      3.9468      3.6612    
  3.5060      3.4720      3.5563      3.7619      4.0961      4.5677      5.1821      5.9357      5.7446      6.5255    
  7.3859      8.2852      9.1779      10.023      10.788      11.440      11.973      12.388      12.667      12.761    
  12.609      12.179      11.492      10.606      9.5881      8.5175      7.4692      6.5048      5.6659      4.9731    
  4.4296      4.0278      3.7558      3.6026      3.5609      3.6285      3.8077      4.1043      4.5246      5.0726    
  4.9332      5.5202      6.2063      6.9690      7.7771      8.5957      9.3931      10.144      10.827      11.418    
  11.886      12.190      12.283      12.130      11.725      11.088      10.268      9.3298      8.3457      7.3829    
  6.4953      5.7190      5.0713      4.5553      4.1650      3.8914      3.7264      3.6645      3.7040      3.8465    
  4.0961      4.4575      4.3695      4.7704      5.2727      5.8674      6.5379      7.2611      8.0118      8.7659    
  9.5009      10.193      10.813      11.319      11.663      11.800      11.701      11.360      10.800      10.064    
  9.2153      8.3176      7.4324      6.6085      5.8783      5.2579      4.7513      4.3554      4.0646      3.8736    
  3.7792      3.7799      3.8768      4.0723      4.0339      4.2649      4.5919      5.0134      5.5234      6.1104    
  6.7592      7.4523      8.1717      8.8975      9.6041      10.256      10.807      11.207      11.409      11.385    
  11.129      10.659      10.016      9.2554      8.4372      7.6177      6.8420      6.1403      5.5287      5.0133    
  4.5944      4.2704      4.0397      3.9010      3.8536      3.8975      3.9079      3.9831      4.1487      4.4056    
  4.7533      5.1883      5.7041      6.2918      6.9409      7.6383      8.3661      9.0968      9.7913      10.400    
  10.870      11.153      11.219      11.057      10.682      10.130      9.4508      8.7009      7.9330      7.1892    
  6.4983      5.8769      5.3341      4.8749      4.5026      4.2192      4.0258      3.9221      3.9831      3.9079    
  3.9222      4.0258      4.2192      4.5026      4.8750      5.3342      5.8769      6.4982      7.1893      7.9330    
  8.7009      9.4508      10.130      10.682      11.057      11.219      11.153      10.870      10.400      9.7913    
  9.0968      8.3661      7.6383      6.9409      6.2918      5.7041      5.1883      4.7533      4.4056      4.1487    
  4.2650      4.0339      3.8974      3.8535      3.9010      4.0397      4.2704      4.5944      5.0133      5.5288    
  6.1403      6.8420      7.6177      8.4372      9.2554      10.016      10.659      11.129      11.385      11.409    
  11.207      10.807      10.256      9.6041      8.8975      8.1717      7.4523      6.7592      6.1104      5.5233    
  5.0134      4.5919      4.7704      4.3695      4.0722      3.8768      3.7799      3.7791      3.8736      4.0646    
  4.3555      4.7514      5.2579      5.8783      6.6085      7.4324      8.3176      9.2152      10.064      10.800    
  11.360      11.701      11.800      11.663      11.319      10.813      10.193      9.5009      8.7659      8.0119    
  7.2611      6.5378      5.8674      5.2727      5.5201      4.9331      4.4575      4.0961      3.8465      3.7039    
  3.6644      3.7263      3.8914      4.1650      4.5553      5.0713      5.7190      6.4953      7.3829      8.3457    
  9.3299      10.268      11.088      11.725      12.130      12.283      12.190      11.886      11.418      10.827    
  10.144      9.3931      8.5957      7.7771      6.9691      6.2063      6.5254      5.7447      5.0727      4.5246    
  4.1042      3.8076      3.6284      3.5609      3.6026      3.7558      4.0278      4.4296      4.9731      5.6659    
  6.5048      7.4692      8.5176      9.5881      10.606      11.492      12.179      12.609      12.761      12.667    
  12.388      11.973      11.440      10.788      10.023      9.1780      8.2852      7.3858      7.7699      6.8103    
  5.9357      5.1821      4.5677      4.0961      3.7618      3.5562      3.4720      3.5060      3.6612      3.9468    
  4.3767      4.9648      5.7194      6.6351      7.6857      8.8206      9.9679      11.044      11.963      12.625    
  12.974      13.040      12.907      12.661      12.342      11.927      11.365      10.623      9.7329      8.7634    
  9.1909      8.1038      7.0474      6.0839      5.2562      4.5847      4.0722      3.7111      3.4903      3.4009    
  3.4393      3.6098      3.9237      4.3973      5.0461      5.8773      6.8805      8.0203      9.2337      10.437    
  11.532      12.379      12.869      13.012      12.917      12.731      12.559      12.413      12.205      11.811    
  11.148      10.237      10.665      9.5487      8.3720      7.2253      6.1822      5.2914      4.5750      4.0339    
  3.6578      3.4331      3.3497      3.4044      3.6027      3.9587      4.4907      5.2145      6.1339      7.2302    
  8.4542      9.7274      10.950      11.952      12.553      12.710      12.530      12.225      12.009      11.991    
  12.123      12.227      12.086      11.562      11.849      10.995      9.8213      8.5618      7.3352      6.2256    
  5.2863      4.5393      3.9831      3.6041      3.3869      3.3202      3.4019      3.6399      4.0507      4.6542    
  5.4649      6.4800      7.6680      8.9623      10.266      11.410      12.138      12.310      11.981      11.393    
  10.874      10.695      10.942      11.477      11.998      12.187      12.140      12.013      11.215      9.9965    
  8.6643      7.3719      6.2123      5.2414      4.4796      3.9221      3.5524      3.3529      3.3130      3.4319    
  3.7204      4.1975      4.8836      5.7894      6.9022      8.1732      9.5148      10.785      11.687      11.953    
  11.524      10.597      9.5675      8.8826      8.8484      9.4927      10.548      11.572      11.040      11.996    
  12.071      11.325      10.067      8.6749      7.3340      6.1432      5.1591      4.3988      3.8535      3.5041    
  3.3323      3.3281      3.4934      3.8420      4.3951      5.1720      6.1771      7.3834      8.7216      10.077    
  11.189      11.675      11.312      10.159      8.5814      7.1428      6.3920      6.6363      7.8032      9.4690    
  8.4071      10.511      11.812      12.048      11.328      10.031      8.5940      7.2238      6.0223      5.0435    
  4.3002      3.7799      3.4610      3.3254      3.3649      3.5847      4.0016      4.6380      5.5106      6.6141    
  7.9042      9.2886      10.590      11.400      11.324      10.214      8.2837      6.0827      4.3324      3.6541    
  4.3120      6.0954      4.6102      7.5331      10.088      11.643      11.965      11.231      9.8925      8.4268    
  7.0476      5.8556      4.9000      4.1882      3.7039      3.4244      3.3323      3.4225      3.7034      4.1948    
  4.9191      5.8882      7.0846      8.4443      9.8482      10.996      11.386      10.651      8.7533      6.0778    
  3.3588      1.4486     0.99555      2.1746     0.51728      3.5661      6.9886      9.8515      11.525      11.836    
  11.042      9.6592      8.1824      6.8144      5.6513      4.7351      4.0673      3.6284      3.3954      3.3530    
  3.4992      3.8461      4.4157      5.2294      6.2920      7.5717      8.9840      10.363      11.267      11.164    
  9.7435      7.1039      3.8040     0.74041     -1.1475     -1.2375     -2.7393     -.42504      3.1184      6.8594    
  9.8376      11.469      11.666      10.768      9.3436      7.8734      6.5359      5.4189      4.5559      3.9423    
  3.5563      3.3753      3.3869      3.5928      4.0086      4.6574      5.5584      6.7077      8.0581      9.5055    
  10.805      11.409      10.798      8.7465      5.4956      1.7654     -1.4260     -3.1090     -1.0060     -.42496    
  1.8148      5.0071      8.2079      10.588      11.691      11.516      10.433      8.9832      7.5460      6.2607    
  5.2012      4.3916      3.8227      3.4719      3.3179      3.3497      3.5707      3.9971      4.6520      5.5534    
  6.6961      8.0313      9.4557      10.735      11.358      10.851      9.0335      6.1609      2.9224     0.25103    
 -.51750     -1.4661     -.51748      2.0179      5.3409      8.4860      10.672      11.531      11.153      9.9670    
  8.5204      7.1268      5.9064      4.9213      4.1862      3.6872      3.4008      3.3077      3.4008      3.6872    
  4.1863      4.9213      5.9064      7.1268      8.5205      9.9670      11.153      11.531      10.672      8.4860    
  5.3409      2.0179      1.8148     -.42498     -1.0060     0.25105      2.9224      6.1609      9.0335      10.851    
  11.358      10.735      9.4556      8.0313      6.6961      5.5535      4.6520      3.9970      3.5707      3.3497    
  3.3179      3.4719      3.8228      4.3916      5.2012      6.2607      7.5460      8.9832      10.433      11.516    
  11.691      10.588      8.2079      5.0071      5.2247      2.3498     0.51740     0.30723      1.7654      4.3856    
  7.3234      9.7298      11.044      11.133      10.260      8.9179      7.5325      6.2694      5.2147      4.4027    
  3.8301      3.4765      3.3202      3.3481      3.5608      3.9725      4.6057      5.4813      6.6028      7.9372    
  9.4012      10.837      11.829      11.869      10.655      8.2696      8.6782      5.9685      3.5473      2.1746    
  2.2848      3.8040      6.1833      8.6325      10.429      11.163      10.822      9.7333      8.3716      7.0404    
  5.8612      4.9013      4.1810      3.6904      3.4077      3.3130      3.3971      3.6643      4.1313      4.8205    
  5.7502      6.9178      8.2829      9.7558      11.166      12.094      12.079      10.893      11.276      9.3760    
  7.1292      5.2344      4.3120      4.6490      6.0778      8.0519      9.8794      10.993      11.138      10.411    
  9.1748      7.8325      6.5703      5.4843      4.6227      3.9937      3.5819      3.3657      3.3281      3.4634    
  3.7791      4.2931      5.0273      5.9961      7.1914      8.5665      10.029      11.406      12.300      12.312    
  12.536      11.744      10.253      8.5333      7.1713      6.6363      7.0824      8.2836      9.7376      10.883    
  11.318      10.934      9.9127      8.6150      7.3167      6.1371      5.1504      4.3871      3.8454      3.5071    
  3.3516      3.3649      3.5448      3.9010      4.4519      5.2173      6.2077      7.4096      8.7725      10.204    
  11.542      12.432      12.465      12.705      12.209      11.165      9.9743      9.0939      8.8483      9.2853    
  10.158      11.043      11.524      11.359      10.562      9.3671      8.0760      6.8417      5.7551      4.8695    
  4.2008      3.7401      3.4680      3.3657      3.4225      3.6388      4.0258      4.6011      5.3819      6.3744    
  7.5608      8.8888      10.269      11.560      11.452      12.376      12.767      12.576      11.966      11.251    
  10.761      10.695      11.026      11.524      11.860      11.764      11.135      10.075      8.8282      7.5787    
  6.4249      5.4368      4.6498      4.0688      3.6804      3.4655      3.4077      3.4992      3.7424      4.1488    
  4.7345      5.5133      6.4875      7.6362      8.9076      10.218      10.052      11.214      12.147      12.676    
  12.762      12.529      12.201      11.994      12.008      12.178      12.310      12.180      11.648      10.721    
  9.5545      8.3286      7.1447      6.0822      5.1928      4.4977      3.9944      3.6678      3.4998      3.4767    
  3.5929      3.8520      4.2650      4.8458      5.6048      6.5406      7.6310      8.8266      8.6492      9.7779    
  10.854      11.774      12.406      12.713      12.774      12.732      12.707      12.731      12.726      12.553    
  12.085      11.284      10.230      9.0680      7.8957      6.7943      5.8271      5.0310      4.4175      3.9799    
  3.7029      3.5703      3.5708      3.7005      3.9636      4.3696      4.9298      5.6515      6.5306      7.5449    
  7.3817      8.3838      9.4081      10.391      11.268      11.957      12.416      12.683      12.830      12.907    
  12.907      12.760      12.379      11.719      10.814      9.7640      8.6511      7.5546      6.5439      5.6692    
  4.9567      4.4118      4.0261      3.7852      3.6754      3.6874      3.8185      4.0725      4.4575      4.9821    
  5.6506      6.4575      6.3250      7.1501      8.0438      8.9606      9.8495      10.663      11.361      11.905    
  12.297      12.557      12.690      12.667      12.437      11.963      11.255      10.370      9.3725      8.3339    