   2   2   0   0
  0.1529437E+02  0.3691622E-09  0.3691622E-09  0.3691622E-09  0.5000000E-15
  1.000000000000000E-004
  CAR 
 unknown system                          
     22.01083913     -6.67380898  301      8.98593456      1.00000000
     -6.674  0.0000E+00  0.0000E+00
     -6.578  0.0000E+00  0.0000E+00
     -6.483  0.0000E+00  0.0000E+00
     -6.387  0.0000E+00  0.0000E+00
     -6.291  0.0000E+00  0.0000E+00
     -6.196  0.0000E+00  0.0000E+00
     -6.100  0.0000E+00  0.0000E+00
     -6.005  0.0000E+00  0.0000E+00
     -5.909  0.0000E+00  0.0000E+00
     -5.813  0.4335E-17  0.4145E-18
     -5.718  0.8713E-15  0.8373E-16
     -5.622  0.1115E-12  0.1074E-13
     -5.526  0.9096E-11  0.8805E-12
     -5.431  0.4739E-09  0.4619E-10
     -5.335  0.1578E-07  0.1555E-08
     -5.240  0.3362E-06  0.3370E-07
     -5.144  0.4589E-05  0.4725E-06
     -5.048  0.4017E-04  0.4314E-05
     -4.953  0.2259E-03  0.2591E-04
     -4.857  0.8164E-03  0.1040E-03
     -4.761  0.1901E-02  0.2857E-03
     -4.666  0.2871E-02  0.5602E-03
     -4.570  0.2975E-02  0.8447E-03
     -4.475  0.2913E-02  0.1123E-02
     -4.379  0.4687E-02  0.1571E-02
     -4.283  0.8708E-02  0.2404E-02
     -4.188  0.1177E-01  0.3529E-02
     -4.092  0.1069E-01  0.4551E-02
     -3.997  0.7568E-02  0.5275E-02
     -3.901  0.7382E-02  0.5980E-02
     -3.805  0.1153E-01  0.7083E-02
     -3.710  0.1749E-01  0.8755E-02
     -3.614  0.2326E-01  0.1098E-01
     -3.518  0.2687E-01  0.1355E-01
     -3.423  0.2420E-01  0.1586E-01
     -3.327  0.1528E-01  0.1732E-01
     -3.232  0.6528E-02  0.1795E-01
     -3.136  0.2538E-02  0.1819E-01
     -3.040  0.3424E-02  0.1852E-01
     -2.945  0.8432E-02  0.1932E-01
     -2.849  0.1720E-01  0.2097E-01
     -2.754  0.3023E-01  0.2386E-01
     -2.658  0.4681E-01  0.2834E-01
     -2.562  0.5900E-01  0.3398E-01
     -2.467  0.5772E-01  0.3950E-01
     -2.371  0.4443E-01  0.4374E-01
     -2.275  0.2705E-01  0.4633E-01
     -2.180  0.1246E-01  0.4752E-01
     -2.084  0.4369E-02  0.4794E-01
     -1.989  0.2764E-02  0.4820E-01
     -1.893  0.6855E-02  0.4886E-01
     -1.797  0.1547E-01  0.5034E-01
     -1.702  0.2285E-01  0.5252E-01
     -1.606  0.2177E-01  0.5460E-01
     -1.511  0.1349E-01  0.5589E-01
     -1.415  0.6122E-02  0.5648E-01
     -1.319  0.4597E-02  0.5692E-01
     -1.224  0.8559E-02  0.5774E-01
     -1.128  0.1540E-01  0.5921E-01
     -1.032  0.2380E-01  0.6149E-01
     -0.937  0.3606E-01  0.6493E-01
     -0.841  0.5117E-01  0.6983E-01
     -0.746  0.5989E-01  0.7555E-01
     -0.650  0.5768E-01  0.8107E-01
     -0.554  0.5024E-01  0.8587E-01
     -0.459  0.4162E-01  0.8985E-01
     -0.363  0.3532E-01  0.9323E-01
     -0.268  0.3897E-01  0.9695E-01
     -0.172  0.5428E-01  0.1021E+00
     -0.076  0.7198E-01  0.1090E+00
      0.019  0.7735E-01  0.1164E+00
      0.115  0.6270E-01  0.1224E+00
      0.211  0.3896E-01  0.1261E+00
      0.306  0.2245E-01  0.1283E+00
      0.402  0.1500E-01  0.1297E+00
      0.497  0.1050E-01  0.1307E+00
      0.593  0.8864E-02  0.1316E+00
      0.689  0.1359E-01  0.1329E+00
      0.784  0.2267E-01  0.1350E+00
      0.880  0.2896E-01  0.1378E+00
      0.975  0.3075E-01  0.1408E+00
      1.071  0.3501E-01  0.1441E+00
      1.167  0.4530E-01  0.1484E+00
      1.262  0.5210E-01  0.1534E+00
      1.358  0.4388E-01  0.1576E+00
      1.454  0.2602E-01  0.1601E+00
      1.549  0.1557E-01  0.1616E+00
      1.645  0.2261E-01  0.1637E+00
      1.740  0.4335E-01  0.1679E+00
      1.836  0.6166E-01  0.1738E+00
      1.932  0.6256E-01  0.1798E+00
      2.027  0.4856E-01  0.1844E+00
      2.123  0.3426E-01  0.1877E+00
      2.218  0.2988E-01  0.1905E+00
      2.314  0.3625E-01  0.1940E+00
      2.410  0.4579E-01  0.1984E+00
      2.505  0.4596E-01  0.2028E+00
      2.601  0.3288E-01  0.2059E+00
      2.697  0.1743E-01  0.2076E+00
      2.792  0.1196E-01  0.2087E+00
      2.888  0.1919E-01  0.2106E+00
      2.983  0.3160E-01  0.2136E+00
      3.079  0.3822E-01  0.2172E+00
      3.175  0.3892E-01  0.2210E+00
      3.270  0.4372E-01  0.2251E+00
      3.366  0.5151E-01  0.2301E+00
      3.461  0.5085E-01  0.2349E+00
      3.557  0.4341E-01  0.2391E+00
      3.653  0.4065E-01  0.2430E+00
      3.748  0.4518E-01  0.2473E+00
      3.844  0.5238E-01  0.2523E+00
      3.940  0.5698E-01  0.2577E+00
      4.035  0.5497E-01  0.2630E+00
      4.131  0.4511E-01  0.2673E+00
      4.226  0.2990E-01  0.2702E+00
      4.322  0.1779E-01  0.2719E+00
      4.418  0.2068E-01  0.2739E+00
      4.513  0.4546E-01  0.2782E+00
      4.609  0.8169E-01  0.2860E+00
      4.704  0.1026E+00  0.2958E+00
      4.800  0.9659E-01  0.3051E+00
      4.896  0.7819E-01  0.3125E+00
      4.991  0.5775E-01  0.3181E+00
      5.087  0.3566E-01  0.3215E+00
      5.183  0.1983E-01  0.3234E+00
      5.278  0.1790E-01  0.3251E+00
      5.374  0.2470E-01  0.3274E+00
      5.469  0.2935E-01  0.3302E+00
      5.565  0.3127E-01  0.3332E+00
      5.661  0.4058E-01  0.3371E+00
      5.756  0.5914E-01  0.3428E+00
      5.852  0.7341E-01  0.3498E+00
      5.947  0.7283E-01  0.3568E+00
      6.043  0.6435E-01  0.3629E+00
      6.139  0.6167E-01  0.3688E+00
      6.234  0.6999E-01  0.3755E+00
      6.330  0.8311E-01  0.3834E+00
      6.426  0.8915E-01  0.3920E+00
      6.521  0.7990E-01  0.3996E+00
      6.617  0.5950E-01  0.4053E+00
      6.712  0.4374E-01  0.4095E+00
      6.808  0.4273E-01  0.4136E+00
      6.904  0.5251E-01  0.4186E+00
      6.999  0.6394E-01  0.4247E+00
      7.095  0.7017E-01  0.4314E+00
      7.190  0.7139E-01  0.4382E+00
      7.286  0.7049E-01  0.4450E+00
      7.382  0.6740E-01  0.4514E+00
      7.477  0.6551E-01  0.4577E+00
      7.573  0.7042E-01  0.4644E+00
      7.669  0.7675E-01  0.4718E+00
      7.764  0.7082E-01  0.4785E+00
      7.860  0.5292E-01  0.4836E+00
      7.955  0.4038E-01  0.4874E+00
      8.051  0.4367E-01  0.4916E+00
      8.147  0.5198E-01  0.4966E+00
      8.242  0.4831E-01  0.5012E+00
      8.338  0.3308E-01  0.5044E+00
      8.433  0.2035E-01  0.5063E+00
      8.529  0.1678E-01  0.5079E+00
      8.625  0.2044E-01  0.5099E+00
      8.720  0.3381E-01  0.5131E+00
      8.816  0.5964E-01  0.5188E+00
      8.912  0.8431E-01  0.5269E+00
      9.007  0.8474E-01  0.5350E+00
      9.103  0.5875E-01  0.5406E+00
      9.198  0.2965E-01  0.5434E+00
      9.294  0.1608E-01  0.5450E+00
      9.390  0.1703E-01  0.5466E+00
      9.485  0.2488E-01  0.5490E+00
      9.581  0.3600E-01  0.5524E+00
      9.676  0.4661E-01  0.5569E+00
      9.772  0.5095E-01  0.5617E+00
      9.868  0.4786E-01  0.5663E+00
      9.963  0.4280E-01  0.5704E+00
     10.059  0.4221E-01  0.5745E+00
     10.155  0.4964E-01  0.5792E+00
     10.250  0.6443E-01  0.5854E+00
     10.346  0.7580E-01  0.5926E+00
     10.441  0.7162E-01  0.5995E+00
     10.537  0.6148E-01  0.6053E+00
     10.633  0.6763E-01  0.6118E+00
     10.728  0.9221E-01  0.6206E+00
     10.824  0.1127E+00  0.6314E+00
     10.919  0.1077E+00  0.6417E+00
     11.015  0.8038E-01  0.6494E+00
     11.111  0.5231E-01  0.6544E+00
     11.206  0.3535E-01  0.6578E+00
     11.302  0.2966E-01  0.6606E+00
     11.398  0.3835E-01  0.6643E+00
     11.493  0.5783E-01  0.6698E+00
     11.589  0.6847E-01  0.6763E+00
     11.684  0.5717E-01  0.6818E+00
     11.780  0.3665E-01  0.6853E+00
     11.876  0.2625E-01  0.6878E+00
     11.971  0.2756E-01  0.6905E+00
     12.067  0.3283E-01  0.6936E+00
     12.162  0.4467E-01  0.6979E+00
     12.258  0.6800E-01  0.7044E+00
     12.354  0.9099E-01  0.7131E+00
     12.449  0.9807E-01  0.7224E+00
     12.545  0.9431E-01  0.7315E+00
     12.641  0.9321E-01  0.7404E+00
     12.736  0.9249E-01  0.7492E+00
     12.832  0.8373E-01  0.7572E+00
     12.927  0.7115E-01  0.7640E+00
     13.023  0.6281E-01  0.7700E+00
     13.119  0.5748E-01  0.7755E+00
     13.214  0.5443E-01  0.7807E+00
     13.310  0.5855E-01  0.7863E+00
     13.405  0.6774E-01  0.7928E+00
     13.501  0.7566E-01  0.8000E+00
     13.597  0.8484E-01  0.8082E+00
     13.692  0.9920E-01  0.8176E+00
     13.788  0.1114E+00  0.8283E+00
     13.884  0.1122E+00  0.8390E+00
     13.979  0.1061E+00  0.8492E+00
     14.075  0.1048E+00  0.8592E+00
     14.170  0.1071E+00  0.8694E+00
     14.266  0.9755E-01  0.8787E+00
     14.362  0.6939E-01  0.8854E+00
     14.457  0.3651E-01  0.8889E+00
     14.553  0.1438E-01  0.8902E+00
     14.648  0.6026E-02  0.8908E+00
     14.744  0.8306E-02  0.8916E+00
     14.840  0.1795E-01  0.8933E+00
     14.935  0.2976E-01  0.8962E+00
     15.031  0.3856E-01  0.8999E+00
     15.127  0.4533E-01  0.9042E+00
     15.222  0.5535E-01  0.9095E+00
     15.318  0.6879E-01  0.9161E+00
     15.413  0.7385E-01  0.9231E+00
     15.509  0.5954E-01  0.9288E+00
     15.605  0.3625E-01  0.9323E+00
     15.700  0.2703E-01  0.9349E+00
     15.796  0.4171E-01  0.9389E+00
     15.891  0.6521E-01  0.9451E+00
     15.987  0.7164E-01  0.9519E+00
     16.083  0.5871E-01  0.9576E+00
     16.178  0.5088E-01  0.9624E+00
     16.274  0.5794E-01  0.9680E+00
     16.370  0.6089E-01  0.9738E+00
     16.465  0.4651E-01  0.9782E+00
     16.561  0.2610E-01  0.9807E+00
     16.656  0.1343E-01  0.9820E+00
     16.752  0.9078E-02  0.9829E+00
     16.848  0.1022E-01  0.9839E+00
     16.943  0.1860E-01  0.9856E+00
     17.039  0.3339E-01  0.9888E+00
     17.134  0.4582E-01  0.9932E+00
     17.230  0.4884E-01  0.9979E+00
     17.326  0.4419E-01  0.1002E+01
     17.421  0.3628E-01  0.1006E+01
     17.517  0.3000E-01  0.1008E+01
     17.613  0.3146E-01  0.1011E+01
     17.708  0.4064E-01  0.1015E+01
     17.804  0.4728E-01  0.1020E+01
     17.899  0.4392E-01  0.1024E+01
     17.995  0.3722E-01  0.1028E+01
     18.091  0.3424E-01  0.1031E+01
     18.186  0.3007E-01  0.1034E+01
     18.282  0.2107E-01  0.1036E+01
     18.377  0.1439E-01  0.1037E+01
     18.473  0.1697E-01  0.1039E+01
     18.569  0.2545E-01  0.1041E+01
     18.664  0.3025E-01  0.1044E+01
     18.760  0.2663E-01  0.1047E+01
     18.856  0.1776E-01  0.1048E+01
     18.951  0.8904E-02  0.1049E+01
     19.047  0.3279E-02  0.1050E+01
     19.142  0.1314E-02  0.1050E+01
     19.238  0.2675E-02  0.1050E+01
     19.334  0.8427E-02  0.1051E+01
     19.429  0.1907E-01  0.1053E+01
     19.525  0.2990E-01  0.1055E+01
     19.620  0.3247E-01  0.1058E+01
     19.716  0.2467E-01  0.1061E+01
     19.812  0.1473E-01  0.1062E+01
     19.907  0.1081E-01  0.1063E+01
     20.003  0.1184E-01  0.1064E+01
     20.099  0.1149E-01  0.1066E+01
     20.194  0.7604E-02  0.1066E+01
     20.290  0.3266E-02  0.1067E+01
     20.385  0.9034E-03  0.1067E+01
     20.481  0.1607E-03  0.1067E+01
     20.577  0.1835E-04  0.1067E+01
     20.672  0.1345E-05  0.1067E+01
     20.768  0.6312E-07  0.1067E+01
     20.863  0.1896E-08  0.1067E+01
     20.959  0.3638E-10  0.1067E+01
     21.055  0.4459E-12  0.1067E+01
     21.150  0.3483E-14  0.1067E+01
     21.246  0.1982E-16  0.1067E+01
     21.342  0.0000E+00  0.1067E+01
     21.437  0.0000E+00  0.1067E+01
     21.533  0.0000E+00  0.1067E+01
     21.628  0.0000E+00  0.1067E+01
     21.724  0.0000E+00  0.1067E+01
     21.820  0.0000E+00  0.1067E+01
     21.915  0.0000E+00  0.1067E+01
     22.011  0.0000E+00  0.1067E+01
