unknown system                          
   1.00000000000000     
    -2.450000    2.450000    1.274000
     2.450000   -2.450000    1.274000
     2.450000    2.450000   -1.274000
   Si
     2
Direct
  0.250000  0.750000  0.500000
  0.000000  0.000000  0.000000
 
   28   28   28
 -5.5862     -4.0549     -.67359E-01  4.8631      9.0506      11.374      11.642      10.460      8.7678      7.1549    
  5.8002      4.7662      4.0531      3.6389      3.5034      3.6389      4.0531      4.7662      5.8003      7.1549    
  8.7678      10.460      11.642      11.374      9.0506      4.8631     -.67369E-01 -4.0549     -4.0549     -4.8581    
 -2.7205      1.5057      6.2302      9.8856      11.587      11.372      9.9693      8.2777      6.7316      5.4670    
  4.5258      3.8994      3.5645      3.5034      3.7121      4.2014      4.9930      6.1063      7.5305      9.1831    
  10.838      11.793      11.147      8.4499      4.1011     -.62704     -.67369E-01 -2.7205     -2.8039     -.29217    
  3.7991      7.9271      10.752      11.678      10.960      9.3935      7.7416      6.2855      5.1259      4.2854    
  3.7485      3.4927      3.5034      3.7800      4.3360      5.1932      6.3668      7.8352      9.4990      11.090    
  11.862      11.005      8.2315      4.1011      4.8631      1.5057     -.29216     0.21526      2.8047      6.4016    
  9.6271      11.446      11.565      10.411      8.7716      7.1897      5.8415      4.7953      4.0573      3.6082    
  3.4272      3.5034      3.8391      4.4493      5.3549      6.5656      8.0498      9.6965      11.215      11.881    
  11.005      8.4499      9.0506      6.2302      3.7991      2.8047      3.6894      6.0555      8.8775      11.030    
  11.816      11.216      9.7639      8.1381      6.6513      5.4224      4.4914      3.8526      3.4852      3.3713    
  3.5034      3.8863      4.5350      5.4683      6.6901      8.1607      9.7637      11.215      11.862      11.147    
  11.374      9.8856      7.9271      6.4016      6.0556      7.0727      8.9702      10.863      11.929      11.798    
  10.664      9.0875      7.5260      6.1529      5.0474      4.2275      3.6799      3.3847      3.3274      3.5035    
  3.9191      4.5884      5.5268      6.7325      8.1607      9.6965      11.090      11.793      11.642      11.587    
  10.752      9.6271      8.8775      8.9702      9.8991      11.183      12.139      12.252      11.431      9.9996    
  8.4319      6.9660      5.7169      4.7319      4.0137      3.5457      3.3105      3.2972      3.5036      3.9359    
  4.6066      5.5268      6.6901      8.0498      9.4990      10.838      10.460      11.372      11.678      11.446    
  11.030      10.863      11.183      11.873      12.519      12.664      12.067      10.836      9.3326      7.8347    
  6.4849      5.3609      4.4870      3.8568      3.4542      3.2651      3.2819      3.5036      3.9359      4.5884    
  5.4683      6.5656      7.8352      9.1831      8.7678      9.9693      10.960      11.565      11.816      11.929    
  12.139      12.519      12.909      13.007      12.563      11.549      10.184      8.7250      7.3304      6.1048    
  5.0980      4.3200      3.7612      3.4078      3.2498      3.2819      3.5036      3.9191      4.5350      5.3549    
  6.3668      7.5305      7.1549      8.2777      9.3935      10.411      11.216      11.798      12.252      12.664    
  13.007      13.128      12.844      12.075      10.927      9.5904      8.2228      6.9480      5.8421      4.9369    
  4.2356      3.7291      3.4078      3.2651      3.2972      3.5035      3.8863      4.4493      5.1932      6.1063    
  5.8003      6.7316      7.7416      8.7716      9.7639      10.664      11.431      12.067      12.563      12.844    
  12.793      12.329      11.483      10.367      9.1172      7.8648      6.7093      5.7079      4.8827      4.2356    
  3.7612      3.4542      3.3105      3.3274      3.5034      3.8391      4.3360      4.9930      4.7662      5.4671    
  6.2855      7.1897      8.1381      9.0875      9.9997      10.836      11.549      12.075      12.329      12.234    
  11.769      10.975      9.9488      8.8125      7.6785      6.6282      5.7079      4.9369      4.3200      3.8568    
  3.5457      3.3847      3.3713      3.5034      3.7800      4.2014      4.0531      4.5259      5.1259      5.8415    
  6.6513      7.5260      8.4319      9.3326      10.184      10.927      11.483      11.769      11.723      11.331    
  10.636      9.7255      8.7074      7.6785      6.7093      5.8421      5.0980      4.4870      4.0137      3.6799    
  3.4852      3.4272      3.5034      3.7121      3.6389      3.8994      4.2854      4.7953      5.4224      6.1529    
  6.9660      7.8347      8.7250      9.5904      10.367      10.975      11.331      11.376      11.092      10.517    
  9.7255      8.8125      7.8648      6.9480      6.1048      5.3609      4.7319      4.2275      3.8526      3.6082    
  3.4927      3.5034      3.5034      3.5645      3.7485      4.0573      4.4914      5.0474      5.7169      6.4849    
  7.3304      8.2228      9.1172      9.9488      10.636      11.092      11.253      11.092      10.636      9.9488    
  9.1172      8.2228      7.3304      6.4849      5.7169      5.0474      4.4914      4.0573      3.7485      3.5645    
  3.6389      3.5034      3.4927      3.6082      3.8526      4.2275      4.7319      5.3609      6.1048      6.9479    
  7.8648      8.8125      9.7255      10.517      11.092      11.376      11.331      10.975      10.367      9.5904    
  8.7250      7.8347      6.9660      6.1529      5.4224      4.7953      4.2854      3.8994      4.0531      3.7121    
  3.5034      3.4272      3.4852      3.6799      4.0136      4.4870      5.0980      5.8421      6.7093      7.6785    
  8.7074      9.7255      10.636      11.331      11.723      11.769      11.483      10.927      10.184      9.3326    
  8.4319      7.5260      6.6513      5.8415      5.1259      4.5258      4.7662      4.2014      3.7800      3.5034    
  3.3713      3.3846      3.5457      3.8568      4.3200      4.9369      5.7079      6.6282      7.6785      8.8125    
  9.9488      10.975      11.769      12.234      12.329      12.075      11.549      10.836      9.9996      9.0875    
  8.1381      7.1897      6.2855      5.4670      5.8002      4.9930      4.3360      3.8391      3.5034      3.3274    
  3.3105      3.4542      3.7612      4.2355      4.8827      5.7079      6.7093      7.8648      9.1172      10.367    
  11.483      12.329      12.793      12.844      12.563      12.067      11.431      10.664      9.7639      8.7716    
  7.7416      6.7316      7.1549      6.1063      5.1932      4.4493      3.8863      3.5035      3.2972      3.2651    
  3.4078      3.7291      4.2355      4.9369      5.8421      6.9479      8.2228      9.5904      10.927      12.075    
  12.844      13.128      13.007      12.664      12.252      11.798      11.216      10.411      9.3935      8.2777    
  8.7678      7.5305      6.3668      5.3549      4.5351      3.9191      3.5036      3.2819      3.2498      3.4078    
  3.7612      4.3200      5.0980      6.1048      7.3304      8.7250      10.184      11.549      12.563      13.007    
  12.909      12.519      12.139      11.929      11.816      11.565      10.960      9.9693      10.460      9.1831    
  7.8352      6.5656      5.4683      4.5885      3.9359      3.5036      3.2819      3.2651      3.4542      3.8568    
  4.4870      5.3609      6.4849      7.8347      9.3326      10.836      12.067      12.664      12.519      11.873    
  11.183      10.863      11.030      11.446      11.678      11.372      11.642      10.838      9.4991      8.0498    
  6.6901      5.5268      4.6066      3.9359      3.5036      3.2972      3.3105      3.5457      4.0136      4.7319    
  5.7169      6.9660      8.4319      9.9997      11.431      12.252      12.139      11.183      9.8991      8.9702    
  8.8775      9.6271      10.752      11.587      11.374      11.793      11.090      9.6965      8.1607      6.7325    
  5.5268      4.5885      3.9191      3.5035      3.3274      3.3846      3.6799      4.2275      5.0474      6.1529    
  7.5260      9.0875      10.664      11.798      11.929      10.863      8.9702      7.0727      6.0555      6.4016    
  7.9271      9.8856      9.0506      11.147      11.862      11.215      9.7637      8.1607      6.6901      5.4683    
  4.5351      3.8863      3.5034      3.3713      3.4852      3.8526      4.4914      5.4224      6.6513      8.1381    
  9.7639      11.216      11.816      11.030      8.8775      6.0556      3.6894      2.8047      3.7991      6.2302    
  4.8631      8.4499      11.005      11.881      11.215      9.6965      8.0498      6.5656      5.3549      4.4493    
  3.8391      3.5034      3.4272      3.6082      4.0573      4.7953      5.8415      7.1897      8.7716      10.411    
  11.565      11.446      9.6271      6.4016      2.8047     0.21526     -.29217      1.5057     -.67359E-01  4.1011    
  8.2315      11.005      11.862      11.090      9.4991      7.8352      6.3668      5.1932      4.3360      3.7800    
  3.5034      3.4927      3.7485      4.2854      5.1259      6.2855      7.7416      9.3935      10.960      11.678    
  10.752      7.9271      3.7991     -.29216     -2.8039     -2.7205     -4.0549     -.62703      4.1011      8.4499    
  11.147      11.793      10.838      9.1831      7.5305      6.1063      4.9930      4.2014      3.7121      3.5034    
  3.5645      3.8994      4.5259      5.4671      6.7316      8.2777      9.9693      11.372      11.587      9.8856    
  6.2302      1.5057     -2.7205     -4.8581     -4.0547     -2.9392     0.54395      5.0461      8.9749      11.209    
  11.490      10.346      8.6675      7.0527      5.6857      4.6327      3.8958      3.4529      3.2818      3.3729    
  3.7319      4.3780      5.3350      6.6091      8.1536      9.8252      11.159      11.272      9.5094      5.9247    
  1.4558     -2.3603     -2.9392     -4.0548     -2.3603      1.4558      5.9247      9.5094      11.272      11.158    
  9.8251      8.1536      6.6091      5.3350      4.3780      3.7319      3.3729      3.2818      3.4529      3.8959    
  4.6327      5.6858      7.0527      8.6675      10.346      11.490      11.209      8.9749      5.0462     0.54396    
 0.65723     -2.2390     -2.7204     -.61227      3.2106      7.2700      10.195      11.297      10.731      9.2387    
  7.6080      6.1547      4.9876      4.1349      3.5832      3.3092      3.2971      3.5454      4.0673      4.8862    
  6.0216      7.4613      9.1218      10.777      11.748      11.199      8.7498      4.8310      5.3382      1.7815    
 -.38491     -.29212      1.9855      5.4733      8.7974      10.841      11.197      10.202      8.6214      7.0585    
  5.7125      4.6608      3.9149      3.4568      3.2649      3.3273      3.6464      4.2379      5.1252      6.3237    
  7.8111      9.4897      11.103      11.953      11.301      8.9149      9.4508      6.4735      3.7093      2.2918    
  2.8047      4.9775      7.8351      10.204      11.277      10.915      9.5908      8.0041      6.5311      5.3034    
  4.3695      3.7279      3.3584      3.2421      3.3713      3.7512      4.3990      5.3366      6.5740      8.0800    
  9.7474      11.310      12.110      11.527      11.829      10.242      8.0130      6.0889      5.3297      6.0555    
  7.8758      9.9073      11.244      11.394      10.452      8.9499      7.4144      6.0493      4.9447      4.1257    
  3.5816      3.2921      3.2421      3.4273      3.8550      4.5423      5.5083      6.7568      8.2496      9.8761    
  11.386      12.204      12.198      12.119      11.107      9.6569      8.5057      8.2405      8.9701      10.265    
  11.406      11.779      11.178      9.8625      8.3301      6.8782      5.6328      4.6506      3.9386      3.4814    
  3.2606      3.2649      3.4928      3.9526      4.6598      5.6294      6.8595      8.3069      9.8640      11.317    
  11.093      12.052      12.290      11.846      11.102      10.576      10.614      11.183      11.886      12.206    
  11.805      10.705      9.2446      7.7635      6.4190      5.2980      4.4311      3.8142      3.4304      3.2646    
  3.3092      3.5646      4.0388      4.7444      5.6918      6.8740      8.2462      9.7088      9.4183      10.714    
  11.732      12.250      12.292      12.112      12.028      12.200      12.519      12.674      12.351      11.442    
  10.117      8.6708      7.2805      6.0571      5.0569      4.2930      3.7556      3.4296      3.3035      3.3729    
  3.6391      4.1086      4.7907      5.6909      6.7982      8.0698      7.7889      9.0107      10.202      11.235    
  11.955      12.354      12.568      12.751      12.940      13.007      12.745      12.021      10.888      9.5524    
  8.1839      6.9090      5.8087      4.9180      4.2400      3.7640      3.4782      3.3753      3.4528      3.7122    
  4.1578      4.7952      5.6257      6.6365      6.3995      7.4226      8.5129      9.5950      10.591      11.418    
  12.036      12.485      12.804      12.960      12.844      12.351      11.477      10.342      9.0802      7.8232    
  6.6720      5.6856      4.8862      4.2733      3.8385      3.5744      3.4771      3.5454      3.7800      4.1832    
  4.7572      5.5002      5.3224      6.1031      6.9956      7.9576      8.9341      9.8688      10.716      11.434    
  11.999      12.380      12.515      12.329      11.794      10.954      9.9010      8.7523      7.6201      6.5860    
  5.6950      4.9634      4.3919      3.9767      3.7148      3.6048      3.6463      3.8391      4.1832      4.6787    
  4.5648      5.1040      5.7669      6.5354      7.3794      8.2594      9.1333      9.9616      10.706      11.320    
  11.744      11.911      11.769      11.305      10.563      9.6286      8.6079      7.5958      6.6602      5.8390    
  5.1483      4.5930      4.1749      3.8949      3.7537      3.7511      3.8861      4.1578      4.1085      4.4226    
  4.8590      5.4121      6.0698      6.8115      7.6093      8.4310      9.2416      10.000      10.655      11.138    
  11.380      11.331      10.981      10.367      9.5655      8.6686      7.7585      6.8949      6.1143      5.4362    
  4.8715      4.4273      4.1087      3.9178      3.8549      3.9189      3.9357      4.0387      4.2611      4.6022    
  5.0591      5.6240      6.2834      7.0176      7.8023      8.6074      9.3929      10.103      10.669      11.017    
  11.092      10.878      10.401      9.7276      8.9364      8.1022      7.2815      6.5122      5.8189      5.2191    
  4.7258      4.3479      4.0897      3.9525      4.0387      3.9357      3.9525      4.0897      4.3479      4.7259    
  5.2191      5.8189      6.5122      7.2815      8.1022      8.9364      9.7277      10.401      10.878      11.092    
  11.017      10.669      10.103      9.3929      8.6074      7.8023      7.0176      6.2834      5.6240      5.0591    
  4.6022      4.2611      4.4226      4.1086      3.9189      3.8549      3.9178      4.1087      4.4274      4.8715    
  5.4362      6.1144      6.8949      7.7584      8.6686      9.5655      10.367      10.981      11.331      11.380    
  11.137      10.655      10.000      9.2416      8.4310      7.6093      6.8115      6.0698      5.4121      4.8590    
  5.1040      4.5648      4.1578      3.8862      3.7511      3.7538      3.8949      4.1749      4.5930      5.1483    
  5.8390      6.6602      7.5958      8.6079      9.6286      10.563      11.305      11.769      11.911      11.744    
  11.320      10.706      9.9615      9.1333      8.2594      7.3794      6.5354      5.7669      6.1031      5.3224    
  4.6787      4.1832      3.8391      3.6463      3.6049      3.7148      3.9767      4.3919      4.9634      5.6950    
  6.5860      7.6201      8.7523      9.9010      10.954      11.794      12.329      12.515      12.380      11.999    
  11.434      10.716      9.8688      8.9341      7.9576      6.9956      7.4226      6.3995      5.5002      4.7572    
  4.1833      3.7800      3.5454      3.4771      3.5744      3.8385      4.2733      4.8862      5.6856      6.6720    
  7.8232      9.0802      10.342      11.477      12.351      12.844      12.960      12.804      12.485      12.036    
  11.418      10.591      9.5950      8.5130      9.0107      7.7889      6.6365      5.6257      4.7952      4.1578    
  3.7122      3.4529      3.3753      3.4782      3.7640      4.2400      4.9180      5.8087      6.9090      8.1839    
  9.5524      10.888      12.021      12.745      13.007      12.940      12.751      12.568      12.354      11.955    
  11.235      10.202      10.714      9.4183      8.0698      6.7982      5.6909      4.7907      4.1086      3.6391    
  3.3729      3.3035      3.4296      3.7556      4.2930      5.0569      6.0571      7.2805      8.6708      10.117    
  11.442      12.351      12.674      12.519      12.200      12.028      12.112      12.292      12.250      11.732    
  12.052      11.093      9.7088      8.2462      6.8740      5.6919      4.7445      4.0388      3.5646      3.3092    
  3.2646      3.4304      3.8142      4.4311      5.2980      6.4190      7.7634      9.2446      10.705      11.805    
  12.206      11.886      11.183      10.614      10.576      11.102      11.846      12.290      12.119      12.198    
  11.317      9.8641      8.3069      6.8595      5.6294      4.6598      3.9526      3.4928      3.2649      3.2606    
  3.4814      3.9386      4.6506      5.6328      6.8781      8.3301      9.8624      11.178      11.779      11.406    
  10.265      8.9701      8.2405      8.5057      9.6570      11.107      10.242      11.829      12.204      11.386    
  9.8761      8.2496      6.7568      5.5082      4.5423      3.8550      3.4273      3.2421      3.2921      3.5816    
  4.1257      4.9447      6.0492      7.4143      8.9499      10.452      11.394      11.244      9.9074      7.8758    
  6.0555      5.3297      6.0889      8.0131      6.4736      9.4508      11.527      12.110      11.310      9.7474    
  8.0800      6.5740      5.3366      4.3990      3.7512      3.3713      3.2421      3.3583      3.7279      4.3694    
  5.3033      6.5311      8.0041      9.5908      10.915      11.277      10.204      7.8351      4.9776      2.8047    
  2.2919      3.7093      1.7815      5.3382      8.9149      11.301      11.953      11.103      9.4896      7.8111    
  6.3236      5.1252      4.2378      3.6464      3.3273      3.2648      3.4567      3.9149      4.6608      5.7125    
  7.0585      8.6214      10.202      11.197      10.841      8.7974      5.4734      1.9855     -.29209     -.38489    
 -2.2390     0.65725      4.8310      8.7498      11.199      11.748      10.777      9.1217      7.4613      6.0216    
  4.8861      4.0673      3.5454      3.2971      3.3092      3.5832      4.1349      4.9876      6.1547      7.6080    
  9.2387      10.731      11.297      10.195      7.2700      3.2107     -.61223     -2.7204     -.67123E-01 0.65739    
  3.3498      6.9217      10.026      11.685      11.663      10.419      8.7404      7.1358      5.7709      4.7084    
  3.9510      3.4772      3.2651      3.3036      3.5956      4.1568      5.0096      6.1653      7.5943      9.1900    
  10.662      11.292      10.425      7.9578      4.5548      1.4560     0.54412     -.62677     0.54412      3.5634    
  7.2071      10.132      11.487      11.194      9.8281      8.1771      6.6504      5.3830      4.4211      3.7594    
  3.3754      3.2498      3.3754      3.7594      4.4211      5.3830      6.6503      8.1771      9.8281      11.194    
  11.487      10.132      7.2072      3.5634      3.3498     0.65740     -.67109E-01  1.4560      4.5548      7.9578    
  10.425      11.292      10.662      9.1900      7.5943      6.1653      5.0096      4.1568      3.5956      3.3036    
  3.2651      3.4772      3.9510      4.7084      5.7709      7.1357      8.7404      10.419      11.663      11.685    
  10.026      6.9217      7.1961      3.9743      1.7816      1.5059      3.2107      6.1087      8.9776      10.766    
  11.040      10.068      8.5396      7.0204      5.7035      4.6675      3.9270      3.4663      3.2647      3.3104    
  3.6049      4.1624      5.0060      6.1544      7.5961      9.2535      10.933      12.071      11.935      10.190    
  10.631      7.9973      5.3266      3.7094      3.7993      5.4734      7.9081      10.021      11.009      10.680    
  9.4278      7.9053      6.4803      5.2847      4.3709      3.7410      3.3768      3.2606      3.3846      3.7538    
  4.3846      5.2995      6.5130      8.0044      9.6842      11.342      12.412      12.248      12.588      11.275    
  9.1721      7.1523      6.0889      6.4016      7.8350      9.6113      10.857      11.044      10.195      8.7807    
  7.3117      5.9955      4.9255      4.1314      3.6061      3.3311      3.2921      3.4852      3.9178      4.6071    
  5.5734      6.8254      8.3340      10.002      11.618      12.661      12.783      12.884      11.979      10.485    
  9.1134      8.5057      8.8774      9.9073      10.933      11.327      10.826      9.6187      8.1682      6.7805    
  5.5836      4.6386      3.9574      3.5273      3.3311      3.3583      3.6082      4.0897      4.8187      5.8119    
  7.0713      8.5607      10.180      11.735      11.672      12.735      13.045      12.579      11.675      10.868    
  10.576      10.863      11.406      11.705      11.381      10.391      9.0222      7.6158      6.3315      5.2589    
  4.4334      3.8545      3.5071      3.3767      3.4567      3.7486      4.2611      5.0076      5.9997      7.2328    
  8.6660      10.201      10.060      11.421      12.485      12.992      12.922      12.522      12.145      12.028    
  12.139      12.206      11.906      11.080      9.8412      8.4704      7.1475      5.9815      5.0320      4.3159    
  3.8253      3.5456      3.4661      3.5831      3.8994      4.4226      5.1621      6.1237      7.2971      8.6393    
  8.4809      9.7644      10.996      12.028      12.679      12.918      12.893      12.803      12.751      12.664    
  12.351      11.652      10.575      9.3011      7.9988      6.7865      5.7446      4.9105      4.2890      3.8699    
  3.6411      3.5954      3.7318      4.0532      4.5647      5.2717      6.1742      7.2579      7.1172      8.2018    
  9.3355      10.430      11.391      12.115      12.555      12.772      12.849      12.804      12.563      12.021    
  11.150      10.046      8.8372      7.6412      6.5532      5.6315      4.8984      4.3532      3.9863      3.7895    
  3.7592      3.8957      4.2014      4.6787      5.3286      6.1469      6.0435      6.8854      7.8229      8.8052    
  9.7662      10.637      11.364      11.904      12.254      12.421      12.380      12.075      11.477      10.624    
  9.5967      8.4973      7.4277      6.4642      5.6492      4.9972      4.5063      4.1706      3.9857      3.9508    
  4.0672      4.3360      4.7572      5.3287      5.2718      5.8712      6.5795      7.3720      8.2115      9.0500    
  9.8377      10.532      11.101      11.516      11.744      11.744      11.483      10.954      10.198      9.2890    
  8.3216      7.3815      6.5302      5.8009      5.2054      4.7446      4.4171      4.2226      4.1623      4.2378    
  4.4493      4.7953      4.7908      5.1623      5.6427      6.2213      6.8803      7.5935      8.3272      9.0452    
  9.7124      10.295      10.757      11.054      11.138      10.975      10.563      9.9381      9.1694      8.3379    
  7.5160      6.7554      6.0851      5.5186      5.0618      4.7184      4.4916      4.3845      4.3990      4.5350    
  4.5885      4.7446      5.0078      5.3736      5.8344      6.3783      6.9876      7.6390      8.3062      8.9605    
  9.5691      10.091      10.475      10.669      10.636      10.367      9.8905      9.2647      8.5581      7.8332    
  7.1359      6.4954      5.9291      5.4491      5.0644      4.7821      4.6072      4.5423      4.6599      4.6066    
  4.6599      4.8189      5.0812      5.4420      5.8937      6.4247      7.0196      7.6598      8.3224      8.9764    
  9.5786      10.073      10.401      10.517      10.401      10.073      9.5786      8.9764      8.3224      7.6598    
  7.0196      6.4247      5.8937      5.4420      5.0812      4.8189      5.0078      4.7446      4.5885      4.5423    
  4.6072      4.7821      5.0644      5.4491      5.9292      6.4954      7.1359      7.8332      8.5581      9.2647    
  9.8905      10.367      10.636      10.669      10.475      10.091      9.5691      8.9605      8.3062      7.6390    
  6.9876      6.3783      5.8345      5.3736      5.6427      5.1623      4.7908      4.5350      4.3990      4.3846    
  4.4916      4.7184      5.0618      5.5186      6.0851      6.7554      7.5160      8.3379      9.1694      9.9380    
  10.563      10.975      11.138      11.054      10.757      10.295      9.7124      9.0452      8.3272      7.5934    
  6.8803      6.2213      6.5795      5.8713      5.2718      4.7953      4.4493      4.2378      4.1624      4.2226    
  4.4171      4.7446      5.2054      5.8009      6.5302      7.3815      8.3216      9.2890      10.198      10.954    
  11.483      11.744      11.744      11.516      11.101      10.532      9.8377      9.0500      8.2115      7.3720    
  7.8229      6.8854      6.0435      5.3287      4.7572      4.3359      4.0672      3.9509      3.9857      4.1706    
  4.5063      4.9972      5.6492      6.4642      7.4277      8.4973      9.5967      10.624      11.477      12.075    
  12.380      12.421      12.254      11.904      11.364      10.637      9.7662      8.8053      9.3356      8.2018    
  7.1172      6.1470      5.3287      4.6787      4.2014      3.8957      3.7592      3.7896      3.9863      4.3532    
  4.8984      5.6315      6.5532      7.6412      8.8372      10.046      11.150      12.021      12.563      12.804    
  12.849      12.772      12.555      12.115      11.391      10.430      10.996      9.7644      8.4809      7.2578    
  6.1742      5.2717      4.5647      4.0531      3.7318      3.5954      3.6411      3.8699      4.2891      4.9105    
  5.7446      6.7865      7.9988      9.3011      10.575      11.652      12.351      12.664      12.751      12.803    
  12.893      12.918      12.679      12.028      12.485      11.421      10.060      8.6393      7.2970      6.1237    
  5.1621      4.4225      3.8994      3.5831      3.4661      3.5456      3.8253      4.3159      5.0320      5.9815    
  7.1475      8.4704      9.8412      11.080      11.906      12.206      12.139      12.028      12.145      12.522    
  12.922      12.992      13.045      12.735      11.672      10.201      8.6659      7.2328      5.9997      5.0076    
  4.2610      3.7485      3.4567      3.3767      3.5071      3.8545      4.4334      5.2589      6.3315      7.6158    
  9.0222      10.391      11.381      11.705      11.406      10.863      10.576      10.868      11.675      12.579    
  11.979      12.884      12.783      11.735      10.180      8.5607      7.0713      5.8119      4.8187      4.0897    
  3.6082      3.3583      3.3311      3.5273      3.9574      4.6386      5.5836      6.7805      8.1682      9.6187    
  10.826      11.327      10.933      9.9073      8.8774      8.5056      9.1135      10.485      9.1721      11.275    
  12.588      12.661      11.618      10.002      8.3340      6.8254      5.5734      4.6071      3.9178      3.4852    
  3.2921      3.3311      3.6061      4.1314      4.9255      5.9955      7.3117      8.7807      10.195      11.044    
  10.857      9.6113      7.8351      6.4016      6.0889      7.1523      5.3266      7.9973      10.631      12.248    
  12.412      11.342      9.6842      8.0044      6.5130      5.2995      4.3845      3.7538      3.3847      3.2606    
  3.3768      3.7410      4.3709      5.2847      6.4803      7.9053      9.4278      10.680      11.009      10.021    
  7.9081      5.4734      3.7992      3.7094      1.7816      3.9743      7.1961      10.190      11.935      12.071    
  10.933      9.2535      7.5961      6.1544      5.0060      4.1624      3.6049      3.3105      3.2647      3.4662    
  3.9270      4.6675      5.7035      7.0204      8.5396      10.068      11.040      10.766      8.9776      6.1087    
  3.2107      1.5059      4.8633      5.3383      7.1961      9.6406      11.652      12.494      12.017      10.628    
  8.9688      7.3990      6.0567      4.9970      4.2227      3.7149      3.4541      3.4296      3.6412      4.0998    
  4.8236      5.8257      7.0915      8.5480      10.033      11.101      11.162      9.9927      7.9578      5.9248    
  5.0463      4.1013      4.8311      6.9217      9.4535      11.383      12.045      11.406      9.9607      8.3456    
  6.8578      5.6153      4.6594      3.9858      3.5745      3.4078      3.4783      3.7897      4.3565      5.1985    
  6.3252      7.7093      9.2548      10.738      11.587      11.241      9.6026      7.2071      6.9217      4.8311    
  4.1013      5.0463      7.2071      9.6026      11.241      11.587      10.738      9.2548      7.7093      6.3253    
  5.1985      4.3565      3.7897      3.4783      3.4078      3.5744      3.9858      4.6594      5.6153      6.8577    
  8.3456      9.9607      11.406      12.045      11.383      9.4535      9.6406      7.1961      5.3383      4.8633    
  5.9248      7.9578      9.9927      11.162      11.101      10.033      8.5480      7.0915      5.8258      4.8236    