unknown system                          
   1.00000000000000     
     0.000000    2.715000    2.715000
     2.715000    0.000000    2.715000
     2.715000    2.715000    0.000000
   Si
     2
Direct
  0.500000  0.500000  0.500000
  0.750000  0.750000  0.750000
 
   24   24   24
 0.79501     0.83318     0.95260      1.1676      1.4995      1.9713      2.5984      3.3764      4.2659      5.1818    
  5.9964      6.5644      6.7689      6.5645      5.9965      5.1819      4.2658      3.3763      2.5984      1.9713    
  1.4995      1.1676     0.95261     0.83317     0.83318     0.89548      1.0277      1.2438      1.5604      1.9915    
  2.5394      3.1860      3.8831      4.5495      5.0813      5.3783      5.3783      5.0813      4.5496      3.8832    
  3.1860      2.5393      1.9914      1.5604      1.2438      1.0277     0.89550     0.83319     0.95260      1.0277    
  1.1625      1.3690      1.6585      2.0365      2.4958      3.0107      3.5319      3.9896      4.3063      4.4199    
  4.3064      3.9896      3.5319      3.0106      2.4958      2.0365      1.6586      1.3690      1.1625      1.0277    
 0.95262     0.92861      1.1676      1.2438      1.3690      1.5528      1.8016      2.1148      2.4798      2.8685    
  3.2363      3.5278      3.6900      3.6900      3.5278      3.2363      2.8684      2.4797      2.1148      1.8017    
  1.5529      1.3691      1.2438      1.1676      1.1320      1.1320      1.4995      1.5604      1.6585      1.8016    
  1.9932      2.2295      2.4958      2.7657      3.0024      3.1660      3.2245      3.1660      3.0024      2.7657    
  2.4958      2.2295      1.9932      1.8016      1.6586      1.5605      1.4995      1.4672      1.4572      1.4672    
  1.9713      1.9915      2.0365      2.1148      2.2295      2.3757      2.5394      2.6982      2.8256      2.8967    
  2.8966      2.8255      2.6982      2.5394      2.3758      2.2296      2.1149      2.0364      1.9914      1.9712    
  1.9656      1.9654      1.9654      1.9656      2.5984      2.5394      2.4958      2.4798      2.4958      2.5394    
  2.5984      2.6570      2.6995      2.7150      2.6995      2.6569      2.5984      2.5394      2.4959      2.4799    
  2.4959      2.5393      2.5983      2.6569      2.6995      2.7150      2.6995      2.6570      3.3764      3.1860    
  3.0107      2.8685      2.7657      2.6982      2.6570      2.6333      2.6224      2.6224      2.6333      2.6570    
  2.6983      2.7657      2.8685      3.0106      3.1859      3.3764      3.5553      3.6942      3.7701      3.7701    
  3.6942      3.5553      4.2659      3.8831      3.5319      3.2363      3.0024      2.8256      2.6995      2.6224    
  2.5962      2.6223      2.6995      2.8256      3.0025      3.2363      3.5319      3.8830      4.2658      4.6393    
  4.9539      5.1638      5.2375      5.1638      4.9538      4.6393      5.1818      4.5495      3.9896      3.5278    
  3.1660      2.8967      2.7150      2.6224      2.6223      2.7149      2.8966      3.1660      3.5279      3.9897    
  4.5495      5.1818      5.8320      6.4235      6.8747      7.1189      7.1189      6.8747      6.4235      5.8321    
  5.9964      5.0813      4.3063      3.6900      3.2245      2.8966      2.6995      2.6333      2.6995      2.8966    
  3.2246      3.6900      4.3064      5.0813      5.9964      6.9916      7.9647      8.7892      9.3431      9.5383    
  9.3431      8.7893      7.9647      6.9916      6.5644      5.3783      4.4199      3.6900      3.1660      2.8255    
  2.6569      2.6570      2.8256      3.1660      3.6900      4.4199      5.3782      6.5643      7.9280      9.3556    
  10.679      11.706      12.270      12.270      11.706      10.679      9.3556      7.9281      6.7689      5.3783    
  4.3064      3.5278      3.0024      2.6982      2.5984      2.6983      3.0025      3.5279      4.3064      5.3782    
  6.7687      8.4549      10.336      12.224      13.864      14.989      15.390      14.989      13.864      12.223    
  10.336      8.4550      6.5645      5.0813      3.9896      3.2363      2.7657      2.5394      2.5394      2.7657    
  3.2363      3.9897      5.0813      6.5643      8.4549      10.690      13.100      15.398      17.212      18.201    
  18.201      17.212      15.398      13.099      10.690      8.4550      5.9965      4.5496      3.5319      2.8684    
  2.4958      2.3758      2.4959      2.8685      3.5319      4.5495      5.9964      7.9280      10.336      13.100    
  15.955      18.456      20.135      20.721      20.135      18.456      15.955      13.099      10.336      7.9281    
  5.1819      3.8832      3.0106      2.4797      2.2295      2.2296      2.4799      3.0106      3.8830      5.1818    
  6.9916      9.3556      12.224      15.398      18.456      20.820      22.091      22.091      20.820      18.456    
  15.398      12.224      9.3556      6.9915      4.2658      3.1860      2.4958      2.1148      1.9932      2.1149    
  2.4959      3.1859      4.2658      5.8320      7.9647      10.679      13.864      17.212      20.135      22.091    
  22.774      22.091      20.134      17.212      13.864      10.679      7.9647      5.8320      3.3763      2.5393    
  2.0365      1.8017      1.8016      2.0364      2.5393      3.3764      4.6393      6.4235      8.7892      11.706    
  14.989      18.201      20.721      22.091      22.091      20.721      18.201      14.989      11.706      8.7894    
  6.4235      4.6392      2.5984      1.9914      1.6586      1.5529      1.6586      1.9914      2.5983      3.5553    
  4.9539      6.8747      9.3431      12.270      15.390      18.201      20.135      20.820      20.134      18.201    
  15.390      12.270      9.3432      6.8747      4.9538      3.5552      1.9713      1.5604      1.3690      1.3691    
  1.5605      1.9712      2.6569      3.6942      5.1638      7.1189      9.5383      12.270      14.989      17.212    
  18.456      18.456      17.212      14.989      12.270      9.5385      7.1189      5.1637      3.6942      2.6570    
  1.4995      1.2438      1.1625      1.2438      1.4995      1.9656      2.6995      3.7701      5.2375      7.1189    
  9.3431      11.706      13.864      15.398      15.955      15.398      13.864      11.706      9.3432      7.1189    
  5.2374      3.7700      2.6994      1.9657      1.1676      1.0277      1.0277      1.1676      1.4672      1.9654    
  2.7150      3.7701      5.1638      6.8747      8.7893      10.679      12.223      13.099      13.099      12.224    
  10.679      8.7894      6.8747      5.1637      3.7700      2.7149      1.9654      1.4672     0.95261     0.89550    
 0.95262      1.1320      1.4572      1.9654      2.6995      3.6942      4.9538      6.4235      7.9647      9.3556    
  10.336      10.690      10.336      9.3556      7.9647      6.4235      4.9538      3.6942      2.6994      1.9654    
  1.4572      1.1320     0.83317     0.83319     0.92861      1.1320      1.4672      1.9656      2.6570      3.5553    
  4.6393      5.8321      6.9916      7.9281      8.4550      8.4550      7.9281      6.9915      5.8320      4.6392    
  3.5552      2.6570      1.9657      1.4672      1.1320     0.92859     0.83318     0.89548      1.0277      1.2438    
  1.5604      1.9915      2.5394      3.1860      3.8831      4.5495      5.0813      5.3783      5.3782      5.0813    
  4.5495      3.8832      3.1860      2.5394      1.9914      1.5604      1.2438      1.0277     0.89550     0.83318    
 0.89548     0.96564      1.0927      1.2891      1.5669      1.9314      2.3757      2.8742      3.3787      3.8213    
  4.1272      4.2368      4.1273      3.8214      3.3788      2.8743      2.3757      1.9313      1.5668      1.2891    
  1.0927     0.96567     0.89550     0.87318      1.0277      1.0927      1.2027      1.3684      1.5970      1.8882    
  2.2295      2.5938      2.9385      3.2115      3.3633      3.3633      3.2116      2.9386      2.5938      2.2295    
  1.8881      1.5969      1.3683      1.2027      1.0927      1.0277     0.99809     0.99807      1.2438      1.2891    
  1.3684      1.4905      1.6598      1.8725      2.1148      2.3617      2.5790      2.7294      2.7833      2.7294    
  2.5790      2.3617      2.1147      1.8724      1.6597      1.4905      1.3684      1.2892      1.2438      1.2219    
  1.2156      1.2219      1.5604      1.5669      1.5970      1.6598      1.7583      1.8882      2.0365      2.1826    
  2.3010      2.3676      2.3676      2.3010      2.1826      2.0365      1.8881      1.7582      1.6597      1.5971    
  1.5670      1.5605      1.5659      1.5719      1.5719      1.5659      1.9915      1.9314      1.8882      1.8725    
  1.8882      1.9314      1.9915      2.0527      2.0984      2.1153      2.0984      2.0527      1.9915      1.9314    
  1.8882      1.8725      1.8882      1.9314      1.9915      2.0527      2.0984      2.1153      2.0984      2.0527    
  2.5394      2.3757      2.2295      2.1148      2.0365      1.9915      1.9713      1.9656      1.9654      1.9654    
  1.9656      1.9713      1.9914      2.0365      2.1149      2.2296      2.3758      2.5393      2.6982      2.8255    
  2.8967      2.8967      2.8256      2.6982      3.1860      2.8742      2.5938      2.3617      2.1826      2.0527    
  1.9656      1.9155      1.8992      1.9156      1.9656      2.0527      2.1825      2.3617      2.5938      2.8743    
  3.1861      3.4982      3.7690      3.9545      4.0207      3.9546      3.7691      3.4982      3.8831      3.3787    
  2.9385      2.5790      2.3010      2.0984      1.9654      1.8992      1.8992      1.9654      2.0983      2.3009    
  2.5789      2.9385      3.3788      3.8831      4.4133      4.9092      5.2983      5.5132      5.5132      5.2983    
  4.9093      4.4133      4.5495      3.8213      3.2115      2.7294      2.3676      2.1153      1.9654      1.9156    
  1.9654      2.1151      2.3674      2.7293      3.2117      3.8216      4.5496      5.3570      6.1680      6.8756    
  7.3627      7.5368      7.3627      6.8757      6.1682      5.3571      5.0813      4.1272      3.3633      2.7833    
  2.3676      2.0984      1.9656      1.9656      2.0983      2.3674      2.7832      3.3635      4.1275      5.0815    
  6.1978      7.3971      8.5421      9.4557      9.9662      9.9662      9.4558      8.5423      7.3973      6.1978    
  5.3783      4.2368      3.3633      2.7294      2.3010      2.0527      1.9713      2.0527      2.3009      2.7293    
  3.3635      4.2371      5.3784      6.7850      8.3938      10.057      11.545      12.587      12.964      12.587    
  11.545      10.057      8.3940      6.7851      5.3782      4.1273      3.2116      2.5790      2.1826      1.9915    
  1.9914      2.1825      2.5789      3.2117      4.1275      5.3784      6.9964      8.9560      11.131      13.268    
  15.012      16.000      16.000      15.012      13.268      11.131      8.9563      6.9966      5.0813      3.8214    
  2.9386      2.3617      2.0365      1.9314      2.0365      2.3617      2.9385      3.8216      5.0815      6.7850    
  8.9560      11.520      14.251      16.751      18.535      19.184      18.535      16.751      14.250      11.520    
  8.9562      6.7850      4.5495      3.3788      2.5938      2.1147      1.8881      1.8882      2.1149      2.5938    
  3.3788      4.5496      6.1978      8.3938      11.131      14.251      17.387      19.990      21.478      21.478    
  19.990      17.387      14.250      11.131      8.3938      6.1977      3.8832      2.8743      2.2295      1.8724    
  1.7582      1.8725      2.2296      2.8743      3.8831      5.3570      7.3971      10.057      13.268      16.751    
  19.990      22.314      23.160      22.315      19.990      16.751      13.268      10.057      7.3972      5.3570    
  3.1860      2.3757      1.8881      1.6597      1.6597      1.8882      2.3758      3.1861      4.4133      6.1680    
  8.5421      11.545      15.012      18.535      21.478      23.160      23.160      21.478      18.535      15.012    
  11.544      8.5423      6.1683      4.4134      2.5394      1.9313      1.5969      1.4905      1.5971      1.9314    
  2.5393      3.4982      4.9092      6.8756      9.4557      12.587      16.000      19.184      21.478      22.315    
  21.478      19.184      16.000      12.587      9.4557      6.8757      4.9094      3.4983      1.9914      1.5668    
  1.3683      1.3684      1.5670      1.9915      2.6982      3.7690      5.2983      7.3627      9.9662      12.964    
  16.000      18.535      19.990      19.990      18.535      16.000      12.963      9.9661      7.3627      5.2984    
  3.7692      2.6983      1.5604      1.2891      1.2027      1.2892      1.5605      2.0527      2.8255      3.9545    
  5.5132      7.5368      9.9662      12.587      15.012      16.751      17.387      16.751      15.012      12.587    
  9.9661      7.5370      5.5135      3.9547      2.8255      2.0527      1.2438      1.0927      1.0927      1.2438    
  1.5659      2.0984      2.8967      4.0207      5.5132      7.3627      9.4558      11.545      13.268      14.250    
  14.250      13.268      11.544      9.4557      7.3627      5.5135      4.0209      2.8966      2.0983      1.5658    
  1.0277     0.96567      1.0277      1.2219      1.5719      2.1153      2.8967      3.9546      5.2983      6.8757    
  8.5423      10.057      11.131      11.520      11.131      10.057      8.5423      6.8757      5.2984      3.9547    
  2.8966      2.1152      1.5719      1.2219     0.89550     0.89550     0.99809      1.2156      1.5719      2.0984    
  2.8256      3.7691      4.9093      6.1682      7.3973      8.3940      8.9563      8.9562      8.3938      7.3972    
  6.1683      4.9094      3.7692      2.8255      2.0983      1.5719      1.2156     0.99809     0.83318     0.87318    
 0.99807      1.2219      1.5659      2.0527      2.6982      3.4982      4.4133      5.3571      6.1978      6.7851    
  6.9966      6.7850      6.1977      5.3570      4.4134      3.4983      2.6983      2.0527      1.5658      1.2219    
 0.99809     0.87321     0.95260      1.0277      1.1625      1.3690      1.6585      2.0365      2.4958      3.0107    
  3.5319      3.9897      4.3063      4.4199      4.3063      3.9896      3.5318      3.0106      2.4959      2.0366    
  1.6586      1.3690      1.1625      1.0277     0.95261     0.92860      1.0277      1.0927      1.2027      1.3684    
  1.5970      1.8882      2.2295      2.5938      2.9385      3.2115      3.3633      3.3633      3.2115      2.9385    
  2.5938      2.2296      1.8882      1.5970      1.3683      1.2027      1.0927      1.0277     0.99808     0.99807    
  1.1625      1.2027      1.2756      1.3908      1.5529      1.7583      1.9932      2.2331      2.4442      2.5904    
  2.6427      2.5903      2.4442      2.2331      1.9933      1.7583      1.5529      1.3907      1.2755      1.2026    
  1.1625      1.1441      1.1391      1.1441      1.3690      1.3684      1.3908      1.4458      1.5369      1.6597    
  1.8016      1.9421      2.0562      2.1205      2.1205      2.0562      1.9420      1.8016      1.6597      1.5369    
  1.4458      1.3908      1.3684      1.3690      1.3800      1.3891      1.3891      1.3800      1.6585      1.5970    
  1.5529      1.5369      1.5529      1.5970      1.6585      1.7216      1.7688      1.7862      1.7688      1.7216    
  1.6585      1.5970      1.5528      1.5368      1.5529      1.5970      1.6586      1.7216      1.7688      1.7862    
  1.7687      1.7216      2.0365      1.8882      1.7583      1.6597      1.5970      1.5669      1.5604      1.5659    
  1.5719      1.5719      1.5658      1.5605      1.5669      1.5971      1.6597      1.7582      1.8881      2.0365    
  2.1826      2.3010      2.3676      2.3676      2.3010      2.1826      2.4958      2.2295      1.9932      1.8016    
  1.6585      1.5604      1.4995      1.4672      1.4572      1.4672      1.4995      1.5605      1.6586      1.8016    
  1.9932      2.2295      2.4958      2.7657      3.0024      3.1660      3.2245      3.1660      3.0024      2.7657    
  3.0107      2.5938      2.2331      1.9421      1.7216      1.5659      1.4672      1.4195      1.4195      1.4672    
  1.5659      1.7216      1.9420      2.2330      2.5937      3.0107      3.4528      3.8703      4.2008      4.3845    
  4.3845      4.2008      3.8703      3.4528      3.5319      2.9385      2.4442      2.0562      1.7688      1.5719    
  1.4572      1.4195      1.4573      1.5720      1.7688      2.0561      2.4441      2.9384      3.5319      4.1943    
  4.8651      5.4553      5.8645      6.0114      5.8645      5.4552      4.8650      4.1942      3.9897      3.2115    
  2.5904      2.1205      1.7862      1.5719      1.4672      1.4672      1.5720      1.7862      2.1205      2.5903    
  3.2115      3.9897      4.9048      5.8952      6.8489      7.6157      8.0465      8.0464      7.6157      6.8488    
  5.8951      4.9048      4.3063      3.3633      2.6427      2.1205      1.7688      1.5658      1.4995      1.5659    
  1.7688      2.1205      2.6427      3.3633      4.3064      5.4734      6.8174      8.2191      9.4832      10.375    
  10.698      10.375      9.4833      8.2191      6.8173      5.4733      4.4199      3.3633      2.5903      2.0562    
  1.7216      1.5605      1.5605      1.7216      2.0561      2.5903      3.3633      4.4199      5.7914      7.4641    
  9.3376      11.196      12.724      13.594      13.594      12.724      11.196      9.3375      7.4641      5.7914    
  4.3063      3.2115      2.4442      1.9420      1.6585      1.5669      1.6586      1.9420      2.4441      3.2115    
  4.3064      5.7914      7.6975      9.9713      12.417      14.678      16.299      16.892      16.300      14.678    
  12.417      9.9714      7.6976      5.7914      3.9896      2.9385      2.2331      1.8016      1.5970      1.5971    
  1.8016      2.2330      2.9384      3.9897      5.4734      7.4641      9.9713      12.862      15.798      18.254    
  19.667      19.666      18.254      15.798      12.862      9.9714      7.4641      5.4732      3.5318      2.5938    
  1.9933      1.6597      1.5528      1.6597      1.9932      2.5937      3.5319      4.9048      6.8174      9.3376    
  12.417      15.798      18.970      21.268      22.112      21.268      18.970      15.798      12.417      9.3377    
  6.8172      4.9046      3.0106      2.2296      1.7583      1.5369      1.5368      1.7582      2.2295      3.0107    
  4.1943      5.8952      8.2191      11.196      14.678      18.254      21.268      23.010      23.010      21.268    
  18.254      14.678      11.196      8.2192      5.8951      4.1941      2.4959      1.8882      1.5529      1.4458    
  1.5529      1.8881      2.4958      3.4528      4.8651      6.8489      9.4832      12.724      16.299      19.667    
  22.112      23.010      22.112      19.667      16.300      12.724      9.4833      6.8488      4.8650      3.4528    
  2.0366      1.5970      1.3907      1.3908      1.5970      2.0365      2.7657      3.8703      5.4553      7.6157    
  10.375      13.594      16.892      19.666      21.268      21.268      19.667      16.892      13.594      10.375    
  7.6156      5.4552      3.8703      2.7658      1.6586      1.3683      1.2755      1.3684      1.6586      2.1826    
  3.0024      4.2008      5.8645      8.0465      10.698      13.594      16.300      18.254      18.970      18.254    
  16.300      13.594      10.698      8.0464      5.8645      4.2007      3.0024      2.1827      1.3690      1.2027    
  1.2026      1.3690      1.7216      2.3010      3.1660      4.3845      6.0114      8.0464      10.375      12.724    
  14.678      15.798      15.798      14.678      12.724      10.375      8.0464      6.0115      4.3846      3.1660    
  2.3010      1.7216      1.1625      1.0927      1.1625      1.3800      1.7688      2.3676      3.2245      4.3845    
  5.8645      7.6157      9.4833      11.196      12.417      12.862      12.417      11.196      9.4833      7.6156    
  5.8645      4.3846      3.2246      2.3676      1.7688      1.3799      1.0277      1.0277      1.1441      1.3891    
  1.7862      2.3676      3.1660      4.2008      5.4552      6.8488      8.2191      9.3375      9.9714      9.9714    
  9.3377      8.2192      6.8488      5.4552      4.2007      3.1660      2.3676      1.7863      1.3891      1.1441    
 0.95261     0.99808      1.1391      1.3891      1.7687      2.3010      3.0024      3.8703      4.8650      5.8951    
  6.8173      7.4641      7.6976      7.4641      6.8172      5.8951      4.8650      3.8703      3.0024      2.3010    
  1.7688      1.3891      1.1391     0.99807     0.92860     0.99807      1.1441      1.3800      1.7216      2.1826    
  2.7657      3.4528      4.1942      4.9048      5.4733      5.7914      5.7914      5.4732      4.9046      4.1941    
  3.4528      2.7658      2.1827      1.7216      1.3799      1.1441     0.99807     0.92861      1.1676      1.2438    
  1.3690      1.5528      1.8016      2.1148      2.4798      2.8685      3.2363      3.5278      3.6900      3.6900    
  3.5278      3.2362      2.8684      2.4797      2.1148      1.8017      1.5529      1.3691      1.2438      1.1676    
  1.1319      1.1320      1.2438      1.2891      1.3684      1.4905      1.6597      1.8725      2.1148      2.3617    
  2.5790      2.7294      2.7833      2.7294      2.5790      2.3617      2.1148      1.8725      1.6598      1.4905    
  1.3684      1.2892      1.2437      1.2219      1.2156      1.2219      1.3690      1.3684      1.3908      1.4458    
  1.5369      1.6597      1.8016      1.9421      2.0562      2.1205      2.1205      2.0562      1.9421      1.8016    
  1.6598      1.5369      1.4458      1.3907      1.3683      1.3690      1.3799      1.3891      1.3891      1.3800    
  1.5528      1.4905      1.4458      1.4296      1.4458      1.4905      1.5528      1.6165      1.6642      1.6819    
  1.6642      1.6165      1.5527      1.4904      1.4458      1.4297      1.4458      1.4904      1.5527      1.6165    
  1.6642      1.6819      1.6642      1.6165      1.8016      1.6597      1.5369      1.4458      1.3908      1.3684    
  1.3690      1.3800      1.3891      1.3891      1.3799      1.3690      1.3683      1.3907      1.4458      1.5369    
  1.6598      1.8016      1.9421      2.0562      2.1205      2.1205      2.0562      1.9421      2.1148      1.8725    
  1.6597      1.4905      1.3684      1.2891      1.2438      1.2219      1.2156      1.2219      1.2437      1.2892    
  1.3684      1.4905      1.6598      1.8725      2.1148      2.3617      2.5790      2.7294      2.7833      2.7294    
  2.5790      2.3617      2.4798      2.1148      1.8016      1.5528      1.3690      1.2438      1.1676      1.1320    
  1.1319      1.1676      1.2438      1.3691      1.5529      1.8017      2.1148      2.4797      2.8684      3.2362    
  3.5278      3.6900      3.6900      3.5278      3.2363      2.8685      2.8685      2.3617      1.9421      1.6165    
  1.3800      1.2219      1.1320      1.1028      1.1319      1.2219      1.3800      1.6166      1.9421      2.3617    
  2.8684      3.4353      4.0098      4.5153      4.8658      4.9916      4.8658      4.5153      4.0099      3.4354    
  3.2363      2.5790      2.0562      1.6642      1.3891      1.2156      1.1319      1.1319      1.2156      1.3892    
  1.6643      2.0562      2.5789      3.2361      4.0097      4.8464      5.6512      6.2974      6.6600      6.6599    
  6.2972      5.6510      4.8464      4.0099      3.5278      2.7294      2.1205      1.6819      1.3891      1.2219    
  1.1676      1.2219      1.3892      1.6819      2.1206      2.7293      3.5276      4.5152      5.6510      6.8335    
  7.8978      8.6476      8.9189      8.6474      7.8975      6.8332      5.6510      4.5153      3.6900      2.7833    
  2.1205      1.6642      1.3799      1.2437      1.2438      1.3800      1.6643      2.1206      2.7832      3.6898    
  4.8656      6.2973      7.8978      9.4822      10.783      11.523      11.523      10.783      9.4820      7.8975    
  6.2972      4.8658      3.6900      2.7294      2.0562      1.6165      1.3690      1.2892      1.3691      1.6166    
  2.0562      2.7293      3.6898      4.9914      6.6599      8.6477      10.783      12.754      14.167      14.683    
  14.167      12.754      10.783      8.6474      6.6599      4.9916      3.5278      2.5790      1.9421      1.5527    
  1.3683      1.3684      1.5529      1.9421      2.5789      3.5276      4.8656      6.6599      8.9190      11.523    
  14.168      16.379      17.651      17.651      16.379      14.167      11.523      8.9189      6.6600      4.8658    
  3.2362      2.3617      1.8016      1.4904      1.3907      1.4905      1.8017      2.3617      3.2361      4.5152    
  6.2973      8.6477      11.523      14.683      17.651      19.802      20.592      19.802      17.651      14.683    
  11.523      8.6476      6.2974      4.5153      2.8684      2.1148      1.6598      1.4458      1.4458      1.6598    
  2.1148      2.8684      4.0097      5.6510      7.8978      10.783      14.168      17.651      20.592      22.293    
  22.293      20.592      17.651      14.167      10.783      7.8978      5.6512      4.0098      2.4797      1.8725    
  1.5369      1.4297      1.5369      1.8725      2.4797      3.4353      4.8464      6.8335      9.4822      12.754    
  16.379      19.802      22.293      23.209      22.293      19.802      16.379      12.754      9.4822      6.8335    
  4.8464      3.4353      2.1148      1.6598      1.4458      1.4458      1.6598      2.1148      2.8684      4.0098    
  5.6512      7.8978      10.783      14.167      17.651      20.592      22.293      22.293      20.592      17.651    
  14.168      10.783      7.8978      5.6510      4.0097      2.8684      1.8017      1.4905      1.3907      1.4904    
  1.8016      2.3617      3.2362      4.5153      6.2974      8.6476      11.523      14.683      17.651      19.802    
  20.592      19.802      17.651      14.683      11.523      8.6477      6.2973      4.5152      3.2361      2.3617    
  1.5529      1.3684      1.3683      1.5527      1.9421      2.5790      3.5278      4.8658      6.6600      8.9189    
  11.523      14.167      16.379      17.651      17.651      16.379      14.168      11.523      8.9190      6.6599    
  4.8656      3.5276      2.5789      1.9421      1.3691      1.2892      1.3690      1.6165      2.0562      2.7294    
  3.6900      4.9916      6.6599      8.6474      10.783      12.754      14.167      14.683      14.167      12.754    
  10.783      8.6477      6.6599      4.9914      3.6898      2.7293      2.0562      1.6166      1.2438      1.2437    
  1.3799      1.6642      2.1205      2.7833      3.6900      4.8658      6.2972      7.8975      9.4820      10.783    
  11.523      11.523      10.783      9.4822      7.8978      6.2973      4.8656      3.6898      2.7832      2.1206    
  1.6643      1.3800      1.1676      1.2219      1.3891      1.6819      2.1205      2.7294      3.5278      4.5153    
  5.6510      6.8332      7.8975      8.6474      8.9189      8.6476      7.8978      6.8335      5.6510      4.5152    
  3.5276      2.7293      2.1206      1.6819      1.3892      1.2219      1.1319      1.2156      1.3891      1.6642    
  2.0562      2.5790      3.2363      4.0099      4.8464      5.6510      6.2972      6.6599      6.6600      6.2974    
  5.6512      4.8464      4.0097      3.2361      2.5789      2.0562      1.6643      1.3892      1.2156      1.1319    
  1.1320      1.2219      1.3800      1.6165      1.9421      2.3617      2.8685      3.4354      4.0099      4.5153    
  4.8658      4.9916      4.8658      4.5153      4.0098      3.4353      2.8684      2.3617      1.9421      1.6166    
  1.3800      1.2219      1.1319      1.1028      1.4995      1.5604      1.6585      1.8016      1.9932      2.2295    
  2.4958      2.7657      3.0024      3.1660      3.2245      3.1660      3.0024      2.7657      2.4958      2.2295    
  1.9932      1.8016      1.6586      1.5605      1.4995      1.4672      1.4572      1.4672      1.5604      1.5669    
  1.5970      1.6597      1.7583      1.8882      2.0365      2.1826      2.3010      2.3676      2.3676      2.3010    
  2.1826      2.0365      1.8881      1.7582      1.6597      1.5971      1.5669      1.5605      1.5658      1.5719    
  1.5719      1.5659      1.6585      1.5970      1.5529      1.5369      1.5529      1.5970      1.6585      1.7216    
  1.7687      1.7862      1.7688      1.7216      1.6586      1.5970      1.5529      1.5368      1.5528      1.5970    
  1.6585      1.7216      1.7688      1.7862      1.7688      1.7216      1.8016      1.6597      1.5369      1.4458    
  1.3908      1.3684      1.3690      1.3800      1.3891      1.3891      1.3800      1.3690      1.3684      1.3908    
  1.4458      1.5369      1.6597      1.8016      1.9420      2.0562      2.1205      2.1205      2.0562      1.9421    
  1.9932      1.7583      1.5529      1.3908      1.2756      1.2027      1.1625      1.1441      1.1391      1.1441    
  1.1625      1.2026      1.2755      1.3907      1.5529      1.7583      1.9933      2.2331      2.4442      2.5903    
  2.6427      2.5904      2.4442      2.2331      2.2295      1.8882      1.5970      1.3684      1.2027      1.0927    
  1.0277     0.99807     0.99808      1.0277      1.0927      1.2027      1.3683      1.5970      1.8882      2.2296    
  2.5938      2.9385      3.2115      3.3633      3.3633      3.2115      2.9385      2.5938      2.4958      2.0365    