   2   2   0   0
  0.2001288E+02  0.3839590E-09  0.3839590E-09  0.3839590E-09  0.5000000E-15
  1.000000000000000E-004
  CAR 
 unknown system                          
     14.82669623     -7.30514234  301      6.04787768      1.00000000
     -7.305  0.0000E+00  0.0000E+00
     -7.231  0.0000E+00  0.0000E+00
     -7.158  0.0000E+00  0.0000E+00
     -7.084  0.0000E+00  0.0000E+00
     -7.010  0.0000E+00  0.0000E+00
     -6.936  0.0000E+00  0.0000E+00
     -6.863  0.0000E+00  0.0000E+00
     -6.789  0.0000E+00  0.0000E+00
     -6.715  0.0000E+00  0.0000E+00
     -6.641  0.0000E+00  0.0000E+00
     -6.567  0.0000E+00  0.0000E+00
     -6.494  0.0000E+00  0.0000E+00
     -6.420  0.7274E-15  0.5366E-16
     -6.346  0.4061E-13  0.3049E-14
     -6.272  0.1760E-11  0.1329E-12
     -6.199  0.5831E-10  0.4435E-11
     -6.125  0.1477E-08  0.1134E-09
     -6.051  0.2861E-07  0.2224E-08
     -5.977  0.4240E-06  0.3350E-07
     -5.903  0.4808E-05  0.3882E-06
     -5.830  0.4173E-04  0.3467E-05
     -5.756  0.2773E-03  0.2392E-04
     -5.682  0.1411E-02  0.1280E-03
     -5.608  0.5499E-02  0.5337E-03
     -5.535  0.1642E-01  0.1745E-02
     -5.461  0.3756E-01  0.4516E-02
     -5.387  0.6586E-01  0.9375E-02
     -5.313  0.8848E-01  0.1590E-01
     -5.240  0.9112E-01  0.2262E-01
     -5.166  0.7191E-01  0.2793E-01
     -5.092  0.4350E-01  0.3114E-01
     -5.018  0.2016E-01  0.3263E-01
     -4.944  0.7162E-02  0.3315E-01
     -4.871  0.1949E-02  0.3330E-01
     -4.797  0.4062E-03  0.3333E-01
     -4.723  0.6483E-04  0.3333E-01
     -4.649  0.7923E-05  0.3333E-01
     -4.576  0.7412E-06  0.3333E-01
     -4.502  0.5306E-07  0.3333E-01
     -4.428  0.2906E-08  0.3333E-01
     -4.354  0.1257E-09  0.3333E-01
     -4.280  0.1383E-09  0.3333E-01
     -4.207  0.3476E-08  0.3333E-01
     -4.133  0.6875E-07  0.3333E-01
     -4.059  0.1040E-05  0.3333E-01
     -3.985  0.1205E-04  0.3333E-01
     -3.912  0.1068E-03  0.3334E-01
     -3.838  0.7244E-03  0.3340E-01
     -3.764  0.3764E-02  0.3367E-01
     -3.690  0.1498E-01  0.3478E-01
     -3.617  0.4566E-01  0.3815E-01
     -3.543  0.1067E+00  0.4601E-01
     -3.469  0.1909E+00  0.6010E-01
     -3.395  0.2619E+00  0.7942E-01
     -3.321  0.2753E+00  0.9973E-01
     -3.248  0.2219E+00  0.1161E+00
     -3.174  0.1370E+00  0.1262E+00
     -3.100  0.6485E-01  0.1310E+00
     -3.026  0.2352E-01  0.1327E+00
     -2.953  0.6535E-02  0.1332E+00
     -2.879  0.1391E-02  0.1333E+00
     -2.805  0.2267E-03  0.1333E+00
     -2.731  0.2828E-04  0.1333E+00
     -2.657  0.2702E-05  0.1333E+00
     -2.584  0.1975E-06  0.1333E+00
     -2.510  0.1104E-07  0.1333E+00
     -2.436  0.4724E-09  0.1333E+00
     -2.362  0.1545E-10  0.1333E+00
     -2.289  0.3863E-12  0.1333E+00
     -2.215  0.7525E-14  0.1333E+00
     -2.141  0.0000E+00  0.1333E+00
     -2.067  0.0000E+00  0.1333E+00
     -1.994  0.0000E+00  0.1333E+00
     -1.920  0.0000E+00  0.1333E+00
     -1.846  0.0000E+00  0.1333E+00
     -1.772  0.0000E+00  0.1333E+00
     -1.698  0.7525E-16  0.1333E+00
     -1.625  0.3010E-14  0.1333E+00
     -1.551  0.1678E-12  0.1333E+00
     -1.477  0.7114E-11  0.1333E+00
     -1.403  0.2305E-09  0.1333E+00
     -1.330  0.5711E-08  0.1333E+00
     -1.256  0.1082E-06  0.1333E+00
     -1.182  0.1569E-05  0.1333E+00
     -1.108  0.1740E-04  0.1333E+00
     -1.034  0.1478E-03  0.1333E+00
     -0.961  0.9606E-03  0.1334E+00
     -0.887  0.4782E-02  0.1338E+00
     -0.813  0.1823E-01  0.1351E+00
     -0.739  0.5326E-01  0.1390E+00
     -0.666  0.1192E+00  0.1478E+00
     -0.592  0.2045E+00  0.1629E+00
     -0.518  0.2688E+00  0.1827E+00
     -0.444  0.2708E+00  0.2027E+00
     -0.370  0.2091E+00  0.2182E+00
     -0.297  0.1237E+00  0.2273E+00
     -0.223  0.5612E-01  0.2314E+00
     -0.149  0.1950E-01  0.2329E+00
     -0.075  0.5191E-02  0.2332E+00
     -0.002  0.1059E-02  0.2333E+00
      0.072  0.1653E-03  0.2333E+00
      0.146  0.1976E-04  0.2333E+00
      0.220  0.1808E-05  0.2333E+00
      0.293  0.1266E-06  0.2333E+00
      0.367  0.6784E-08  0.2333E+00
      0.441  0.2779E-09  0.2333E+00
      0.515  0.8708E-11  0.2333E+00
      0.589  0.2086E-12  0.2333E+00
      0.662  0.3913E-14  0.2333E+00
      0.736  0.0000E+00  0.2333E+00
      0.810  0.1756E-15  0.2333E+00
      0.884  0.1071E-13  0.2333E+00
      0.957  0.5080E-12  0.2333E+00
      1.031  0.1843E-10  0.2333E+00
      1.105  0.5110E-09  0.2333E+00
      1.179  0.1084E-07  0.2333E+00
      1.253  0.1758E-06  0.2333E+00
      1.326  0.2182E-05  0.2333E+00
      1.400  0.2072E-04  0.2333E+00
      1.474  0.1507E-03  0.2333E+00
      1.548  0.8392E-03  0.2334E+00
      1.621  0.3579E-02  0.2337E+00
      1.695  0.1169E-01  0.2345E+00
      1.769  0.2930E-01  0.2367E+00
      1.843  0.5642E-01  0.2409E+00
      1.916  0.8421E-01  0.2471E+00
      1.990  0.1007E+00  0.2545E+00
      2.064  0.1073E+00  0.2624E+00
      2.138  0.1254E+00  0.2717E+00
      2.212  0.1746E+00  0.2846E+00
      2.285  0.2418E+00  0.3024E+00
      2.359  0.2808E+00  0.3231E+00
      2.433  0.2561E+00  0.3420E+00
      2.507  0.1802E+00  0.3553E+00
      2.580  0.9733E-01  0.3625E+00
      2.654  0.4030E-01  0.3654E+00
      2.728  0.1278E-01  0.3664E+00
      2.802  0.3107E-02  0.3666E+00
      2.876  0.5784E-03  0.3667E+00
      2.949  0.8269E-04  0.3667E+00
      3.023  0.1233E-04  0.3667E+00
      3.097  0.3489E-04  0.3667E+00
      3.171  0.2675E-03  0.3667E+00
      3.244  0.1604E-02  0.3668E+00
      3.318  0.7366E-02  0.3674E+00
      3.392  0.2592E-01  0.3693E+00
      3.466  0.6986E-01  0.3744E+00
      3.539  0.1443E+00  0.3851E+00
      3.613  0.2284E+00  0.4019E+00
      3.687  0.2770E+00  0.4223E+00
      3.761  0.2576E+00  0.4413E+00
      3.835  0.1835E+00  0.4549E+00
      3.908  0.1002E+00  0.4623E+00
      3.982  0.4195E-01  0.4654E+00
      4.056  0.1345E-01  0.4664E+00
      4.130  0.3304E-02  0.4666E+00
      4.203  0.6216E-03  0.4667E+00
      4.277  0.8954E-04  0.4667E+00
      4.351  0.9889E-05  0.4667E+00
      4.425  0.1059E-05  0.4667E+00
      4.499  0.2982E-05  0.4667E+00
      4.572  0.2907E-04  0.4667E+00
      4.646  0.2210E-03  0.4667E+00
      4.720  0.1286E-02  0.4668E+00
      4.794  0.5732E-02  0.4672E+00
      4.867  0.1957E-01  0.4686E+00
      4.941  0.5120E-01  0.4724E+00
      5.015  0.1026E+00  0.4800E+00
      5.089  0.1577E+00  0.4916E+00
      5.162  0.1856E+00  0.5053E+00
      5.236  0.1675E+00  0.5177E+00
      5.310  0.1158E+00  0.5262E+00
      5.384  0.6140E-01  0.5308E+00
      5.458  0.2494E-01  0.5326E+00
      5.531  0.7760E-02  0.5332E+00
      5.605  0.1850E-02  0.5333E+00
      5.679  0.3377E-03  0.5333E+00
      5.753  0.4722E-04  0.5333E+00
      5.826  0.5053E-05  0.5333E+00
      5.900  0.4139E-06  0.5333E+00
      5.974  0.2594E-07  0.5333E+00
      6.048  0.1244E-08  0.5333E+00
      6.122  0.4560E-10  0.5333E+00
      6.195  0.1278E-11  0.5333E+00
      6.269  0.2757E-13  0.5333E+00
      6.343  0.4164E-14  0.5333E+00
      6.417  0.2081E-12  0.5333E+00
      6.490  0.8687E-11  0.5333E+00
      6.564  0.2773E-09  0.5333E+00
      6.638  0.6770E-08  0.5333E+00
      6.712  0.1264E-06  0.5333E+00
      6.785  0.1805E-05  0.5333E+00
      6.859  0.1973E-04  0.5333E+00
      6.933  0.1651E-03  0.5333E+00
      7.007  0.1057E-02  0.5334E+00
      7.081  0.5186E-02  0.5338E+00
      7.154  0.1948E-01  0.5352E+00
      7.228  0.5608E-01  0.5394E+00
      7.302  0.1237E+00  0.5485E+00
      7.376  0.2090E+00  0.5639E+00
      7.449  0.2708E+00  0.5839E+00
      7.523  0.2693E+00  0.6038E+00
      7.597  0.2068E+00  0.6190E+00
      7.671  0.1275E+00  0.6284E+00
      7.745  0.7575E-01  0.6340E+00
      7.818  0.6516E-01  0.6388E+00
      7.892  0.7986E-01  0.6447E+00
      7.966  0.9305E-01  0.6516E+00
      8.040  0.8673E-01  0.6580E+00
      8.113  0.6240E-01  0.6626E+00
      8.187  0.3445E-01  0.6651E+00
      8.261  0.1458E-01  0.6662E+00
      8.335  0.4726E-02  0.6666E+00
      8.408  0.1174E-02  0.6666E+00
      8.482  0.2233E-03  0.6667E+00
      8.556  0.3253E-04  0.6667E+00
      8.630  0.3632E-05  0.6667E+00
      8.704  0.3748E-06  0.6667E+00
      8.777  0.9733E-06  0.6667E+00
      8.851  0.1068E-04  0.6667E+00
      8.925  0.9154E-04  0.6667E+00
      8.999  0.6009E-03  0.6667E+00
      9.072  0.3021E-02  0.6669E+00
      9.146  0.1163E-01  0.6678E+00
      9.220  0.3430E-01  0.6703E+00
      9.294  0.7753E-01  0.6760E+00
      9.368  0.1343E+00  0.6860E+00
      9.441  0.1782E+00  0.6991E+00
      9.515  0.1813E+00  0.7125E+00
      9.589  0.1414E+00  0.7229E+00
      9.663  0.8448E-01  0.7291E+00
      9.736  0.3869E-01  0.7320E+00
      9.810  0.1359E-01  0.7330E+00
      9.884  0.3785E-02  0.7333E+00
      9.958  0.1643E-02  0.7334E+00
     10.031  0.4606E-02  0.7337E+00
     10.105  0.1732E-01  0.7350E+00
     10.179  0.5114E-01  0.7388E+00
     10.253  0.1158E+00  0.7473E+00
     10.327  0.2009E+00  0.7622E+00
     10.400  0.2671E+00  0.7819E+00
     10.474  0.2722E+00  0.8019E+00
     10.548  0.2126E+00  0.8176E+00
     10.622  0.1273E+00  0.8270E+00
     10.695  0.5837E-01  0.8313E+00
     10.769  0.2052E-01  0.8328E+00
     10.843  0.5525E-02  0.8332E+00
     10.917  0.1140E-02  0.8333E+00
     10.991  0.1805E-03  0.8333E+00
     11.064  0.2844E-04  0.8333E+00
     11.138  0.6530E-04  0.8333E+00
     11.212  0.4597E-03  0.8334E+00
     11.286  0.2557E-02  0.8336E+00
     11.359  0.1092E-01  0.8344E+00
     11.433  0.3586E-01  0.8370E+00
     11.507  0.9101E-01  0.8437E+00
     11.581  0.1803E+00  0.8570E+00
     11.654  0.2844E+00  0.8780E+00
     11.728  0.3691E+00  0.9052E+00
     11.802  0.4117E+00  0.9356E+00
     11.876  0.4083E+00  0.9657E+00
     11.950  0.3589E+00  0.9922E+00
     12.023  0.2694E+00  0.1012E+01
     12.097  0.1655E+00  0.1024E+01
     12.171  0.8058E-01  0.1030E+01
     12.245  0.3058E-01  0.1032E+01
     12.318  0.9022E-02  0.1033E+01
     12.392  0.2424E-02  0.1033E+01
     12.466  0.2297E-02  0.1034E+01
     12.540  0.7208E-02  0.1034E+01
     12.614  0.2017E-01  0.1036E+01
     12.687  0.4350E-01  0.1039E+01
     12.761  0.7191E-01  0.1044E+01
     12.835  0.9112E-01  0.1051E+01
     12.909  0.8848E-01  0.1057E+01
     12.982  0.6586E-01  0.1062E+01
     13.056  0.3756E-01  0.1065E+01
     13.130  0.1642E-01  0.1066E+01
     13.204  0.5499E-02  0.1067E+01
     13.277  0.1411E-02  0.1067E+01
     13.351  0.2773E-03  0.1067E+01
     13.425  0.4173E-04  0.1067E+01
     13.499  0.4808E-05  0.1067E+01
     13.573  0.4240E-06  0.1067E+01
     13.646  0.2861E-07  0.1067E+01
     13.720  0.1477E-08  0.1067E+01
     13.794  0.5831E-10  0.1067E+01
     13.868  0.1760E-11  0.1067E+01
     13.941  0.4063E-13  0.1067E+01
     14.015  0.7023E-15  0.1067E+01
     14.089  0.0000E+00  0.1067E+01
     14.163  0.0000E+00  0.1067E+01
     14.237  0.0000E+00  0.1067E+01
     14.310  0.0000E+00  0.1067E+01
     14.384  0.0000E+00  0.1067E+01
     14.458  0.0000E+00  0.1067E+01
     14.532  0.0000E+00  0.1067E+01
     14.605  0.0000E+00  0.1067E+01
     14.679  0.0000E+00  0.1067E+01
     14.753  0.0000E+00  0.1067E+01
     14.827  0.0000E+00  0.1067E+01
