    2    2   15    1
  0.2001288E+02  0.3839590E-09  0.3839590E-09  0.3839590E-09  0.5000000E-15
  1.000000000000000E-004
  CAR 
 unknown system                          
      8      2      8
 
  0.2500000E+00  0.2500000E+00  0.2500000E+00  0.2500000E+00
    1       -5.402160   1.000000
    2        1.744254   1.000000
    3        4.899322   1.000000
    4        4.899322   1.000000
    5        7.609293   0.000000
    6        9.173533   0.000000
    7        9.173533   0.000000
    8       12.374098   0.000000
 
 -0.2500000E+00  0.2500000E+00  0.2500000E+00  0.7500000E+00
    1       -3.525605   1.000000
    2       -0.700016   1.000000
    3        2.168011   1.000000
    4        3.467197   1.000000
    5        7.222799   0.000000
    6       10.134566   0.000000
    7       11.316460   0.000000
    8       11.602627   0.000000
