    2    2   15    1
  0.2001288E+02  0.3839590E-09  0.3839590E-09  0.3839590E-09  0.5000000E-15
  1.000000000000000E-004
  CAR 
 unknown system                          
      8      2      8
 
  0.2500000E+00  0.2500000E+00  0.2500000E+00  0.2500000E+00
    1       -5.305142   1.000000
    2        1.949506   1.000000
    3        5.133967   1.000000
    4        5.133967   1.000000
    5        7.948706   0.000000
    6        9.446045   0.000000
    7        9.446045   0.000000
    8       12.826696   0.000000
 
 -0.2500000E+00  0.2500000E+00  0.2500000E+00  0.7500000E+00
    1       -3.381285   1.000000
    2       -0.515976   1.000000
    3        2.335957   1.000000
    4        3.666804   1.000000
    5        7.447396   0.000000
    6       10.405565   0.000000
    7       11.686915   0.000000
    8       11.906201   0.000000
