 running on    8 total cores
 distrk:  each k-point on    8 cores,    1 groups
 distr:  one band on    1 cores,    8 groups
 using from now: INCAR     
 vasp.5.4.4.18Apr17-6-g9f103f2a35 (build Dec 09 2018 21:25:21) complex          
  
 POSCAR found type information on POSCAR  Si
 POSCAR found :  1 types and       2 ions
 scaLAPACK will be used

 ----------------------------------------------------------------------------- 
|                                                                             |
|           W    W    AA    RRRRR   N    N  II  N    N   GGGG   !!!           |
|           W    W   A  A   R    R  NN   N  II  NN   N  G    G  !!!           |
|           W    W  A    A  R    R  N N  N  II  N N  N  G       !!!           |
|           W WW W  AAAAAA  RRRRR   N  N N  II  N  N N  G  GGG   !            |
|           WW  WW  A    A  R   R   N   NN  II  N   NN  G    G                |
|           W    W  A    A  R    R  N    N  II  N    N   GGGG   !!!           |
|                                                                             |
|      For optimal performance we recommend to set                            |
|        NCORE= 4 - approx SQRT( number of cores)                             |
|      NCORE specifies how many cores store one orbital (NPAR=cpu/NCORE).     |
|      This setting can  greatly improve the performance of VASP for DFT.     |
|      The default,   NCORE=1            might be grossly inefficient         |
|      on modern multi-core architectures or massively parallel machines.     |
|      Do your own testing !!!!                                               |
|      Unfortunately you need to use the default for GW and RPA calculations. |
|      (for HF NCORE is supported but not extensively tested yet)             |
|                                                                             |
 ----------------------------------------------------------------------------- 

 LDA part: xc-table for Pade appr. of Perdew
 POSCAR, INCAR and KPOINTS ok, starting setup
 FFT: planning ...
 WAVECAR not read
 entering main loop
       N       E                     dE             d eps       ncg     rms          rms(c)
DAV:   1    -0.558439865871E+01   -0.55844E+01   -0.18157E+03    40   0.306E+02
DAV:   2    -0.107537469810E+02   -0.51693E+01   -0.39751E+01    48   0.381E+01
DAV:   3    -0.107854256251E+02   -0.31679E-01   -0.31679E-01    32   0.362E+00
DAV:   4    -0.107855022224E+02   -0.76597E-04   -0.76597E-04    56   0.191E-01
DAV:   5    -0.107855022264E+02   -0.39954E-08   -0.39913E-08    24   0.173E-03    0.308E+00
DAV:   6    -0.106481740463E+02    0.13733E+00   -0.83674E-02    32   0.149E+00    0.182E+00
DAV:   7    -0.105852019771E+02    0.62972E-01   -0.15962E-01    40   0.217E+00    0.157E-01
DAV:   8    -0.105869566341E+02   -0.17547E-02   -0.40954E-03    32   0.450E-01    0.261E-02
DAV:   9    -0.105870849609E+02   -0.12833E-03   -0.11723E-04    32   0.826E-02
   1 F= -.10587085E+02 E0= -.10587085E+02  d E =-.105871E+02
 curvature:   0.00 expect dE= 0.000E+00 dE for cont linesearch  0.000E+00
 trial: gam= 0.00000 g(F)=  0.557E-44 g(S)=  0.000E+00 ort = 0.000E+00 (trialstep = 0.100E+01)
 search vector abs. value=  0.100E-09
 reached required accuracy - stopping structural energy minimisation
 writing wavefunctions
