   2   2   0   0
  0.2001288E+02  0.3839590E-09  0.3839590E-09  0.3839590E-09  0.5000000E-15
  1.000000000000000E-004
  CAR 
 unknown system                          
     16.64006408     -8.12173684  301      6.17344477      1.00000000
     -8.122  0.0000E+00  0.0000E+00
     -8.039  0.0000E+00  0.0000E+00
     -7.957  0.0000E+00  0.0000E+00
     -7.874  0.0000E+00  0.0000E+00
     -7.792  0.0000E+00  0.0000E+00
     -7.709  0.0000E+00  0.0000E+00
     -7.627  0.0000E+00  0.0000E+00
     -7.544  0.0000E+00  0.0000E+00
     -7.461  0.0000E+00  0.0000E+00
     -7.379  0.0000E+00  0.0000E+00
     -7.296  0.7174E-18  0.5921E-19
     -7.214  0.7317E-16  0.6099E-17
     -7.131  0.6025E-14  0.5034E-15
     -7.049  0.3539E-12  0.2972E-13
     -6.966  0.1486E-10  0.1256E-11
     -6.884  0.4464E-09  0.3810E-10
     -6.801  0.9594E-08  0.8300E-09
     -6.719  0.1476E-06  0.1302E-07
     -6.636  0.1627E-05  0.1473E-06
     -6.553  0.1286E-04  0.1209E-05
     -6.471  0.7283E-04  0.7220E-05
     -6.388  0.2960E-03  0.3165E-04
     -6.306  0.8631E-03  0.1029E-03
     -6.223  0.1807E-02  0.2521E-03
     -6.141  0.2723E-02  0.4768E-03
     -6.058  0.2991E-02  0.7237E-03
     -5.976  0.2646E-02  0.9421E-03
     -5.893  0.2949E-02  0.1186E-02
     -5.811  0.6004E-02  0.1681E-02
     -5.728  0.1329E-01  0.2778E-02
     -5.646  0.2343E-01  0.4711E-02
     -5.563  0.3188E-01  0.7343E-02
     -5.480  0.3436E-01  0.1018E-01
     -5.398  0.3005E-01  0.1266E-01
     -5.315  0.2131E-01  0.1442E-01
     -5.233  0.1202E-01  0.1541E-01
     -5.150  0.5600E-02  0.1587E-01
     -5.068  0.3819E-02  0.1619E-01
     -4.985  0.7589E-02  0.1681E-01
     -4.903  0.1715E-01  0.1823E-01
     -4.820  0.2911E-01  0.2063E-01
     -4.738  0.3573E-01  0.2358E-01
     -4.655  0.3241E-01  0.2626E-01
     -4.573  0.2525E-01  0.2834E-01
     -4.490  0.2738E-01  0.3060E-01
     -4.407  0.4690E-01  0.3447E-01
     -4.325  0.7628E-01  0.4077E-01
     -4.242  0.9385E-01  0.4851E-01
     -4.160  0.8394E-01  0.5544E-01
     -4.077  0.5429E-01  0.5992E-01
     -3.995  0.2538E-01  0.6202E-01
     -3.912  0.8623E-02  0.6273E-01
     -3.830  0.2462E-02  0.6293E-01
     -3.747  0.2465E-02  0.6314E-01
     -3.665  0.8630E-02  0.6385E-01
     -3.582  0.2525E-01  0.6593E-01
     -3.500  0.5334E-01  0.7034E-01
     -3.417  0.8106E-01  0.7703E-01
     -3.334  0.8924E-01  0.8439E-01
     -3.252  0.7393E-01  0.9049E-01
     -3.169  0.5464E-01  0.9500E-01
     -3.087  0.5210E-01  0.9930E-01
     -3.004  0.6465E-01  0.1046E+00
     -2.922  0.7215E-01  0.1106E+00
     -2.839  0.6070E-01  0.1156E+00
     -2.757  0.3701E-01  0.1187E+00
     -2.674  0.1627E-01  0.1200E+00
     -2.592  0.5440E-02  0.1205E+00
     -2.509  0.2796E-02  0.1207E+00
     -2.427  0.5989E-02  0.1212E+00
     -2.344  0.1474E-01  0.1224E+00
     -2.261  0.2680E-01  0.1246E+00
     -2.179  0.3504E-01  0.1275E+00
     -2.096  0.3293E-01  0.1302E+00
     -2.014  0.2237E-01  0.1321E+00
     -1.931  0.1173E-01  0.1330E+00
     -1.849  0.7654E-02  0.1337E+00
     -1.766  0.1206E-01  0.1347E+00
     -1.684  0.2285E-01  0.1365E+00
     -1.601  0.3322E-01  0.1393E+00
     -1.519  0.3489E-01  0.1422E+00
     -1.436  0.2634E-01  0.1443E+00
     -1.354  0.1433E-01  0.1455E+00
     -1.271  0.5995E-02  0.1460E+00
     -1.188  0.3955E-02  0.1463E+00
     -1.106  0.9805E-02  0.1472E+00
     -1.023  0.2757E-01  0.1494E+00
     -0.941  0.5939E-01  0.1543E+00
     -0.858  0.9715E-01  0.1623E+00
     -0.776  0.1229E+00  0.1725E+00
     -0.693  0.1229E+00  0.1826E+00
     -0.611  0.1002E+00  0.1909E+00
     -0.528  0.7272E-01  0.1969E+00
     -0.446  0.5518E-01  0.2015E+00
     -0.363  0.4681E-01  0.2053E+00
     -0.280  0.3820E-01  0.2085E+00
     -0.198  0.2566E-01  0.2106E+00
     -0.115  0.1322E-01  0.2117E+00
     -0.033  0.5109E-02  0.2121E+00
      0.050  0.1520E-02  0.2122E+00
      0.132  0.7648E-03  0.2123E+00
      0.215  0.2470E-02  0.2125E+00
      0.297  0.9179E-02  0.2133E+00
      0.380  0.2493E-01  0.2153E+00
      0.462  0.4863E-01  0.2193E+00
      0.545  0.6811E-01  0.2250E+00
      0.627  0.6852E-01  0.2306E+00
      0.710  0.4949E-01  0.2347E+00
      0.793  0.2567E-01  0.2368E+00
      0.875  0.9584E-02  0.2376E+00
      0.958  0.2737E-02  0.2378E+00
      1.040  0.1492E-02  0.2380E+00
      1.123  0.4023E-02  0.2383E+00
      1.205  0.1121E-01  0.2392E+00
      1.288  0.2281E-01  0.2411E+00
      1.370  0.3352E-01  0.2439E+00
      1.453  0.3639E-01  0.2469E+00
      1.535  0.3274E-01  0.2496E+00
      1.618  0.3448E-01  0.2524E+00
      1.700  0.5236E-01  0.2567E+00
      1.783  0.8165E-01  0.2635E+00
      1.866  0.1017E+00  0.2719E+00
      1.948  0.9479E-01  0.2797E+00
      2.031  0.6573E-01  0.2851E+00
      2.113  0.3617E-01  0.2881E+00
      2.196  0.2408E-01  0.2901E+00
      2.278  0.3347E-01  0.2929E+00
      2.361  0.5515E-01  0.2974E+00
      2.443  0.7118E-01  0.3033E+00
      2.526  0.6936E-01  0.3090E+00
      2.608  0.5927E-01  0.3139E+00
      2.691  0.6453E-01  0.3192E+00
      2.773  0.9443E-01  0.3270E+00
      2.856  0.1286E+00  0.3376E+00
      2.939  0.1398E+00  0.3492E+00
      3.021  0.1307E+00  0.3600E+00
      3.104  0.1304E+00  0.3707E+00
      3.186  0.1486E+00  0.3830E+00
      3.269  0.1589E+00  0.3961E+00
      3.351  0.1353E+00  0.4073E+00
      3.434  0.8650E-01  0.4144E+00
      3.516  0.4213E-01  0.4179E+00
      3.599  0.2105E-01  0.4196E+00
      3.681  0.2458E-01  0.4217E+00
      3.764  0.4520E-01  0.4254E+00
      3.846  0.6932E-01  0.4311E+00
      3.929  0.8329E-01  0.4380E+00
      4.012  0.8648E-01  0.4451E+00
      4.094  0.8851E-01  0.4524E+00
      4.177  0.9095E-01  0.4599E+00
      4.259  0.8651E-01  0.4671E+00
      4.342  0.7353E-01  0.4732E+00
      4.424  0.5730E-01  0.4779E+00
      4.507  0.4359E-01  0.4815E+00
      4.589  0.3826E-01  0.4846E+00
      4.672  0.4345E-01  0.4882E+00
      4.754  0.5195E-01  0.4925E+00
      4.837  0.5458E-01  0.4970E+00
      4.919  0.5182E-01  0.5013E+00
      5.002  0.4983E-01  0.5054E+00
      5.085  0.5038E-01  0.5096E+00
      5.167  0.5245E-01  0.5139E+00
      5.250  0.5527E-01  0.5185E+00
      5.332  0.5415E-01  0.5229E+00
      5.415  0.4366E-01  0.5265E+00
      5.497  0.2681E-01  0.5287E+00
      5.580  0.1240E-01  0.5298E+00
      5.662  0.5350E-02  0.5302E+00
      5.745  0.4609E-02  0.5306E+00
      5.827  0.6876E-02  0.5312E+00
      5.910  0.8787E-02  0.5319E+00
      5.992  0.8226E-02  0.5326E+00
      6.075  0.5627E-02  0.5330E+00
      6.158  0.3232E-02  0.5333E+00
      6.240  0.3101E-02  0.5335E+00
      6.323  0.6234E-02  0.5341E+00
      6.405  0.1194E-01  0.5350E+00
      6.488  0.1699E-01  0.5364E+00
      6.570  0.1781E-01  0.5379E+00
      6.653  0.1514E-01  0.5392E+00
      6.735  0.1465E-01  0.5404E+00
      6.818  0.2096E-01  0.5421E+00
      6.900  0.3157E-01  0.5447E+00
      6.983  0.3864E-01  0.5479E+00
      7.066  0.3833E-01  0.5511E+00
      7.148  0.3545E-01  0.5540E+00
      7.231  0.3613E-01  0.5570E+00
      7.313  0.4097E-01  0.5604E+00
      7.396  0.4815E-01  0.5643E+00
      7.478  0.5827E-01  0.5691E+00
      7.561  0.7247E-01  0.5751E+00
      7.643  0.8683E-01  0.5823E+00
      7.726  0.9349E-01  0.5900E+00
      7.808  0.9185E-01  0.5976E+00
      7.891  0.9121E-01  0.6051E+00
      7.973  0.9462E-01  0.6129E+00
      8.056  0.9154E-01  0.6205E+00
      8.139  0.7413E-01  0.6266E+00
      8.221  0.4881E-01  0.6306E+00
      8.304  0.2753E-01  0.6329E+00
      8.386  0.1610E-01  0.6342E+00
      8.469  0.1261E-01  0.6353E+00
      8.551  0.1329E-01  0.6364E+00
      8.634  0.1776E-01  0.6378E+00
      8.716  0.2694E-01  0.6401E+00
      8.799  0.3762E-01  0.6432E+00
      8.881  0.4474E-01  0.6469E+00
      8.964  0.4969E-01  0.6510E+00
      9.046  0.6071E-01  0.6560E+00
      9.129  0.8545E-01  0.6630E+00
      9.212  0.1242E+00  0.6733E+00
      9.294  0.1623E+00  0.6867E+00
      9.377  0.1729E+00  0.7009E+00
      9.459  0.1459E+00  0.7130E+00
      9.542  0.1065E+00  0.7218E+00
      9.624  0.8851E-01  0.7291E+00
      9.707  0.9822E-01  0.7372E+00
      9.789  0.1176E+00  0.7469E+00
      9.872  0.1315E+00  0.7578E+00
      9.954  0.1362E+00  0.7690E+00
     10.037  0.1308E+00  0.7798E+00
     10.119  0.1184E+00  0.7896E+00
     10.202  0.1117E+00  0.7988E+00
     10.285  0.1193E+00  0.8086E+00
     10.367  0.1334E+00  0.8196E+00
     10.450  0.1406E+00  0.8312E+00
     10.532  0.1394E+00  0.8427E+00
     10.615  0.1398E+00  0.8543E+00
     10.697  0.1530E+00  0.8669E+00
     10.780  0.1746E+00  0.8813E+00
     10.862  0.1798E+00  0.8962E+00
     10.945  0.1493E+00  0.9085E+00
     11.027  0.9532E-01  0.9164E+00
     11.110  0.4903E-01  0.9204E+00
     11.192  0.3046E-01  0.9229E+00
     11.275  0.3945E-01  0.9262E+00
     11.358  0.6191E-01  0.9313E+00
     11.440  0.7870E-01  0.9378E+00
     11.523  0.7932E-01  0.9443E+00
     11.605  0.6863E-01  0.9500E+00
     11.688  0.5580E-01  0.9546E+00
     11.770  0.4471E-01  0.9583E+00
     11.853  0.3674E-01  0.9613E+00
     11.935  0.3154E-01  0.9639E+00
     12.018  0.2565E-01  0.9660E+00
     12.100  0.1717E-01  0.9675E+00
     12.183  0.8687E-02  0.9682E+00
     12.265  0.3211E-02  0.9684E+00
     12.348  0.8569E-03  0.9685E+00
     12.431  0.1643E-03  0.9685E+00
     12.513  0.2261E-04  0.9685E+00
     12.596  0.2231E-05  0.9685E+00
     12.678  0.1578E-06  0.9685E+00
     12.761  0.1132E-07  0.9685E+00
     12.843  0.8115E-07  0.9685E+00
     12.926  0.1401E-05  0.9685E+00
     13.008  0.1739E-04  0.9685E+00
     13.091  0.1549E-03  0.9685E+00
     13.173  0.9913E-03  0.9686E+00
     13.256  0.4574E-02  0.9690E+00
     13.338  0.1532E-01  0.9703E+00
     13.421  0.3773E-01  0.9734E+00
     13.504  0.7013E-01  0.9792E+00
     13.586  0.1026E+00  0.9876E+00
     13.669  0.1245E+00  0.9979E+00
     13.751  0.1295E+00  0.1009E+01
     13.834  0.1157E+00  0.1018E+01
     13.916  0.9016E-01  0.1026E+01
     13.999  0.6640E-01  0.1031E+01
     14.081  0.5016E-01  0.1035E+01
     14.164  0.3713E-01  0.1038E+01
     14.246  0.2626E-01  0.1040E+01
     14.329  0.2370E-01  0.1042E+01
     14.412  0.3337E-01  0.1045E+01
     14.494  0.4990E-01  0.1049E+01
     14.577  0.6175E-01  0.1054E+01
     14.659  0.6015E-01  0.1059E+01
     14.742  0.4561E-01  0.1063E+01
     14.824  0.2656E-01  0.1065E+01
     14.907  0.1167E-01  0.1066E+01
     14.989  0.3804E-02  0.1067E+01
     15.072  0.9089E-03  0.1067E+01
     15.154  0.1577E-03  0.1067E+01
     15.237  0.1978E-04  0.1067E+01
     15.319  0.1784E-05  0.1067E+01
     15.402  0.1156E-06  0.1067E+01
     15.485  0.5368E-08  0.1067E+01
     15.567  0.1786E-09  0.1067E+01
     15.650  0.4250E-11  0.1067E+01
     15.732  0.7233E-13  0.1067E+01
     15.815  0.8953E-15  0.1067E+01
     15.897  0.0000E+00  0.1067E+01
     15.980  0.0000E+00  0.1067E+01
     16.062  0.0000E+00  0.1067E+01
     16.145  0.0000E+00  0.1067E+01
     16.227  0.0000E+00  0.1067E+01
     16.310  0.0000E+00  0.1067E+01
     16.392  0.0000E+00  0.1067E+01
     16.475  0.0000E+00  0.1067E+01
     16.558  0.0000E+00  0.1067E+01
     16.640  0.0000E+00  0.1067E+01
