    2    2   15    1
  0.2001288E+02  0.3839590E-09  0.3839590E-09  0.3839590E-09  0.5000000E-15
  1.000000000000000E-004
  CAR 
 unknown system                          
      8     10      8
 
  0.0000000E+00  0.0000000E+00  0.0000000E+00  0.8000000E-02
    1       -6.121737   1.000000
    2        5.893467   0.976134
    3        5.893467   0.976134
    4        5.893774   0.976011
    5        8.465137   0.000000
    6        8.465137   0.000000
    7        8.465346   0.000000
    8        9.214964   0.000000
 
  0.2000000E+00  0.1993820E-16  0.3023569E-17  0.6400000E-01
    1       -5.603337   1.000000
    2        2.855724   1.000000
    3        5.299962   1.000000
    4        5.300190   1.000000
    5        8.122397   0.000000
    6        9.281111   0.000000
    7        9.281450   0.000000
    8       11.937056   0.000000
 
  0.4000000E+00  0.3987640E-16  0.6047138E-17  0.6400000E-01
    1       -4.237573   1.000000
    2       -0.423519   1.000000
    3        4.743958   1.000000
    4        4.744178   1.000000
    5        7.509295   0.000000
    6        9.368111   0.000000
    7        9.368483   0.000000
    8       13.724722   0.000000
 
  0.2000000E+00  0.2000000E+00  0.4572614E-17  0.4800000E-01
    1       -5.424908   1.000000
    2        3.247404   1.000000
    3        4.379608   1.000000
    4        4.379764   1.000000
    5        7.362885   0.000000
    6        9.828588   0.000000
    7       10.837012   0.000000
    8       10.837227   0.000000
 
  0.4000000E+00  0.2000000E+00  0.1623023E-16  0.1920000E+00
    1       -4.281146   1.000000
    2        0.546359   1.000000
    3        3.238746   1.000000
    4        3.864113   1.000000
    5        7.685469   0.000000
    6       10.019493   0.000000
    7       10.868647   0.000000
    8       11.404594   0.000000
 
 -0.4000000E+00  0.2000000E+00  0.9097260E-17  0.1920000E+00
    1       -3.393669   1.000000
    2       -0.854139   1.000000
    3        2.424625   1.000000
    4        4.152649   1.000000
    5        7.974142   0.000000
    6       10.539494   0.000000
    7       10.766589   0.000000
    8       13.551819   0.000000
 
 -0.2000000E+00  0.2000000E+00  0.1212083E-16  0.9600000E-01
    1       -4.770143   1.000000
    2        1.382058   1.000000
    3        2.859304   1.000000
    4        5.029257   1.000000
    5        8.807917   0.000000
    6        9.916917   0.000000
    7       10.258805   0.000000
    8       11.652659   0.000000
 
  0.4000000E+00  0.4000000E+00  0.9145228E-17  0.4800000E-01
    1       -3.403312   1.000000
    2       -0.324563   1.000000
    3        3.158728   1.000000
    4        3.158861   1.000000
    5        6.492862   0.011954
    6        7.221529   0.000000
    7       14.496793   0.000000
    8       14.497074   0.000000
 
 -0.4000000E+00  0.4000000E+00  0.2424166E-16  0.9600000E-01
    1       -2.194591   1.000000
    2       -1.588733   1.000000
    3        1.787366   1.000000
    4        3.277632   1.000000
    5        6.942150   0.000000
    6        9.078305   0.000000
    7       14.055087   0.000000
    8       14.640064   0.000000
 
 -0.4000000E+00  0.4000000E+00  0.2000000E+00  0.1920000E+00
    1       -2.962109   1.000000
    2       -0.708459   1.000000
    3        1.874908   1.000000
    4        2.865453   1.000000
    5        9.332944   0.000000
    6        9.720757   0.000000
    7       10.359510   0.000000
    8       13.770602   0.000000
