unknown system                          
   1.00000000000000     
    -2.450000    2.450000    1.274000
     2.450000   -2.450000    1.274000
     2.450000    2.450000   -1.274000
   Si
     2
Direct
  0.250000  0.750000  0.500000
  0.000000  0.000000  0.000000
 
   28   28   28
 -5.4694     -3.9346     0.54965E-01  4.9735      9.1346      11.430      11.680      10.494      8.8044      7.1942    
  5.8374      4.8004      4.0860      3.6715      3.5358      3.6714      4.0861      4.8006      5.8375      7.1941    
  8.8044      10.494      11.680      11.430      9.1346      4.9735     0.54784E-01 -3.9349     -3.9349     -4.7272    
 -2.5767      1.6513      6.3572      9.9810      11.655      11.426      10.021      8.3307      6.7830      5.5133    
  4.5674      3.9377      3.5999      3.5357      3.7413      4.2280      5.0181      6.1309      7.5524      9.1985    
  10.850      11.813      11.190      8.5222      4.1994     -.51454     0.54784E-01 -2.5769     -2.6387     -.11433    
  3.9676      8.0639      10.851      11.751      11.022      9.4541      7.8021      6.3415      5.1757      4.3306    
  3.7901      3.5300      3.5355      3.8063      4.3564      5.2087      6.3776      7.8389      9.4935      11.083    
  11.868      11.038      8.2990      4.1994      4.9735      1.6512     -.11441     0.41620      3.0069      6.5769    
  9.7579      11.537      11.633      10.471      8.8317      7.2475      5.8937      4.8425      4.1019      3.6504    
  3.4653      3.5353      3.8633      4.4648      5.3620      6.5644      8.0384      9.6759      11.197      11.882    
  11.038      8.5222      9.1346      6.3572      3.9676      3.0070      3.9058      6.2557      9.0347      11.137    
  11.887      11.271      9.8154      8.1887      6.6978      5.4638      4.5307      3.8926      3.5254      3.4091    
  3.5354      3.9093      4.5471      5.4695      6.6808      8.1408      9.7376      11.197      11.868      11.190    
  11.430      9.9810      8.0639      6.5770      6.2559      7.2713      9.1367      10.980      12.001      11.845    
  10.703      9.1259      7.5617      6.1829      5.0739      4.2555      3.7127      3.4214      3.3644      3.5358    
  3.9417      4.5987      5.5249      6.7203      8.1408      9.6759      11.083      11.813      11.680      11.655    
  10.851      9.7579      9.0348      9.1369      10.049      11.294      12.207      12.291      11.458      10.027    
  8.4578      6.9857      5.7293      4.7425      4.0295      3.5706      3.3436      3.3335      3.5362      3.9585    
  4.6162      5.5249      6.6808      8.0384      9.4935      10.850      10.494      11.426      11.751      11.537    
  11.137      10.980      11.295      11.960      12.573      12.691      12.084      10.855      9.3544      7.8519    
  6.4912      5.3580      4.4834      3.8618      3.4725      3.2954      3.3178      3.5364      3.9585      4.5987    
  5.4695      6.5644      7.8389      9.1985      8.8044      10.021      11.022      11.633      11.887      12.001    
  12.207      12.573      12.942      13.020      12.571      11.564      10.208      8.7495      7.3440      6.1021    
  5.0838      4.3061      3.7589      3.4225      3.2792      3.3178      3.5362      3.9417      4.5471      5.3620    
  6.3776      7.5524      7.1941      8.3306      9.4541      10.471      11.271      11.845      12.291      12.691    
  13.020      13.130      12.845      12.087      10.955      9.6283      8.2554      6.9621      5.8345      4.9161    
  4.2162      3.7242      3.4225      3.2954      3.3335      3.5358      3.9093      4.4648      5.2087      6.1309    
  5.8375      6.7829      7.8020      8.8317      9.8155      10.703      11.458      12.084      12.571      12.845    
  12.795      12.343      11.516      10.418      9.1724      7.9067      6.7256      5.6986      4.8597      4.2162    
  3.7589      3.4725      3.3436      3.3644      3.5354      3.8633      4.3564      5.0181      4.8006      5.5134    
  6.3414      7.2474      8.1887      9.1260      10.027      10.855      11.564      12.087      12.343      12.257    
  11.808      11.034      10.021      8.8816      7.7264      6.6455      5.6986      4.9161      4.3061      3.8618    
  3.5706      3.4214      3.4091      3.5353      3.8063      4.2280      4.0861      4.5675      5.1758      5.8936    
  6.6977      7.5616      8.4578      9.3544      10.208      10.955      11.516      11.808      11.773      11.397    
  10.716      9.8109      8.7817      7.7264      6.7256      5.8345      5.0838      4.4834      4.0295      3.7127    
  3.5254      3.4653      3.5355      3.7413      3.6714      3.9377      4.3306      4.8425      5.4638      6.1829    
  6.9856      7.8519      8.7495      9.6283      10.418      11.034      11.397      11.448      11.173      10.605    
  9.8109      8.8816      7.9067      6.9621      6.1021      5.3580      4.7425      4.2555      3.8926      3.6504    
  3.5300      3.5357      3.5358      3.5997      3.7899      4.1018      4.5307      5.0739      5.7293      6.4912    
  7.3440      8.2554      9.1724      10.021      10.716      11.173      11.333      11.173      10.716      10.021    
  9.1724      8.2554      7.3440      6.4912      5.7293      5.0739      4.5307      4.1019      3.7901      3.5999    
  3.6715      3.5356      3.5297      3.6501      3.8924      4.2555      4.7425      5.3580      6.1021      6.9621    
  7.9066      8.8816      9.8109      10.605      11.173      11.448      11.397      11.034      10.418      9.6283    
  8.7495      7.8519      6.9857      6.1829      5.4638      4.8425      4.3306      3.9377      4.0860      3.7413    
  3.5353      3.4650      3.5251      3.7126      4.0294      4.4834      5.0839      5.8346      6.7255      7.7264    
  8.7817      9.8109      10.716      11.397      11.773      11.808      11.516      10.955      10.208      9.3544    
  8.4578      7.5617      6.6978      5.8937      5.1757      4.5674      4.8004      4.2278      3.8061      3.5351    
  3.4089      3.4213      3.5705      3.8618      4.3062      4.9162      5.6986      6.6455      7.7264      8.8816    
  10.021      11.034      11.808      12.257      12.343      12.087      11.564      10.855      10.027      9.1259    
  8.1887      7.2475      6.3415      5.5133      5.8374      5.0179      4.3562      3.8630      3.5353      3.3643    
  3.3435      3.4725      3.7589      4.2163      4.8598      5.6986      6.7255      7.9066      9.1724      10.418    
  11.516      12.343      12.795      12.845      12.571      12.084      11.458      10.703      9.8154      8.8317    
  7.8021      6.7830      7.1942      6.1308      5.2085      4.4646      3.9091      3.5357      3.3335      3.2955    
  3.4226      3.7242      4.2163      4.9162      5.8346      6.9621      8.2554      9.6283      10.955      12.087    
  12.845      13.130      13.020      12.691      12.291      11.845      11.271      10.471      9.4541      8.3307    
  8.8044      7.5525      6.3777      5.3619      4.5470      3.9416      3.5362      3.3178      3.2793      3.4226    
  3.7589      4.3062      5.0839      6.1021      7.3440      8.7495      10.208      11.564      12.571      13.020    
  12.942      12.573      12.207      12.001      11.887      11.633      11.022      10.021      10.494      9.1985    
  7.8389      6.5644      5.4695      4.5986      3.9584      3.5364      3.3178      3.2955      3.4725      3.8618    
  4.4834      5.3580      6.4912      7.8519      9.3544      10.855      12.084      12.691      12.573      11.960    
  11.294      10.980      11.137      11.537      11.751      11.426      11.680      10.850      9.4935      8.0384    
  6.6809      5.5250      4.6162      3.9584      3.5362      3.3335      3.3435      3.5705      4.0294      4.7425    
  5.7293      6.9856      8.4578      10.027      11.458      12.291      12.207      11.295      10.049      9.1367    
  9.0347      9.7579      10.851      11.655      11.430      11.813      11.083      9.6758      8.1407      6.7204    
  5.5250      4.5986      3.9416      3.5357      3.3643      3.4213      3.7126      4.2555      5.0739      6.1829    
  7.5616      9.1260      10.703      11.845      12.001      10.980      9.1369      7.2713      6.2557      6.5769    
  8.0639      9.9810      9.1346      11.190      11.869      11.198      9.7375      8.1407      6.6809      5.4695    
  4.5470      3.9091      3.5353      3.4089      3.5251      3.8924      4.5307      5.4638      6.6977      8.1887    
  9.8155      11.271      11.887      11.137      9.0348      6.2559      3.9058      3.0069      3.9676      6.3572    
  4.9735      8.5222      11.038      11.882      11.198      9.6758      8.0384      6.5644      5.3619      4.4646    
  3.8630      3.5351      3.4650      3.6501      4.1018      4.8425      5.8936      7.2474      8.8317      10.471    
  11.633      11.537      9.7579      6.5770      3.0070     0.41620     -.11433      1.6513     0.54965E-01  4.1994    
  8.2990      11.038      11.869      11.083      9.4935      7.8389      6.3777      5.2085      4.3562      3.8061    
  3.5353      3.5297      3.7899      4.3306      5.1758      6.3414      7.8020      9.4541      11.022      11.751    
  10.851      8.0639      3.9676     -.11441     -2.6387     -2.5767     -3.9346     -.51432      4.1994      8.5222    
  11.190      11.813      10.850      9.1985      7.5525      6.1308      5.0179      4.2278      3.7413      3.5356    
  3.5997      3.9377      4.5675      5.5134      6.7829      8.3306      10.021      11.426      11.655      9.9810    
  6.3572      1.6512     -2.5769     -4.7272     -3.9343     -2.8228     0.65227      5.1395      9.0498      11.270    
  11.544      10.399      8.7206      7.1024      5.7276      4.6679      3.9290      3.4870      3.3176      3.4101    
  3.7708      4.4210      5.3870      6.6740      8.2294      9.9066      11.243      11.360      9.6055      6.0338    
  1.5752     -2.2379     -2.8231     -3.9344     -2.2378      1.5752      6.0337      9.6056      11.360      11.243    
  9.9066      8.2295      6.6741      5.3870      4.4209      3.7708      3.4102      3.3176      3.4870      3.9291    
  4.6680      5.7275      7.1022      8.7206      10.399      11.544      11.270      9.0498      5.1396     0.65215    
 0.77241     -2.1060     -2.5765     -.46473      3.3524      7.3987      10.311      11.407      10.837      9.3383    
  7.6968      6.2276      5.0455      4.1835      3.6272      3.3497      3.3334      3.5771      4.0951      4.9129    
  6.0501      7.4905      9.1465      10.797      11.770      11.234      8.8097      4.9206      5.4360      1.9180    
 -.22072     -.11417      2.1618      5.6347      8.9387      10.968      11.316      10.316      8.7264      7.1487    
  5.7850      4.7195      3.9662      3.5041      3.3079      3.3645      3.6765      4.2611      5.1434      6.3378    
  7.8183      9.4858      11.092      11.948      11.319      8.9696      9.5080      6.5849      3.8689      2.4838    
  3.0070      5.1681      7.9997      10.343      11.399      11.031      9.6999      8.1018      6.6120      5.3678    
  4.4238      3.7783      3.4066      3.2866      3.4092      3.7803      4.4184      5.3467      6.5745      8.0675    
  9.7202      11.278      12.089      11.537      11.839      10.303      8.1320      6.2579      5.5281      6.2558    
  8.0537      10.053      11.363      11.500      10.553      9.0437      7.4951      6.1132      4.9956      4.1713    
  3.6274      3.3387      3.2866      3.4655      3.8831      4.5581      5.5111      6.7462      8.2232      9.8351    
  11.343      12.177      12.175      12.130      11.166      9.7683      8.6598      8.4147      9.1367      10.404    
  11.515      11.868      11.262      9.9436      8.4035      6.9370      5.6760      4.6847      3.9724      3.5199    
  3.3034      3.3079      3.5303      3.9791      4.6719      5.6266      6.8420      8.2748      9.8208      11.276    
  11.061      12.036      12.300      11.893      11.188      10.691      10.738      11.294      11.974      12.274    
  11.867      10.769      9.3075      7.8166      6.4558      5.3203      4.4478      3.8348      3.4600      3.3023    
  3.3496      3.6003      4.0627      4.7532      5.6857      6.8553      8.2173      9.6738      9.3985      10.697    
  11.722      12.254      12.316      12.159      12.090      12.264      12.573      12.715      12.390      11.488    
  10.169      8.7211      7.3173      6.0750      5.0606      4.2936      3.7638      3.4507      3.3361      3.4101    
  3.6718      4.1294      4.7969      5.6848      6.7843      8.0517      7.7860      9.0078      10.197      11.227    
  11.948      12.352      12.576      12.766      12.955      13.020      12.762      12.050      10.932      9.6034    
  8.2284      6.9345      5.8121      4.9067      4.2274      3.7624      3.4931      3.4040      3.4869      3.7415    
  4.1757      4.8008      5.6235      6.6324      6.4078      7.4346      8.5232      9.5965      10.581      11.398    
  12.014      12.466      12.790      12.952      12.845      12.368      11.514      10.395      9.1367      7.8663    
  6.6901      5.6783      4.8639      4.2519      3.8314      3.5865      3.5039      3.5768      3.8062      4.1993    
  4.7648      5.5054      5.3370      6.1232      7.0179      7.9736      8.9353      9.8528      10.688      11.403    
  11.973      12.364      12.511      12.343      11.829      11.010      9.9688      8.8158      7.6625      6.5980    
  5.6796      4.9344      4.3672      3.9695      3.7281      3.6319      3.6761      3.8630      4.1992      4.6909    
  4.5831      5.1276      5.7950      6.5609      7.3927      8.2546      9.1124      9.9335      10.682      11.308    
  11.748      11.932      11.808      11.364      10.637      9.7072      8.6738      7.6341      6.6651      5.8175    
  5.1172      4.5708      4.1729      3.9128      3.7825      3.7799      3.9088      4.1755      4.1291      4.4471    
  4.8889      5.4422      6.0907      6.8156      7.5959      8.4082      9.2223      9.9956      10.669      11.171    
  11.430      11.397      11.059      10.452      9.6452      8.7283      7.7869      6.8911      6.0893      5.4082    
  4.8573      4.4343      4.1328      3.9485      3.8827      3.9412      3.9579      4.0623      4.2901      4.6340    
  5.0850      5.6346      6.2750      6.9966      7.7824      8.6032      9.4130      10.148      10.732      11.091    
  11.173      10.962      10.483      9.7955      8.9800      8.1155      7.2687      6.4871      5.7990      5.2168    
  4.7432      4.3775      4.1209      3.9788      4.0625      3.9579      3.9786      4.1207      4.3773      4.7431    
  5.2167      5.7989      6.4870      7.2686      8.1154      8.9800      9.7956      10.483      10.962      11.173    
  11.091      10.732      10.148      9.4130      8.6033      7.7825      6.9967      6.2751      5.6347      5.0851    
  4.6341      4.2902      4.4472      4.1292      3.9411      3.8826      3.9483      4.1326      4.4342      4.8572    
  5.4082      6.0893      6.8911      7.7868      8.7283      9.6452      10.452      11.059      11.397      11.430    
  11.171      10.669      9.9956      9.2223      8.4083      7.5960      6.8157      6.0908      5.4422      4.8889    
  5.1275      4.5831      4.1755      3.9088      3.7798      3.7824      3.9127      4.1727      4.5708      5.1172    
  5.8175      6.6651      7.6341      8.6738      9.7072      10.637      11.364      11.808      11.932      11.748    
  11.308      10.682      9.9335      9.1124      8.2547      7.3928      6.5610      5.7950      6.1231      5.3369    
  4.6908      4.1992      3.8629      3.6760      3.6318      3.7280      3.9694      4.3672      4.9344      5.6796    
  6.5980      7.6625      8.8158      9.9688      11.010      11.829      12.343      12.511      12.363      11.973    
  11.403      10.688      9.8528      8.9354      7.9737      7.0180      7.4346      6.4077      5.5053      4.7647    
  4.1992      3.8062      3.5768      3.5039      3.5864      3.8313      4.2520      4.8640      5.6783      6.6901    
  7.8663      9.1368      10.395      11.514      12.368      12.845      12.952      12.790      12.466      12.014    
  11.398      10.581      9.5965      8.5233      9.0078      7.7859      6.6323      5.6234      4.8007      4.1755    
  3.7414      3.4869      3.4041      3.4931      3.7624      4.2275      4.9068      5.8121      6.9345      8.2284    
  9.6035      10.932      12.050      12.762      13.020      12.955      12.766      12.576      12.352      11.947    
  11.227      10.197      10.697      9.3984      8.0516      6.7842      5.6847      4.7969      4.1293      3.6717    
  3.4101      3.3362      3.4507      3.7639      4.2937      5.0608      6.0751      7.3173      8.7213      10.169    
  11.488      12.389      12.715      12.573      12.264      12.090      12.159      12.316      12.254      11.722    
  12.036      11.061      9.6737      8.2171      6.8552      5.6858      4.7531      4.0626      3.6002      3.3496    
  3.3023      3.4600      3.8349      4.4480      5.3204      6.4558      7.8167      9.3077      10.769      11.867    
  12.274      11.974      11.294      10.738      10.691      11.188      11.893      12.300      12.130      12.175    
  11.276      9.8206      8.2747      6.8420      5.6266      4.6719      3.9790      3.5302      3.3079      3.3033    
  3.5198      3.9725      4.6849      5.6761      6.9370      8.4036      9.9437      11.262      11.868      11.515    
  10.404      9.1365      8.4145      8.6596      9.7682      11.166      10.303      11.839      12.177      11.343    
  9.8350      8.2231      6.7462      5.5112      4.5580      3.8830      3.4654      3.2865      3.3386      3.6274    
  4.1714      4.9957      6.1132      7.4951      9.0439      10.553      11.500      11.363      10.053      8.0536    
  6.2557      5.5280      6.2579      8.1320      6.5849      9.5080      11.537      12.089      11.278      9.7202    
  8.0675      6.5746      5.3468      4.4183      3.7802      3.4092      3.2865      3.4065      3.7783      4.4239    
  5.3679      6.6120      8.1018      9.7001      11.031      11.399      10.343      7.9997      5.1681      3.0071    
  2.4839      3.8690      1.9182      5.4360      8.9695      11.319      11.948      11.093      9.4858      7.8184    
  6.3380      5.1434      4.2610      3.6764      3.3644      3.3078      3.5040      3.9663      4.7196      5.7850    
  7.1486      8.7264      10.316      11.316      10.968      8.9387      5.6348      2.1619     -.11406     -.22050    
 -2.1058     0.77260      4.9205      8.8096      11.234      11.770      10.797      9.1465      7.4906      6.0503    
  4.9129      4.0950      3.5771      3.3334      3.3496      3.6271      4.1836      5.0456      6.2275      7.6967    
  9.3384      10.837      11.406      10.311      7.3988      3.3524     -.46471     -2.5764     0.55887E-01 0.77317    
  3.4457      6.9888      10.066      11.710      11.687      10.450      8.7771      7.1724      5.8012      4.7332    
  3.9752      3.5043      3.2956      3.3364      3.6299      4.1947      5.0575      6.2310      7.6797      9.2890    
  10.766      11.395      10.524      8.0603      4.6658      1.5758     0.65282     -.51334     0.65288      3.6593    
  7.2867      10.200      11.551      11.262      9.8974      8.2426      6.7046      5.4233      4.4522      3.7878    
  3.4044      3.2793      3.4043      3.7878      4.4522      5.4232      6.7045      8.2426      9.8975      11.262    
  11.551      10.200      7.2868      3.6593      3.4457     0.77307     0.55877E-01  1.5758      4.6657      8.0601    
  10.524      11.395      10.766      9.2889      7.6797      6.2310      5.0575      4.1947      3.6299      3.3364    
  3.2955      3.5042      3.9752      4.7332      5.8011      7.1723      8.7772      10.450      11.687      11.710    
  10.066      6.9889      7.2631      4.0838      1.9186      1.6520      3.3528      6.2418      9.1046      10.893    
  11.171      10.195      8.6544      7.1144      5.7739      4.7202      3.9711      3.5070      3.3025      3.3436    
  3.6321      4.1843      5.0250      6.1727      7.6107      9.2565      10.922      12.053      11.926      10.212    
  10.645      8.0713      5.4540      3.8693      3.9680      5.6349      8.0579      10.164      11.151      10.822    
  9.5617      8.0212      6.5717      5.3530      4.4249      3.7894      3.4230      3.3033      3.4214      3.7827    
  4.4052      5.3127      6.5180      7.9955      9.6536      11.292      12.358      12.215      12.541      11.285    
  9.2504      7.2884      6.2580      6.5770      7.9996      9.7617      11.000      11.185      10.333      8.9054    
  7.4155      6.0748      4.9857      4.1826      3.6556      3.3803      3.3385      3.5253      3.9485      4.6263    
  5.5801      6.8166      8.3031      9.9433      11.540      12.584      12.695      12.830      11.984      10.555    
  9.2384      8.6596      9.0345      10.052      11.065      11.453      10.951      9.7376      8.2725      6.8632    
  5.6447      4.6861      4.0016      3.5739      3.3802      3.4063      3.6502      4.1208      4.8351      5.8110    
  7.0497      8.5130      10.104      11.641      11.576      12.646      12.987      12.570      11.722      10.959    
  10.690      10.979      11.515      11.806      11.482      10.492      9.1164      7.6941      6.3888      5.2985    
  4.4650      3.8879      3.5471      3.4226      3.5038      3.7900      4.2901      5.0192      5.9910      7.2016    
  8.6094      10.120      9.9846      11.334      12.401      12.928      12.893      12.533      12.189      12.090    
  12.206      12.274      11.977      11.157      9.9190      8.5400      7.1997      6.0137      5.0498      4.3300    
  3.8455      3.5766      3.5065      3.6268      3.9377      4.4470      5.1675      6.1085      7.2616      8.5832    
  8.4338      9.7029      10.922      11.950      12.608      12.865      12.865      12.799      12.766      12.691    
  12.389      11.703      10.636      9.3620      8.0484      6.8164      5.7544      4.9078      4.2857      3.8765    
  3.6624      3.6294      3.7704      4.0860      4.5830      5.2714      6.1561      7.2247      7.0923      8.1687    
  9.2906      10.370      11.317      12.036      12.482      12.715      12.813      12.790      12.571      12.050    
  11.196      10.101      8.8888      7.6766      6.5657      5.6226      4.8779      4.3346      3.9813      3.8029    
  3.7873      3.9287      4.2278      4.6909      5.3249      6.1306      6.0334      6.8721      7.8042      8.7739    
  9.7153      10.566      11.281      11.822      12.186      12.377      12.363      12.087      11.514      10.678    
  9.6547      8.5450      7.4533      6.4629      5.6252      4.9626      4.4768      4.1584      3.9945      3.9747    
  4.0947      4.3562      4.7648      5.3250      5.2717      5.8701      6.5777      7.3637      8.1871      9.0026    
  9.7686      10.452      11.025      11.459      11.715      11.748      11.516      11.010      10.264      9.3517    
  8.3661      7.3980      6.5166      5.7646      5.1614      4.7100      4.4033      4.2307      4.1839      4.2606    
  4.4645      4.8009      4.7971      5.1680      5.6503      6.2271      6.8753      7.5684      8.2788      8.9792    
  9.6428      10.239      10.726      11.055      11.171      11.034      10.637      10.014      9.2322      8.3750    
  7.5207      6.7294      6.0396      5.4709      5.0286      4.7083      4.5021      4.4050      4.4180      4.5469    
  4.5985      4.7533      5.0197      5.3873      5.8421      6.3697      6.9563      7.5878      8.2464      8.9083    
  9.5395      10.093      10.510      10.732      10.716      10.451      9.9661      9.3180      8.5801      7.8216    
  7.0973      6.4442      5.8833      5.4226      5.0613      4.7960      4.6264      4.5579      4.6720      4.6161    
  4.6720      4.8355      5.0968      5.4459      5.8766      6.3853      6.9668      7.6094      8.2908      8.9751    
  9.6109      10.135      10.482      10.605      10.483      10.135      9.6109      8.9751      8.2909      7.6094    
  6.9668      6.3853      5.8767      5.4459      5.0967      4.8355      5.0197      4.7534      4.5986      4.5580    
  4.6265      4.7960      5.0612      5.4225      5.8833      6.4442      7.0973      7.8216      8.5801      9.3181    
  9.9661      10.451      10.716      10.732      10.510      10.093      9.5395      8.9084      8.2464      7.5878    
  6.9563      6.3697      5.8421      5.3873      5.6503      5.1681      4.7972      4.5470      4.4181      4.4051    
  4.5021      4.7082      5.0284      5.4709      6.0396      6.7294      7.5207      8.3750      9.2322      10.014    
  10.637      11.034      11.171      11.055      10.726      10.239      9.6428      8.9793      8.2788      7.5684    
  6.8753      6.2271      6.5777      5.8701      5.2718      4.8011      4.4646      4.2607      4.1840      4.2307    
  4.4032      4.7099      5.1614      5.7646      6.5166      7.3980      8.3661      9.3517      10.264      11.010    
  11.516      11.748      11.715      11.459      11.025      10.452      9.7686      9.0027      8.1871      7.3637    
  7.8043      6.8721      6.0334      5.3251      4.7649      4.3562      4.0947      3.9747      3.9944      4.1583    
  4.4767      4.9626      5.6252      6.4628      7.4533      8.5450      9.6547      10.678      11.514      12.087    
  12.363      12.377      12.186      11.822      11.281      10.566      9.7153      8.7740      9.2907      8.1687    
  7.0923      6.1307      5.3250      4.6909      4.2278      3.9286      3.7873      3.8029      3.9813      4.3346    
  4.8779      5.6226      6.5656      7.6767      8.8889      10.101      11.196      12.050      12.570      12.790    
  12.813      12.714      12.482      12.036      11.317      10.370      10.922      9.7030      8.4337      7.2246    
  6.1562      5.2714      4.5830      4.0859      3.7704      3.6294      3.6624      3.8765      4.2858      4.9078    
  5.7543      6.8163      8.0484      9.3620      10.635      11.703      12.389      12.691      12.765      12.799    
  12.865      12.865      12.607      11.950      12.401      11.334      9.9846      8.5831      7.2616      6.1086    
  5.1675      4.4469      3.9376      3.6269      3.5066      3.5766      3.8455      4.3301      5.0499      6.0136    
  7.1997      8.5401      9.9190      11.157      11.977      12.274      12.206      12.090      12.189      12.533    
  12.894      12.928      12.987      12.646      11.576      10.120      8.6092      7.2016      5.9910      5.0192    
  4.2900      3.7901      3.5039      3.4227      3.5471      3.8880      4.4652      5.2985      6.3888      7.6941    
  9.1164      10.492      11.482      11.806      11.514      10.979      10.690      10.959      11.722      12.570    
  11.984      12.830      12.695      11.641      10.104      8.5129      7.0497      5.8110      4.8351      4.1208    
  3.6504      3.4065      3.3803      3.5740      4.0017      4.6863      5.6446      6.8632      8.2726      9.7376    
  10.951      11.453      11.065      10.052      9.0342      8.6594      9.2384      10.556      9.2505      11.285    
  12.541      12.584      11.540      9.9432      8.3030      6.8167      5.5801      4.6263      3.9486      3.5255    
  3.3387      3.3804      3.6557      4.1827      4.9858      6.0748      7.4155      8.9055      10.333      11.185    
  10.999      9.7617      7.9996      6.5768      6.2579      7.2885      5.4541      8.0713      10.645      12.215    
  12.358      11.292      9.6535      7.9955      6.5181      5.3127      4.4052      3.7828      3.4216      3.3035    
  3.4230      3.7895      4.4250      5.3530      6.5716      8.0212      9.5618      10.822      11.151      10.164    
  8.0579      5.6349      3.9680      3.8693      1.9187      4.0839      7.2631      10.212      11.926      12.053    
  10.922      9.2564      7.6108      6.1728      5.0250      4.1843      3.6323      3.3438      3.3025      3.5070    
  3.9711      4.7203      5.7738      7.1143      8.6544      10.195      11.171      10.893      9.1047      6.2419    
  3.3528      1.6520      4.9742      5.4364      7.2629      9.6639      11.636      12.457      11.981      10.607    
  8.9652      7.4048      6.0631      5.0025      4.2307      3.7282      3.4725      3.4507      3.6626      4.1218    
  4.8516      5.8691      7.1566      8.6327      10.130      11.201      11.261      10.091      8.0604      6.0342    
  5.1401      4.2003      4.9210      6.9886      9.4919      11.399      12.055      11.420      9.9828      8.3722    
  6.8800      5.6289      4.6677      3.9947      3.5867      3.4225      3.4931      3.8032      4.3705      5.2192    
  6.3600      7.7596      9.3140      10.799      11.646      11.299      9.6677      7.2868      6.9888      4.9211    
  4.2004      5.1401      7.2866      9.6675      11.298      11.645      10.799      9.3137      7.7595      6.3601    
  5.2192      4.3704      3.8032      3.4932      3.4225      3.5865      3.9947      4.6678      5.6289      6.8800    
  8.3723      9.9830      11.420      12.055      11.400      9.4921      9.6641      7.2629      5.4364      4.9743    
  6.0342      8.0601      10.091      11.261      11.201      10.130      8.6325      7.1566      5.8692      4.8516    