unknown system                          
   1.00000000000000     
    -2.450000    2.450000    1.274000
     2.450000   -2.450000    1.274000
     2.450000    2.450000   -1.274000
   Si
     2
Direct
  0.250000  0.750000  0.500000
  0.000000  0.000000  0.000000
 
   28   28   28
 -.54693897754E+01 -.39346245229E+01 0.54964875323E-01 0.49734755483E+01 0.91345738582E+01
 0.11430341487E+02 0.11680289858E+02 0.10493783135E+02 0.88044441222E+01 0.71941550644E+01
 0.58374369632E+01 0.48004262401E+01 0.40860103159E+01 0.36714548972E+01 0.35357769265E+01
 0.36714050727E+01 0.40860953744E+01 0.48006151317E+01 0.58374948860E+01 0.71940634824E+01
 0.88044113573E+01 0.10493841173E+02 0.11680276694E+02 0.11430263682E+02 0.91345775753E+01
 0.49734859278E+01 0.54784396641E-01 -.39348787392E+01 -.39348787392E+01 -.47272486936E+01
 -.25766997127E+01 0.16512730619E+01 0.63571641398E+01 0.99810271722E+01 0.11655361904E+02
 0.11426168887E+02 0.10020561322E+02 0.83307233030E+01 0.67830210213E+01 0.55132849848E+01
 0.45673644808E+01 0.39377401412E+01 0.35999112752E+01 0.35356977149E+01 0.37413366392E+01
 0.42280076087E+01 0.50181168246E+01 0.61308567756E+01 0.75524156657E+01 0.91985104937E+01
 0.10849983385E+02 0.11813297950E+02 0.11189562192E+02 0.85221860305E+01 0.41994204121E+01
 -.51453582011E+00 0.54784396641E-01 -.25768853177E+01 -.26386573533E+01 -.11433429624E+00
 0.39675842894E+01 0.80639216491E+01 0.10851069111E+02 0.11751277641E+02 0.11022278100E+02
 0.94540751330E+01 0.78021002808E+01 0.63414553365E+01 0.51757128862E+01 0.43305724586E+01
 0.37901347872E+01 0.35300032387E+01 0.35354616067E+01 0.38063104116E+01 0.43564332487E+01
 0.52086561158E+01 0.63776301591E+01 0.78388507320E+01 0.94935491886E+01 0.11083200606E+02
 0.11868273438E+02 0.11038023294E+02 0.82990469272E+01 0.41994204121E+01 0.49734859278E+01
 0.16511721743E+01 -.11441075548E+00 0.41620473511E+00 0.30069323705E+01 0.65768900854E+01
 0.97579258138E+01 0.11536562877E+02 0.11632711550E+02 0.10471333462E+02 0.88316750789E+01
 0.72474922126E+01 0.58936575616E+01 0.48425041467E+01 0.41018916255E+01 0.36503796167E+01
 0.34652530130E+01 0.35353116142E+01 0.38632655921E+01 0.44647848574E+01 0.53619741454E+01
 0.65643730952E+01 0.80383903129E+01 0.96758989672E+01 0.11197413389E+02 0.11881851615E+02
 0.11038023294E+02 0.85221860305E+01 0.91345775753E+01 0.63571705871E+01 0.39675771619E+01
 0.30069646479E+01 0.39058304603E+01 0.62557435007E+01 0.90346645379E+01 0.11136807828E+02
 0.11886785045E+02 0.11270612073E+02 0.98153828457E+01 0.81887086230E+01 0.66977583297E+01
 0.54637720991E+01 0.45307169695E+01 0.38925885689E+01 0.35254063943E+01 0.34090777669E+01
 0.35354397509E+01 0.39092822061E+01 0.45471374136E+01 0.54694719520E+01 0.66807744544E+01
 0.81407688609E+01 0.97375586201E+01 0.11197413389E+02 0.11868273438E+02 0.11189562192E+02
 0.11430263682E+02 0.99810014186E+01 0.80639187804E+01 0.65769561267E+01 0.62558504182E+01
 0.72713289608E+01 0.91367369690E+01 0.10979803965E+02 0.12000889131E+02 0.11845152792E+02
 0.10703164824E+02 0.91259475179E+01 0.75616605933E+01 0.61828927581E+01 0.50738959498E+01
 0.42555450657E+01 0.37127324238E+01 0.34214465401E+01 0.33644342590E+01 0.35358272554E+01
 0.39417179521E+01 0.45986768694E+01 0.55248813363E+01 0.67203190283E+01 0.81407688609E+01
 0.96758989672E+01 0.11083200606E+02 0.11813297950E+02 0.11680276694E+02 0.11655343070E+02
 0.10851021982E+02 0.97579103034E+01 0.90347643089E+01 0.91368708719E+01 0.10049144922E+02
 0.11294489909E+02 0.12206661395E+02 0.12290555773E+02 0.11458042642E+02 0.10026530652E+02
 0.84577922901E+01 0.69856778136E+01 0.57293187167E+01 0.47424605686E+01 0.40294583279E+01
 0.35706424424E+01 0.33435771900E+01 0.33335352585E+01 0.35362470118E+01 0.39585080188E+01
 0.46162275334E+01 0.55248813363E+01 0.66807744544E+01 0.80383903129E+01 0.94935491886E+01
 0.10849983385E+02 0.10493841173E+02 0.11426256397E+02 0.11751312426E+02 0.11536510777E+02
 0.11136781820E+02 0.10979899632E+02 0.11294609980E+02 0.11959697000E+02 0.12573053486E+02
 0.12691310286E+02 0.12084487736E+02 0.10855450584E+02 0.93543919240E+01 0.78518859994E+01
 0.64912384135E+01 0.53580093369E+01 0.44833854254E+01 0.38618019690E+01 0.34725481335E+01
 0.32954352084E+01 0.33177655712E+01 0.35364267830E+01 0.39585080188E+01 0.45986768694E+01
 0.54694719520E+01 0.65643730952E+01 0.78388507320E+01 0.91985104937E+01 0.88044113573E+01
 0.10020635757E+02 0.11022421075E+02 0.11632783748E+02 0.11886745002E+02 0.12000860103E+02
 0.12206730289E+02 0.12573137158E+02 0.12941656881E+02 0.13020399384E+02 0.12570746606E+02
 0.11563909440E+02 0.10207749160E+02 0.87494556445E+01 0.73439892301E+01 0.61020569919E+01
 0.50838468599E+01 0.43061016810E+01 0.37588554833E+01 0.34225104352E+01 0.32791554999E+01
 0.33177655712E+01 0.35362470118E+01 0.39417179521E+01 0.45471374136E+01 0.53619741454E+01
 0.63776301591E+01 0.75524156657E+01 0.71940634824E+01 0.83306448769E+01 0.94541308378E+01
 0.10471481138E+02 0.11270700472E+02 0.11845135824E+02 0.12290532991E+02 0.12691347368E+02
 0.13020443004E+02 0.13130310864E+02 0.12844860068E+02 0.12087469278E+02 0.10954992664E+02
 0.96282742606E+01 0.82554249860E+01 0.69620940621E+01 0.58345494840E+01 0.49161353086E+01
 0.42161933098E+01 0.37241612172E+01 0.34225104352E+01 0.32954352084E+01 0.33335352585E+01
 0.35358272554E+01 0.39092822061E+01 0.44647848574E+01 0.52086561158E+01 0.61308567756E+01
 0.58374948860E+01 0.67829297639E+01 0.78019951393E+01 0.88316925112E+01 0.98154977721E+01
 0.10703250089E+02 0.11458050811E+02 0.12084477684E+02 0.12570758984E+02 0.12844872781E+02
 0.12794786977E+02 0.12342615315E+02 0.11515872786E+02 0.10417942171E+02 0.91724025478E+01
 0.79066540733E+01 0.67255694599E+01 0.56985549957E+01 0.48597379203E+01 0.42161933098E+01
 0.37588554833E+01 0.34725481335E+01 0.33435771900E+01 0.33644342590E+01 0.35354397509E+01
 0.38632655921E+01 0.43564332487E+01 0.50181168246E+01 0.48006151317E+01 0.55133603721E+01
 0.63413870055E+01 0.72473870022E+01 0.81886891640E+01 0.91260144679E+01 0.10026599800E+02
 0.10855477562E+02 0.11563913133E+02 0.12087468738E+02 0.12342611299E+02 0.12256568378E+02
 0.11808329754E+02 0.11034400822E+02 0.10021265713E+02 0.88815628816E+01 0.77264295071E+01
 0.66455307338E+01 0.56985549957E+01 0.49161353086E+01 0.43061016810E+01 0.38618019690E+01
 0.35706424424E+01 0.34214465401E+01 0.34090777669E+01 0.35353116142E+01 0.38063104116E+01
 0.42280076087E+01 0.40860953744E+01 0.45674744047E+01 0.51757757869E+01 0.58936227512E+01
 0.66976774834E+01 0.75616207664E+01 0.84578155985E+01 0.93544386750E+01 0.10207783465E+02
 0.10955006494E+02 0.11515870285E+02 0.11808321824E+02 0.11773312366E+02 0.11396580803E+02
 0.10715909190E+02 0.98109078106E+01 0.87816778241E+01 0.77264295071E+01 0.67255694599E+01
 0.58345494840E+01 0.50838468599E+01 0.44833854254E+01 0.40294583279E+01 0.37127324238E+01
 0.35254063943E+01 0.34652530130E+01 0.35354616067E+01 0.37413366392E+01 0.36714050727E+01
 0.39376680445E+01 0.43305640965E+01 0.48425319478E+01 0.54637699235E+01 0.61828509447E+01
 0.69856383305E+01 0.78518801305E+01 0.87494786115E+01 0.96283043680E+01 0.10417961210E+02
 0.11034403359E+02 0.11396576307E+02 0.11447916841E+02 0.11173430064E+02 0.10604650555E+02
 0.98109078106E+01 0.88815628816E+01 0.79066540733E+01 0.69620940621E+01 0.61020569919E+01
 0.53580093369E+01 0.47424605686E+01 0.42555450657E+01 0.38925885689E+01 0.36503796167E+01
 0.35300032387E+01 0.35356977149E+01 0.35357769265E+01 0.35997345580E+01 0.37899213201E+01
 0.41017737104E+01 0.45307065182E+01 0.50739196574E+01 0.57293191947E+01 0.64912153582E+01
 0.73439696455E+01 0.82554264083E+01 0.91724218606E+01 0.10021286515E+02 0.10715918254E+02
 0.11173429612E+02 0.11333338685E+02 0.11173430064E+02 0.10715909190E+02 0.10021265713E+02
 0.91724025478E+01 0.82554249860E+01 0.73439892301E+01 0.64912384135E+01 0.57293187167E+01
 0.50738959498E+01 0.45307169695E+01 0.41018916255E+01 0.37901347872E+01 0.35999112752E+01
 0.36714548972E+01 0.35356006494E+01 0.35297464763E+01 0.36500923567E+01 0.38924131936E+01
 0.42555134711E+01 0.47425038068E+01 0.53580476537E+01 0.61020581887E+01 0.69620719183E+01
 0.79066393090E+01 0.88815718978E+01 0.98109289527E+01 0.10604662509E+02 0.11173429612E+02
 0.11447916841E+02 0.11396580803E+02 0.11034400822E+02 0.10417942171E+02 0.96282742606E+01
 0.87494556445E+01 0.78518859994E+01 0.69856778136E+01 0.61828927581E+01 0.54637720991E+01
 0.48425041467E+01 0.43305724586E+01 0.39377401412E+01 0.40860103159E+01 0.37412545177E+01
 0.35352965064E+01 0.34649881367E+01 0.35251369858E+01 0.37125697657E+01 0.40294325753E+01
 0.44834451942E+01 0.50839152166E+01 0.58345740227E+01 0.67255496382E+01 0.77264061519E+01
 0.87816827154E+01 0.98109289527E+01 0.10715918254E+02 0.11396576307E+02 0.11773312366E+02
 0.11808329754E+02 0.11515872786E+02 0.10954992664E+02 0.10207749160E+02 0.93543919240E+01
 0.84577922901E+01 0.75616605933E+01 0.66977583297E+01 0.58936575616E+01 0.51757128862E+01
 0.45673644808E+01 0.48004262401E+01 0.42278056652E+01 0.38061319510E+01 0.35351250990E+01
 0.34088753485E+01 0.34212736139E+01 0.35705485019E+01 0.38618033496E+01 0.43061761280E+01
 0.49162237015E+01 0.56985938848E+01 0.66455124645E+01 0.77264061519E+01 0.88815718978E+01
 0.10021286515E+02 0.11034403359E+02 0.11808321824E+02 0.12256568378E+02 0.12342615315E+02
 0.12087469278E+02 0.11563909440E+02 0.10855450584E+02 0.10026530652E+02 0.91259475179E+01
 0.81887086230E+01 0.72474922126E+01 0.63414553365E+01 0.55132849848E+01 0.58374369632E+01
 0.50179177067E+01 0.43561898412E+01 0.38630491162E+01 0.35352781900E+01 0.33643385107E+01
 0.33435360492E+01 0.34725402068E+01 0.37588869889E+01 0.42162772404E+01 0.48598334998E+01
 0.56985938848E+01 0.67255496382E+01 0.79066393090E+01 0.91724218606E+01 0.10417961210E+02
 0.11515870285E+02 0.12342611299E+02 0.12794786977E+02 0.12844860068E+02 0.12570746606E+02
 0.12084487736E+02 0.11458042642E+02 0.10703164824E+02 0.98153828457E+01 0.88316750789E+01
 0.78021002808E+01 0.67830210213E+01 0.71941550644E+01 0.61308383181E+01 0.52085144118E+01
 0.44645761779E+01 0.39090825128E+01 0.35357187891E+01 0.33335485063E+01 0.32955049933E+01
 0.34225606118E+01 0.37242056867E+01 0.42162772404E+01 0.49162237015E+01 0.58345740227E+01
 0.69620719183E+01 0.82554264083E+01 0.96283043680E+01 0.10955006494E+02 0.12087468738E+02
 0.12844872781E+02 0.13130310864E+02 0.13020399384E+02 0.12691310286E+02 0.12290555773E+02
 0.11845152792E+02 0.11270612073E+02 0.10471333462E+02 0.94540751330E+01 0.83307233030E+01
 0.88044441222E+01 0.75524803657E+01 0.63776572509E+01 0.53619300770E+01 0.45470085476E+01
 0.39415628152E+01 0.35361898722E+01 0.33178471102E+01 0.32792683710E+01 0.34225606118E+01
 0.37588869889E+01 0.43061761280E+01 0.50839152166E+01 0.61020581887E+01 0.73439696455E+01
 0.87494786115E+01 0.10207783465E+02 0.11563913133E+02 0.12570758984E+02 0.13020443004E+02
 0.12941656881E+02 0.12573053486E+02 0.12206661395E+02 0.12000889131E+02 0.11886785045E+02
 0.11632711550E+02 0.11022278100E+02 0.10020561322E+02 0.10493783135E+02 0.91984932258E+01
 0.78388693888E+01 0.65644382433E+01 0.54695256764E+01 0.45986249944E+01 0.39583883467E+01
 0.35363907019E+01 0.33178471102E+01 0.32955049933E+01 0.34725402068E+01 0.38618033496E+01
 0.44834451942E+01 0.53580476537E+01 0.64912153582E+01 0.78518801305E+01 0.93544386750E+01
 0.10855477562E+02 0.12084477684E+02 0.12691347368E+02 0.12573137158E+02 0.11959697000E+02
 0.11294489909E+02 0.10979803965E+02 0.11136807828E+02 0.11536562877E+02 0.11751277641E+02
 0.11426168887E+02 0.11680289858E+02 0.10849975912E+02 0.94934915519E+01 0.80383617756E+01
 0.66808634879E+01 0.55249953166E+01 0.46162070355E+01 0.39583883467E+01 0.35361898722E+01
 0.33335485063E+01 0.33435360492E+01 0.35705485019E+01 0.40294325753E+01 0.47425038068E+01
 0.57293191947E+01 0.69856383305E+01 0.84578155985E+01 0.10026599800E+02 0.11458050811E+02
 0.12290532991E+02 0.12206730289E+02 0.11294609980E+02 0.10049144922E+02 0.91367369690E+01
 0.90346645379E+01 0.97579258138E+01 0.10851069111E+02 0.11655361904E+02 0.11430341487E+02
 0.11813430014E+02 0.11083256591E+02 0.96758174949E+01 0.81407109775E+01 0.67204160652E+01
 0.55249953166E+01 0.45986249944E+01 0.39415628152E+01 0.35357187891E+01 0.33643385107E+01
 0.34212736139E+01 0.37125697657E+01 0.42555134711E+01 0.50739196574E+01 0.61828509447E+01
 0.75616207664E+01 0.91260144679E+01 0.10703250089E+02 0.11845135824E+02 0.12000860103E+02
 0.10979899632E+02 0.91368708719E+01 0.72713289608E+01 0.62557435007E+01 0.65768900854E+01
 0.80639216491E+01 0.99810271722E+01 0.91345738582E+01 0.11189690612E+02 0.11868502077E+02
 0.11197513287E+02 0.97374696373E+01 0.81407109775E+01 0.66808634879E+01 0.54695256764E+01
 0.45470085476E+01 0.39090825128E+01 0.35352781900E+01 0.34088753485E+01 0.35251369858E+01
 0.38924131936E+01 0.45307065182E+01 0.54637699235E+01 0.66976774834E+01 0.81886891640E+01
 0.98154977721E+01 0.11270700472E+02 0.11886745002E+02 0.11136781820E+02 0.90347643089E+01
 0.62558504182E+01 0.39058304603E+01 0.30069323705E+01 0.39675842894E+01 0.63571641398E+01
 0.49734755483E+01 0.85221573104E+01 0.11038181050E+02 0.11882117465E+02 0.11197513287E+02
 0.96758174949E+01 0.80383617756E+01 0.65644382433E+01 0.53619300770E+01 0.44645761779E+01
 0.38630491162E+01 0.35351250990E+01 0.34649881367E+01 0.36500923567E+01 0.41017737104E+01
 0.48425319478E+01 0.58936227512E+01 0.72473870022E+01 0.88316925112E+01 0.10471481138E+02
 0.11632783748E+02 0.11536510777E+02 0.97579103034E+01 0.65769561267E+01 0.30069646479E+01
 0.41620473511E+00 -.11433429624E+00 0.16512730619E+01 0.54964875323E-01 0.41994094961E+01
 0.82990084801E+01 0.11038181050E+02 0.11868502077E+02 0.11083256591E+02 0.94934915519E+01
 0.78388693888E+01 0.63776572509E+01 0.52085144118E+01 0.43561898412E+01 0.38061319510E+01
 0.35352965064E+01 0.35297464763E+01 0.37899213201E+01 0.43305640965E+01 0.51757757869E+01
 0.63413870055E+01 0.78019951393E+01 0.94541308378E+01 0.11022421075E+02 0.11751312426E+02
 0.10851021982E+02 0.80639187804E+01 0.39675771619E+01 -.11441075548E+00 -.26386573533E+01
 -.25766997127E+01 -.39346245229E+01 -.51432406359E+00 0.41994094961E+01 0.85221573104E+01
 0.11189690612E+02 0.11813430014E+02 0.10849975912E+02 0.91984932258E+01 0.75524803657E+01
 0.61308383181E+01 0.50179177067E+01 0.42278056652E+01 0.37412545177E+01 0.35356006494E+01
 0.35997345580E+01 0.39376680445E+01 0.45674744047E+01 0.55133603721E+01 0.67829297639E+01
 0.83306448769E+01 0.10020635757E+02 0.11426256397E+02 0.11655343070E+02 0.99810014186E+01
 0.63571705871E+01 0.16511721743E+01 -.25768853177E+01 -.47272486936E+01 -.39343025149E+01
 -.28228478369E+01 0.65226550462E+00 0.51395292956E+01 0.90497936798E+01 0.11269658201E+02
 0.11544436011E+02 0.10399220952E+02 0.87206402236E+01 0.71024174423E+01 0.57276214434E+01
 0.46679445269E+01 0.39290076305E+01 0.34870051080E+01 0.33176116002E+01 0.34101081676E+01
 0.37707769316E+01 0.44210361603E+01 0.53870069514E+01 0.66739834992E+01 0.82293535953E+01
 0.99065804040E+01 0.11242945373E+02 0.11359589655E+02 0.96055451468E+01 0.60337751202E+01
 0.15751655675E+01 -.22379013093E+01 -.28230608555E+01 -.39343559965E+01 -.22378093473E+01
 0.15751886425E+01 0.60337245159E+01 0.96055877407E+01 0.11359701891E+02 0.11242968280E+02
 0.99065600115E+01 0.82294558280E+01 0.66741421918E+01 0.53870182405E+01 0.44209316663E+01
 0.37707534947E+01 0.34101667806E+01 0.33176104666E+01 0.34869786239E+01 0.39290813329E+01
 0.46680265397E+01 0.57275309946E+01 0.71022283376E+01 0.87205534742E+01 0.10399202419E+02
 0.11544327883E+02 0.11269528548E+02 0.90498062688E+01 0.51395827467E+01 0.65214517763E+00
 0.77241268243E+00 -.21060224355E+01 -.25764884570E+01 -.46473262166E+00 0.33523539040E+01
 0.73987450976E+01 0.10311318809E+02 0.11406542512E+02 0.10837079138E+02 0.93383093266E+01
 0.76968386874E+01 0.62275895404E+01 0.50455245506E+01 0.41835160017E+01 0.36271536007E+01
 0.33496677228E+01 0.33334494524E+01 0.35770846300E+01 0.40951447448E+01 0.49129360586E+01
 0.60501243765E+01 0.74904620273E+01 0.91464731237E+01 0.10797411698E+02 0.11770114895E+02
 0.11233754547E+02 0.88096789843E+01 0.49205501456E+01 0.54360243477E+01 0.19180258840E+01
 -.22072185386E+00 -.11417190237E+00 0.21618262778E+01 0.56347275293E+01 0.89387114279E+01
 0.10967802201E+02 0.11316071588E+02 0.10315857586E+02 0.87263835492E+01 0.71487094154E+01
 0.57849718644E+01 0.47194778383E+01 0.39662311660E+01 0.35041136005E+01 0.33079030330E+01
 0.33644622759E+01 0.36764785894E+01 0.42611074297E+01 0.51433530318E+01 0.63377908463E+01
 0.78182676018E+01 0.94858043213E+01 0.11092432195E+02 0.11948244918E+02 0.11318808975E+02
 0.89695771148E+01 0.95080431092E+01 0.65849053120E+01 0.38689433771E+01 0.24838480648E+01
 0.30070461606E+01 0.51680812504E+01 0.79996864217E+01 0.10342825446E+02 0.11398938638E+02
 0.11031059419E+02 0.96999460118E+01 0.81017960659E+01 0.66120273879E+01 0.53677910348E+01
 0.44237834678E+01 0.37782912446E+01 0.34066209305E+01 0.32865676529E+01 0.34092260806E+01
 0.37803397817E+01 0.44183546715E+01 0.53467002449E+01 0.65744770254E+01 0.80674763148E+01
 0.97202265183E+01 0.11277747218E+02 0.12089124572E+02 0.11536570991E+02 0.11838639202E+02
 0.10303204469E+02 0.81320098407E+01 0.62578961444E+01 0.55281332636E+01 0.62558006299E+01
 0.80536839811E+01 0.10052625531E+02 0.11362720886E+02 0.11499742959E+02 0.10552738114E+02
 0.90437286601E+01 0.74950674723E+01 0.61131724951E+01 0.49955668081E+01 0.41712978116E+01
 0.36274450328E+01 0.33387137772E+01 0.32865634250E+01 0.34654995299E+01 0.38831445935E+01
 0.45580523849E+01 0.55111257426E+01 0.67461521486E+01 0.82231709609E+01 0.98351334709E+01
 0.11343476231E+02 0.12177399316E+02 0.12175172719E+02 0.12130398150E+02 0.11166201168E+02
 0.97682630485E+01 0.86597703661E+01 0.84147395990E+01 0.91367350463E+01 0.10404368026E+02
 0.11514889603E+02 0.11868228348E+02 0.11261607705E+02 0.99435637344E+01 0.84035067442E+01
 0.69369717720E+01 0.56760229621E+01 0.46846992863E+01 0.39723960774E+01 0.35198501736E+01
 0.33033585045E+01 0.33078898473E+01 0.35303146846E+01 0.39791003217E+01 0.46719395540E+01
 0.56265642665E+01 0.68419681924E+01 0.82748008076E+01 0.98207971867E+01 0.11275703367E+02
 0.11061352506E+02 0.12035604224E+02 0.12300177606E+02 0.11892534910E+02 0.11187612258E+02
 0.10690771673E+02 0.10738410403E+02 0.11294441837E+02 0.11973815156E+02 0.12274489607E+02
 0.11867201816E+02 0.10768761305E+02 0.93075272599E+01 0.78166169156E+01 0.64558043508E+01
 0.53202917512E+01 0.44477885445E+01 0.38348212846E+01 0.34599967276E+01 0.33023275369E+01
 0.33496374410E+01 0.36002502515E+01 0.40627296272E+01 0.47531666448E+01 0.56857254186E+01
 0.68552815908E+01 0.82172544752E+01 0.96738166772E+01 0.93985052236E+01 0.10696816160E+02
 0.11722185181E+02 0.12254352426E+02 0.12316374471E+02 0.12159226217E+02 0.12090425461E+02
 0.12264059633E+02 0.12572983233E+02 0.12715432137E+02 0.12389565035E+02 0.11487612171E+02
 0.10169360179E+02 0.87211277560E+01 0.73172804257E+01 0.60750468138E+01 0.50606343426E+01
 0.42935813347E+01 0.37638119377E+01 0.34506963327E+01 0.33361425454E+01 0.34100933438E+01
 0.36717739392E+01 0.41294035930E+01 0.47969423567E+01 0.56847673478E+01 0.67843223608E+01
 0.80516900762E+01 0.77859666880E+01 0.90077894115E+01 0.10196800840E+02 0.11226945622E+02
 0.11947504993E+02 0.12352353216E+02 0.12575644136E+02 0.12765809931E+02 0.12955197480E+02
 0.13020330259E+02 0.12762127919E+02 0.12050101469E+02 0.10931597377E+02 0.96034238977E+01
 0.82283560784E+01 0.69344985089E+01 0.58121086866E+01 0.49067102000E+01 0.42274304629E+01
 0.37623578069E+01 0.34930737289E+01 0.34040406166E+01 0.34868507558E+01 0.37414932130E+01
 0.41756637942E+01 0.48008470191E+01 0.56235376758E+01 0.66324177550E+01 0.64078178613E+01
 0.74345681819E+01 0.85231950741E+01 0.95965032880E+01 0.10581035593E+02 0.11398455360E+02
 0.12013689945E+02 0.12465768636E+02 0.12790340182E+02 0.12951806051E+02 0.12844806170E+02
 0.12367576831E+02 0.11514263735E+02 0.10394985055E+02 0.91367245522E+01 0.78662519173E+01
 0.66900635940E+01 0.56782981971E+01 0.48639388392E+01 0.42519089184E+01 0.38313547875E+01
 0.35864542635E+01 0.35038690880E+01 0.35768107694E+01 0.38062306990E+01 0.41992967831E+01
 0.47648161747E+01 0.55054296854E+01 0.53370180138E+01 0.61232197658E+01 0.70179040662E+01
 0.79735980776E+01 0.89353475433E+01 0.98528156827E+01 0.10687586559E+02 0.11403168902E+02
 0.11972894190E+02 0.12363522186E+02 0.12511237994E+02 0.12342579309E+02 0.11829217764E+02
 0.11010336749E+02 0.99688004393E+01 0.88157731105E+01 0.76625166836E+01 0.65980434695E+01
 0.56796017459E+01 0.49343844341E+01 0.43671753057E+01 0.39694917665E+01 0.37280960260E+01
 0.36318802386E+01 0.36760777260E+01 0.38629722445E+01 0.41992452800E+01 0.46909216392E+01
 0.45831228960E+01 0.51276280385E+01 0.57950169681E+01 0.65608772636E+01 0.73926926679E+01
 0.82546421059E+01 0.91123590550E+01 0.99334503120E+01 0.10681575294E+02 0.11307751204E+02
 0.11747623897E+02 0.11931889822E+02 0.11808304841E+02 0.11364335334E+02 0.10637454209E+02
 0.97072081260E+01 0.86737841588E+01 0.76341137503E+01 0.66651439875E+01 0.58175211943E+01
 0.51171884227E+01 0.45708391951E+01 0.41728501954E+01 0.39128319438E+01 0.37825272281E+01
 0.37798823678E+01 0.39088319150E+01 0.41755050779E+01 0.41291267979E+01 0.44470922986E+01
 0.48888690219E+01 0.54422182336E+01 0.60907447262E+01 0.68155523745E+01 0.75959142182E+01
 0.84082141273E+01 0.92222647768E+01 0.99955557648E+01 0.10669188786E+02 0.11171207282E+02
 0.11430349041E+02 0.11396556176E+02 0.11058874062E+02 0.10451530173E+02 0.96452017499E+01
 0.87282636090E+01 0.77868792501E+01 0.68911267776E+01 0.60892764894E+01 0.54082160506E+01
 0.48573081524E+01 0.44343439656E+01 0.41327973516E+01 0.39484578028E+01 0.38827147719E+01
 0.39411745598E+01 0.39579201985E+01 0.40623252749E+01 0.42900774081E+01 0.46340392432E+01
 0.50850137690E+01 0.56345610120E+01 0.62750346075E+01 0.69965948303E+01 0.77824009368E+01
 0.86032369702E+01 0.94130013927E+01 0.10147750487E+02 0.10731674309E+02 0.11091164685E+02
 0.11173398046E+02 0.10961991872E+02 0.10482549564E+02 0.97955288274E+01 0.89799848875E+01
 0.81154770362E+01 0.72686586803E+01 0.64870723341E+01 0.57989602410E+01 0.52168319136E+01
 0.47432446013E+01 0.43774659374E+01 0.41208724930E+01 0.39787507106E+01 0.40624651389E+01
 0.39579087304E+01 0.39785782156E+01 0.41206575987E+01 0.43773001203E+01 0.47431217704E+01
 0.52167289936E+01 0.57988868080E+01 0.64870245779E+01 0.72686095820E+01 0.81154317740E+01
 0.89799777396E+01 0.97955559489E+01 0.10482568283E+02 0.10961987701E+02 0.11173390390E+02
 0.11091153065E+02 0.10731644877E+02 0.10147727357E+02 0.94130250180E+01 0.86033008196E+01
 0.77824711008E+01 0.69966730333E+01 0.62751369366E+01 0.56346634890E+01 0.50850948454E+01
 0.46341424334E+01 0.42902389881E+01 0.44471533846E+01 0.41292017463E+01 0.39411430543E+01
 0.38825536352E+01 0.39482566445E+01 0.41326272120E+01 0.44342103242E+01 0.48572151764E+01
 0.54081765064E+01 0.60892631165E+01 0.68910984140E+01 0.77868484007E+01 0.87282673210E+01
 0.96452248457E+01 0.10451528432E+02 0.11058849156E+02 0.11396537486E+02 0.11430331002E+02
 0.11171176028E+02 0.10669177384E+02 0.99956005811E+01 0.92223425290E+01 0.84082908207E+01
 0.75960093233E+01 0.68156789808E+01 0.60908424622E+01 0.54422375213E+01 0.48888695102E+01
 0.51275260560E+01 0.45830786220E+01 0.41755066801E+01 0.39087868287E+01 0.37797689513E+01
 0.37823944525E+01 0.39127049774E+01 0.41727358020E+01 0.45707742601E+01 0.51171909771E+01
 0.58175387113E+01 0.66651282196E+01 0.76340948804E+01 0.86738006039E+01 0.97072260716E+01
 0.10637430209E+02 0.11364293601E+02 0.11808280439E+02 0.11931863947E+02 0.11747585875E+02
 0.11307749814E+02 0.10681636535E+02 0.99335231750E+01 0.91124137362E+01 0.82547309188E+01
 0.73928317288E+01 0.65609653056E+01 0.57949733196E+01 0.61231299518E+01 0.53368549624E+01
 0.46908080349E+01 0.41991869546E+01 0.38629188582E+01 0.36760261837E+01 0.36318354665E+01
 0.37280305844E+01 0.39694174435E+01 0.43671593074E+01 0.49344355567E+01 0.56796401511E+01
 0.65980326783E+01 0.76625161867E+01 0.88158122743E+01 0.99688174172E+01 0.11010294365E+02
 0.11829163325E+02 0.12342540503E+02 0.12511179964E+02 0.12363454191E+02 0.11972890151E+02
 0.11403232329E+02 0.10687628407E+02 0.98528174825E+01 0.89354023154E+01 0.79737249805E+01
 0.70179699680E+01 0.74345921016E+01 0.64077081396E+01 0.55052672693E+01 0.47646865839E+01
 0.41992008046E+01 0.38061702420E+01 0.35768114706E+01 0.35038949619E+01 0.35864394360E+01
 0.38313292152E+01 0.42519558297E+01 0.48640346615E+01 0.56783426921E+01 0.66900570854E+01
 0.78662840574E+01 0.91367956372E+01 0.10395000944E+02 0.11514203126E+02 0.12367503319E+02
 0.12844724902E+02 0.12951675373E+02 0.12790213582E+02 0.12465747682E+02 0.12013740000E+02
 0.11398446966E+02 0.10580968247E+02 0.95965024451E+01 0.85232763653E+01 0.90077972029E+01
 0.77859308499E+01 0.66323142756E+01 0.56234287395E+01 0.48007425702E+01 0.41755479428E+01
 0.37414245667E+01 0.34868797953E+01 0.34040969113E+01 0.34930818354E+01 0.37623789878E+01
 0.42275397990E+01 0.49068335285E+01 0.58121452738E+01 0.69345047247E+01 0.82284338931E+01
 0.96035222790E+01 0.10931599182E+02 0.12050015046E+02 0.12762021142E+02 0.13020175628E+02
 0.12954965045E+02 0.12765613936E+02 0.12575601537E+02 0.12352380403E+02 0.11947445725E+02
 0.11226820985E+02 0.10196741973E+02 0.10696722603E+02 0.93984331767E+01 0.80515923377E+01
 0.67842462280E+01 0.56847358860E+01 0.47968749664E+01 0.41292760622E+01 0.36716974038E+01
 0.34101241370E+01 0.33361852230E+01 0.34506998730E+01 0.37638727528E+01 0.42937383347E+01
 0.50607601694E+01 0.60750687796E+01 0.73173128098E+01 0.87212510962E+01 0.10169461160E+02
 0.11487577991E+02 0.12389447748E+02 0.12715288498E+02 0.12572750741E+02 0.12263737570E+02
 0.12090183348E+02 0.12159170211E+02 0.12316376908E+02 0.12254262957E+02 0.11722045050E+02
 0.12035506088E+02 0.11061265442E+02 0.96736858924E+01 0.82171169737E+01 0.68552493976E+01
 0.56857641630E+01 0.47531212053E+01 0.40625925289E+01 0.36001699647E+01 0.33496492760E+01
 0.33023256902E+01 0.34599830283E+01 0.38349155134E+01 0.44479692355E+01 0.53203954873E+01
 0.64558142863E+01 0.78166856915E+01 0.93076775434E+01 0.10768829157E+02 0.11867117942E+02
 0.12274354807E+02 0.11973657849E+02 0.11294170866E+02 0.10738062016E+02 0.10690538951E+02
 0.11187559121E+02 0.11892515544E+02 0.12300092232E+02 0.12130350114E+02 0.12175164118E+02
 0.11275661424E+02 0.98206480040E+01 0.82746669054E+01 0.68419926202E+01 0.56266448996E+01
 0.46718893576E+01 0.39789577130E+01 0.35302393554E+01 0.33078727780E+01 0.33033043795E+01
 0.35198267980E+01 0.39725189382E+01 0.46848746781E+01 0.56760861187E+01 0.69369790814E+01
 0.84036130086E+01 0.99437101960E+01 0.11261614427E+02 0.11868104168E+02 0.11514771536E+02
 0.10404242276E+02 0.91364985840E+01 0.84144606785E+01 0.86596150198E+01 0.97682279124E+01
 0.11166163920E+02 0.10303151979E+02 0.11838647094E+02 0.12177495043E+02 0.11343495333E+02
 0.98350085685E+01 0.82230897384E+01 0.67462378468E+01 0.55112127742E+01 0.45579773705E+01
 0.38830088503E+01 0.34654403721E+01 0.32865183489E+01 0.33386222678E+01 0.36274330053E+01
 0.41714404925E+01 0.49957061997E+01 0.61131862712E+01 0.74950840655E+01 0.90438623840E+01
 0.10552849138E+02 0.11499682451E+02 0.11362588057E+02 0.10052562117E+02 0.80536309733E+01
 0.62556705238E+01 0.55280113734E+01 0.62578683237E+01 0.81319972873E+01 0.65849047949E+01
 0.95079786706E+01 0.11536634410E+02 0.12089300171E+02 0.11277813426E+02 0.97201552689E+01
 0.80674824045E+01 0.65746142146E+01 0.53467624346E+01 0.44182523640E+01 0.37802300643E+01
 0.34091907909E+01 0.32865018912E+01 0.34065203786E+01 0.37783116547E+01 0.44239282462E+01
 0.53678672356E+01 0.66119937109E+01 0.81018295699E+01 0.97000854034E+01 0.11031111929E+02
 0.11398829482E+02 0.10342722857E+02 0.79996935470E+01 0.51681070771E+01 0.30070522246E+01
 0.24839181071E+01 0.38690477127E+01 0.19182136188E+01 0.54360157265E+01 0.89695100328E+01
 0.11318913834E+02 0.11948448901E+02 0.11092511602E+02 0.94857964637E+01 0.78183670724E+01
 0.63379524078E+01 0.51433696918E+01 0.42609919818E+01 0.36764117012E+01 0.33644491539E+01
 0.33078263776E+01 0.35040348503E+01 0.39662935547E+01 0.47195981956E+01 0.57849668295E+01
 0.71486378479E+01 0.87264302311E+01 0.10315971695E+02 0.11316057283E+02 0.10967680484E+02
 0.89386661730E+01 0.56347824168E+01 0.21618871299E+01 -.11406444063E+00 -.22050086177E+00
 -.21057508671E+01 0.77260290934E+00 0.49205178054E+01 0.88096276012E+01 0.11233881550E+02
 0.11770291291E+02 0.10797470039E+02 0.91465215407E+01 0.74906298565E+01 0.60502703805E+01
 0.49128995872E+01 0.40950386188E+01 0.35770668505E+01 0.33334486470E+01 0.33495924969E+01
 0.36271208248E+01 0.41836119615E+01 0.50455904026E+01 0.62274995424E+01 0.76967429425E+01
 0.93383532774E+01 0.10837136031E+02 0.11406469554E+02 0.10311223782E+02 0.73987592882E+01
 0.33524002969E+01 -.46471441411E+00 -.25763645008E+01 0.55887465641E-01 0.77316722855E+00
 0.34456888069E+01 0.69887766616E+01 0.10065528476E+02 0.11710090224E+02 0.11687254195E+02
 0.10449773010E+02 0.87771481692E+01 0.71724321488E+01 0.58012108385E+01 0.47331937881E+01
 0.39751890756E+01 0.35043096112E+01 0.32956389902E+01 0.33364056198E+01 0.36298662177E+01
 0.41947296886E+01 0.50575486354E+01 0.62309524451E+01 0.76796666044E+01 0.92889842095E+01
 0.10766429092E+02 0.11394909977E+02 0.10524300169E+02 0.80602840818E+01 0.46657710456E+01
 0.15757539860E+01 0.65282496548E+00 -.51334380268E+00 0.65287700685E+00 0.36592644209E+01
 0.72866588634E+01 0.10199993645E+02 0.11551252993E+02 0.11261840602E+02 0.98974183909E+01
 0.82426422872E+01 0.67046141230E+01 0.54232807455E+01 0.44521529739E+01 0.37878301195E+01
 0.34044291864E+01 0.32793143162E+01 0.34043360551E+01 0.37878127520E+01 0.44522083615E+01
 0.54232402621E+01 0.67044935218E+01 0.82426386648E+01 0.98975492277E+01 0.11261926132E+02
 0.11551264405E+02 0.10200078451E+02 0.72868128670E+01 0.36593191335E+01 0.34456629552E+01
 0.77307454834E+00 0.55876822747E-01 0.15757554741E+01 0.46656531145E+01 0.80601396613E+01