   2   2   0   0
  0.1529437E+02  0.3691622E-09  0.3691622E-09  0.3691622E-09  0.5000000E-15
  1.000000000000000E-004
  CAR 
 unknown system                          
     23.11479191     -6.57378985  301      9.08191905      1.00000000
     -6.574  0.0000E+00  0.0000E+00
     -6.475  0.0000E+00  0.0000E+00
     -6.376  0.0000E+00  0.0000E+00
     -6.277  0.0000E+00  0.0000E+00
     -6.178  0.0000E+00  0.0000E+00
     -6.079  0.0000E+00  0.0000E+00
     -5.980  0.0000E+00  0.0000E+00
     -5.881  0.0000E+00  0.0000E+00
     -5.782  0.0000E+00  0.0000E+00
     -5.683  0.6752E-17  0.6682E-18
     -5.584  0.1404E-14  0.1396E-15
     -5.485  0.1796E-12  0.1792E-13
     -5.386  0.1422E-10  0.1425E-11
     -5.287  0.6981E-09  0.7051E-10
     -5.188  0.2131E-07  0.2180E-08
     -5.089  0.4068E-06  0.4244E-07
     -4.990  0.4901E-05  0.5275E-06
     -4.891  0.3792E-04  0.4280E-05
     -4.792  0.1943E-03  0.2351E-04
     -4.694  0.6931E-03  0.9210E-04
     -4.595  0.1823E-02  0.2725E-03
     -4.496  0.3679E-02  0.6366E-03
     -4.397  0.5785E-02  0.1209E-02
     -4.298  0.7360E-02  0.1937E-02
     -4.199  0.8491E-02  0.2778E-02
     -4.100  0.9883E-02  0.3756E-02
     -4.001  0.1126E-01  0.4870E-02
     -3.902  0.1214E-01  0.6072E-02
     -3.803  0.1308E-01  0.7366E-02
     -3.704  0.1439E-01  0.8790E-02
     -3.605  0.1542E-01  0.1032E-01
     -3.506  0.1574E-01  0.1187E-01
     -3.407  0.1551E-01  0.1341E-01
     -3.308  0.1496E-01  0.1489E-01
     -3.209  0.1520E-01  0.1639E-01
     -3.110  0.1768E-01  0.1814E-01
     -3.011  0.2150E-01  0.2027E-01
     -2.912  0.2392E-01  0.2264E-01
     -2.813  0.2300E-01  0.2492E-01
     -2.714  0.1917E-01  0.2681E-01
     -2.615  0.1627E-01  0.2842E-01
     -2.516  0.1803E-01  0.3021E-01
     -2.417  0.2246E-01  0.3243E-01
     -2.318  0.2462E-01  0.3487E-01
     -2.219  0.2413E-01  0.3725E-01
     -2.121  0.2397E-01  0.3963E-01
     -2.022  0.2496E-01  0.4210E-01
     -1.923  0.2598E-01  0.4467E-01
     -1.824  0.2622E-01  0.4726E-01
     -1.725  0.2564E-01  0.4980E-01
     -1.626  0.2532E-01  0.5231E-01
     -1.527  0.2583E-01  0.5486E-01
     -1.428  0.2659E-01  0.5749E-01
     -1.329  0.2784E-01  0.6025E-01
     -1.230  0.3066E-01  0.6328E-01
     -1.131  0.3316E-01  0.6656E-01
     -1.032  0.3136E-01  0.6967E-01
     -0.933  0.2605E-01  0.7224E-01
     -0.834  0.2231E-01  0.7445E-01
     -0.735  0.2323E-01  0.7675E-01
     -0.636  0.2828E-01  0.7955E-01
     -0.537  0.3476E-01  0.8299E-01
     -0.438  0.3931E-01  0.8688E-01
     -0.339  0.3971E-01  0.9081E-01
     -0.240  0.3696E-01  0.9447E-01
     -0.141  0.3470E-01  0.9790E-01
     -0.042  0.3477E-01  0.1013E+00
      0.057  0.3475E-01  0.1048E+00
      0.156  0.3291E-01  0.1080E+00
      0.255  0.3154E-01  0.1112E+00
      0.354  0.3211E-01  0.1143E+00
      0.453  0.3340E-01  0.1176E+00
      0.551  0.3533E-01  0.1211E+00
      0.650  0.3911E-01  0.1250E+00
      0.749  0.4353E-01  0.1293E+00
      0.848  0.4453E-01  0.1337E+00
      0.947  0.4087E-01  0.1378E+00
      1.046  0.3697E-01  0.1414E+00
      1.145  0.3737E-01  0.1451E+00
      1.244  0.4160E-01  0.1492E+00
      1.343  0.4435E-01  0.1536E+00
      1.442  0.4117E-01  0.1577E+00
      1.541  0.3345E-01  0.1610E+00
      1.640  0.2729E-01  0.1637E+00
      1.739  0.2810E-01  0.1665E+00
      1.838  0.3448E-01  0.1699E+00
      1.937  0.4053E-01  0.1739E+00
      2.036  0.4331E-01  0.1782E+00
      2.135  0.4273E-01  0.1824E+00
      2.234  0.3951E-01  0.1863E+00
      2.333  0.3694E-01  0.1900E+00
      2.432  0.3677E-01  0.1936E+00
      2.531  0.3612E-01  0.1972E+00
      2.630  0.3371E-01  0.2005E+00
      2.729  0.3136E-01  0.2037E+00
      2.828  0.3026E-01  0.2066E+00
      2.927  0.3093E-01  0.2097E+00
      3.026  0.3439E-01  0.2131E+00
      3.124  0.4143E-01  0.2172E+00
      3.223  0.4972E-01  0.2221E+00
      3.322  0.5410E-01  0.2275E+00
      3.421  0.5219E-01  0.2327E+00
      3.520  0.4605E-01  0.2372E+00
      3.619  0.4004E-01  0.2412E+00
      3.718  0.3863E-01  0.2450E+00
      3.817  0.4109E-01  0.2491E+00
      3.916  0.4257E-01  0.2533E+00
      4.015  0.4219E-01  0.2574E+00
      4.114  0.4311E-01  0.2617E+00
      4.213  0.4581E-01  0.2662E+00
      4.312  0.4642E-01  0.2708E+00
      4.411  0.4280E-01  0.2751E+00
      4.510  0.3985E-01  0.2790E+00
      4.609  0.4338E-01  0.2833E+00
      4.708  0.5057E-01  0.2883E+00
      4.807  0.5490E-01  0.2938E+00
      4.906  0.5559E-01  0.2993E+00
      5.005  0.5401E-01  0.3046E+00
      5.104  0.5068E-01  0.3096E+00
      5.203  0.4733E-01  0.3143E+00
      5.302  0.4537E-01  0.3188E+00
      5.401  0.4512E-01  0.3232E+00
      5.500  0.4674E-01  0.3279E+00
      5.599  0.4981E-01  0.3328E+00
      5.697  0.5353E-01  0.3381E+00
      5.796  0.5739E-01  0.3438E+00
      5.895  0.6085E-01  0.3498E+00
      5.994  0.6297E-01  0.3560E+00
      6.093  0.6221E-01  0.3622E+00
      6.192  0.5870E-01  0.3680E+00
      6.291  0.5504E-01  0.3734E+00
      6.390  0.5300E-01  0.3787E+00
      6.489  0.5471E-01  0.3841E+00
      6.588  0.6070E-01  0.3901E+00
      6.687  0.6501E-01  0.3965E+00
      6.786  0.6316E-01  0.4028E+00
      6.885  0.5766E-01  0.4085E+00
      6.984  0.5206E-01  0.4137E+00
      7.083  0.4944E-01  0.4185E+00
      7.182  0.5181E-01  0.4237E+00
      7.281  0.5903E-01  0.4295E+00
      7.380  0.6989E-01  0.4364E+00
      7.479  0.7960E-01  0.4443E+00
      7.578  0.8105E-01  0.4523E+00
      7.677  0.7271E-01  0.4595E+00
      7.776  0.5991E-01  0.4655E+00
      7.875  0.5040E-01  0.4704E+00
      7.974  0.4901E-01  0.4753E+00
      8.073  0.5364E-01  0.4806E+00
      8.172  0.5937E-01  0.4865E+00
      8.271  0.6266E-01  0.4927E+00
      8.369  0.6058E-01  0.4987E+00
      8.468  0.5381E-01  0.5040E+00
      8.567  0.4761E-01  0.5087E+00
      8.666  0.4584E-01  0.5132E+00
      8.765  0.4778E-01  0.5180E+00
      8.864  0.4974E-01  0.5229E+00
      8.963  0.4900E-01  0.5277E+00
      9.062  0.4714E-01  0.5324E+00
      9.161  0.4676E-01  0.5370E+00
      9.260  0.4659E-01  0.5417E+00
      9.359  0.4499E-01  0.5461E+00
      9.458  0.4488E-01  0.5505E+00
      9.557  0.4853E-01  0.5553E+00
      9.656  0.5218E-01  0.5605E+00
      9.755  0.5136E-01  0.5656E+00
      9.854  0.4639E-01  0.5702E+00
      9.953  0.4166E-01  0.5743E+00
     10.052  0.4093E-01  0.5784E+00
     10.151  0.4288E-01  0.5826E+00
     10.250  0.4374E-01  0.5869E+00
     10.349  0.4306E-01  0.5912E+00
     10.448  0.4303E-01  0.5954E+00
     10.547  0.4415E-01  0.5998E+00
     10.646  0.4502E-01  0.6043E+00
     10.745  0.4570E-01  0.6088E+00
     10.844  0.4817E-01  0.6136E+00
     10.942  0.5300E-01  0.6188E+00
     11.041  0.5892E-01  0.6246E+00
     11.140  0.6492E-01  0.6311E+00
     11.239  0.7114E-01  0.6381E+00
     11.338  0.7813E-01  0.6458E+00
     11.437  0.8203E-01  0.6540E+00
     11.536  0.7708E-01  0.6616E+00
     11.635  0.6653E-01  0.6682E+00
     11.734  0.5808E-01  0.6739E+00
     11.833  0.5312E-01  0.6792E+00
     11.932  0.5205E-01  0.6843E+00
     12.031  0.5614E-01  0.6899E+00
     12.130  0.6023E-01  0.6958E+00
     12.229  0.5929E-01  0.7017E+00
     12.328  0.5652E-01  0.7073E+00
     12.427  0.5512E-01  0.7128E+00
     12.526  0.5456E-01  0.7182E+00
     12.625  0.5655E-01  0.7237E+00
     12.724  0.6340E-01  0.7300E+00
     12.823  0.7356E-01  0.7373E+00
     12.922  0.8274E-01  0.7455E+00
     13.021  0.8539E-01  0.7539E+00
     13.120  0.7882E-01  0.7617E+00
     13.219  0.6839E-01  0.7685E+00
     13.318  0.6217E-01  0.7747E+00
     13.417  0.6278E-01  0.7809E+00
     13.515  0.6692E-01  0.7875E+00
     13.614  0.6906E-01  0.7943E+00
     13.713  0.6771E-01  0.8010E+00
     13.812  0.6815E-01  0.8078E+00
     13.911  0.7441E-01  0.8151E+00
     14.010  0.8244E-01  0.8233E+00
     14.109  0.8492E-01  0.8317E+00
     14.208  0.7994E-01  0.8396E+00
     14.307  0.7316E-01  0.8469E+00
     14.406  0.7014E-01  0.8538E+00
     14.505  0.7007E-01  0.8607E+00
     14.604  0.6911E-01  0.8676E+00
     14.703  0.6537E-01  0.8740E+00
     14.802  0.5990E-01  0.8800E+00
     14.901  0.5465E-01  0.8854E+00
     15.000  0.5136E-01  0.8905E+00
     15.099  0.5224E-01  0.8956E+00
     15.198  0.5744E-01  0.9013E+00
     15.297  0.6278E-01  0.9075E+00
     15.396  0.6427E-01  0.9139E+00
     15.495  0.6137E-01  0.9200E+00
     15.594  0.5605E-01  0.9255E+00
     15.693  0.5278E-01  0.9307E+00
     15.792  0.5404E-01  0.9361E+00
     15.891  0.5682E-01  0.9417E+00
     15.990  0.5692E-01  0.9473E+00
     16.088  0.5330E-01  0.9526E+00
     16.187  0.4983E-01  0.9575E+00
     16.286  0.5126E-01  0.9626E+00
     16.385  0.5555E-01  0.9681E+00
     16.484  0.5630E-01  0.9737E+00
     16.583  0.5095E-01  0.9787E+00
     16.682  0.4178E-01  0.9829E+00
     16.781  0.3249E-01  0.9861E+00
     16.880  0.2763E-01  0.9888E+00
     16.979  0.3090E-01  0.9919E+00
     17.078  0.3975E-01  0.9958E+00
     17.177  0.4582E-01  0.1000E+01
     17.276  0.4403E-01  0.1005E+01
     17.375  0.3800E-01  0.1008E+01
     17.474  0.3318E-01  0.1012E+01
     17.573  0.2955E-01  0.1015E+01
     17.672  0.2533E-01  0.1017E+01
     17.771  0.2187E-01  0.1019E+01
     17.870  0.2147E-01  0.1021E+01
     17.969  0.2446E-01  0.1024E+01
     18.068  0.2958E-01  0.1027E+01
     18.167  0.3403E-01  0.1030E+01
     18.266  0.3477E-01  0.1034E+01
     18.365  0.3127E-01  0.1037E+01
     18.464  0.2608E-01  0.1039E+01
     18.563  0.2189E-01  0.1041E+01
     18.662  0.1954E-01  0.1043E+01
     18.760  0.1933E-01  0.1045E+01
     18.859  0.2186E-01  0.1047E+01
     18.958  0.2537E-01  0.1050E+01
     19.057  0.2568E-01  0.1053E+01
     19.156  0.2142E-01  0.1055E+01
     19.255  0.1491E-01  0.1056E+01
     19.354  0.8897E-02  0.1057E+01
     19.453  0.5538E-02  0.1058E+01
     19.552  0.5713E-02  0.1058E+01
     19.651  0.8296E-02  0.1059E+01
     19.750  0.1076E-01  0.1060E+01
     19.849  0.1102E-01  0.1061E+01
     19.948  0.9387E-02  0.1062E+01
     20.047  0.7653E-02  0.1063E+01
     20.146  0.6781E-02  0.1063E+01
     20.245  0.6558E-02  0.1064E+01
     20.344  0.6506E-02  0.1065E+01
     20.443  0.5918E-02  0.1065E+01
     20.542  0.4284E-02  0.1066E+01
     20.641  0.2275E-02  0.1066E+01
     20.740  0.1036E-02  0.1066E+01
     20.839  0.8561E-03  0.1066E+01
     20.938  0.1200E-02  0.1066E+01
     21.037  0.1432E-02  0.1066E+01
     21.136  0.1272E-02  0.1067E+01
     21.235  0.8220E-03  0.1067E+01
     21.333  0.3730E-03  0.1067E+01
     21.432  0.1139E-03  0.1067E+01
     21.531  0.2273E-04  0.1067E+01
     21.630  0.2907E-05  0.1067E+01
     21.729  0.2356E-06  0.1067E+01
     21.828  0.1202E-07  0.1067E+01
     21.927  0.3842E-09  0.1067E+01
     22.026  0.7667E-11  0.1067E+01
     22.125  0.9522E-13  0.1067E+01
     22.224  0.7341E-15  0.1067E+01
     22.323  0.3463E-17  0.1067E+01
     22.422  0.0000E+00  0.1067E+01
     22.521  0.0000E+00  0.1067E+01
     22.620  0.0000E+00  0.1067E+01
     22.719  0.0000E+00  0.1067E+01
     22.818  0.0000E+00  0.1067E+01
     22.917  0.0000E+00  0.1067E+01
     23.016  0.0000E+00  0.1067E+01
     23.115  0.0000E+00  0.1067E+01
