    2    2   15    1
  0.1529437E+02  0.3691622E-09  0.3691622E-09  0.3691622E-09  0.5000000E-15
  1.000000000000000E-004
  CAR 
 unknown system                          
      8    159      8
 
  0.4166667E-01  0.4166667E-01  0.4166667E-01  0.4629630E-02
    1       -4.377629   1.000000
    2        4.962727   1.000000
    3        6.508837   1.000000
    4        7.502748   1.000000
    5       11.210069   0.000000
    6       15.373853   0.000000
    7       16.488828   0.000000
    8       17.307729   0.000000
 
  0.1250000E+00  0.4166667E-01  0.4166667E-01  0.9259259E-02
    1       -3.790627   1.000000
    2        4.636033   1.000000
    3        6.671480   1.000000
    4        8.626613   0.999358
    5       12.294578   0.000000
    6       13.888424   0.000000
    7       14.126296   0.000000
    8       16.000159   0.000000
 
  0.2083333E+00  0.4166667E-01  0.4166667E-01  0.9259259E-02
    1       -2.816773   1.000000
    2        4.631929   1.000000
    3        6.840378   1.000000
    4        9.647164   0.000032
    5       11.474750   0.000000
    6       12.094573   0.000000
    7       13.839892   0.000000
    8       14.749256   0.000000
 
  0.2916667E+00  0.4166667E-01  0.4166667E-01  0.9259259E-02
    1       -1.463685   1.000000
    2        4.968975   1.000000
    3        7.159907   1.000000
    4        7.544590   1.000000
    5       10.075689   0.000000
    6       12.643623   0.000000
    7       13.135102   0.000000
    8       14.087254   0.000000
 
  0.3750000E+00  0.4166667E-01  0.4166667E-01  0.9259259E-02
    1        0.253887   1.000000
    2        4.730007   1.000000
    3        5.752127   1.000000
    4        7.545588   1.000000
    5        8.695367   0.996867
    6       11.418920   0.000000
    7       13.659317   0.000000
    8       14.390037   0.000000
 
  0.4583333E+00  0.4166667E-01  0.4166667E-01  0.4629630E-02
    1        2.073156   1.000000
    2        2.624807   1.000000
    3        6.591044   1.000000
    4        6.830493   1.000000
    5        8.618192   0.999480
    6       10.671273   0.000000
    7       13.536027   0.000000
    8       14.520253   0.000000
 
 -0.4166667E-01  0.4166667E-01  0.4166667E-01  0.2314815E-02
    1       -4.573779   1.000000
    2        5.339385   1.000000
    3        6.124896   1.000000
    4        7.214996   1.000000
    5       10.794371   0.000000
    6       15.771903   0.000000
    7       17.403085   0.000000
    8       17.973937   0.000000
 
  0.1250000E+00  0.1250000E+00  0.4166667E-01  0.4629630E-02
    1       -2.898619   1.000000
    2        4.631495   1.000000
    3        7.724971   1.000000
    4        9.128912   0.369897
    5       11.540637   0.000000
    6       11.675637   0.000000
    7       13.854470   0.000000
    8       15.261396   0.000000
 
  0.2083333E+00  0.1250000E+00  0.4166667E-01  0.9259259E-02
    1       -1.625720   1.000000
    2        4.923751   1.000000
    3        7.938404   1.000000
    4        8.309376   1.000000
    5        9.657067   0.000024
    6       11.451244   0.000000
    7       13.602419   0.000000
    8       14.324358   0.000000
 
  0.2916667E+00  0.1250000E+00  0.4166667E-01  0.9259259E-02
    1        0.015265   1.000000
    2        5.307479   1.000000
    3        5.720027   1.000000
    4        7.091636   1.000000
    5        9.497432   0.001652
    6       11.956839   0.000000
    7       13.075175   0.000000
    8       14.005102   0.000000
 
  0.3750000E+00  0.1250000E+00  0.4166667E-01  0.9259259E-02
    1        1.957564   1.000000
    2        3.047918   1.000000
    3        5.683297   1.000000
    4        6.519583   1.000000
    5        9.516569   0.001059
    6       11.433999   0.000000
    7       12.885571   0.000000
    8       15.264972   0.000000
 
  0.4583333E+00  0.1250000E+00  0.4166667E-01  0.9259259E-02
    1        0.809899   1.000000
    2        4.215246   1.000000
    3        4.725712   1.000000
    4        7.525637   1.000000
    5        9.024295   0.658227
    6       12.103828   0.000000
    7       13.029528   0.000000
    8       15.279186   0.000000
 
 -0.4583333E+00  0.1250000E+00  0.4166667E-01  0.9259259E-02
    1       -0.977906   1.000000
    2        3.707076   1.000000
    3        7.006972   1.000000
    4        7.601070   1.000000
    5        9.854571   0.000000
    6       12.690296   0.000000
    7       13.293217   0.000000
    8       14.511198   0.000000
 
 -0.3750000E+00  0.1250000E+00  0.4166667E-01  0.9259259E-02
    1       -2.407943   1.000000
    2        3.274609   1.000000
    3        7.155429   1.000000
    4        9.650645   0.000029
    5       11.480235   0.000000
    6       11.725049   0.000000
    7       13.520803   0.000000
    8       15.592913   0.000000
 
 -0.2916667E+00  0.1250000E+00  0.4166667E-01  0.9259259E-02
    1       -3.461466   1.000000
    2        3.198663   1.000000
    3        6.958795   1.000000
    4        9.273287   0.088026
    5       12.770142   0.000000
    6       13.557092   0.000000
    7       13.996972   0.000000
    8       15.399154   0.000000
 
 -0.2083333E+00  0.1250000E+00  0.4166667E-01  0.4629630E-02
    1       -4.129914   1.000000
    2        3.474889   1.000000
    3        6.737946   1.000000
    4        8.248306   1.000000
    5       12.581177   0.000000
    6       13.921617   0.000000
    7       15.466347   0.000000
    8       17.062408   0.000000
 
 -0.1250000E+00  0.1250000E+00  0.4166667E-01  0.4629630E-02
    1       -4.408496   1.000000
    2        4.058250   1.000000
    3        6.135128   1.000000
    4        8.124932   1.000000
    5       11.743581   0.000000
    6       14.270945   0.000000
    7       16.493992   0.000000
    8       19.021393   0.000000
 
 -0.4166667E-01  0.1250000E+00  0.4166667E-01  0.4629630E-02
    1       -4.295078   1.000000
    2        4.653473   1.000000
    3        5.834011   1.000000
    4        8.375799   1.000000
    5       11.610502   0.000000
    6       14.370628   0.000000
    7       16.576253   0.000000
    8       18.054531   0.000000
 
  0.2083333E+00  0.2083333E+00  0.4166667E-01  0.4629630E-02
    1       -0.064517   1.000000
    2        5.460219   1.000000
    3        6.253360   1.000000
    4        6.305519   1.000000
    5       10.198179   0.000000
    6       12.422494   0.000000
    7       12.730687   0.000000
    8       13.008214   0.000000
 
  0.2916667E+00  0.2083333E+00  0.4166667E-01  0.9259259E-02
    1        1.828771   1.000000
    2        3.783262   1.000000
    3        4.679022   1.000000
    4        6.417861   1.000000
    5       10.247451   0.000000
    6       11.672267   0.000000
    7       13.042271   0.000000
    8       14.604021   0.000000
 
  0.3750000E+00  0.2083333E+00  0.4166667E-01  0.9259259E-02
    1        1.517441   1.000000
    2        3.333402   1.000000
    3        4.267762   1.000000
    4        7.484333   1.000000
    5        9.521658   0.000938
    6       11.440875   0.000000
    7       13.994499   0.000000
    8       15.838828   0.000000
 
  0.4583333E+00  0.2083333E+00  0.4166667E-01  0.9259259E-02
    1       -0.333551   1.000000
    2        2.501792   1.000000
    3        6.746062   1.000000
    4        8.015701   1.000000
    5        9.649224   0.000030
    6       11.708035   0.000000
    7       13.985123   0.000000
    8       15.539783   0.000000
 
 -0.4583333E+00  0.2083333E+00  0.4166667E-01  0.9259259E-02
    1       -1.837540   1.000000
    2        1.982370   1.000000
    3        7.643088   1.000000
    4        9.471599   0.002932
    5       10.866766   0.000000
    6       12.077929   0.000000
    7       12.758744   0.000000
    8       15.426067   0.000000
 
 -0.3750000E+00  0.2083333E+00  0.4166667E-01  0.9259259E-02
    1       -2.969168   1.000000
    2        1.829469   1.000000
    3        7.408061   1.000000
    4        9.855782   0.000000
    5       11.734558   0.000000
    6       13.099952   0.000000
    7       14.420872   0.000000
    8       14.959590   0.000000
 
 -0.2916667E+00  0.2083333E+00  0.4166667E-01  0.4629630E-02
    1       -3.717940   1.000000
    2        2.043294   1.000000
    3        7.119486   1.000000
    4        8.852771   0.947436
    5       12.529334   0.000000
    6       14.305765   0.000000
    7       14.425677   0.000000
    8       16.761524   0.000000
 
 -0.2083333E+00  0.2083333E+00  0.4166667E-01  0.4629630E-02
    1       -4.078321   1.000000
    2        2.610097   1.000000
    3        6.427164   1.000000
    4        8.790315   0.980402
    5       12.807542   0.000000
    6       13.400870   0.000000
    7       15.247726   0.000000
    8       19.205662   0.000000
 
 -0.1250000E+00  0.2083333E+00  0.4166667E-01  0.9259259E-02
    1       -4.047552   1.000000
    2        3.474593   1.000000
    3        5.767279   1.000000
    4        9.274689   0.086454
    5       12.803039   0.000000
    6       12.953642   0.000000
    7       15.979798   0.000000
    8       17.168505   0.000000
 
 -0.4166667E-01  0.2083333E+00  0.4166667E-01  0.4629630E-02
    1       -3.626116   1.000000
    2        4.333126   1.000000
    3        5.719332   1.000000
    4        9.749906   0.000001
    5       12.952628   0.000000
    6       13.029901   0.000000
    7       13.638962   0.000000
    8       15.865893   0.000000
 
  0.2916667E+00  0.2916667E+00  0.4166667E-01  0.4629630E-02
    1        2.334761   1.000000
    2        2.402286   1.000000
    3        4.166428   1.000000
    4        7.461262   1.000000
    5        9.930104   0.000000
    6       10.883920   0.000000
    7       15.190896   0.000000
    8       15.338491   0.000000
 
  0.3750000E+00  0.2916667E+00  0.4166667E-01  0.9259259E-02
    1        0.465712   1.000000
    2        1.414258   1.000000
    3        6.605377   1.000000
    4        8.381404   1.000000
    5        9.550961   0.000456
    6       11.028396   0.000000
    7       14.617766   0.000000
    8       15.788208   0.000000
 
  0.4583333E+00  0.2916667E+00  0.4166667E-01  0.9259259E-02
    1       -1.108430   1.000000
    2        0.809231   1.000000
    3        8.254690   1.000000
    4        9.272320   0.089124
    5       10.140480   0.000000
    6       12.153566   0.000000
    7       12.835162   0.000000
    8       14.594623   0.000000
 
 -0.4583333E+00  0.2916667E+00  0.4166667E-01  0.9259259E-02
    1       -2.315468   1.000000
    2        0.577349   1.000000
    3        8.007356   1.000000
    4       10.399574   0.000000
    5       10.739906   0.000000
    6       12.614790   0.000000
    7       14.104591   0.000000
    8       14.215474   0.000000
 
 -0.3750000E+00  0.2916667E+00  0.4166667E-01  0.4629630E-02
    1       -3.143087   1.000000
    2        0.720303   1.000000
    3        7.652998   1.000000
    4        9.492804   0.001835
    5       11.276326   0.000000
    6       13.153005   0.000000
    7       16.047034   0.000000
    8       16.510517   0.000000
 
 -0.2916667E+00  0.2916667E+00  0.4166667E-01  0.4629630E-02
    1       -3.584379   1.000000
    2        1.232454   1.000000
    3        6.885879   1.000000
    4        9.408482   0.010472
    5       11.464279   0.000000
    6       14.021873   0.000000
    7       15.411435   0.000000
    8       18.973615   0.000000
 
 -0.2083333E+00  0.2916667E+00  0.4166667E-01  0.9259259E-02
    1       -3.636021   1.000000
    2        2.096224   1.000000
    3        6.099729   1.000000
    4        9.949783   0.000000
    5       11.556332   0.000000
    6       14.520214   0.000000
    7       15.171926   0.000000
    8       16.606785   0.000000
 
 -0.1250000E+00  0.2916667E+00  0.4166667E-01  0.9259259E-02
    1       -3.297630   1.000000
    2        3.248460   1.000000
    3        5.643862   1.000000
    4       10.544491   0.000000
    5       11.804122   0.000000
    6       13.162634   0.000000
    7       14.302878   0.000000
    8       15.777685   0.000000
 
 -0.4166667E-01  0.2916667E+00  0.4166667E-01  0.4629630E-02
    1       -2.571670   1.000000
    2        4.380188   1.000000
    3        5.871531   1.000000
    4        9.608533   0.000098
    5       11.804182   0.000000
    6       12.332228   0.000000
    7       14.117514   0.000000
    8       14.238508   0.000000
 
  0.3750000E+00  0.3750000E+00  0.4166667E-01  0.4629630E-02
    1       -0.226445   1.000000
    2       -0.221935   1.000000
    3        8.873681   0.929575
    4        8.919038   0.875322
    5        9.750544   0.000001
    6       12.045305   0.000000
    7       13.302725   0.000000
    8       13.997052   0.000000
 
  0.4583333E+00  0.3750000E+00  0.4166667E-01  0.9259259E-02
    1       -1.503419   1.000000
    2       -0.536934   1.000000
    3        8.749480   0.990635
    4        9.624621   0.000062
    5       11.170266   0.000000
    6       12.049885   0.000000
    7       13.688404   0.000000
    8       14.033946   0.000000
 
 -0.4583333E+00  0.3750000E+00  0.4166667E-01  0.4629630E-02
    1       -2.407842   1.000000
    2       -0.469726   1.000000
    3        8.337469   1.000000
    4       10.133703   0.000000
    5       10.254327   0.000000
    6       12.072940   0.000000
    7       16.327902   0.000000
    8       16.353138   0.000000
 
 -0.3750000E+00  0.3750000E+00  0.4166667E-01  0.4629630E-02
    1       -2.928702   1.000000
    2       -0.024917   1.000000
    3        7.500917   1.000000
    4       10.098738   0.000000
    5       10.255089   0.000000
    6       12.872180   0.000000
    7       17.520823   0.000000
    8       18.845858   0.000000
 
 -0.2916667E+00  0.3750000E+00  0.4166667E-01  0.9259259E-02
    1       -3.062047   1.000000
    2        0.788650   1.000000
    3        6.625259   1.000000
    4       10.281141   0.000000
    5       10.612622   0.000000
    6       14.091368   0.000000
    7       15.912859   0.000000
    8       16.739669   0.000000
 
 -0.2083333E+00  0.3750000E+00  0.4166667E-01  0.9259259E-02
    1       -2.806641   1.000000
    2        1.949835   1.000000
    3        6.024800   1.000000
    4       10.458539   0.000000
    5       11.128730   0.000000
    6       12.934459   0.000000
    7       15.112476   0.000000
    8       16.371230   0.000000
 
 -0.1250000E+00  0.3750000E+00  0.4166667E-01  0.9259259E-02
    1       -2.164351   1.000000
    2        3.388619   1.000000
    3        5.825783   1.000000
    4        9.257283   0.107517
    5       10.934744   0.000000
    6       12.959560   0.000000
    7       13.700461   0.000000
    8       15.412499   0.000000
 
 -0.4166667E-01  0.3750000E+00  0.4166667E-01  0.4629630E-02
    1       -1.140112   1.000000
    2        4.776128   1.000000
    3        6.317963   1.000000
    4        6.948511   1.000000
    5       10.372951   0.000000
    6       12.920032   0.000000
    7       12.966945   0.000000
    8       14.229211   0.000000
 
  0.4583333E+00  0.4583333E+00  0.4166667E-01  0.2314815E-02
    1       -1.514821   1.000000
    2       -1.514820   1.000000
    3        9.171146   0.264099
    4        9.171151   0.264087
    5       11.097125   0.000000
    6       11.097138   0.000000
    7       16.304316   0.000000
    8       16.304330   0.000000
 
 -0.4583333E+00  0.4583333E+00  0.4166667E-01  0.4629630E-02
    1       -2.114056   1.000000
    2       -1.143782   1.000000
    3        8.269137   1.000000
    4        9.188431   0.225728
    5       10.901362   0.000000
    6       11.826895   0.000000
    7       18.636958   0.000000
    8       18.707768   0.000000
 
 -0.3750000E+00  0.4583333E+00  0.4166667E-01  0.9259259E-02
    1       -2.327839   1.000000
    2       -0.394965   1.000000
    3        7.314289   1.000000
    4        9.151003   0.312659
    5       11.336613   0.000000
    6       13.108392   0.000000
    7       15.783518   0.000000
    8       17.132404   0.000000
 
 -0.2916667E+00  0.4583333E+00  0.4166667E-01  0.9259259E-02
    1       -2.154847   1.000000
    2        0.720068   1.000000
    3        6.614518   1.000000
    4        9.321336   0.045250
    5       11.359398   0.000000
    6       13.041009   0.000000
    7       14.994052   0.000000
    8       15.442584   0.000000
 
 -0.2083333E+00  0.4583333E+00  0.4166667E-01  0.9259259E-02
    1       -1.596376   1.000000
    2        2.175784   1.000000
    3        6.258486   1.000000
    4        8.919752   0.874280
    5        9.856047   0.000000
    6       13.121746   0.000000
    7       13.867538   0.000000
    8       16.461366   0.000000
 
 -0.1250000E+00  0.4583333E+00  0.4166667E-01  0.9259259E-02
    1       -0.657277   1.000000
    2        3.885155   1.000000
    3        6.257831   1.000000
    4        6.571158   1.000000
    5       10.016273   0.000000
    6       12.061968   0.000000
    7       13.713580   0.000000
    8       15.258728   0.000000
 
 -0.4166667E-01  0.4583333E+00  0.4166667E-01  0.4629630E-02
    1        0.649351   1.000000
    2        4.205805   1.000000
    3        5.652648   1.000000
    4        7.019244   1.000000
    5        8.947089   0.829847
    6       11.417191   0.000000
    7       12.597617   0.000000
    8       15.476546   0.000000
 
 -0.4583333E+00 -0.4583333E+00  0.4166667E-01  0.4629630E-02
    1       -1.437220   1.000000
    2       -1.436237   1.000000
    3        8.149925   1.000000
    4        8.166465   1.000000
    5       12.074072   0.000000
    6       12.275597   0.000000
    7       15.713243   0.000000
    8       17.120909   0.000000
 
 -0.3750000E+00 -0.4583333E+00  0.4166667E-01  0.9259259E-02
    1       -1.345901   1.000000
    2       -0.384513   1.000000
    3        7.370036   1.000000
    4        8.277376   1.000000
    5       11.432179   0.000000
    6       13.437306   0.000000
    7       14.641358   0.000000
    8       14.889463   0.000000
 
 -0.2916667E+00 -0.4583333E+00  0.4166667E-01  0.9259259E-02
    1       -0.871085   1.000000
    2        1.028738   1.000000
    3        6.901172   1.000000
    4        8.495682   0.999983
    5        9.024532   0.657611
    6       12.952274   0.000000
    7       14.519534   0.000000
    8       16.292127   0.000000
 
 -0.2083333E+00 -0.4583333E+00  0.4166667E-01  0.9259259E-02
    1       -0.017599   1.000000
    2        2.767011   1.000000
    3        6.145509   1.000000
    4        6.865075   1.000000
    5        9.246790   0.121878
    6       11.539815   0.000000
    7       14.831448   0.000000
    8       16.091467   0.000000
 
 -0.1250000E+00 -0.4583333E+00  0.4166667E-01  0.9259259E-02
    1        1.197682   1.000000
    2        3.803690   1.000000
    3        4.871651   1.000000
    4        7.081772   1.000000
    5        9.015218   0.681470
    6       11.393173   0.000000
    7       12.324963   0.000000
    8       16.487928   0.000000
 
 -0.4166667E-01 -0.4583333E+00  0.4166667E-01  0.4629630E-02
    1        1.799030   1.000000
    2        2.895461   1.000000
    3        6.639053   1.000000
    4        7.720009   1.000000
    5        7.825670   1.000000
    6       10.506415   0.000000
    7       12.687241   0.000000
    8       15.349211   0.000000
 
 -0.3750000E+00 -0.3750000E+00  0.4166667E-01  0.4629630E-02
    1        0.002236   1.000000
    2        0.011410   1.000000
    3        7.682884   1.000000
    4        7.695257   1.000000
    5        8.834667   0.959812
    6       12.885344   0.000000
    7       15.011523   0.000000
    8       15.805302   0.000000
 
 -0.2916667E+00 -0.3750000E+00  0.4166667E-01  0.9259259E-02
    1        0.774021   1.000000
    2        1.709157   1.000000
    3        6.010377   1.000000
    4        7.519453   1.000000
    5        8.391482   0.999999
    6       11.309252   0.000000
    7       15.893067   0.000000
    8       16.677549   0.000000
 
 -0.2083333E+00 -0.3750000E+00  0.4166667E-01  0.9259259E-02
    1        1.889122   1.000000
    2        3.435000   1.000000
    3        3.987419   1.000000
    4        7.522295   1.000000
    5        8.804204   0.975229
    6       10.638526   0.000000
    7       13.535824   0.000000
    8       16.397971   0.000000
 
 -0.1250000E+00 -0.3750000E+00  0.4166667E-01  0.9259259E-02
    1        1.514984   1.000000
    2        3.479695   1.000000
    3        6.018954   1.000000
    4        7.448914   1.000000
    5        8.566803   0.999865
    6       10.986005   0.000000
    7       11.775209   0.000000
    8       15.516636   0.000000
 
 -0.4166667E-01 -0.3750000E+00  0.4166667E-01  0.4629630E-02
    1       -0.145861   1.000000
    2        5.275480   1.000000
    3        6.630105   1.000000
    4        7.727461   1.000000
    5        8.392665   0.999999
    6       10.965376   0.000000
    7       13.023255   0.000000
    8       14.449026   0.000000
 
 -0.2916667E+00 -0.2916667E+00  0.4166667E-01  0.4629630E-02
    1        2.623204   1.000000
    2        2.781488   1.000000
    3        3.705968   1.000000
    4        7.842798   1.000000
    5        8.588559   0.999757
    6       10.343209   0.000000
    7       14.644997   0.000000
    8       15.440887   0.000000
 
 -0.2083333E+00 -0.2916667E+00  0.4166667E-01  0.9259259E-02
    1        1.365215   1.000000
    2        4.225557   1.000000
    3        5.097977   1.000000
    4        7.425862   1.000000
    5        9.141137   0.337767
    6       10.645122   0.000000
    7       12.465328   0.000000
    8       14.168901   0.000000
 
 -0.1250000E+00 -0.2916667E+00  0.4166667E-01  0.9259259E-02
    1       -0.386517   1.000000
    2        5.935996   1.000000
    3        6.830201   1.000000
    4        7.474563   1.000000
    5        8.895027   0.906865
    6       11.241175   0.000000
    7       12.026289   0.000000
    8       13.412215   0.000000
 
 -0.4166667E-01 -0.2916667E+00  0.4166667E-01  0.4629630E-02
    1       -1.788817   1.000000
    2        6.007703   1.000000
    3        7.275089   1.000000
    4        8.011633   1.000000
    5       10.077805   0.000000
    6       12.011638   0.000000
    7       12.468110   0.000000
    8       14.297940   0.000000
 
 -0.2083333E+00 -0.2083333E+00  0.4166667E-01  0.4629630E-02
    1       -0.466993   1.000000
    2        6.642276   1.000000
    3        6.724756   1.000000
    4        6.862403   1.000000
    5        9.512725   0.001159
    6       11.392819   0.000000
    7       12.152386   0.000000
    8       12.205398   0.000000
 
 -0.1250000E+00 -0.2083333E+00  0.4166667E-01  0.9259259E-02
    1       -1.951595   1.000000
    2        6.298786   1.000000
    3        8.002599   1.000000
    4        8.538419   0.999939
    5        9.741257   0.000002
    6       11.022055   0.000000
    7       12.727160   0.000000
    8       13.500931   0.000000
 
 -0.4166667E-01 -0.2083333E+00  0.4166667E-01  0.4629630E-02
    1       -3.062673   1.000000
    2        5.785753   1.000000
    3        6.899373   1.000000
    4        9.165287   0.277818
    5       11.650384   0.000000
    6       12.375778   0.000000
    7       12.727294   0.000000
    8       14.925276   0.000000
 
 -0.1250000E+00 -0.1250000E+00  0.4166667E-01  0.4629630E-02
    1       -3.144690   1.000000
    2        6.083092   1.000000
    3        7.519809   1.000000
    4        8.478885   0.999990
    5       11.906809   0.000000
    6       12.102624   0.000000
    7       12.550996   0.000000
    8       14.915648   0.000000
 
 -0.4166667E-01 -0.1250000E+00  0.4166667E-01  0.4629630E-02
    1       -3.955510   1.000000
    2        5.903912   1.000000
    3        6.658201   1.000000
    4        7.739422   1.000000
    5       11.406452   0.000000
    6       14.399266   0.000000
    7       14.601037   0.000000
    8       16.759790   0.000000
 
 -0.4166667E-01 -0.4166667E-01  0.4166667E-01  0.1157407E-02
    1       -4.460199   1.000000
    2        6.333078   1.000000
    3        6.432410   1.000000
    4        6.432433   1.000000
    5       10.696697   0.000000
    6       16.533651   0.000000
    7       17.004922   0.000000
    8       17.351100   0.000000
 
  0.1250000E+00  0.1250000E+00  0.1250000E+00  0.4629630E-02
    1       -2.489304   1.000000
    2        3.221935   1.000000
    3        8.056730   1.000000
    4        9.552765   0.000435
    5       11.191670   0.000000
    6       11.305991   0.000000
    7       14.337523   0.000000
    8       15.085485   0.000000
 
  0.2083333E+00  0.1250000E+00  0.1250000E+00  0.9259259E-02
    1       -1.138600   1.000000
    2        3.590264   1.000000
    3        7.675894   1.000000
    4        8.221710   1.000000
    5        9.777170   0.000000
    6       11.932312   0.000000
    7       13.914112   0.000000
    8       14.796045   0.000000
 
  0.2916667E+00  0.1250000E+00  0.1250000E+00  0.9259259E-02
    1        0.574981   1.000000
    2        4.267958   1.000000
    3        5.154570   1.000000
    4        6.802446   1.000000
    5       10.114164   0.000000
    6       12.927304   0.000000
    7       13.847977   0.000000
    8       14.133252   0.000000
 
  0.3750000E+00  0.1250000E+00  0.1250000E+00  0.4629630E-02
    1        2.393434   1.000000
    2        2.923295   1.000000
    3        5.300055   1.000000
    4        5.558526   1.000000
    5       10.564688   0.000000
    6       12.278304   0.000000
    7       13.887409   0.000000
    8       14.447803   0.000000
 
 -0.1250000E+00  0.1250000E+00  0.1250000E+00  0.2314815E-02
    1       -4.243429   1.000000
    2        3.751105   1.000000
    3        5.163140   1.000000
    4        9.343214   0.032340
    5       12.391818   0.000000
    6       12.852790   0.000000
    7       17.675504   0.000000
    8       18.061092   0.000000
 
  0.2083333E+00  0.2083333E+00  0.1250000E+00  0.4629630E-02
    1        0.496255   1.000000
    2        4.226038   1.000000
    3        5.907026   1.000000
    4        5.942506   1.000000
    5       10.916421   0.000000
    6       13.000005   0.000000
    7       13.914063   0.000000
    8       14.002480   0.000000
 
  0.2916667E+00  0.2083333E+00  0.1250000E+00  0.9259259E-02
    1        2.425612   1.000000
    2        3.494175   1.000000
    3        4.378252   1.000000
    4        5.332241   1.000000
    5       11.406319   0.000000
    6       12.978187   0.000000
    7       13.769881   0.000000
    8       14.736533   0.000000
 
  0.3750000E+00  0.2083333E+00  0.1250000E+00  0.9259259E-02
    1        1.289165   1.000000
    2        3.154666   1.000000
    3        4.906630   1.000000
    4        6.616933   1.000000
    5       10.802569   0.000000
    6       12.751414   0.000000
    7       14.121468   0.000000
    8       15.032376   0.000000
 
  0.4583333E+00  0.2083333E+00  0.1250000E+00  0.9259259E-02
    1       -0.492311   1.000000
    2        2.361808   1.000000
    3        7.440078   1.000000
    4        8.122629   1.000000
    5       10.197320   0.000000
    6       12.427870   0.000000
    7       12.992762   0.000000
    8       14.779054   0.000000
 
 -0.4583333E+00  0.2083333E+00  0.1250000E+00  0.4629630E-02
    1       -1.918142   1.000000
    2        1.914403   1.000000
    3        8.492890   0.999984
    4        9.762737   0.000001
    5       10.965160   0.000000
    6       11.213343   0.000000
    7       13.216289   0.000000
    8       14.343318   0.000000
 
 -0.2083333E+00  0.2083333E+00  0.1250000E+00  0.4629630E-02
    1       -3.913945   1.000000
    2        2.658866   1.000000
    3        5.083890   1.000000
    4       10.284847   0.000000
    5       11.400203   0.000000
    6       13.783514   0.000000
    7       16.702938   0.000000
    8       18.591027   0.000000
 
 -0.1250000E+00  0.2083333E+00  0.1250000E+00  0.4629630E-02
    1       -3.800863   1.000000
    2        3.215411   1.000000
    3        4.757336   1.000000
    4       10.580077   0.000000
    5       11.495214   0.000000
    6       13.630824   0.000000
    7       15.731785   0.000000
    8       18.396016   0.000000
 
  0.2916667E+00  0.2916667E+00  0.1250000E+00  0.4629630E-02
    1        2.138839   1.000000
    2        2.166638   1.000000
    3        4.827071   1.000000
    4        6.554315   1.000000
    5       11.335347   0.000000
    6       12.133364   0.000000
    7       14.555084   0.000000
    8       15.568953   0.000000
 
  0.3750000E+00  0.2916667E+00  0.1250000E+00  0.9259259E-02
    1        0.310123   1.000000
    2        1.263806   1.000000
    3        7.313280   1.000000
    4        8.048889   1.000000
    5       10.812011   0.000000
    6       11.863969   0.000000
    7       13.244847   0.000000
    8       14.195110   0.000000
 
  0.4583333E+00  0.2916667E+00  0.1250000E+00  0.4629630E-02
    1       -1.187803   1.000000
    2        0.734930   1.000000
    3        8.976465   0.772117
    4        9.687839   0.000009
    5       10.931232   0.000000
    6       11.346630   0.000000
    7       12.498952   0.000000
    8       13.468799   0.000000
 
 -0.2916667E+00  0.2916667E+00  0.1250000E+00  0.4629630E-02
    1       -3.421338   1.000000
    2        1.352800   1.000000
    3        5.467733   1.000000
    4       10.050700   0.000000
    5       11.013474   0.000000
    6       15.545778   0.000000
    7       15.673245   0.000000
    8       18.676285   0.000000
 
 -0.2083333E+00  0.2916667E+00  0.1250000E+00  0.9259259E-02
    1       -3.390861   1.000000
    2        2.209786   1.000000
    3        4.707147   1.000000
    4       10.089582   0.000000
    5       11.536360   0.000000
    6       14.962823   0.000000
    7       15.464871   0.000000
    8       17.510806   0.000000
 
 -0.1250000E+00  0.2916667E+00  0.1250000E+00  0.4629630E-02
    1       -2.970862   1.000000
    2        3.053946   1.000000
    3        4.667958   1.000000
    4       10.377063   0.000000
    5       11.369097   0.000000
    6       13.326630   0.000000
    7       15.172884   0.000000
    8       16.193513   0.000000
 