    2    2   15    1
  0.1529437E+02  0.3691622E-09  0.3691622E-09  0.3691622E-09  0.5000000E-15
  1.000000000000000E-004
  CAR 
 unknown system                          
      8    159      8
 
  0.4166667E-01  0.4166667E-01  0.4166667E-01  0.4629630E-02
    1       -4.373353   1.000000
    2        5.316940   1.000000
    3        6.740602   1.000000
    4        7.992841   1.000000
    5       11.374709   0.000000
    6       15.373932   0.000000
    7       16.343535   0.000000
    8       17.281119   0.000000
 
  0.1250000E+00  0.4166667E-01  0.4166667E-01  0.9259259E-02
    1       -3.811076   1.000000
    2        4.932048   1.000000
    3        6.865126   1.000000
    4        9.068631   0.625023
    5       12.411756   0.000000
    6       13.427689   0.000000
    7       13.834157   0.000000
    8       16.058312   0.000000
 
  0.2083333E+00  0.4166667E-01  0.4166667E-01  0.9259259E-02
    1       -2.878418   1.000000
    2        4.853404   1.000000
    3        6.950868   1.000000
    4        9.584983   0.000430
    5       11.440215   0.000000
    6       11.788671   0.000000
    7       13.803132   0.000000
    8       14.911443   0.000000
 
  0.2916667E+00  0.4166667E-01  0.4166667E-01  0.9259259E-02
    1       -1.583609   1.000000
    2        5.075984   1.000000
    3        6.959514   1.000000
    4        7.411696   1.000000
    5        9.876396   0.000000
    6       12.525161   0.000000
    7       13.201460   0.000000
    8       14.238882   0.000000
 
  0.3750000E+00  0.4166667E-01  0.4166667E-01  0.9259259E-02
    1        0.054266   1.000000
    2        4.362664   1.000000
    3        5.858684   1.000000
    4        7.423990   1.000000
    5        8.609990   0.999816
    6       11.237863   0.000000
    7       13.736389   0.000000
    8       14.457003   0.000000
 
  0.4583333E+00  0.4166667E-01  0.4166667E-01  0.4629630E-02
    1        1.690931   1.000000
    2        2.468474   1.000000
    3        6.635853   1.000000
    4        6.707432   1.000000
    5        8.475622   0.999997
    6       10.603979   0.000000
    7       13.585600   0.000000
    8       14.555835   0.000000
 
 -0.4166667E-01  0.4166667E-01  0.4166667E-01  0.2314815E-02
    1       -4.561280   1.000000
    2        5.754261   1.000000
    3        6.353893   1.000000
    4        7.698654   1.000000
    5       10.950302   0.000000
    6       16.008277   0.000000
    7       17.865417   0.000000
    8       18.101852   0.000000
 
  0.1250000E+00  0.1250000E+00  0.4166667E-01  0.4629630E-02
    1       -2.963016   1.000000
    2        4.834786   1.000000
    3        7.817288   1.000000
    4        9.446437   0.009317
    5       11.197122   0.000000
    6       11.266510   0.000000
    7       13.922629   0.000000
    8       15.043743   0.000000
 
  0.2083333E+00  0.1250000E+00  0.4166667E-01  0.9259259E-02
    1       -1.750960   1.000000
    2        5.017805   1.000000
    3        7.637609   1.000000
    4        8.189864   1.000000
    5        9.579504   0.000494
    6       11.638954   0.000000
    7       13.333507   0.000000
    8       14.148261   0.000000
 
  0.2916667E+00  0.1250000E+00  0.4166667E-01  0.9259259E-02
    1       -0.190690   1.000000
    2        4.979129   1.000000
    3        5.752381   1.000000
    4        6.921925   1.000000
    5        9.469639   0.005920
    6       11.859183   0.000000
    7       13.003725   0.000000
    8       14.220535   0.000000
 
  0.3750000E+00  0.1250000E+00  0.4166667E-01  0.9259259E-02
    1        1.613135   1.000000
    2        2.860825   1.000000
    3        5.559284   1.000000
    4        6.496993   1.000000
    5        9.407034   0.019032
    6       11.418289   0.000000
    7       12.902932   0.000000
    8       15.366114   0.000000
 
  0.4583333E+00  0.1250000E+00  0.4166667E-01  0.9259259E-02
    1        0.624969   1.000000
    2        3.862319   1.000000
    3        4.729113   1.000000
    4        7.397765   1.000000
    5        8.986961   0.814925
    6       12.054351   0.000000
    7       13.083371   0.000000
    8       15.325584   0.000000
 
 -0.4583333E+00  0.1250000E+00  0.4166667E-01  0.9259259E-02
    1       -1.081919   1.000000
    2        3.762869   1.000000
    3        6.591272   1.000000
    4        7.646609   1.000000
    5        9.661291   0.000054
    6       12.813056   0.000000
    7       13.496771   0.000000
    8       14.400253   0.000000
 
 -0.3750000E+00  0.1250000E+00  0.4166667E-01  0.9259259E-02
    1       -2.455968   1.000000
    2        3.430941   1.000000
    3        7.272566   1.000000
    4        9.337013   0.057163
    5       11.263546   0.000000
    6       11.898595   0.000000
    7       13.648251   0.000000
    8       15.451666   0.000000
 
 -0.2916667E+00  0.1250000E+00  0.4166667E-01  0.9259259E-02
    1       -3.470932   1.000000
    2        3.428738   1.000000
    3        7.160336   1.000000
    4        9.688105   0.000024
    5       12.504088   0.000000
    6       13.283657   0.000000
    7       14.184707   0.000000
    8       15.274523   0.000000
 
 -0.2083333E+00  0.1250000E+00  0.4166667E-01  0.4629630E-02
    1       -4.117392   1.000000
    2        3.762698   1.000000
    3        6.973466   1.000000
    4        8.725290   0.996988
    5       12.813068   0.000000
    6       14.108158   0.000000
    7       15.763389   0.000000
    8       16.575299   0.000000
 
 -0.1250000E+00  0.1250000E+00  0.4166667E-01  0.4629630E-02
    1       -4.390488   1.000000
    2        4.396585   1.000000
    3        6.380018   1.000000
    4        8.615774   0.999785
    5       11.959427   0.000000
    6       14.592246   0.000000
    7       16.973917   0.000000
    8       18.400123   0.000000
 
 -0.4166667E-01  0.1250000E+00  0.4166667E-01  0.4629630E-02
    1       -4.288052   1.000000
    2        5.039589   1.000000
    3        6.022522   1.000000
    4        8.866271   0.959907
    5       11.787321   0.000000
    6       14.587598   0.000000
    7       16.064186   0.000000
    8       17.493378   0.000000
 
  0.2083333E+00  0.2083333E+00  0.4166667E-01  0.4629630E-02
    1       -0.272646   1.000000
    2        5.305194   1.000000
    3        5.996650   1.000000
    4        6.227665   1.000000
    5       10.174206   0.000000
    6       12.345711   0.000000
    7       12.821039   0.000000
    8       13.025936   0.000000
 
  0.2916667E+00  0.2083333E+00  0.4166667E-01  0.9259259E-02
    1        1.498943   1.000000
    2        3.593582   1.000000
    3        4.525621   1.000000
    4        6.380676   1.000000
    5       10.171566   0.000000
    6       11.627002   0.000000
    7       13.113989   0.000000
    8       14.763419   0.000000
 
  0.3750000E+00  0.2083333E+00  0.4166667E-01  0.9259259E-02
    1        1.347979   1.000000
    2        3.147440   1.000000
    3        4.054501   1.000000
    4        7.330817   1.000000
    5        9.538721   0.001326
    6       11.506224   0.000000
    7       13.962240   0.000000
    8       15.968816   0.000000
 
  0.4583333E+00  0.2083333E+00  0.4166667E-01  0.9259259E-02
    1       -0.416391   1.000000
    2        2.514439   1.000000
    3        6.302460   1.000000
    4        8.013399   1.000000
    5        9.554124   0.000922
    6       11.828627   0.000000
    7       14.239530   0.000000
    8       15.482113   0.000000
 
 -0.4583333E+00  0.2083333E+00  0.4166667E-01  0.9259259E-02
    1       -1.866449   1.000000
    2        2.087484   1.000000
    3        7.737546   1.000000
    4        9.070156   0.620927
    5       10.779625   0.000000
    6       12.380069   0.000000
    7       12.714305   0.000000
    8       15.711138   0.000000
 
 -0.3750000E+00  0.2083333E+00  0.4166667E-01  0.9259259E-02
    1       -2.962160   1.000000
    2        2.005143   1.000000
    3        7.613765   1.000000
    4       10.231930   0.000000
    5       11.738284   0.000000
    6       12.799187   0.000000
    7       14.088056   0.000000
    8       15.245407   0.000000
 
 -0.2916667E+00  0.2083333E+00  0.4166667E-01  0.4629630E-02
    1       -3.691654   1.000000
    2        2.273045   1.000000
    3        7.360976   1.000000
    4        9.318223   0.074063
    5       12.759902   0.000000
    6       14.688959   0.000000
    7       14.786796   0.000000
    8       16.046345   0.000000
 
 -0.2083333E+00  0.2083333E+00  0.4166667E-01  0.4629630E-02
    1       -4.049284   1.000000
    2        2.880687   1.000000
    3        6.683458   1.000000
    4        9.264049   0.143865
    5       13.145896   0.000000
    6       13.696371   0.000000
    7       15.764892   0.000000
    8       18.137149   0.000000
 
 -0.1250000E+00  0.2083333E+00  0.4166667E-01  0.9259259E-02
    1       -4.032250   1.000000
    2        3.781495   1.000000
    3        5.982596   1.000000
    4        9.758223   0.000003
    5       13.021742   0.000000
    6       13.273218   0.000000
    7       15.538792   0.000000
    8       17.158366   0.000000
 
 -0.4166667E-01  0.2083333E+00  0.4166667E-01  0.4629630E-02
    1       -3.641047   1.000000
    2        4.668035   1.000000
    3        5.845807   1.000000
    4       10.156905   0.000000
    5       12.818742   0.000000
    6       13.105819   0.000000
    7       13.473891   0.000000
    8       15.588722   0.000000
 
  0.2916667E+00  0.2916667E+00  0.4166667E-01  0.4629630E-02
    1        2.137506   1.000000
    2        2.287656   1.000000
    3        3.899172   1.000000
    4        7.298191   1.000000
    5        9.990343   0.000000
    6       10.918936   0.000000
    7       15.169882   0.000000
    8       15.475786   0.000000
 
  0.3750000E+00  0.2916667E+00  0.4166667E-01  0.9259259E-02
    1        0.409211   1.000000
    2        1.389803   1.000000
    3        6.152208   1.000000
    4        8.260415   1.000000
    5        9.676942   0.000034
    6       11.036586   0.000000
    7       14.908174   0.000000
    8       16.065993   0.000000
 
  0.4583333E+00  0.2916667E+00  0.4166667E-01  0.9259259E-02
    1       -1.112707   1.000000
    2        0.871497   1.000000
    3        8.243089   1.000000
    4        8.929089   0.904124
    5       10.241583   0.000000
    6       11.964540   0.000000
    7       13.134174   0.000000
    8       14.958836   0.000000
 
 -0.4583333E+00  0.2916667E+00  0.4166667E-01  0.9259259E-02
    1       -2.286450   1.000000
    2        0.706790   1.000000
    3        8.213555   1.000000
    4       10.555168   0.000000
    5       11.067920   0.000000
    6       12.471171   0.000000
    7       13.655061   0.000000
    8       14.271055   0.000000
 
 -0.3750000E+00  0.2916667E+00  0.4166667E-01  0.4629630E-02
    1       -3.097537   1.000000
    2        0.900311   1.000000
    3        7.902114   1.000000
    4        9.959659   0.000000
    5       11.538820   0.000000
    6       13.668470   0.000000
    7       15.670157   0.000000
    8       15.719311   0.000000
 
 -0.2916667E+00  0.2916667E+00  0.4166667E-01  0.4629630E-02
    1       -3.538779   1.000000
    2        1.447862   1.000000
    3        7.153068   1.000000
    4        9.875504   0.000000
    5       11.799499   0.000000
    6       14.545751   0.000000
    7       15.735157   0.000000
    8       17.898541   0.000000
 
 -0.2083333E+00  0.2916667E+00  0.4166667E-01  0.9259259E-02
    1       -3.606914   1.000000
    2        2.334571   1.000000
    3        6.337657   1.000000
    4       10.407960   0.000000
    5       11.878583   0.000000
    6       14.589798   0.000000
    7       15.249045   0.000000
    8       16.419282   0.000000
 
 -0.1250000E+00  0.2916667E+00  0.4166667E-01  0.9259259E-02
    1       -3.301522   1.000000
    2        3.505616   1.000000
    3        5.804207   1.000000
    4       10.760561   0.000000
    5       12.036105   0.000000
    6       12.853154   0.000000
    7       14.399655   0.000000
    8       15.406981   0.000000
 
 -0.4166667E-01  0.2916667E+00  0.4166667E-01  0.4629630E-02
    1       -2.625086   1.000000
    2        4.640811   1.000000
    3        5.918059   1.000000
    4        9.211313   0.245030
    5       11.787587   0.000000
    6       12.646834   0.000000
    7       13.959502   0.000000
    8       14.117809   0.000000
 
  0.3750000E+00  0.3750000E+00  0.4166667E-01  0.4629630E-02
    1       -0.202461   1.000000
    2       -0.193885   1.000000
    3        8.480653   0.999996
    4        8.975887   0.835095
    5        9.890768   0.000000
    6       11.752902   0.000000
    7       13.672695   0.000000
    8       14.339288   0.000000
 
  0.4583333E+00  0.3750000E+00  0.4166667E-01  0.9259259E-02
    1       -1.446802   1.000000
    2       -0.446967   1.000000
    3        8.947574   0.879944
    4        9.788834   0.000001
    5       11.382914   0.000000
    6       12.343473   0.000000
    7       13.443078   0.000000
    8       13.530118   0.000000
 
 -0.4583333E+00  0.3750000E+00  0.4166667E-01  0.4629630E-02
    1       -2.337435   1.000000
    2       -0.332436   1.000000
    3        8.594812   0.999878
    4       10.409865   0.000000
    5       10.725401   0.000000
    6       12.583339   0.000000
    7       15.539450   0.000000
    8       15.584663   0.000000
 
 -0.3750000E+00  0.3750000E+00  0.4166667E-01  0.4629630E-02
    1       -2.861005   1.000000
    2        0.143816   1.000000
    3        7.780647   1.000000
    4       10.570628   0.000000
    5       10.578868   0.000000
    6       13.386731   0.000000
    7       17.511833   0.000000
    8       17.828653   0.000000
 
 -0.2916667E+00  0.3750000E+00  0.4166667E-01  0.9259259E-02
    1       -3.013566   1.000000
    2        0.973931   1.000000
    3        6.879946   1.000000
    4       10.594318   0.000000
    5       11.060941   0.000000
    6       14.216282   0.000000
    7       15.606843   0.000000
    8       16.390604   0.000000
 
 -0.2083333E+00  0.3750000E+00  0.4166667E-01  0.9259259E-02
    1       -2.793932   1.000000
    2        2.139186   1.000000
    3        6.214367   1.000000
    4       10.553311   0.000000
    5       11.267072   0.000000
    6       12.824978   0.000000
    7       14.630135   0.000000
    8       16.732179   0.000000
 
 -0.1250000E+00  0.3750000E+00  0.4166667E-01  0.9259259E-02
    1       -2.204009   1.000000
    2        3.575356   1.000000
    3        5.908190   1.000000
    4        8.763943   0.993304
    5       11.087980   0.000000
    6       13.177277   0.000000
    7       13.603636   0.000000
    8       15.097581   0.000000
 
 -0.4166667E-01  0.3750000E+00  0.4166667E-01  0.4629630E-02
    1       -1.249411   1.000000
    2        4.896905   1.000000
    3        6.264639   1.000000
    4        6.605339   1.000000
    5       10.256032   0.000000
    6       12.578309   0.000000
    7       13.120077   0.000000
    8       14.490190   0.000000
 
  0.4583333E+00  0.4583333E+00  0.4166667E-01  0.2314815E-02
    1       -1.413917   1.000000
    2       -1.413916   1.000000
    3        9.435616   0.011415
    4        9.435623   0.011413
    5       11.592546   0.000000
    6       11.592561   0.000000
    7       15.500352   0.000000
    8       15.500360   0.000000
 
 -0.4583333E+00  0.4583333E+00  0.4166667E-01  0.4629630E-02
    1       -2.018612   1.000000
    2       -1.014825   1.000000
    3        8.563123   0.999951
    4        9.497578   0.003320
    5       11.385317   0.000000
    6       12.326246   0.000000
    7       17.601927   0.000000
    8       17.658979   0.000000
 
 -0.3750000E+00  0.4583333E+00  0.4166667E-01  0.9259259E-02
    1       -2.254366   1.000000
    2       -0.253703   1.000000
    3        7.585332   1.000000
    4        9.454421   0.007993
    5       11.764297   0.000000
    6       13.453386   0.000000
    7       15.153763   0.000000
    8       16.384418   0.000000
 
 -0.2916667E+00  0.4583333E+00  0.4166667E-01  0.9259259E-02
    1       -2.119890   1.000000
    2        0.858605   1.000000
    3        6.823113   1.000000
    4        9.539360   0.001307
    5       11.069030   0.000000
    6       13.237817   0.000000
    7       14.408747   0.000000
    8       15.858346   0.000000
 
 -0.2083333E+00  0.4583333E+00  0.4166667E-01  0.9259259E-02
    1       -1.616699   1.000000
    2        2.297559   1.000000
    3        6.365648   1.000000
    4        8.404401   1.000000
    5       10.059534   0.000000
    6       12.813296   0.000000
    7       14.202686   0.000000
    8       16.310240   0.000000
 
 -0.1250000E+00  0.4583333E+00  0.4166667E-01  0.9259259E-02
    1       -0.750630   1.000000
    2        3.959113   1.000000
    3        5.965289   1.000000
    4        6.462009   1.000000
    5        9.997932   0.000000
    6       12.045153   0.000000
    7       13.442671   0.000000
    8       15.547789   0.000000
 
 -0.4166667E-01  0.4583333E+00  0.4166667E-01  0.4629630E-02
    1        0.459449   1.000000
    2        3.825121   1.000000
    3        5.832779   1.000000
    4        6.843216   1.000000
    5        8.877853   0.952313
    6       11.192086   0.000000
    7       12.722633   0.000000
    8       15.474867   0.000000
 
 -0.4583333E+00 -0.4583333E+00  0.4166667E-01  0.4629630E-02
    1       -1.333388   1.000000
    2       -1.331518   1.000000
    3        8.441192   0.999999
    4        8.450537   0.999999
    5       12.414988   0.000000
    6       12.760287   0.000000
    7       15.014745   0.000000
    8       16.336891   0.000000
 
 -0.3750000E+00 -0.4583333E+00  0.4166667E-01  0.9259259E-02
    1       -1.282903   1.000000
    2       -0.287281   1.000000
    3        7.593360   1.000000
    4        8.507984   0.999991
    5       10.976342   0.000000
    6       13.828568   0.000000
    7       14.299476   0.000000
    8       14.981831   0.000000
 
 -0.2916667E+00 -0.4583333E+00  0.4166667E-01  0.9259259E-02
    1       -0.866340   1.000000
    2        1.102889   1.000000
    3        7.001523   1.000000
    4        8.140876   1.000000
    5        9.084054   0.583028
    6       12.551531   0.000000
    7       14.919637   0.000000
    8       16.641008   0.000000
 
 -0.2083333E+00 -0.4583333E+00  0.4166667E-01  0.9259259E-02
    1       -0.089694   1.000000
    2        2.793326   1.000000
    3        5.684292   1.000000
    4        6.929827   1.000000
    5        9.319991   0.072326
    6       11.381854   0.000000
    7       14.675373   0.000000
    8       16.351464   0.000000
 
 -0.1250000E+00 -0.4583333E+00  0.4166667E-01  0.9259259E-02
    1        1.018363   1.000000
    2        3.415344   1.000000
    3        4.951689   1.000000
    4        6.987366   1.000000
    5        8.958392   0.863944
    6       11.378911   0.000000
    7       12.224638   0.000000
    8       16.576110   0.000000
 
 -0.4166667E-01 -0.4583333E+00  0.4166667E-01  0.4629630E-02
    1        1.450997   1.000000
    2        2.707237   1.000000
    3        6.739195   1.000000
    4        7.432608   1.000000
    5        7.815737   1.000000
    6       10.413970   0.000000
    7       12.695973   0.000000
    8       15.436687   0.000000
 
 -0.3750000E+00 -0.3750000E+00  0.4166667E-01  0.4629630E-02
    1        0.033932   1.000000
    2        0.051601   1.000000
    3        7.583359   1.000000
    4        7.847590   1.000000
    5        8.587684   0.999900
    6       12.465240   0.000000
    7       15.424443   0.000000
    8       16.237630   0.000000
 
 -0.2916667E+00 -0.3750000E+00  0.4166667E-01  0.9259259E-02
    1        0.728356   1.000000
    2        1.696912   1.000000
    3        5.532887   1.000000
    4        7.597136   1.000000
    5        8.509994   0.999990
    6       11.084647   0.000000
    7       15.956475   0.000000
    8       16.745781   0.000000
 
 -0.2083333E+00 -0.3750000E+00  0.4166667E-01  0.9259259E-02
    1        1.710949   1.000000
    2        3.092436   1.000000
    3        3.964823   1.000000
    4        7.469297   1.000000
    5        8.778004   0.991196
    6       10.607750   0.000000
    7       13.452586   0.000000
    8       16.534421   0.000000
 
 -0.1250000E+00 -0.3750000E+00  0.4166667E-01  0.9259259E-02
    1        1.179616   1.000000
    2        3.291412   1.000000
    3        5.976296   1.000000
    4        7.365612   1.000000
    5        8.470422   0.999997
    6       10.922243   0.000000
    7       11.764499   0.000000
    8       15.746351   0.000000
 
 -0.4166667E-01 -0.3750000E+00  0.4166667E-01  0.4629630E-02
    1       -0.356731   1.000000
    2        4.932641   1.000000
    3        6.848921   1.000000
    4        7.525753   1.000000
    5        8.280641   1.000000
    6       10.780299   0.000000
    7       12.914428   0.000000
    8       14.765217   0.000000
 
 -0.2916667E+00 -0.2916667E+00  0.4166667E-01  0.4629630E-02
    1        2.333110   1.000000
    2        2.692104   1.000000
    3        3.527058   1.000000
    4        7.783574   1.000000
    5        8.608770   0.999822
    6       10.272832   0.000000
    7       14.598765   0.000000
    8       15.517194   0.000000
 
 -0.2083333E+00 -0.2916667E+00  0.4166667E-01  0.9259259E-02
    1        1.031744   1.000000
    2        4.058377   1.000000
    3        4.978163   1.000000
    4        7.398206   1.000000
    5        9.032070   0.718106
    6       10.567688   0.000000
    7       12.513721   0.000000
    8       14.328822   0.000000
 
 -0.1250000E+00 -0.2916667E+00  0.4166667E-01  0.9259259E-02
    1       -0.604359   1.000000
    2        5.619360   1.000000
    3        6.951910   1.000000
    4        7.309278   1.000000
    5        8.797256   0.987377
    6       11.122448   0.000000
    7       11.912922   0.000000
    8       13.654479   0.000000
 
 -0.4166667E-01 -0.2916667E+00  0.4166667E-01  0.4629630E-02
    1       -1.919361   1.000000
    2        6.166671   1.000000
    3        7.235630   1.000000
    4        7.752214   1.000000
    5        9.899439   0.000000
    6       12.101935   0.000000
    7       12.187725   0.000000
    8       14.211735   0.000000
 
 -0.2083333E+00 -0.2083333E+00  0.4166667E-01  0.4629630E-02
    1       -0.687182   1.000000
    2        6.313794   1.000000
    3        6.492357   1.000000
    4        7.034329   1.000000
    5        9.418637   0.015534
    6       11.205104   0.000000
    7       12.222221   0.000000
    8       12.328612   0.000000
 
 -0.1250000E+00 -0.2083333E+00  0.4166667E-01  0.9259259E-02
    1       -2.087455   1.000000
    2        6.441994   1.000000
    3        7.890201   1.000000
    4        8.429785   0.999999
    5        9.596678   0.000319
    6       11.097447   0.000000
    7       12.409669   0.000000
    8       13.284016   0.000000
 
 -0.4166667E-01 -0.2083333E+00  0.4166667E-01  0.4629630E-02
    1       -3.132487   1.000000
    2        6.081398   1.000000
    3        6.984416   1.000000
    4        9.427419   0.013267
    5       11.355583   0.000000
    6       11.999112   0.000000
    7       12.736685   0.000000
    8       14.527279   0.000000
 
 -0.1250000E+00 -0.1250000E+00  0.4166667E-01  0.4629630E-02
    1       -3.217215   1.000000
    2        6.344160   1.000000
    3        7.626152   1.000000
    4        8.871849   0.956382
    5       11.579365   0.000000
    6       11.710993   0.000000
    7       12.528467   0.000000
    8       14.496823   0.000000
 
 -0.4166667E-01 -0.1250000E+00  0.4166667E-01  0.4629630E-02
    1       -3.981445   1.000000
    2        6.271747   1.000000
    3        6.835987   1.000000
    4        8.183605   1.000000
    5       11.519351   0.000000
    6       13.909849   0.000000
    7       14.133648   0.000000
    8       16.380480   0.000000
 
 -0.4166667E-01 -0.4166667E-01  0.4166667E-01  0.1157407E-02
    1       -4.458698   1.000000
    2        6.662885   1.000000
    3        6.662907   1.000000
    4        6.980577   1.000000
    5       10.827321   0.000000
    6       16.144949   0.000000
    7       16.541813   0.000000
    8       17.624373   0.000000
 
  0.1250000E+00  0.1250000E+00  0.1250000E+00  0.4629630E-02
    1       -2.540100   1.000000
    2        3.370288   1.000000
    3        8.115502   1.000000
    4        9.669960   0.000042
    5       10.871841   0.000000
    6       11.074033   0.000000
    7       14.672299   0.000000
    8       15.210359   0.000000
 
  0.2083333E+00  0.1250000E+00  0.1250000E+00  0.9259259E-02
    1       -1.247949   1.000000
    2        3.638088   1.000000
    3        7.299038   1.000000
    4        7.996070   1.000000
    5        9.819298   0.000000
    6       12.172072   0.000000
    7       14.046221   0.000000
    8       14.777299   0.000000
 
  0.2916667E+00  0.1250000E+00  0.1250000E+00  0.9259259E-02
    1        0.385171   1.000000
    2        4.106496   1.000000
    3        4.960889   1.000000
    4        6.601824   1.000000
    5       10.138587   0.000000
    6       12.901344   0.000000
    7       14.027660   0.000000
    8       14.136307   0.000000
 
  0.3750000E+00  0.1250000E+00  0.1250000E+00  0.4629630E-02
    1        2.017511   1.000000
    2        2.766874   1.000000
    3        5.069314   1.000000
    4        5.586532   1.000000
    5       10.489415   0.000000
    6       12.315933   0.000000
    7       13.944127   0.000000
    8       14.492138   0.000000
 
 -0.1250000E+00  0.1250000E+00  0.1250000E+00  0.2314815E-02
    1       -4.219882   1.000000
    2        4.127738   1.000000
    3        5.334214   1.000000
    4        9.866014   0.000000
    5       12.616527   0.000000
    6       13.226296   0.000000
    7       17.683964   0.000000
    8       18.146130   0.000000
 
  0.2083333E+00  0.2083333E+00  0.1250000E+00  0.4629630E-02
    1        0.304642   1.000000
    2        4.111217   1.000000
    3        5.638063   1.000000
    4        5.751082   1.000000
    5       10.947677   0.000000
    6       13.173155   0.000000
    7       13.899824   0.000000
    8       13.965974   0.000000
 
  0.2916667E+00  0.2083333E+00  0.1250000E+00  0.9259259E-02
    1        2.088074   1.000000
    2        3.291233   1.000000
    3        4.203245   1.000000
    4        5.283660   1.000000
    5       11.367354   0.000000
    6       12.983402   0.000000
    7       13.869291   0.000000
    8       14.868319   0.000000
 
  0.3750000E+00  0.2083333E+00  0.1250000E+00  0.9259259E-02
    1        1.118789   1.000000
    2        3.020781   1.000000
    3        4.641006   1.000000
    4        6.397448   1.000000
    5       10.867536   0.000000
    6       12.872545   0.000000
    7       14.246644   0.000000
    8       15.054794   0.000000
 
  0.4583333E+00  0.2083333E+00  0.1250000E+00  0.9259259E-02
    1       -0.580517   1.000000
    2        2.368054   1.000000
    3        7.037388   1.000000
    4        7.816346   1.000000
    5       10.326747   0.000000
    6       12.709024   0.000000
    7       13.210160   0.000000
    8       14.979625   0.000000
 
 -0.4583333E+00  0.2083333E+00  0.1250000E+00  0.4629630E-02
    1       -1.949888   1.000000
    2        2.014624   1.000000
    3        8.477751   0.999997
    4        9.571068   0.000610
    5       10.732380   0.000000
    6       11.322328   0.000000
    7       13.464651   0.000000
    8       14.636620   0.000000
 
 -0.2083333E+00  0.2083333E+00  0.1250000E+00  0.4629630E-02
    1       -3.879311   1.000000
    2        2.956935   1.000000
    3        5.288458   1.000000
    4       10.797200   0.000000
    5       11.769953   0.000000
    6       14.066205   0.000000
    7       16.861165   0.000000
    8       17.866516   0.000000
 
 -0.1250000E+00  0.2083333E+00  0.1250000E+00  0.4629630E-02
    1       -3.777214   1.000000
    2        3.562783   1.000000
    3        4.892897   1.000000
    4       11.073591   0.000000
    5       11.847106   0.000000
    6       13.870314   0.000000
    7       15.050210   0.000000
    8       17.683824   0.000000
 
  0.2916667E+00  0.2916667E+00  0.1250000E+00  0.4629630E-02
    1        1.973699   1.000000
    2        2.033424   1.000000
    3        4.547235   1.000000
    4        6.328793   1.000000
    5       11.429712   0.000000
    6       12.237009   0.000000
    7       14.726848   0.000000
    8       15.652638   0.000000
 
  0.3750000E+00  0.2916667E+00  0.1250000E+00  0.9259259E-02
    1        0.248245   1.000000
    2        1.233471   1.000000
    3        6.899989   1.000000
    4        7.710226   1.000000
    5       11.004604   0.000000
    6       12.069421   0.000000
    7       13.518562   0.000000
    8       14.483916   0.000000
 
  0.4583333E+00  0.2916667E+00  0.1250000E+00  0.4629630E-02
    1       -1.195051   1.000000
    2        0.793460   1.000000
    3        8.826183   0.978977
    4        9.347055   0.049466
    5       10.875762   0.000000
    6       11.706254   0.000000
    7       12.609906   0.000000
    8       13.765637   0.000000
 
 -0.2916667E+00  0.2916667E+00  0.1250000E+00  0.4629630E-02
    1       -3.369984   1.000000
    2        1.582191   1.000000
    3        5.703824   1.000000
    4       10.402104   0.000000
    5       11.501473   0.000000
    6       15.866574   0.000000
    7       15.967251   0.000000
    8       17.651909   0.000000
 
 -0.2083333E+00  0.2916667E+00  0.1250000E+00  0.9259259E-02
    1       -3.353242   1.000000
    2        2.480638   1.000000
    3        4.881070   1.000000
    4       10.419926   0.000000
    5       11.979847   0.000000
    6       14.562902   0.000000
    7       15.507116   0.000000
    8       17.602498   0.000000
 
 -0.1250000E+00  0.2916667E+00  0.1250000E+00  0.4629630E-02
    1       -2.963556   1.000000
    2        3.352897   1.000000
    3        4.751592   1.000000
    4       10.495110   0.000000
    5       11.280745   0.000000
    6       13.471786   0.000000
    7       15.292776   0.000000
    8       15.713842   0.000000
 