   2   2   0   0
  0.2001288E+02  0.3839590E-09  0.3839590E-09  0.3839590E-09  0.5000000E-15
  1.000000000000000E-004
  CAR 
 unknown system                          
     17.06908918     -8.19604814  301      5.94568389      1.00000000
     -8.196  0.0000E+00  0.0000E+00
     -8.112  0.0000E+00  0.0000E+00
     -8.028  0.0000E+00  0.0000E+00
     -7.943  0.0000E+00  0.0000E+00
     -7.859  0.0000E+00  0.0000E+00
     -7.775  0.0000E+00  0.0000E+00
     -7.691  0.0000E+00  0.0000E+00
     -7.607  0.0000E+00  0.0000E+00
     -7.522  0.0000E+00  0.0000E+00
     -7.438  0.0000E+00  0.0000E+00
     -7.354  0.2411E-18  0.2031E-19
     -7.270  0.3412E-16  0.2894E-17
     -7.185  0.2828E-14  0.2411E-15
     -7.101  0.1657E-12  0.1420E-13
     -7.017  0.6857E-11  0.5917E-12
     -6.933  0.2008E-09  0.1750E-10
     -6.849  0.4171E-08  0.3688E-09
     -6.764  0.6181E-07  0.5575E-08
     -6.680  0.6596E-06  0.6112E-07
     -6.596  0.5147E-05  0.4946E-06
     -6.512  0.3011E-04  0.3030E-05
     -6.427  0.1362E-03  0.1450E-04
     -6.343  0.4897E-03  0.5574E-04
     -6.259  0.1413E-02  0.1747E-03
     -6.175  0.3236E-02  0.4473E-03
     -6.091  0.5803E-02  0.9360E-03
     -6.006  0.8261E-02  0.1632E-02
     -5.922  0.1006E-01  0.2479E-02
     -5.838  0.1201E-01  0.3490E-02
     -5.754  0.1523E-01  0.4773E-02
     -5.670  0.1891E-01  0.6365E-02
     -5.585  0.2049E-01  0.8091E-02
     -5.501  0.1883E-01  0.9677E-02
     -5.417  0.1673E-01  0.1109E-01
     -5.333  0.1832E-01  0.1263E-01
     -5.248  0.2390E-01  0.1464E-01
     -5.164  0.2932E-01  0.1711E-01
     -5.080  0.3106E-01  0.1973E-01
     -4.996  0.3006E-01  0.2226E-01
     -4.912  0.2886E-01  0.2469E-01
     -4.827  0.2770E-01  0.2702E-01
     -4.743  0.2588E-01  0.2920E-01
     -4.659  0.2545E-01  0.3134E-01
     -4.575  0.3016E-01  0.3388E-01
     -4.490  0.3942E-01  0.3720E-01
     -4.406  0.4667E-01  0.4113E-01
     -4.322  0.4730E-01  0.4512E-01
     -4.238  0.4468E-01  0.4888E-01
     -4.154  0.4350E-01  0.5254E-01
     -4.069  0.4268E-01  0.5614E-01
     -3.985  0.4056E-01  0.5956E-01
     -3.901  0.4109E-01  0.6302E-01
     -3.817  0.4915E-01  0.6716E-01
     -3.733  0.6183E-01  0.7236E-01
     -3.648  0.6920E-01  0.7819E-01
     -3.564  0.6557E-01  0.8371E-01
     -3.480  0.5640E-01  0.8846E-01
     -3.396  0.4959E-01  0.9264E-01
     -3.311  0.4451E-01  0.9639E-01
     -3.227  0.3756E-01  0.9955E-01
     -3.143  0.3258E-01  0.1023E+00
     -3.059  0.3579E-01  0.1053E+00
     -2.975  0.4472E-01  0.1091E+00
     -2.890  0.5022E-01  0.1133E+00
     -2.806  0.4687E-01  0.1173E+00
     -2.722  0.3713E-01  0.1204E+00
     -2.638  0.2733E-01  0.1227E+00
     -2.554  0.2147E-01  0.1245E+00
     -2.469  0.1930E-01  0.1261E+00
     -2.385  0.1916E-01  0.1277E+00
     -2.301  0.1972E-01  0.1294E+00
     -2.217  0.1937E-01  0.1310E+00
     -2.132  0.1732E-01  0.1325E+00
     -2.048  0.1440E-01  0.1337E+00
     -1.964  0.1198E-01  0.1347E+00
     -1.880  0.1112E-01  0.1356E+00
     -1.796  0.1221E-01  0.1367E+00
     -1.711  0.1399E-01  0.1378E+00
     -1.627  0.1494E-01  0.1391E+00
     -1.543  0.1668E-01  0.1405E+00
     -1.459  0.2332E-01  0.1425E+00
     -1.374  0.3697E-01  0.1456E+00
     -1.290  0.5538E-01  0.1502E+00
     -1.206  0.7244E-01  0.1563E+00
     -1.122  0.8066E-01  0.1631E+00
     -1.038  0.7692E-01  0.1696E+00
     -0.953  0.6678E-01  0.1752E+00
     -0.869  0.5894E-01  0.1802E+00
     -0.785  0.5599E-01  0.1849E+00
     -0.701  0.5463E-01  0.1895E+00
     -0.617  0.5235E-01  0.1939E+00
     -0.532  0.4974E-01  0.1981E+00
     -0.448  0.4755E-01  0.2021E+00
     -0.364  0.4488E-01  0.2059E+00
     -0.280  0.4123E-01  0.2094E+00
     -0.195  0.3735E-01  0.2125E+00
     -0.111  0.3250E-01  0.2153E+00
     -0.027  0.2487E-01  0.2174E+00
      0.057  0.1646E-01  0.2187E+00
      0.141  0.1319E-01  0.2199E+00
      0.226  0.1915E-01  0.2215E+00
      0.310  0.3139E-01  0.2241E+00
      0.394  0.4040E-01  0.2275E+00
      0.478  0.3860E-01  0.2308E+00
      0.563  0.2871E-01  0.2332E+00
      0.647  0.1924E-01  0.2348E+00
      0.731  0.1448E-01  0.2360E+00
      0.815  0.1341E-01  0.2371E+00
      0.899  0.1414E-01  0.2383E+00
      0.984  0.1498E-01  0.2396E+00
      1.068  0.1494E-01  0.2409E+00
      1.152  0.1546E-01  0.2422E+00
      1.236  0.1867E-01  0.2437E+00
      1.320  0.2458E-01  0.2458E+00
      1.405  0.3380E-01  0.2487E+00
      1.489  0.4972E-01  0.2528E+00
      1.573  0.7083E-01  0.2588E+00
      1.657  0.8598E-01  0.2660E+00
      1.742  0.8649E-01  0.2733E+00
      1.826  0.7754E-01  0.2799E+00
      1.910  0.6921E-01  0.2857E+00
      1.994  0.6327E-01  0.2910E+00
      2.078  0.5722E-01  0.2958E+00
      2.163  0.5341E-01  0.3003E+00
      2.247  0.5575E-01  0.3050E+00
      2.331  0.6378E-01  0.3104E+00
      2.415  0.7606E-01  0.3168E+00
      2.500  0.9223E-01  0.3246E+00
      2.584  0.1067E+00  0.3336E+00
      2.668  0.1095E+00  0.3428E+00
      2.752  0.9850E-01  0.3511E+00
      2.836  0.8409E-01  0.3582E+00
      2.921  0.7745E-01  0.3647E+00
      3.005  0.8014E-01  0.3714E+00
      3.089  0.8641E-01  0.3787E+00
      3.173  0.9152E-01  0.3864E+00
      3.257  0.9515E-01  0.3944E+00
      3.342  0.9813E-01  0.4027E+00
      3.426  0.1002E+00  0.4111E+00
      3.510  0.1021E+00  0.4197E+00
      3.594  0.1047E+00  0.4285E+00
      3.679  0.1042E+00  0.4373E+00
      3.763  0.9371E-01  0.4452E+00
      3.847  0.7533E-01  0.4516E+00
      3.931  0.6333E-01  0.4569E+00
      4.015  0.6797E-01  0.4626E+00
      4.100  0.8165E-01  0.4695E+00
      4.184  0.8813E-01  0.4769E+00
      4.268  0.8169E-01  0.4838E+00
      4.352  0.7128E-01  0.4898E+00
      4.437  0.6789E-01  0.4955E+00
      4.521  0.7152E-01  0.5015E+00
      4.605  0.7166E-01  0.5076E+00
      4.689  0.6048E-01  0.5127E+00
      4.773  0.4267E-01  0.5163E+00
      4.858  0.2973E-01  0.5188E+00
      4.942  0.2670E-01  0.5210E+00
      5.026  0.2777E-01  0.5234E+00
      5.110  0.2510E-01  0.5255E+00
      5.194  0.1862E-01  0.5270E+00
      5.279  0.1406E-01  0.5282E+00
      5.363  0.1403E-01  0.5294E+00
      5.447  0.1515E-01  0.5307E+00
      5.531  0.1348E-01  0.5318E+00
      5.616  0.9229E-02  0.5326E+00
      5.700  0.5040E-02  0.5330E+00
      5.784  0.2355E-02  0.5332E+00
      5.868  0.9878E-03  0.5333E+00
      5.952  0.4515E-03  0.5333E+00
      6.037  0.5645E-03  0.5334E+00
      6.121  0.1432E-02  0.5335E+00
      6.205  0.3228E-02  0.5338E+00
      6.289  0.5936E-02  0.5343E+00
      6.374  0.9385E-02  0.5351E+00
      6.458  0.1347E-01  0.5362E+00
      6.542  0.1797E-01  0.5377E+00
      6.626  0.2210E-01  0.5396E+00
      6.710  0.2460E-01  0.5416E+00
      6.795  0.2492E-01  0.5437E+00
      6.879  0.2386E-01  0.5458E+00
      6.963  0.2330E-01  0.5477E+00
      7.047  0.2586E-01  0.5499E+00
      7.131  0.3339E-01  0.5527E+00
      7.216  0.4495E-01  0.5565E+00
      7.300  0.5652E-01  0.5613E+00
      7.384  0.6338E-01  0.5666E+00
      7.468  0.6472E-01  0.5720E+00
      7.553  0.6619E-01  0.5776E+00
      7.637  0.7533E-01  0.5840E+00
      7.721  0.9358E-01  0.5918E+00
      7.805  0.1131E+00  0.6014E+00
      7.889  0.1225E+00  0.6117E+00
      7.974  0.1157E+00  0.6214E+00
      8.058  0.9820E-01  0.6297E+00
      8.142  0.8131E-01  0.6365E+00
      8.226  0.7301E-01  0.6427E+00
      8.311  0.7487E-01  0.6490E+00
      8.395  0.8369E-01  0.6560E+00
      8.479  0.9185E-01  0.6638E+00
      8.563  0.9126E-01  0.6715E+00
      8.647  0.8180E-01  0.6784E+00
      8.732  0.7216E-01  0.6844E+00
      8.816  0.7038E-01  0.6904E+00
      8.900  0.7773E-01  0.6969E+00
      8.984  0.9295E-01  0.7047E+00
      9.068  0.1140E+00  0.7143E+00
      9.153  0.1336E+00  0.7256E+00
      9.237  0.1431E+00  0.7376E+00
      9.321  0.1410E+00  0.7495E+00
      9.405  0.1323E+00  0.7607E+00
      9.490  0.1219E+00  0.7709E+00
      9.574  0.1118E+00  0.7803E+00
      9.658  0.1012E+00  0.7889E+00
      9.742  0.8978E-01  0.7964E+00
      9.826  0.7936E-01  0.8031E+00
      9.911  0.7199E-01  0.8092E+00
      9.995  0.6856E-01  0.8149E+00
     10.079  0.6870E-01  0.8207E+00
     10.163  0.6960E-01  0.8266E+00
     10.248  0.6845E-01  0.8324E+00
     10.332  0.6829E-01  0.8381E+00
     10.416  0.7678E-01  0.8446E+00
     10.500  0.9501E-01  0.8526E+00
     10.584  0.1110E+00  0.8619E+00
     10.669  0.1105E+00  0.8712E+00
     10.753  0.9529E-01  0.8792E+00
     10.837  0.8330E-01  0.8863E+00
     10.921  0.8724E-01  0.8936E+00
     11.005  0.1005E+00  0.9021E+00
     11.090  0.1061E+00  0.9110E+00
     11.174  0.9417E-01  0.9189E+00
     11.258  0.7152E-01  0.9250E+00
     11.342  0.5254E-01  0.9294E+00
     11.427  0.4439E-01  0.9331E+00
     11.511  0.4454E-01  0.9369E+00
     11.595  0.4877E-01  0.9410E+00
     11.679  0.5387E-01  0.9455E+00
     11.763  0.5542E-01  0.9502E+00
     11.848  0.5126E-01  0.9545E+00
     11.932  0.4611E-01  0.9584E+00
     12.016  0.4736E-01  0.9624E+00
     12.100  0.5709E-01  0.9672E+00
     12.184  0.6899E-01  0.9730E+00
     12.269  0.7320E-01  0.9792E+00
     12.353  0.6688E-01  0.9848E+00
     12.437  0.5729E-01  0.9896E+00
     12.521  0.5201E-01  0.9940E+00
     12.606  0.5240E-01  0.9984E+00
     12.690  0.5796E-01  0.1003E+01
     12.774  0.6796E-01  0.1009E+01
     12.858  0.7697E-01  0.1015E+01
     12.942  0.7814E-01  0.1022E+01
     13.027  0.7254E-01  0.1028E+01
     13.111  0.6721E-01  0.1034E+01
     13.195  0.6341E-01  0.1039E+01
     13.279  0.5535E-01  0.1044E+01
     13.364  0.4100E-01  0.1047E+01
     13.448  0.2568E-01  0.1049E+01
     13.532  0.1500E-01  0.1051E+01
     13.616  0.1062E-01  0.1052E+01
     13.700  0.1104E-01  0.1053E+01
     13.785  0.1256E-01  0.1054E+01
     13.869  0.1156E-01  0.1055E+01
     13.953  0.7785E-02  0.1055E+01
     14.037  0.3742E-02  0.1056E+01
     14.121  0.1280E-02  0.1056E+01
     14.206  0.3410E-03  0.1056E+01
     14.290  0.2624E-03  0.1056E+01
     14.374  0.9691E-03  0.1056E+01
     14.458  0.3171E-02  0.1056E+01
     14.543  0.7558E-02  0.1057E+01
     14.627  0.1328E-01  0.1058E+01
     14.711  0.1774E-01  0.1059E+01
     14.795  0.1905E-01  0.1061E+01
     14.879  0.1790E-01  0.1062E+01
     14.964  0.1591E-01  0.1064E+01
     15.048  0.1348E-01  0.1065E+01
     15.132  0.1018E-01  0.1066E+01
     15.216  0.6328E-02  0.1066E+01
     15.301  0.3050E-02  0.1067E+01
     15.385  0.1098E-02  0.1067E+01
     15.469  0.2891E-03  0.1067E+01
     15.553  0.5487E-04  0.1067E+01
     15.637  0.7448E-05  0.1067E+01
     15.722  0.7194E-06  0.1067E+01
     15.806  0.4930E-07  0.1067E+01
     15.890  0.2391E-08  0.1067E+01
     15.974  0.8199E-10  0.1067E+01
     16.058  0.1985E-11  0.1067E+01
     16.143  0.3391E-13  0.1067E+01
     16.227  0.4080E-15  0.1067E+01
     16.311  0.2893E-17  0.1067E+01
     16.395  0.0000E+00  0.1067E+01
     16.480  0.0000E+00  0.1067E+01
     16.564  0.0000E+00  0.1067E+01
     16.648  0.0000E+00  0.1067E+01
     16.732  0.0000E+00  0.1067E+01
     16.816  0.0000E+00  0.1067E+01
     16.901  0.0000E+00  0.1067E+01
     16.985  0.0000E+00  0.1067E+01
     17.069  0.0000E+00  0.1067E+01
