    2    2   15    1
  0.2001288E+02  0.3839590E-09  0.3839590E-09  0.3839590E-09  0.5000000E-15
  1.000000000000000E-004
  CAR 
 unknown system                          
      8     35      8
 
  0.0000000E+00  0.0000000E+00  0.0000000E+00  0.1371742E-02
    1       -6.196048   1.000000
    2        5.649967   0.981738
    3        5.650000   0.981727
    4        5.650000   0.981727
    5        8.212094   0.000000
    6        8.212108   0.000000
    7        8.212108   0.000000
    8        8.767203   0.000000
 
  0.1111111E+00  0.2174102E-18  0.2072965E-17  0.1097394E-01
    1       -6.037410   1.000000
    2        4.301433   1.000000
    3        5.413149   0.999917
    4        5.413179   0.999917
    5        8.141030   0.000000
    6        8.557040   0.000000
    7        8.557060   0.000000
    8        9.934531   0.000000
 
  0.2222222E+00 -0.4325414E-18  0.5013291E-17  0.1097394E-01
    1       -5.571307   1.000000
    2        2.241884   1.000000
    3        4.992324   1.000000
    4        4.992356   1.000000
    5        7.717902   0.000000
    6        9.088051   0.000000
    7        9.088091   0.000000
    8       11.922301   0.000000
 
  0.3333333E+00  0.6723763E-17  0.1473614E-18  0.1097394E-01
    1       -4.844438   1.000000
    2        0.356871   1.000000
    3        4.655662   1.000000
    4        4.655699   1.000000
    5        7.345796   0.000000
    6        9.179726   0.000000
    7        9.179777   0.000000
    8       13.435072   0.000000
 
  0.4444444E+00 -0.8650829E-18  0.1002658E-16  0.1097394E-01
    1       -4.071681   1.000000
    2       -1.013058   1.000000
    3        4.477981   1.000000
    4        4.478024   1.000000
    5        7.144561   0.000000
    6        9.049178   0.000000
    7        9.049242   0.000000
    8       13.390385   0.000000
 
  0.1111111E+00  0.1111111E+00  0.5723364E-17  0.8230453E-02
    1       -5.984014   1.000000
    2        4.514823   1.000000
    3        4.981872   1.000000
    4        4.981893   1.000000
    5        7.765885   0.000000
    6        9.139698   0.000000
    7        9.139709   0.000000
    8        9.744107   0.000000
 
  0.2222222E+00  0.1111111E+00  0.7521076E-17  0.3292181E-01
    1       -5.618233   1.000000
    2        2.850923   1.000000
    3        4.514199   1.000000
    4        4.641298   1.000000
    5        7.856273   0.000000
    6        9.121100   0.000000
    7        9.854576   0.000000
    8       10.553799   0.000000
 
  0.3333333E+00  0.1111111E+00  0.1455535E-16  0.3292181E-01
    1       -4.969380   1.000000
    2        0.969083   1.000000
    3        4.137059   1.000000
    4        4.209169   1.000000
    5        7.959318   0.000000
    6        9.117315   0.000000
    7       10.033573   0.000000
    8       11.010552   0.000000
 
  0.4444444E+00  0.1111111E+00  0.5595473E-17  0.3292181E-01
    1       -4.160374   1.000000
    2       -0.593674   1.000000
    3        3.706262   1.000000
    4        4.124631   1.000000
    5        7.826813   0.000000
    6        9.053409   0.000000
    7        9.777310   0.000000
    8       12.430784   0.000000
 
 -0.4444444E+00  0.1111111E+00  0.1329788E-16  0.3292181E-01
    1       -3.792038   1.000000
    2       -1.152719   1.000000
    3        3.452421   1.000000
    4        4.261125   1.000000
    5        7.822583   0.000000
    6        9.086224   0.000000
    7        9.519030   0.000000
    8       13.774435   0.000000
 
 -0.3333333E+00  0.1111111E+00 -0.1536845E-16  0.3292181E-01
    1       -4.432499   1.000000
    2       -0.125834   1.000000
    3        3.422185   1.000000
    4        4.587471   1.000000
    5        8.000592   0.000000
    6        9.314964   0.000000
    7        9.389600   0.000000
    8       12.995994   0.000000
 
 -0.2222222E+00  0.1111111E+00  0.4433388E-17  0.3292181E-01
    1       -5.215803   1.000000
    2        1.575027   1.000000
    3        3.656704   1.000000
    4        5.032202   1.000000
    5        8.319258   0.000000
    6        9.157398   0.000000
    7        9.444080   0.000000
    8       11.675876   0.000000
 
 -0.1111111E+00  0.1111111E+00 -0.5393851E-17  0.1646091E-01
    1       -5.775286   1.000000
    2        3.320816   1.000000
    3        4.306768   1.000000
    4        5.423380   0.999889
    5        8.593356   0.000000
    6        8.651490   0.000000
    7        8.857134   0.000000
    8       10.908414   0.000000
 
  0.2222222E+00  0.2222222E+00  0.1144673E-16  0.8230453E-02
    1       -5.353582   1.000000
    2        2.608479   1.000000
    3        3.998662   1.000000
    4        3.998683   1.000000
    5        6.980900   0.000000
    6        9.212815   0.000000
    7       10.898786   0.000000
    8       10.898797   0.000000
 
  0.3333333E+00  0.2222222E+00  0.1123446E-16  0.3292181E-01
    1       -4.794144   1.000000
    2        1.294571   1.000000
    3        3.379263   1.000000
    4        3.660089   1.000000
    5        7.137106   0.000000
    6        8.843832   0.000000
    7       11.131619   0.000000
    8       11.480318   0.000000
 
  0.4444444E+00  0.2222222E+00  0.1417479E-16  0.3292181E-01
    1       -4.010233   1.000000
    2       -0.149478   1.000000
    3        2.647439   1.000000
    4        3.561365   1.000000
    5        7.326789   0.000000
    6        9.860420   0.000000
    7       10.874128   0.000000
    8       11.309720   0.000000
 
 -0.4444444E+00  0.2222222E+00  0.1691589E-16  0.3292181E-01
    1       -3.371786   1.000000
    2       -1.069675   1.000000
    3        2.135574   1.000000
    4        3.713265   1.000000
    5        7.471430   0.000000
    6       10.644151   0.000000
    7       10.928839   0.000000
    8       11.810498   0.000000
 
 -0.3333333E+00  0.2222222E+00  0.1787863E-16  0.3292181E-01
    1       -3.774012   1.000000
    2       -0.504957   1.000000
    3        1.960868   1.000000
    4        4.088613   1.000000
    5        7.846953   0.000000
    6       10.580019   0.000000
    7       10.588702   0.000000
    8       12.793964   0.000000
 
 -0.2222222E+00  0.2222222E+00 -0.1078770E-16  0.1646091E-01
    1       -4.579822   1.000000
    2        0.719838   1.000000
    3        2.344820   1.000000
    4        4.602031   1.000000
    5        8.355263   0.000000
    6        9.961379   0.000000
    7       10.297181   0.000000
    8       11.442148   0.000000
 
  0.3333333E+00  0.3333333E+00  0.1717009E-16  0.8230453E-02
    1       -4.324313   1.000000
    2        0.639455   1.000000
    3        3.263603   1.000000
    4        3.263625   1.000000
    5        6.415245   0.000450
    6        7.691890   0.000000
    7       12.879133   0.000000
    8       12.879146   0.000000
 
  0.4444444E+00  0.3333333E+00  0.1668257E-16  0.3292181E-01
    1       -3.598653   1.000000
    2       -0.396844   1.000000
    3        2.553929   1.000000
    4        3.106866   1.000000
    5        6.661139   0.000000
    6        7.727389   0.000000
    7       13.161409   0.000000
    8       13.241400   0.000000
 
 -0.4444444E+00  0.3333333E+00 -0.5348174E-17  0.3292181E-01
    1       -2.821889   1.000000
    2       -1.278533   1.000000
    3        1.669853   1.000000
    4        3.212707   1.000000
    5        6.858020   0.000000
    6        9.314222   0.000000
    7       12.868050   0.000000
    8       12.944847   0.000000
 
 -0.3333333E+00  0.3333333E+00  0.1344753E-16  0.1646091E-01
    1       -2.995311   1.000000
    2       -1.088415   1.000000
    3        1.314241   1.000000
    4        3.563101   1.000000
    5        7.252015   0.000000
    6       11.481500   0.000000
    7       12.095867   0.000000
    8       12.663650   0.000000
 
  0.4444444E+00  0.4444444E+00  0.2289345E-16  0.8230453E-02
    1       -2.934279   1.000000
    2       -1.247420   1.000000
    3        2.880743   1.000000
    4        2.880770   1.000000
    5        6.279931   0.009052
    6        6.684920   0.000000
    7       14.932597   0.000000
    8       14.932609   0.000000
 
 -0.4444444E+00  0.4444444E+00 -0.2157540E-16  0.1646091E-01
    1       -2.176951   1.000000
    2       -2.007409   1.000000
    3        2.283867   1.000000
    4        2.917535   1.000000
    5        6.505615   0.000038
    6        7.330236   0.000000
    7       14.788335   0.000000
    8       15.069089   0.000000
 
  0.3333333E+00  0.2222222E+00  0.1111111E+00  0.3292181E-01
    1       -5.156678   1.000000
    2        1.858315   1.000000
    3        3.317052   1.000000
    4        4.493606   1.000000
    5        8.037727   0.000000
    6        9.403976   0.000000
    7       10.092826   0.000000
    8       10.655123   0.000000
 
  0.4444444E+00  0.2222222E+00  0.1111111E+00  0.6584362E-01
    1       -4.434814   1.000000
    2        0.392550   1.000000
    3        2.712536   1.000000
    4        4.063982   1.000000
    5        8.420876   0.000000
    6        9.244118   0.000000
    7       10.439825   0.000000
    8       11.114224   0.000000
 
 -0.4444444E+00  0.2222222E+00  0.1111111E+00  0.6584362E-01
    1       -3.656420   1.000000
    2       -0.869440   1.000000
    3        2.517199   1.000000
    4        3.747249   1.000000
    5        8.502799   0.000000
    6        8.874968   0.000000
    7       11.045635   0.000000
    8       12.181446   0.000000
 
  0.4444444E+00  0.3333333E+00  0.1111111E+00  0.3292181E-01
    1       -4.153957   1.000000
    2        0.341260   1.000000
    3        2.614683   1.000000
    4        3.292896   1.000000
    5        7.493503   0.000000
    6        8.510571   0.000000
    7       11.068579   0.000000
    8       12.791265   0.000000
 
 -0.4444444E+00  0.3333333E+00  0.1111111E+00  0.6584362E-01
    1       -3.343628   1.000000
    2       -0.724421   1.000000
    3        1.961839   1.000000
    4        2.994152   1.000000
    5        7.902567   0.000000
    6        9.600526   0.000000
    7       10.628285   0.000000
    8       13.187536   0.000000
 
 -0.3333333E+00  0.3333333E+00  0.1111111E+00  0.6584362E-01
    1       -2.988429   1.000000
    2       -1.139198   1.000000
    3        1.583002   1.000000
    4        3.104150   1.000000
    5        8.187266   0.000000
    6       10.173024   0.000000
    7       11.708343   0.000000
    8       12.225954   0.000000
 
 -0.2222222E+00  0.3333333E+00  0.1111111E+00  0.3292181E-01
    1       -3.673552   1.000000
    2       -0.352715   1.000000
    3        1.729921   1.000000
    4        3.532964   1.000000
    5        8.689316   0.000000
    6        9.675381   0.000000
    7       10.527821   0.000000
    8       12.561287   0.000000
 
 -0.4444444E+00  0.4444444E+00  0.1111111E+00  0.3292181E-01
    1       -2.821523   1.000000
    2       -1.265243   1.000000
    3        2.332419   1.000000
    4        2.539549   1.000000
    5        7.329189   0.000000
    6        7.646615   0.000000
    7       12.836841   0.000000
    8       14.658120   0.000000
 
 -0.3333333E+00  0.4444444E+00  0.1111111E+00  0.3292181E-01
    1       -2.312810   1.000000
    2       -1.717649   1.000000
    3        1.627737   1.000000
    4        2.625866   1.000000
    5        7.696287   0.000000
    6        9.328224   0.000000
    7       12.287888   0.000000
    8       12.546767   0.000000
 
 -0.3333333E+00  0.4444444E+00  0.2222222E+00  0.3292181E-01
    1       -2.553459   1.000000
    2       -1.410409   1.000000
    3        1.665247   1.000000
    4        2.296092   1.000000
    5        9.514566   0.000000
    6        9.636896   0.000000
    7       10.240646   0.000000
    8       11.997670   0.000000
