    2    2   15    1
  0.1529437E+02  0.3691622E-09  0.3691622E-09  0.3691622E-09  0.5000000E-15
  1.000000000000000E-004
  CAR 
 unknown system                          
      8    126      8
 
  0.0000000E+00  0.0000000E+00  0.0000000E+00  0.7513148E-03
    1       -4.605135   1.000000
    2        6.489721   1.000000
    3        6.489746   1.000000
    4        6.706894   1.000000
    5       10.648593   0.000000
    6       16.849057   0.000000
    7       17.742165   0.000000
    8       17.742194   0.000000
 
  0.9090909E-01 -0.1249769E-17  0.1249769E-17  0.6010518E-02
    1       -4.379591   1.000000
    2        5.750372   1.000000
    3        6.420786   1.000000
    4        7.836829   1.000000
    5       11.134838   0.000000
    6       15.542467   0.000000
    7       16.291545   0.000000
    8       17.585131   0.000000
 
  0.1818182E+00 -0.2499539E-17  0.2499539E-17  0.6010518E-02
    1       -3.704595   1.000000
    2        5.322622   1.000000
    3        6.361773   1.000000
    4        9.334955   0.064664
    5       12.405284   0.000000
    6       13.006786   0.000000
    7       13.671837   0.000000
    8       15.891948   0.000000
 
  0.2727273E+00 -0.2456599E-16  0.2456599E-16  0.6010518E-02
    1       -2.586031   1.000000
    2        5.302558   1.000000
    3        6.508095   1.000000
    4        9.073049   0.631263
    5       11.359618   0.000000
    6       12.112975   0.000000
    7       13.369163   0.000000
    8       14.692755   0.000000
 
  0.3636364E+00 -0.4999077E-17  0.4999077E-17  0.6010518E-02
    1       -1.036104   1.000000
    2        5.500843   1.000000
    3        6.404211   1.000000
    4        6.916138   1.000000
    5        9.538057   0.001574
    6       11.800160   0.000000
    7       13.793223   0.000000
    8       14.010409   0.000000
 
  0.4545455E+00 -0.5101859E-16 -0.4492561E-17  0.6010518E-02
    1        0.903848   1.000000
    2        3.377268   1.000000
    3        6.601159   1.000000
    4        7.428271   1.000000
    5        7.993855   1.000000
    6       10.525493   0.000000
    7       13.571473   0.000000
    8       14.542850   0.000000
 
  0.9090909E-01  0.9090909E-01  0.6302053E-17  0.6010518E-02
    1       -3.805169   1.000000
    2        5.606862   1.000000
    3        7.153069   1.000000
    4        8.427304   1.000000
    5       11.938683   0.000000
    6       13.542076   0.000000
    7       13.588361   0.000000
    8       16.173075   0.000000
 
  0.1818182E+00  0.9090909E-01 -0.1326486E-16  0.1202104E-01
    1       -2.785683   1.000000
    2        5.560151   1.000000
    3        7.554724   1.000000
    4        9.320461   0.078641
    5       10.879160   0.000000
    6       11.292197   0.000000
    7       13.374854   0.000000
    8       14.460353   0.000000
 
  0.2727273E+00  0.9090909E-01  0.1260411E-16  0.1202104E-01
    1       -1.331999   1.000000
    2        5.813159   1.000000
    3        6.902849   1.000000
    4        7.811254   1.000000
    5        9.189785   0.311979
    6       11.942074   0.000000
    7       12.509273   0.000000
    8       13.937041   0.000000
 
  0.3636364E+00  0.9090909E-01  0.3112467E-17  0.1202104E-01
    1        0.528092   1.000000
    2        4.022348   1.000000
    3        6.642185   1.000000
    4        6.876833   1.000000
    5        8.686905   0.998914
    6       10.825442   0.000000
    7       12.768468   0.000000
    8       15.141352   0.000000
 
  0.4545455E+00  0.9090909E-01 -0.2652972E-16  0.1202104E-01
    1        1.446939   1.000000
    2        2.931972   1.000000
    3        5.632773   1.000000
    4        7.337859   1.000000
    5        8.502697   0.999994
    6       11.128211   0.000000
    7       12.623908   0.000000
    8       15.581231   0.000000
 
 -0.4545455E+00  0.9090909E-01 -0.1715602E-16  0.1202104E-01
    1       -0.545105   1.000000
    2        4.511420   1.000000
    3        5.698175   1.000000
    4        7.004888   1.000000
    5        9.539034   0.001539
    6       12.278944   0.000000
    7       13.021225   0.000000
    8       14.960792   0.000000
 
 -0.3636364E+00  0.9090909E-01  0.3189586E-17  0.1202104E-01
    1       -2.187356   1.000000
    2        4.080254   1.000000
    3        6.490205   1.000000
    4        8.588978   0.999914
    5       11.184489   0.000000
    6       12.790421   0.000000
    7       13.361177   0.000000
    8       14.552255   0.000000
 
 -0.2727273E+00  0.9090909E-01  0.1302975E-17  0.1202104E-01
    1       -3.403312   1.000000
    2        3.979271   1.000000
    3        6.337884   1.000000
    4       10.156902   0.000000
    5       12.361146   0.000000
    6       13.013055   0.000000
    7       13.813808   0.000000
    8       15.121937   0.000000
 
 -0.1818182E+00  0.9090909E-01  0.7590381E-17  0.1202104E-01
    1       -4.177868   1.000000
    2        4.284209   1.000000
    3        6.455641   1.000000
    4        8.808924   0.986197
    5       12.277101   0.000000
    6       14.230241   0.000000
    7       15.813643   0.000000
    8       16.977387   0.000000
 
 -0.9090909E-01  0.9090909E-01  0.1699965E-18  0.3005259E-02
    1       -4.504310   1.000000
    2        4.969320   1.000000
    3        6.582355   1.000000
    4        7.840148   1.000000
    5       11.295898   0.000000
    6       15.478353   0.000000
    7       17.029257   0.000000
    8       18.778984   0.000000
 
  0.1818182E+00  0.1818182E+00  0.1260411E-16  0.6010518E-02
    1       -1.430742   1.000000
    2        5.821026   1.000000
    3        7.511494   1.000000
    4        7.701938   1.000000
    5        9.525719   0.002081
    6       11.466725   0.000000
    7       12.729671   0.000000
    8       12.985242   0.000000
 
  0.2727273E+00  0.1818182E+00  0.3086804E-16  0.1202104E-01
    1        0.337787   1.000000
    2        4.839839   1.000000
    3        5.810344   1.000000
    4        6.585923   1.000000
    5        9.688403   0.000030
    6       11.447514   0.000000
    7       12.249553   0.000000
    8       13.766772   0.000000
 
  0.3636364E+00  0.1818182E+00 -0.2652972E-16  0.1202104E-01
    1        2.043753   1.000000
    2        2.791781   1.000000
    3        4.445601   1.000000
    4        7.352569   1.000000
    5        9.053136   0.682965
    6       11.155009   0.000000
    7       12.816052   0.000000
    8       16.058213   0.000000
 
  0.4545455E+00  0.1818182E+00 -0.6607546E-18  0.1202104E-01
    1        0.137873   1.000000
    2        3.248899   1.000000
    3        5.267468   1.000000
    4        7.487688   1.000000
    5        9.303516   0.097755
    6       11.424043   0.000000
    7       14.022538   0.000000
    8       15.853915   0.000000
 
 -0.4545455E+00  0.1818182E+00 -0.2664766E-16  0.1202104E-01
    1       -1.591933   1.000000
    2        2.652243   1.000000
    3        6.937623   1.000000
    4        8.207263   1.000000
    5       10.510052   0.000000
    6       12.382307   0.000000
    7       13.520692   0.000000
    8       15.787635   0.000000
 
 -0.3636364E+00  0.1818182E+00  0.1518076E-16  0.1202104E-01
    1       -2.902605   1.000000
    2        2.446841   1.000000
    3        6.755477   1.000000
    4       10.550482   0.000000
    5       11.589059   0.000000
    6       12.430111   0.000000
    7       14.135136   0.000000
    8       16.244803   0.000000
 
 -0.2727273E+00  0.1818182E+00 -0.1322630E-16  0.1202104E-01
    1       -3.775172   1.000000
    2        2.662156   1.000000
    3        6.813971   1.000000
    4        9.498436   0.003762
    5       12.741786   0.000000
    6       14.158183   0.000000
    7       15.095190   0.000000
    8       16.207794   0.000000
 
 -0.1818182E+00  0.1818182E+00  0.3399929E-18  0.3005259E-02
    1       -4.201598   1.000000
    2        3.289207   1.000000
    3        6.860172   1.000000
    4        8.607959   0.999855
    5       12.984105   0.000000
    6       13.849463   0.000000
    7       15.741576   0.000000
    8       18.482330   0.000000
 
  0.2727273E+00  0.2727273E+00 -0.6379172E-17  0.6010518E-02
    1        2.242027   1.000000
    2        3.249204   1.000000
    3        3.534653   1.000000
    4        7.344383   1.000000
    5        9.493783   0.004147
    6       10.569219   0.000000
    7       14.033575   0.000000
    8       14.925388   0.000000
 
  0.3636364E+00  0.2727273E+00 -0.3602136E-16  0.1202104E-01
    1        1.006872   1.000000
    2        2.053428   1.000000
    3        5.067131   1.000000
    4        7.984377   1.000000
    5        9.077898   0.618259
    6       10.672564   0.000000
    7       15.424690   0.000000
    8       16.294538   0.000000
 
  0.4545455E+00  0.2727273E+00  0.2520821E-16  0.1202104E-01
    1       -0.802838   1.000000
    2        1.332692   1.000000
    3        7.474759   1.000000
    4        8.075138   1.000000
    5        9.630556   0.000155
    6       11.849711   0.000000
    7       14.269855   0.000000
    8       16.119229   0.000000
 
 -0.4545455E+00  0.2727273E+00  0.1937185E-16  0.1202104E-01
    1       -2.204462   1.000000
    2        1.026425   1.000000
    3        7.383689   1.000000
    4       10.163589   0.000000
    5       10.999585   0.000000
    6       12.548434   0.000000
    7       13.778942   0.000000
    8       15.248853   0.000000
 
 -0.3636364E+00  0.2727273E+00 -0.1702881E-16  0.1202104E-01
    1       -3.173118   1.000000
    2        1.149755   1.000000
    3        7.367453   1.000000
    4       10.174852   0.000000
    5       11.366100   0.000000
    6       14.011364   0.000000
    7       15.462158   0.000000
    8       15.945964   0.000000
 
 -0.2727273E+00  0.2727273E+00 -0.1434744E-16  0.3005259E-02
    1       -3.698259   1.000000
    2        1.700759   1.000000
    3        7.322720   1.000000
    4        9.262434   0.157701
    5       12.343414   0.000000
    6       14.386403   0.000000
    7       15.165976   0.000000
    8       18.212221   0.000000
 
  0.3636364E+00  0.3636364E+00  0.2520821E-16  0.6010518E-02
    1        0.167363   1.000000
    2        0.182678   1.000000
    3        7.636243   1.000000
    4        8.401450   1.000000
    5        8.960560   0.870892
    6       11.689430   0.000000
    7       14.832918   0.000000
    8       15.640589   0.000000
 
  0.4545455E+00  0.3636364E+00 -0.3979458E-16  0.1202104E-01
    1       -1.312783   1.000000
    2       -0.232739   1.000000
    3        8.190092   1.000000
    4        9.148288   0.421985
    5       10.906625   0.000000
    6       13.094830   0.000000
    7       13.589152   0.000000
    8       14.286047   0.000000
 
 -0.4545455E+00  0.3636364E+00 -0.1340671E-16  0.1202104E-01
    1       -2.374449   1.000000
    2       -0.204785   1.000000
    3        8.105588   1.000000
    4       10.109688   0.000000
    5       10.967698   0.000000
    6       12.927982   0.000000
    7       15.194948   0.000000
    8       15.916592   0.000000
 
 -0.3636364E+00  0.3636364E+00  0.6799859E-18  0.3005259E-02
    1       -2.996503   1.000000
    2        0.258759   1.000000
    3        7.969241   1.000000
    4       10.001800   0.000000
    5       10.992373   0.000000
    6       13.092633   0.000000
    7       17.411807   0.000000
    8       18.012891   0.000000
 
  0.4545455E+00  0.4545455E+00 -0.4928622E-16  0.6010518E-02
    1       -1.383207   1.000000
    2       -1.382184   1.000000
    3        9.013665   0.774908
    4        9.032001   0.734163
    5       11.804641   0.000000
    6       11.970509   0.000000
    7       15.094418   0.000000
    8       15.855454   0.000000
 
 -0.4545455E+00  0.4545455E+00 -0.2152036E-17  0.3005259E-02
    1       -2.099686   1.000000
    2       -1.011627   1.000000
    3        8.798460   0.988602
    4        9.807717   0.000001
    5       10.883645   0.000000
    6       11.916468   0.000000
    7       17.928558   0.000000
    8       17.978536   0.000000
 
  0.9090909E-01  0.9090909E-01  0.9090909E-01  0.6010518E-02
    1       -3.503532   1.000000
    2        3.946871   1.000000
    3        7.418994   1.000000
    4        9.177118   0.344329
    5       12.567497   0.000000
    6       13.101596   0.000000
    7       13.855156   0.000000
    8       15.620049   0.000000
 
  0.1818182E+00  0.9090909E-01  0.9090909E-01  0.1202104E-01
    1       -2.386032   1.000000
    2        3.977243   1.000000
    3        7.830890   1.000000
    4        9.224105   0.231801
    5       10.664568   0.000000
    6       11.300160   0.000000
    7       14.404156   0.000000
    8       15.084907   0.000000
 
  0.2727273E+00  0.9090909E-01  0.9090909E-01  0.1202104E-01
    1       -0.838302   1.000000
    2        4.383383   1.000000
    3        6.341068   1.000000
    4        7.801256   1.000000
    5        9.327629   0.071466
    6       12.787202   0.000000
    7       13.435279   0.000000
    8       14.195884   0.000000
 
  0.3636364E+00  0.9090909E-01  0.9090909E-01  0.1202104E-01
    1        1.098248   1.000000
    2        3.544168   1.000000
    3        5.334129   1.000000
    4        6.553468   1.000000
    5        9.550578   0.001177
    6       11.734232   0.000000
    7       13.785166   0.000000
    8       14.488593   0.000000
 
 -0.9090909E-01  0.9090909E-01  0.9090909E-01  0.3005259E-02
    1       -4.403338   1.000000
    2        4.678176   1.000000
    3        5.756065   1.000000
    4        8.842213   0.975435
    5       11.765839   0.000000
    6       14.348235   0.000000
    7       17.907867   0.000000
    8       18.048267   0.000000
 
  0.1818182E+00  0.1818182E+00  0.9090909E-01  0.6010518E-02
    1       -0.936404   1.000000
    2        4.320002   1.000000
    3        7.092568   1.000000
    4        7.225151   1.000000
    5       10.056418   0.000000
    6       12.043740   0.000000
    7       13.958393   0.000000
    8       14.054780   0.000000
 
  0.2727273E+00  0.1818182E+00  0.9090909E-01  0.1202104E-01
    1        0.915759   1.000000
    2        4.313375   1.000000
    3        5.094042   1.000000
    4        5.599929   1.000000
    5       10.709349   0.000000
    6       12.695380   0.000000
    7       13.234505   0.000000
    8       14.310133   0.000000
 
  0.3636364E+00  0.1818182E+00  0.9090909E-01  0.1202104E-01
    1        1.834544   1.000000
    2        3.215544   1.000000
    3        4.153186   1.000000
    4        6.329713   1.000000
    5       10.370088   0.000000
    6       12.444460   0.000000
    7       13.563782   0.000000
    8       15.310191   0.000000
 
  0.4545455E+00  0.1818182E+00  0.9090909E-01  0.1202104E-01
    1       -0.151041   1.000000
    2        3.013568   1.000000
    3        5.973132   1.000000
    4        7.690635   1.000000
    5        9.774989   0.000002
    6       12.715004   0.000000
    7       13.714638   0.000000
    8       14.941936   0.000000
 
 -0.4545455E+00  0.1818182E+00  0.9090909E-01  0.1202104E-01
    1       -1.788853   1.000000
    2        2.489408   1.000000
    3        8.176877   1.000000
    4        8.994498   0.813438
    5       10.410301   0.000000
    6       11.757851   0.000000
    7       13.309559   0.000000
    8       15.206794   0.000000
 
 -0.3636364E+00  0.1818182E+00  0.9090909E-01  0.6010518E-02
    1       -3.002205   1.000000
    2        2.370528   1.000000
    3        7.857873   1.000000
    4        9.791791   0.000001
    5       11.908946   0.000000
    6       12.674245   0.000000
    7       14.175634   0.000000
    8       15.025550   0.000000
 
 -0.1818182E+00  0.1818182E+00  0.9090909E-01  0.6010518E-02
    1       -4.100950   1.000000
    2        3.320867   1.000000
    3        5.726589   1.000000
    4        9.816495   0.000000
    5       12.751137   0.000000
    6       13.228351   0.000000
    7       16.778085   0.000000
    8       18.396485   0.000000
 
 -0.9090909E-01  0.1818182E+00  0.9090909E-01  0.6010518E-02
    1       -3.976604   1.000000
    2        4.016919   1.000000
    3        5.297644   1.000000
    4       10.176761   0.000000
    5       12.818780   0.000000
    6       13.013962   0.000000
    7       15.311431   0.000000
    8       17.507146   0.000000
 
  0.2727273E+00  0.2727273E+00  0.9090909E-01  0.6010518E-02
    1        2.523508   1.000000
    2        2.858692   1.000000
    3        3.558366   1.000000
    4        6.250311   1.000000
    5       10.955830   0.000000
    6       11.909597   0.000000
    7       14.742844   0.000000
    8       14.991653   0.000000
 
  0.3636364E+00  0.2727273E+00  0.9090909E-01  0.1202104E-01
    1        0.725690   1.000000
    2        1.785257   1.000000
    3        5.789407   1.000000
    4        7.598465   1.000000
    5       10.443189   0.000000
    6       11.694515   0.000000
    7       14.424526   0.000000
    8       15.596577   0.000000
 
  0.4545455E+00  0.2727273E+00  0.9090909E-01  0.1202104E-01
    1       -0.996938   1.000000
    2        1.151314   1.000000
    3        8.390570   1.000000
    4        8.928282   0.912904
    5       10.413189   0.000000
    6       12.022139   0.000000
    7       12.611380   0.000000
    8       14.404748   0.000000
 
 -0.4545455E+00  0.2727273E+00  0.9090909E-01  0.6010518E-02
    1       -2.303027   1.000000
    2        0.937294   1.000000
    3        8.460825   0.999998
    4       10.379764   0.000000
    5       11.160379   0.000000
    6       12.322956   0.000000
    7       13.394685   0.000000
    8       13.989517   0.000000
 
 -0.2727273E+00  0.2727273E+00  0.9090909E-01  0.6010518E-02
    1       -3.598301   1.000000
    2        1.776817   1.000000
    3        6.153003   1.000000
    4       10.540303   0.000000
    5       11.236500   0.000000
    6       15.317207   0.000000
    7       15.503637   0.000000
    8       18.023183   0.000000
 
 -0.1818182E+00  0.2727273E+00  0.9090909E-01  0.1202104E-01
    1       -3.574839   1.000000
    2        2.766896   1.000000
    3        5.279003   1.000000
    4       11.104230   0.000000
    5       11.332131   0.000000
    6       14.431108   0.000000
    7       14.988664   0.000000
    8       17.328240   0.000000
 
 -0.9090909E-01  0.2727273E+00  0.9090909E-01  0.6010518E-02
    1       -3.103130   1.000000
    2        3.779688   1.000000
    3        5.163641   1.000000
    4       10.690862   0.000000
    5       11.724167   0.000000
    6       12.871272   0.000000
    7       14.588889   0.000000
    8       15.266943   0.000000
 
  0.3636364E+00  0.3636364E+00  0.9090909E-01  0.6010518E-02
    1       -0.017130   1.000000
    2       -0.012154   1.000000
    3        8.413395   1.000000
    4        8.967764   0.859857
    5       10.605528   0.000000
    6       11.516607   0.000000
    7       13.143351   0.000000
    8       13.698529   0.000000
 
  0.4545455E+00  0.3636364E+00  0.9090909E-01  0.6010518E-02
    1       -1.409703   1.000000
    2       -0.326954   1.000000
    3        9.207148   0.269931
    4       10.037428   0.000000
    5       11.339594   0.000000
    6       11.942531   0.000000
    7       13.030674   0.000000
    8       13.209280   0.000000
 
 -0.3636364E+00  0.3636364E+00  0.9090909E-01  0.6010518E-02
    1       -2.897655   1.000000
    2        0.347928   1.000000
    3        6.799862   1.000000
    4        9.868247   0.000000
    5       11.287430   0.000000
    6       14.277579   0.000000
    7       17.302530   0.000000
    8       17.827081   0.000000
 
 -0.2727273E+00  0.3636364E+00  0.9090909E-01  0.1202104E-01
    1       -2.974511   1.000000
    2        1.314795   1.000000
    3        5.778935   1.000000
    4        9.842658   0.000000
    5       11.873121   0.000000
    6       14.264652   0.000000
    7       16.466843   0.000000
    8       16.641874   0.000000
 
 -0.1818182E+00  0.3636364E+00  0.9090909E-01  0.1202104E-01
    1       -2.604497   1.000000
    2        2.637182   1.000000
    3        5.195450   1.000000
    4        9.984567   0.000000
    5       10.830651   0.000000
    6       13.581463   0.000000
    7       15.007317   0.000000
    8       16.429889   0.000000
 
 -0.9090909E-01  0.3636364E+00  0.9090909E-01  0.6010518E-02
    1       -1.790987   1.000000
    2        3.959440   1.000000
    3        5.396069   1.000000
    4        8.002097   1.000000
    5       10.635225   0.000000
    6       13.154166   0.000000
    7       14.267629   0.000000
    8       14.573362   0.000000
 
 -0.4545455E+00  0.4545455E+00  0.9090909E-01  0.6010518E-02
    1       -2.002244   1.000000
    2       -0.917130   1.000000
    3        7.640919   1.000000
    4        8.666391   0.999338
    5       12.152059   0.000000
    6       13.151710   0.000000
    7       17.559079   0.000000
    8       17.631824   0.000000
 
 -0.3636364E+00  0.4545455E+00  0.9090909E-01  0.1202104E-01
    1       -2.178459   1.000000
    2       -0.021402   1.000000
    3        6.514005   1.000000
    4        8.559712   0.999963
    5       12.510912   0.000000
    6       13.978989   0.000000
    7       15.571260   0.000000
    8       16.918195   0.000000
 
 -0.2727273E+00  0.4545455E+00  0.9090909E-01  0.1202104E-01
    1       -1.909688   1.000000
    2        1.284286   1.000000
    3        5.772749   1.000000
    4        8.757681   0.994844
    5       10.462408   0.000000
    6       14.315708   0.000000
    7       14.803809   0.000000
    8       17.100853   0.000000
 
 -0.1818182E+00  0.4545455E+00  0.9090909E-01  0.1202104E-01
    1       -1.199314   1.000000
    2        2.929483   1.000000
    3        5.489436   1.000000
    4        7.557996   1.000000
    5        9.434720   0.013135
    6       13.036630   0.000000
    7       15.058449   0.000000
    8       15.856748   0.000000
 
 -0.9090909E-01  0.4545455E+00  0.9090909E-01  0.6010518E-02
    1       -0.059045   1.000000
    2        4.354356   1.000000
    3        5.327513   1.000000
    4        5.993422   1.000000
    5        9.680142   0.000038
    6       11.918041   0.000000
    7       12.569137   0.000000
    8       16.401805   0.000000
 
 -0.4545455E+00 -0.4545455E+00  0.9090909E-01  0.6010518E-02
    1       -1.192637   1.000000
    2       -1.189542   1.000000
    3        7.444055   1.000000
    4        7.447582   1.000000
    5       12.861608   0.000000
    6       13.838680   0.000000
    7       15.163438   0.000000
    8       16.876715   0.000000
 
 -0.3636364E+00 -0.4545455E+00  0.9090909E-01  0.1202104E-01
    1       -1.023452   1.000000
    2        0.046763   1.000000
    3        6.588972   1.000000
    4        7.594353   1.000000
    5       10.296151   0.000000
    6       14.663334   0.000000
    7       15.095522   0.000000
    8       16.266884   0.000000
 
 -0.2727273E+00 -0.4545455E+00  0.9090909E-01  0.1202104E-01
    1       -0.416676   1.000000
    2        1.683665   1.000000
    3        6.114475   1.000000
    4        7.268377   1.000000
    5        8.274560   1.000000
    6       12.827170   0.000000
    7       16.076797   0.000000
    8       17.009318   0.000000
 
 -0.1818182E+00 -0.4545455E+00  0.9090909E-01  0.1202104E-01
    1        0.615105   1.000000
    2        3.554052   1.000000
    3        4.789565   1.000000
    4        6.221853   1.000000
    5        8.895128   0.944452
    6       11.480368   0.000000
    7       13.629607   0.000000
    8       17.293720   0.000000
 
 -0.9090909E-01 -0.4545455E+00  0.9090909E-01  0.6010518E-02
    1        1.851714   1.000000
    2        2.625804   1.000000
    3        5.741645   1.000000
    4        6.884616   1.000000
    5        8.711120   0.998101
    6       11.225733   0.000000
    7       11.432584   0.000000
    8       16.633709   0.000000
 
 -0.3636364E+00 -0.3636364E+00  0.9090909E-01  0.6010518E-02
    1        0.536552   1.000000
    2        0.563368   1.000000
    3        6.746091   1.000000
    4        7.032554   1.000000
    5        7.607536   1.000000
    6       12.747909   0.000000
    7       16.639845   0.000000
    8       17.572034   0.000000
 
 -0.2727273E+00 -0.3636364E+00  0.9090909E-01  0.1202104E-01
    1        1.466683   1.000000
    2        2.479530   1.000000
    3        4.536742   1.000000
    4        6.941549   1.000000
    5        7.897152   1.000000
    6       11.258073   0.000000
    7       15.119285   0.000000
    8       16.798604   0.000000
 
 -0.1818182E+00 -0.3636364E+00  0.9090909E-01  0.1202104E-01
    1        1.915592   1.000000
    2        3.023234   1.000000
    3        4.909815   1.000000
    4        7.156065   1.000000
    5        8.560015   0.999963
    6       10.593367   0.000000
    7       12.322736   0.000000
    8       15.771738   0.000000
 
 -0.9090909E-01 -0.3636364E+00  0.9090909E-01  0.6010518E-02
    1        0.143155   1.000000
    2        4.672169   1.000000
    3        7.067193   1.000000
    4        7.729217   1.000000
    5        7.968873   1.000000
    6       10.688960   0.000000
    7       11.578678   0.000000
    8       14.547477   0.000000
 
 -0.2727273E+00 -0.2727273E+00  0.9090909E-01  0.6010518E-02
    1        1.866840   1.000000
    2        3.802570   1.000000
    3        3.964857   1.000000
    4        7.640221   1.000000
    5        8.133671   1.000000
    6       10.321724   0.000000
    7       13.508095   0.000000
    8       14.523939   0.000000
 
 -0.1818182E+00 -0.2727273E+00  0.9090909E-01  0.1202104E-01
    1       -0.050382   1.000000
    2        5.480846   1.000000
    3        6.404792   1.000000
    4        7.649801   1.000000
    5        8.706690   0.998282
    6       10.590630   0.000000
    7       11.611152   0.000000
    8       13.181441   0.000000
 
 -0.9090909E-01 -0.2727273E+00  0.9090909E-01  0.6010518E-02
    1       -1.629244   1.000000
    2        6.967002   1.000000
    3        7.686245   1.000000
    4        7.849490   1.000000
    5        9.092251   0.579034
    6       11.424599   0.000000
    7       11.590553   0.000000
    8       13.059527   0.000000
 
 -0.1818182E+00 -0.1818182E+00  0.9090909E-01  0.6010518E-02
    1       -1.728419   1.000000
    2        7.318889   1.000000
    3        7.981992   1.000000
    4        8.195694   1.000000
    5        9.117727   0.507689
    6       10.668724   0.000000
    7       12.000398   0.000000
    8       12.190031   0.000000
 
 -0.9090909E-01 -0.1818182E+00  0.9090909E-01  0.6010518E-02
    1       -2.985821   1.000000
    2        6.963366   1.000000
    3        7.526822   1.000000
    4        8.820619   0.983003
    5       11.085201   0.000000
    6       11.475178   0.000000
    7       12.433767   0.000000
    8       13.850879   0.000000
 
 -0.9090909E-01 -0.9090909E-01  0.9090909E-01  0.1502630E-02
    1       -3.905794   1.000000
    2        7.064045   1.000000
    3        7.064068   1.000000
    4        7.354069   1.000000
    5       11.350577   0.000000
    6       13.761407   0.000000
    7       13.924212   0.000000
    8       16.073935   0.000000
 
  0.1818182E+00  0.1818182E+00  0.1818182E+00  0.6010518E-02
    1       -0.247759   1.000000
    2        2.930248   1.000000
    3        6.796216   1.000000
    4        6.872430   1.000000
    5       10.743712   0.000000
    6       12.628866   0.000000
    7       14.041622   0.000000
    8       14.569299   0.000000
 
  0.2727273E+00  0.1818182E+00  0.1818182E+00  0.1202104E-01
    1        1.675763   1.000000
    2        3.607475   1.000000
    3        4.357577   1.000000
    4        5.238785   1.000000
    5       11.691555   0.000000
    6       13.857450   0.000000
    7       14.024123   0.000000
    8       14.524848   0.000000
 
 -0.1818182E+00  0.1818182E+00  0.1818182E+00  0.3005259E-02
    1       -3.799601   1.000000
    2        3.117061   1.000000
    3        4.529944   1.000000
    4       11.142855   0.000000
    5       11.347420   0.000000
    6       14.137899   0.000000
    7       17.259231   0.000000
    8       17.956644   0.000000
 
  0.2727273E+00  0.2727273E+00  0.1818182E+00  0.6010518E-02
    1        2.564286   1.000000
    2        2.637436   1.000000
    3        4.187698   1.000000
    4        5.136844   1.000000
    5       12.413391   0.000000
    6       13.232334   0.000000
    7       14.498670   0.000000
    8       15.318475   0.000000
 
  0.3636364E+00  0.2727273E+00  0.1818182E+00  0.6010518E-02
    1        0.631184   1.000000
    2        1.694265   1.000000
    3        6.655757   1.000000
    4        6.680511   1.000000
    5       11.596436   0.000000
    6       12.549988   0.000000
    7       13.632581   0.000000
    8       14.272415   0.000000
 
 -0.2727273E+00  0.2727273E+00  0.1818182E+00  0.6010518E-02
    1       -3.298994   1.000000
    2        1.967122   1.000000
    3        4.559188   1.000000
    4        9.607223   0.000289
    5       12.402905   0.000000
    6       15.859941   0.000000
    7       16.610286   0.000000
    8       17.668497   0.000000
 
 -0.1818182E+00  0.2727273E+00  0.1818182E+00  0.6010518E-02
    1       -3.175265   1.000000
    2        2.643148   1.000000
    3        4.130351   1.000000
    4        9.704464   0.000018
    5       12.466032   0.000000
    6       14.579884   0.000000
    7       15.667288   0.000000
    8       18.007805   0.000000
 
 -0.3636364E+00  0.3636364E+00  0.1818182E+00  0.6010518E-02
    1       -2.601709   1.000000
    2        0.606746   1.000000
    3        5.143458   1.000000
    4        8.220845   1.000000
    5       13.227513   0.000000
    6       15.807793   0.000000
    7       17.138320   0.000000
    8       17.719850   0.000000
 
 -0.2727273E+00  0.3636364E+00  0.1818182E+00  0.1202104E-01
    1       -2.578634   1.000000
    2        1.596127   1.000000
    3        4.229035   1.000000
    4        8.245125   1.000000
    5       12.885117   0.000000
    6       14.840851   0.000000
    7       17.428326   0.000000
    8       18.114111   0.000000
 