   2   2   0   0
  0.2001288E+02  0.3839590E-09  0.3839590E-09  0.3839590E-09  0.5000000E-15
  1.000000000000000E-004
  CAR 
 unknown system                          
     16.21757408     -7.92677878  301      6.13945250      1.00000000
     -7.927  0.0000E+00  0.0000E+00
     -7.846  0.0000E+00  0.0000E+00
     -7.766  0.0000E+00  0.0000E+00
     -7.685  0.0000E+00  0.0000E+00
     -7.605  0.0000E+00  0.0000E+00
     -7.524  0.0000E+00  0.0000E+00
     -7.444  0.0000E+00  0.0000E+00
     -7.363  0.0000E+00  0.0000E+00
     -7.283  0.0000E+00  0.0000E+00
     -7.202  0.0000E+00  0.0000E+00
     -7.122  0.0000E+00  0.0000E+00
     -7.041  0.8334E-16  0.6708E-17
     -6.961  0.6676E-14  0.5440E-15
     -6.881  0.3921E-12  0.3210E-13
     -6.800  0.1674E-10  0.1379E-11
     -6.720  0.5194E-09  0.4318E-10
     -6.639  0.1172E-07  0.9866E-09
     -6.559  0.1925E-06  0.1648E-07
     -6.478  0.2300E-05  0.2016E-06
     -6.398  0.2002E-04  0.1813E-05
     -6.317  0.1269E-03  0.1203E-04
     -6.237  0.5865E-03  0.5923E-04
     -6.156  0.1976E-02  0.2183E-03
     -6.076  0.4854E-02  0.6089E-03
     -5.995  0.8701E-02  0.1309E-02
     -5.915  0.1139E-01  0.2226E-02
     -5.834  0.1096E-01  0.3108E-02
     -5.754  0.8196E-02  0.3768E-02
     -5.673  0.6520E-02  0.4293E-02
     -5.593  0.9597E-02  0.5065E-02
     -5.512  0.1855E-01  0.6557E-02
     -5.432  0.2951E-01  0.8932E-02
     -5.351  0.3486E-01  0.1174E-01
     -5.271  0.3038E-01  0.1418E-01
     -5.190  0.2063E-01  0.1584E-01
     -5.110  0.1457E-01  0.1702E-01
     -5.029  0.1743E-01  0.1842E-01
     -4.949  0.2678E-01  0.2057E-01
     -4.868  0.3430E-01  0.2334E-01
     -4.788  0.3297E-01  0.2599E-01
     -4.708  0.2439E-01  0.2795E-01
     -4.627  0.1722E-01  0.2934E-01
     -4.547  0.1872E-01  0.3084E-01
     -4.466  0.2897E-01  0.3318E-01
     -4.386  0.4076E-01  0.3646E-01
     -4.305  0.4497E-01  0.4007E-01
     -4.225  0.3957E-01  0.4326E-01
     -4.144  0.3364E-01  0.4597E-01
     -4.064  0.3921E-01  0.4912E-01
     -3.983  0.5807E-01  0.5380E-01
     -3.903  0.7828E-01  0.6010E-01
     -3.822  0.8567E-01  0.6699E-01
     -3.742  0.7693E-01  0.7318E-01
     -3.661  0.5841E-01  0.7788E-01
     -3.581  0.3785E-01  0.8093E-01
     -3.500  0.2179E-01  0.8268E-01
     -3.420  0.1526E-01  0.8391E-01
     -3.339  0.1934E-01  0.8547E-01
     -3.259  0.2908E-01  0.8781E-01
     -3.178  0.3582E-01  0.9069E-01
     -3.098  0.3511E-01  0.9352E-01
     -3.017  0.3238E-01  0.9612E-01
     -2.937  0.3734E-01  0.9913E-01
     -2.856  0.5330E-01  0.1034E+00
     -2.776  0.7403E-01  0.1094E+00
     -2.696  0.8801E-01  0.1165E+00
     -2.615  0.8508E-01  0.1233E+00
     -2.535  0.6453E-01  0.1285E+00
     -2.454  0.3731E-01  0.1315E+00
     -2.374  0.1613E-01  0.1328E+00
     -2.293  0.5155E-02  0.1332E+00
     -2.213  0.1209E-02  0.1333E+00
     -2.132  0.2074E-03  0.1333E+00
     -2.052  0.2597E-04  0.1333E+00
     -1.971  0.2371E-05  0.1333E+00
     -1.891  0.1609E-06  0.1333E+00
     -1.810  0.8173E-07  0.1333E+00
     -1.730  0.1217E-05  0.1333E+00
     -1.649  0.1458E-04  0.1333E+00
     -1.569  0.1277E-03  0.1333E+00
     -1.488  0.8201E-03  0.1334E+00
     -1.408  0.3873E-02  0.1337E+00
     -1.327  0.1353E-01  0.1348E+00
     -1.247  0.3528E-01  0.1377E+00
     -1.166  0.6967E-01  0.1433E+00
     -1.086  0.1064E+00  0.1518E+00
     -1.005  0.1297E+00  0.1623E+00
     -0.925  0.1309E+00  0.1728E+00
     -0.844  0.1125E+00  0.1818E+00
     -0.764  0.8286E-01  0.1885E+00
     -0.683  0.5125E-01  0.1926E+00
     -0.603  0.2571E-01  0.1947E+00
     -0.523  0.1022E-01  0.1955E+00
     -0.442  0.3757E-02  0.1958E+00
     -0.362  0.3838E-02  0.1961E+00
     -0.281  0.1059E-01  0.1970E+00
     -0.201  0.2648E-01  0.1991E+00
     -0.120  0.5058E-01  0.2032E+00
     -0.040  0.7263E-01  0.2090E+00
      0.041  0.7785E-01  0.2153E+00
      0.121  0.6193E-01  0.2203E+00
      0.202  0.3638E-01  0.2232E+00
      0.282  0.1572E-01  0.2245E+00
      0.363  0.4993E-02  0.2249E+00
      0.443  0.1252E-02  0.2250E+00
      0.524  0.7658E-03  0.2251E+00
      0.604  0.2463E-02  0.2253E+00
      0.685  0.7619E-02  0.2259E+00
      0.765  0.1741E-01  0.2273E+00
      0.846  0.2935E-01  0.2296E+00
      0.926  0.3747E-01  0.2326E+00
      1.007  0.3897E-01  0.2358E+00
      1.087  0.3811E-01  0.2388E+00
      1.168  0.3887E-01  0.2420E+00
      1.248  0.3801E-01  0.2450E+00
      1.329  0.3091E-01  0.2475E+00
      1.409  0.2032E-01  0.2492E+00
      1.490  0.1487E-01  0.2504E+00
      1.570  0.2274E-01  0.2522E+00
      1.650  0.4692E-01  0.2560E+00
      1.731  0.7941E-01  0.2623E+00
      1.811  0.1006E+00  0.2704E+00
      1.892  0.9447E-01  0.2780E+00
      1.972  0.6599E-01  0.2834E+00
      2.053  0.3512E-01  0.2862E+00
      2.133  0.1771E-01  0.2876E+00
      2.214  0.1853E-01  0.2891E+00
      2.294  0.3704E-01  0.2921E+00
      2.375  0.6919E-01  0.2976E+00
      2.455  0.1036E+00  0.3060E+00
      2.536  0.1237E+00  0.3159E+00
      2.616  0.1209E+00  0.3257E+00
      2.697  0.1043E+00  0.3341E+00
      2.777  0.9142E-01  0.3414E+00
      2.858  0.8877E-01  0.3486E+00
      2.938  0.8886E-01  0.3557E+00
      3.019  0.8696E-01  0.3627E+00
      3.099  0.8574E-01  0.3696E+00
      3.180  0.8309E-01  0.3763E+00
      3.260  0.7355E-01  0.3822E+00
      3.341  0.6318E-01  0.3873E+00
      3.421  0.6652E-01  0.3927E+00
      3.502  0.8553E-01  0.3996E+00
      3.582  0.1037E+00  0.4079E+00
      3.663  0.1064E+00  0.4165E+00
      3.743  0.1004E+00  0.4245E+00
      3.823  0.1022E+00  0.4328E+00
      3.904  0.1113E+00  0.4417E+00
      3.984  0.1102E+00  0.4506E+00
      4.065  0.9215E-01  0.4580E+00
      4.145  0.7139E-01  0.4638E+00
      4.226  0.6186E-01  0.4687E+00
      4.306  0.6209E-01  0.4737E+00
      4.387  0.6586E-01  0.4790E+00
      4.467  0.7254E-01  0.4849E+00
      4.548  0.8038E-01  0.4913E+00
      4.628  0.8177E-01  0.4979E+00
      4.709  0.7197E-01  0.5037E+00
      4.789  0.5549E-01  0.5082E+00
      4.870  0.4148E-01  0.5115E+00
      4.950  0.3600E-01  0.5144E+00
      5.031  0.3718E-01  0.5174E+00
      5.111  0.3687E-01  0.5204E+00
      5.192  0.2974E-01  0.5228E+00
      5.272  0.1944E-01  0.5243E+00
      5.353  0.1350E-01  0.5254E+00
      5.433  0.1511E-01  0.5266E+00
      5.514  0.2062E-01  0.5283E+00
      5.594  0.2329E-01  0.5302E+00
      5.675  0.1959E-01  0.5317E+00
      5.755  0.1206E-01  0.5327E+00
      5.836  0.5420E-02  0.5331E+00
      5.916  0.1776E-02  0.5333E+00
      5.996  0.4245E-03  0.5333E+00
      6.077  0.7412E-04  0.5333E+00
      6.157  0.1203E-04  0.5333E+00
      6.238  0.2708E-04  0.5333E+00
      6.318  0.1887E-03  0.5334E+00
      6.399  0.9896E-03  0.5334E+00
      6.479  0.3784E-02  0.5337E+00
      6.560  0.1055E-01  0.5346E+00
      6.640  0.2146E-01  0.5363E+00
      6.721  0.3188E-01  0.5389E+00
      6.801  0.3480E-01  0.5417E+00
      6.882  0.2886E-01  0.5440E+00
      6.962  0.2131E-01  0.5457E+00
      7.043  0.2065E-01  0.5474E+00
      7.123  0.2770E-01  0.5496E+00
      7.204  0.3502E-01  0.5524E+00
      7.284  0.3523E-01  0.5553E+00
      7.365  0.2955E-01  0.5576E+00
      7.445  0.2599E-01  0.5597E+00
      7.526  0.3071E-01  0.5622E+00
      7.606  0.4384E-01  0.5657E+00
      7.687  0.6088E-01  0.5706E+00
      7.767  0.7596E-01  0.5767E+00
      7.848  0.8651E-01  0.5837E+00
      7.928  0.9470E-01  0.5913E+00
      8.008  0.1026E+00  0.5996E+00
      8.089  0.1088E+00  0.6083E+00
      8.169  0.1111E+00  0.6173E+00
      8.250  0.1067E+00  0.6259E+00
      8.330  0.9367E-01  0.6334E+00
      8.411  0.7787E-01  0.6397E+00
      8.491  0.7335E-01  0.6456E+00
      8.572  0.8899E-01  0.6527E+00
      8.652  0.1178E+00  0.6622E+00
      8.733  0.1391E+00  0.6734E+00
      8.813  0.1337E+00  0.6842E+00
      8.894  0.1009E+00  0.6923E+00
      8.974  0.5996E-01  0.6971E+00
      9.055  0.3257E-01  0.6997E+00
      9.135  0.3013E-01  0.7022E+00
      9.216  0.5465E-01  0.7066E+00
      9.296  0.9933E-01  0.7146E+00
      9.377  0.1457E+00  0.7263E+00
      9.457  0.1715E+00  0.7401E+00
      9.538  0.1667E+00  0.7535E+00
      9.618  0.1398E+00  0.7648E+00
      9.699  0.1064E+00  0.7733E+00
      9.779  0.7952E-01  0.7797E+00
      9.860  0.6644E-01  0.7851E+00
      9.940  0.6887E-01  0.7906E+00
     10.021  0.8210E-01  0.7972E+00
     10.101  0.9624E-01  0.8050E+00
     10.181  0.1011E+00  0.8131E+00
     10.262  0.9298E-01  0.8206E+00
     10.342  0.7725E-01  0.8268E+00
     10.423  0.6338E-01  0.8319E+00
     10.503  0.5777E-01  0.8366E+00
     10.584  0.5963E-01  0.8413E+00
     10.664  0.6442E-01  0.8465E+00
     10.745  0.7127E-01  0.8523E+00
     10.825  0.8125E-01  0.8588E+00
     10.906  0.9070E-01  0.8661E+00
     10.986  0.9614E-01  0.8738E+00
     11.067  0.1010E+00  0.8820E+00
     11.147  0.1082E+00  0.8907E+00
     11.228  0.1132E+00  0.8998E+00
     11.308  0.1087E+00  0.9085E+00
     11.389  0.9114E-01  0.9159E+00
     11.469  0.6511E-01  0.9211E+00
     11.550  0.4465E-01  0.9247E+00
     11.630  0.4467E-01  0.9283E+00
     11.711  0.6712E-01  0.9337E+00
     11.791  0.9581E-01  0.9414E+00
     11.872  0.1091E+00  0.9502E+00
     11.952  0.1023E+00  0.9584E+00
     12.033  0.9038E-01  0.9657E+00
     12.113  0.8408E-01  0.9725E+00
     12.194  0.7608E-01  0.9786E+00
     12.274  0.5749E-01  0.9832E+00
     12.354  0.3332E-01  0.9859E+00
     12.435  0.1472E-01  0.9871E+00
     12.515  0.6561E-02  0.9876E+00
     12.596  0.7762E-02  0.9882E+00
     12.676  0.1609E-01  0.9895E+00
     12.757  0.2753E-01  0.9917E+00
     12.837  0.3506E-01  0.9946E+00
     12.918  0.3443E-01  0.9973E+00
     12.998  0.3148E-01  0.9999E+00
     13.079  0.3877E-01  0.1003E+01
     13.159  0.6212E-01  0.1008E+01
     13.240  0.9032E-01  0.1015E+01
     13.320  0.1018E+00  0.1023E+01
     13.401  0.8612E-01  0.1030E+01
     13.481  0.5521E-01  0.1035E+01
     13.562  0.2915E-01  0.1037E+01
     13.642  0.1675E-01  0.1039E+01
     13.723  0.1363E-01  0.1040E+01
     13.803  0.1299E-01  0.1041E+01
     13.884  0.1390E-01  0.1042E+01
     13.964  0.2088E-01  0.1043E+01
     14.045  0.3688E-01  0.1046E+01
     14.125  0.5625E-01  0.1051E+01
     14.206  0.6636E-01  0.1056E+01
     14.286  0.5916E-01  0.1061E+01
     14.367  0.3965E-01  0.1064E+01
     14.447  0.1991E-01  0.1066E+01
     14.527  0.7469E-02  0.1066E+01
     14.608  0.2083E-02  0.1067E+01
     14.688  0.4303E-03  0.1067E+01
     14.769  0.6558E-04  0.1067E+01
     14.849  0.7349E-05  0.1067E+01
     14.930  0.6039E-06  0.1067E+01
     15.010  0.3630E-07  0.1067E+01
     15.091  0.1594E-08  0.1067E+01
     15.171  0.5102E-10  0.1067E+01
     15.252  0.1190E-11  0.1067E+01
     15.332  0.2021E-13  0.1067E+01
     15.413  0.2414E-15  0.1067E+01
     15.493  0.0000E+00  0.1067E+01
     15.574  0.0000E+00  0.1067E+01
     15.654  0.0000E+00  0.1067E+01
     15.735  0.0000E+00  0.1067E+01
     15.815  0.0000E+00  0.1067E+01
     15.896  0.0000E+00  0.1067E+01
     15.976  0.0000E+00  0.1067E+01
     16.057  0.0000E+00  0.1067E+01
     16.137  0.0000E+00  0.1067E+01
     16.218  0.0000E+00  0.1067E+01
