<?xml version="1.0" encoding="ISO-8859-1"?>
<modeling>
 <generator>
  <i name="program" type="string">vasp </i>
  <i name="version" type="string">5.4.4.18Apr17-6-g9f103f2a35  </i>
  <i name="subversion" type="string">(build Dec 09 2018 21:25:21) complex            parallel </i>
  <i name="platform" type="string">IFC18.0.1.163_CrayMPICH7.7.0_MKL18.0.1.163 </i>
  <i name="date" type="string">2019 03 19 </i>
  <i name="time" type="string">13:29:14 </i>
 </generator>
 <incar>
  <i type="string" name="PREC">normal</i>
  <i type="int" name="IBRION">     2</i>
  <i name="EDIFF">      0.00040000</i>
  <i name="EDIFFG">     -0.01000000</i>
  <i type="int" name="NSW">    15</i>
  <i type="int" name="ISIF">     2</i>
  <i name="ENCUT">    200.00000000</i>
  <i type="int" name="NBANDS">     8</i>
  <i type="logical" name="LREAL"> F  </i>
  <i type="int" name="ISMEAR">     0</i>
  <i name="SIGMA">      0.20000000</i>
  <v type="int" name="KPOINT_BSE">    -1     0     0     0</v>
 </incar>
 <structure name="primitive_cell" >
  <crystal>
   <varray name="basis" >
    <v>       0.00000000       2.71500000       2.71500000 </v>
    <v>       2.71500000       0.00000000       2.71500000 </v>
    <v>       2.71500000       2.71500000       0.00000000 </v>
   </varray>
   <i name="volume">     40.02575175 </i>
   <varray name="rec_basis" >
    <v>      -0.18416206       0.18416206       0.18416206 </v>
    <v>       0.18416206      -0.18416206       0.18416206 </v>
    <v>       0.18416206       0.18416206      -0.18416206 </v>
   </varray>
  </crystal>
  <varray name="positions" >
   <v>      -0.50000000      -0.50000000      -0.50000000 </v>
   <v>      -0.25000000      -0.25000000      -0.25000000 </v>
  </varray>
 </structure>
 <varray name="primitive_index" >
  <v type="int" >        1 </v>
  <v type="int" >        2 </v>
 </varray>
 <kpoints>
  <generation param="Monkhorst-Pack">
   <v type="int" name="divisions">       4        4        4 </v>
   <v name="usershift">      0.00000000       0.00000000       0.00000000 </v>
   <v name="genvec1">      0.25000000       0.00000000      -0.00000000 </v>
   <v name="genvec2">      0.00000000       0.25000000       0.00000000 </v>
   <v name="genvec3">     -0.00000000      -0.00000000       0.25000000 </v>
   <v name="shift">      0.50000000       0.50000000       0.50000000 </v>
  </generation>
  <varray name="kpointlist" >
   <v>       0.12500000       0.12500000       0.12500000 </v>
   <v>       0.37500000       0.12500000       0.12500000 </v>
   <v>      -0.37500000       0.12500000       0.12500000 </v>
   <v>      -0.12500000       0.12500000       0.12500000 </v>
   <v>       0.37500000       0.37500000       0.12500000 </v>
   <v>      -0.37500000       0.37500000       0.12500000 </v>
   <v>      -0.12500000       0.37500000       0.12500000 </v>
   <v>      -0.37500000      -0.37500000       0.12500000 </v>
   <v>       0.37500000       0.37500000       0.37500000 </v>
   <v>      -0.37500000       0.37500000       0.37500000 </v>
  </varray>
  <varray name="weights" >
   <v>       0.03125000 </v>
   <v>       0.09375000 </v>
   <v>       0.09375000 </v>
   <v>       0.09375000 </v>
   <v>       0.09375000 </v>
   <v>       0.18750000 </v>
   <v>       0.18750000 </v>
   <v>       0.09375000 </v>
   <v>       0.03125000 </v>
   <v>       0.09375000 </v>
  </varray>
 </kpoints>
 <parameters>
  <separator name="general" >
   <i type="string" name="SYSTEM">unknown system</i>
   <i type="logical" name="LCOMPAT"> F  </i>
  </separator>
  <separator name="electronic" >
   <i type="string" name="PREC">normal</i>
   <i name="ENMAX">    200.00000000</i>
   <i name="ENAUG">    322.06900000</i>
   <i name="EDIFF">      0.00040000</i>
   <i type="int" name="IALGO">    38</i>
   <i type="int" name="IWAVPR">    11</i>
   <i type="int" name="NBANDS">     8</i>
   <i name="NELECT">      8.00000000</i>
   <i type="int" name="TURBO">     0</i>
   <i type="int" name="IRESTART">     0</i>
   <i type="int" name="NREBOOT">     0</i>
   <i type="int" name="NMIN">     0</i>
   <i name="EREF">      0.00000000</i>
   <separator name="electronic smearing" >
    <i type="int" name="ISMEAR">     0</i>
    <i name="SIGMA">      0.20000000</i>
    <i name="KSPACING">      0.50000000</i>
    <i type="logical" name="KGAMMA"> T  </i>
   </separator>
   <separator name="electronic projectors" >
    <i type="logical" name="LREAL"> F  </i>
    <v name="ROPT">      0.00000000</v>
    <i type="int" name="LMAXPAW">  -100</i>
    <i type="int" name="LMAXMIX">     2</i>
    <i type="logical" name="NLSPLINE"> F  </i>
   </separator>
   <separator name="electronic startup" >
    <i type="int" name="ISTART">     1</i>
    <i type="int" name="ICHARG">     0</i>
    <i type="int" name="INIWAV">     1</i>
   </separator>
   <separator name="electronic spin" >
    <i type="int" name="ISPIN">     1</i>
    <i type="logical" name="LNONCOLLINEAR"> F  </i>
    <v name="MAGMOM">      1.00000000      1.00000000</v>
    <i name="NUPDOWN">     -1.00000000</i>
    <i type="logical" name="LSORBIT"> F  </i>
    <v name="SAXIS">      0.00000000      0.00000000      1.00000000</v>
    <i type="logical" name="LSPIRAL"> F  </i>
    <v name="QSPIRAL">      0.00000000      0.00000000      0.00000000</v>
    <i type="logical" name="LZEROZ"> F  </i>
   </separator>
   <separator name="electronic exchange-correlation" >
    <i type="logical" name="LASPH"> F  </i>
    <i type="logical" name="LMETAGGA"> F  </i>
   </separator>
   <separator name="electronic convergence" >
    <i type="int" name="NELM">    60</i>
    <i type="int" name="NELMDL">     0</i>
    <i type="int" name="NELMIN">     2</i>
    <i name="ENINI">    200.00000000</i>
    <separator name="electronic convergence detail" >
     <i type="logical" name="LDIAG"> T  </i>
     <i type="logical" name="LSUBROT"> F  </i>
     <i name="WEIMIN">      0.00100000</i>
     <i name="EBREAK">      0.00001250</i>
     <i name="DEPER">      0.30000000</i>
     <i type="int" name="NRMM">     4</i>
     <i name="TIME">      0.40000000</i>
    </separator>
   </separator>
   <separator name="electronic mixer" >
    <i name="AMIX">      0.40000000</i>
    <i name="BMIX">      1.00000000</i>
    <i name="AMIN">      0.10000000</i>
    <i name="AMIX_MAG">      1.60000000</i>
    <i name="BMIX_MAG">      1.00000000</i>
    <separator name="electronic mixer details" >
     <i type="int" name="IMIX">     4</i>
     <i type="logical" name="MIXFIRST"> F  </i>
     <i type="int" name="MAXMIX">   -45</i>
     <i name="WC">    100.00000000</i>
     <i type="int" name="INIMIX">     1</i>
     <i type="int" name="MIXPRE">     1</i>
     <i type="int" name="MREMOVE">     5</i>
    </separator>
   </separator>
   <separator name="electronic dipolcorrection" >
    <i type="logical" name="LDIPOL"> F  </i>
    <i type="logical" name="LMONO"> F  </i>
    <i type="int" name="IDIPOL">     0</i>
    <i name="EPSILON">      1.00000000</i>
    <v name="DIPOL">   -100.00000000   -100.00000000   -100.00000000</v>
    <i name="EFIELD">      0.00000000</i>
   </separator>
  </separator>
  <separator name="grids" >
   <i type="int" name="NGX">    14</i>
   <i type="int" name="NGY">    14</i>
   <i type="int" name="NGZ">    14</i>
   <i type="int" name="NGXF">    28</i>
   <i type="int" name="NGYF">    28</i>
   <i type="int" name="NGZF">    28</i>
   <i type="logical" name="ADDGRID"> F  </i>
  </separator>
  <separator name="ionic" >
   <i type="int" name="NSW">    15</i>
   <i type="int" name="IBRION">     2</i>
   <i type="int" name="MDALGO">     0</i>
   <i type="int" name="ISIF">     2</i>
   <i name="PSTRESS">      0.00000000</i>
   <i name="EDIFFG">     -0.01000000</i>
   <i type="int" name="NFREE">     1</i>
   <i name="POTIM">      0.50000000</i>
   <i name="SMASS">     -3.00000000</i>
   <i name="SCALEE">      1.00000000</i>
  </separator>
  <separator name="ionic md" >
   <i name="TEBEG">      0.00010000</i>
   <i name="TEEND">      0.00010000</i>
   <i type="int" name="NBLOCK">     1</i>
   <i type="int" name="KBLOCK">    15</i>
   <i type="int" name="NPACO">   256</i>
   <i name="APACO">     16.00000000</i>
  </separator>
  <separator name="symmetry" >
   <i type="int" name="ISYM">     2</i>
   <i name="SYMPREC">      0.00001000</i>
  </separator>
  <separator name="dos" >
   <i type="int" name="LORBIT">     0</i>
   <v name="RWIGS">     -1.00000000</v>
   <i type="int" name="NEDOS">   301</i>
   <i name="EMIN">     10.00000000</i>
   <i name="EMAX">    -10.00000000</i>
   <i name="EFERMI">      0.00000000</i>
  </separator>
  <separator name="writing" >
   <i type="int" name="NWRITE">     2</i>
   <i type="logical" name="LWAVE"> T  </i>
   <i type="logical" name="LDOWNSAMPLE"> F  </i>
   <i type="logical" name="LCHARG"> T  </i>
   <i type="logical" name="LPARD"> F  </i>
   <i type="logical" name="LVTOT"> F  </i>
   <i type="logical" name="LVHAR"> F  </i>
   <i type="logical" name="LELF"> F  </i>
   <i type="logical" name="LOPTICS"> F  </i>
   <v name="STM">      0.00000000      0.00000000      0.00000000      0.00000000      0.00000000      0.00000000      0.00000000</v>
  </separator>
  <separator name="performance" >
   <i type="int" name="NPAR">     8</i>
   <i type="int" name="NSIM">     4</i>
   <i type="int" name="NBLK">    -1</i>
   <i type="logical" name="LPLANE"> T  </i>
   <i type="logical" name="LSCALAPACK"> T  </i>
   <i type="logical" name="LSCAAWARE"> F  </i>
   <i type="logical" name="LSCALU"> F  </i>
   <i type="logical" name="LASYNC"> F  </i>
   <i type="logical" name="LORBITALREAL"> F  </i>
  </separator>
  <separator name="miscellaneous" >
   <i type="int" name="IDIOT">     3</i>
   <i type="int" name="ISPECIAL">     0</i>
   <i type="logical" name="LMUSIC"> F  </i>
   <v name="POMASS">     28.08500000</v>
   <v name="DARWINR">      0.00000000</v>
   <v name="DARWINV">      1.00000000</v>
   <i type="logical" name="LCORR"> T  </i>
  </separator>
  <i type="logical" name="GGA_COMPAT"> T  </i>
  <i type="logical" name="LBERRY"> F  </i>
  <i type="int" name="ICORELEVEL">     0</i>
  <i type="logical" name="LDAU"> F  </i>
  <i type="int" name="I_CONSTRAINED_M">     0</i>
  <separator name="electronic exchange-correlation" >
   <i type="string" name="GGA">--</i>
   <i type="int" name="VOSKOWN">     0</i>
   <i type="logical" name="LHFCALC"> F  </i>
   <i type="string" name="PRECFOCK"></i>
   <i type="logical" name="LSYMGRAD"> F  </i>
   <i type="logical" name="LHFONE"> F  </i>
   <i type="logical" name="LRHFCALC"> F  </i>
   <i type="logical" name="LTHOMAS"> F  </i>
   <i type="logical" name="LMODELHF"> F  </i>
   <i name="ENCUT4O">     -1.00000000</i>
   <i type="int" name="EXXOEP">     0</i>
   <i type="int" name="FOURORBIT">     0</i>
   <i name="AEXX">      0.00000000</i>
   <i name="HFALPHA">      0.00000000</i>
   <i name="MCALPHA">      0.00000000</i>
   <i name="ALDAX">      1.00000000</i>
   <i name="AGGAX">      1.00000000</i>
   <i name="ALDAC">      1.00000000</i>
   <i name="AGGAC">      1.00000000</i>
   <i type="int" name="NKREDX">     1</i>
   <i type="int" name="NKREDY">     1</i>
   <i type="int" name="NKREDZ">     1</i>
   <i type="logical" name="SHIFTRED"> F  </i>
   <i type="logical" name="ODDONLY"> F  </i>
   <i type="logical" name="EVENONLY"> F  </i>
   <i type="int" name="LMAXFOCK">     0</i>
   <i type="int" name="NMAXFOCKAE">     0</i>
   <i type="logical" name="LFOCKAEDFT"> F  </i>
   <i name="HFSCREEN">      0.00000000</i>
   <i name="HFSCREENC">      0.00000000</i>
   <i type="int" name="NBANDSGWLOW">     0</i>
  </separator>
  <separator name="vdW DFT" >
   <i type="logical" name="LUSE_VDW"> F  </i>
   <i name="Zab_VDW">     -0.84910000</i>
   <i name="PARAM1">      0.12340000</i>
   <i name="PARAM2">      1.00000000</i>
   <i name="PARAM3">      0.00000000</i>
  </separator>
  <separator name="model GW" >
   <i type="int" name="MODEL_GW">     0</i>
   <i name="MODEL_EPS0">     12.00772552</i>
   <i name="MODEL_ALPHA">      1.00000000</i>
  </separator>
  <separator name="linear response parameters" >
   <i type="logical" name="LEPSILON"> F  </i>
   <i type="logical" name="LRPA"> F  </i>
   <i type="logical" name="LNABLA"> F  </i>
   <i type="logical" name="LVEL"> F  </i>
   <i type="int" name="KINTER">     0</i>
   <i name="CSHIFT">      0.10000000</i>
   <i name="OMEGAMAX">     -1.00000000</i>
   <i name="DEG_THRESHOLD">      0.00200000</i>
   <i name="RTIME">     -0.10000000</i>
   <i name="WPLASMAI">      0.00000000</i>
   <v name="DFIELD">      0.00000000      0.00000000      0.00000000</v>
   <v name="WPLASMA">      0.00000000      0.00000000      0.00000000      0.00000000      0.00000000      0.00000000      0.00000000      0.00000000      0.00000000</v>
  </separator>
  <separator name="orbital magnetization" >
   <i type="logical" name="NUCIND"> F  </i>
   <v name="MAGPOS">      0.00000000      0.00000000      0.00000000</v>
   <i type="logical" name="LNICSALL"> T  </i>
   <i type="logical" name="ORBITALMAG"> F  </i>
   <i type="logical" name="LMAGBLOCH"> F  </i>
   <i type="logical" name="LCHIMAG"> F  </i>
   <i type="logical" name="LGAUGE"> T  </i>
   <i type="int" name="MAGATOM">     0</i>
   <v name="MAGDIPOL">      0.00000000      0.00000000      0.00000000</v>
   <v name="AVECCONST">      0.00000000      0.00000000      0.00000000</v>
  </separator>
  <separator name="response functions" >
   <i type="logical" name="LADDER"> F  </i>
   <i type="logical" name="LRPAFORCE"> F  </i>
   <i type="logical" name="LFXC"> F  </i>
   <i type="logical" name="LHARTREE"> T  </i>
   <i type="int" name="IBSE">     0</i>
   <v type="int" name="KPOINT">    -1     0     0     0</v>
   <i type="logical" name="LTCTE"> F  </i>
   <i type="logical" name="LTETE"> F  </i>
   <i type="logical" name="LTRIPLET"> F  </i>
   <i type="logical" name="LFXCEPS"> F  </i>
   <i type="logical" name="LFXHEG"> F  </i>
   <i type="int" name="NATURALO">     2</i>
   <i type="logical" name="L2ORDER"> F  </i>
   <i type="logical" name="LMP2LT"> F  </i>
   <i type="logical" name="LUSEW"> F  </i>
   <i name="ENCUTGW">     -2.00000000</i>
   <i name="ENCUTGWSOFT">     -2.00000000</i>
   <i name="ENCUTLF">     -1.00000000</i>
   <i type="int" name="LMAXMP2">    -1</i>
   <i name="SCISSOR">      0.00000000</i>
   <i type="int" name="NOMEGA">     0</i>
   <i type="int" name="NOMEGAR">     0</i>
   <i type="int" name="NBANDSGW">    -1</i>
   <i type="int" name="NBANDSO">    -1</i>
   <i type="int" name="NBANDSV">    -1</i>
   <i type="int" name="NELM">     1</i>
   <i type="int" name="NELMHF">     1</i>
   <i type="int" name="DIM">     3</i>
   <i type="int" name="ANTIRES">     0</i>
   <i name="OMEGAMAX">    -30.00000000</i>
   <i name="OMEGAMIN">    -30.00000000</i>
   <i name="OMEGATL">   -200.00000000</i>
   <i type="int" name="OMEGAGRID">   140</i>
   <i name="CSHIFT">     -0.10000000</i>
   <i type="logical" name="SELFENERGY"> F  </i>
   <i type="logical" name="LSPECTRAL"> F  </i>
   <i type="logical" name="LSPECTRALGW"> F  </i>
   <i type="logical" name="LSINGLES"> F  </i>
   <i type="logical" name="LFERMIGW"> F  </i>
   <i type="logical" name="ODDONLYGW"> F  </i>
   <i type="logical" name="EVENONLYGW"> F  </i>
   <i type="int" name="NKREDLFX">     1</i>
   <i type="int" name="NKREDLFY">     1</i>
   <i type="int" name="NKREDLFZ">     1</i>
   <i type="int" name="MAXMEM">  2800</i>
   <i type="int" name="TELESCOPE">     0</i>
   <i type="int" name="TAUPAR">     1</i>
   <i type="int" name="OMEGAPAR">    -1</i>
   <i name="LAMBDA">      1.00000000</i>
  </separator>
  <separator name="External order field" >
   <i name="OFIELD_KAPPA">      0.00000000</i>
   <v name="OFIELD_K">      0.00000000      0.00000000      0.00000000</v>
   <i name="OFIELD_Q6_NEAR">      0.00000000</i>
   <i name="OFIELD_Q6_FAR">      0.00000000</i>
   <i name="OFIELD_A">      0.00000000</i>
  </separator>
 </parameters>
 <atominfo>
  <atoms>       2 </atoms>
  <types>       1 </types>
  <array name="atoms" >
   <dimension dim="1">ion</dimension>
   <field type="string">element</field>
   <field type="int">atomtype</field>
   <set>
    <rc><c>Si</c><c>   1</c></rc>
    <rc><c>Si</c><c>   1</c></rc>
   </set>
  </array>
  <array name="atomtypes" >
   <dimension dim="1">type</dimension>
   <field type="int">atomspertype</field>
   <field type="string">element</field>
   <field>mass</field>
   <field>valence</field>
   <field type="string">pseudopotential</field>
   <set>
    <rc><c>   2</c><c>Si</c><c>     28.08500000</c><c>      4.00000000</c><c> PAW_PBE Si 05Jan2001                   </c></rc>
   </set>
  </array>
 </atominfo>
 <structure name="initialpos" >
  <crystal>
   <varray name="basis" >
    <v>       0.00000000       2.71500000       2.71500000 </v>
    <v>       2.71500000       0.00000000       2.71500000 </v>
    <v>       2.71500000       2.71500000       0.00000000 </v>
   </varray>
   <i name="volume">     40.02575175 </i>
   <varray name="rec_basis" >
    <v>      -0.18416206       0.18416206       0.18416206 </v>
    <v>       0.18416206      -0.18416206       0.18416206 </v>
    <v>       0.18416206       0.18416206      -0.18416206 </v>
   </varray>
  </crystal>
  <varray name="positions" >
   <v>       0.50000000       0.50000000       0.50000000 </v>
   <v>       0.75000000       0.75000000       0.75000000 </v>
  </varray>
 </structure>
 <calculation>
  <scstep>
   <time name="dav">    0.05    0.06</time>
   <time name="total">    0.10    0.11</time>
   <energy>
    <i name="alphaZ">      3.36414203 </i>
    <i name="ewald">   -228.56352493 </i>
    <i name="hartreedc">    -14.91029400 </i>
    <i name="XCdc">    -17.94001914 </i>
    <i name="pawpsdc">     75.89024853 </i>
    <i name="pawaedc">    -40.94110135 </i>
    <i name="eentropy">     -0.00000228 </i>
    <i name="bandstr">      6.19239110 </i>
    <i name="atom">    206.11247263 </i>
    <i name="e_fr_energy">    -10.79568742 </i>
    <i name="e_wo_entrp">    -10.79568514 </i>
    <i name="e_0_energy">    -10.79568628 </i>
   </energy>
  </scstep>
  <scstep>
   <time name="dav">    0.04    0.05</time>
   <time name="total">    0.08    0.08</time>
   <energy>
    <i name="alphaZ">      3.36414203 </i>
    <i name="ewald">   -228.56352493 </i>
    <i name="hartreedc">    -14.91007946 </i>
    <i name="XCdc">    -17.94001234 </i>
    <i name="pawpsdc">     75.88862209 </i>
    <i name="pawaedc">    -40.93941671 </i>
    <i name="eentropy">     -0.00000227 </i>
    <i name="bandstr">      6.19211136 </i>
    <i name="atom">    206.11247263 </i>
    <i name="e_fr_energy">    -10.79568760 </i>
    <i name="e_wo_entrp">    -10.79568532 </i>
    <i name="e_0_energy">    -10.79568646 </i>
   </energy>
  </scstep>
  <structure>
   <crystal>
    <varray name="basis" >
     <v>       0.00000000       2.71500000       2.71500000 </v>
     <v>       2.71500000       0.00000000       2.71500000 </v>
     <v>       2.71500000       2.71500000       0.00000000 </v>
    </varray>
    <i name="volume">     40.02575175 </i>
    <varray name="rec_basis" >
     <v>      -0.18416206       0.18416206       0.18416206 </v>
     <v>       0.18416206      -0.18416206       0.18416206 </v>
     <v>       0.18416206       0.18416206      -0.18416206 </v>
    </varray>
   </crystal>
   <varray name="positions" >
    <v>       0.50000000       0.50000000       0.50000000 </v>
    <v>       0.75000000       0.75000000       0.75000000 </v>
   </varray>
  </structure>
  <varray name="forces" >
   <v>       0.00000000       0.00000000       0.00000000 </v>
   <v>      -0.00000000      -0.00000000      -0.00000000 </v>
  </varray>
  <varray name="stress" >
   <v>      18.37753425       0.00000000      -0.00000000 </v>
   <v>       0.00000000      18.37753425       0.00000000 </v>
   <v>      -0.00000000       0.00000000      18.37753425 </v>
  </varray>
  <energy>
   <i name="e_fr_energy">    -10.79568760 </i>
   <i name="e_wo_entrp">    -10.79568646 </i>
   <i name="e_0_energy">     -0.00000227 </i>
  </energy>
  <time name="totalsc">    0.79    1.22</time>
  <eigenvalues>
   <array>
    <dimension dim="1">band</dimension>
    <dimension dim="2">kpoint</dimension>
    <dimension dim="3">spin</dimension>
    <field>eigene</field>
    <field>occ</field>
    <set>
     <set comment="spin 1">
      <set comment="kpoint 1">
       <r>   -5.9258    1.0000 </r>
       <r>    4.2485    1.0000 </r>
       <r>    5.5621    1.0000 </r>
       <r>    5.5621    1.0000 </r>
       <r>    8.3614    0.0000 </r>
       <r>    8.8532    0.0000 </r>
       <r>    8.8532    0.0000 </r>
       <r>   10.5611    0.0000 </r>
      </set>
      <set comment="kpoint 2">
       <r>   -4.8789    1.0000 </r>
       <r>    1.2125    1.0000 </r>
       <r>    3.5310    1.0000 </r>
       <r>    5.0723    1.0000 </r>
       <r>    8.5840    0.0000 </r>
       <r>    9.5510    0.0000 </r>
       <r>    9.7387    0.0000 </r>
       <r>   12.1757    0.0000 </r>
      </set>
      <set comment="kpoint 3">
       <r>   -3.7097    1.0000 </r>
       <r>   -0.9139    1.0000 </r>
       <r>    3.5617    1.0000 </r>
       <r>    4.2794    1.0000 </r>
       <r>    8.0586    0.0000 </r>
       <r>    9.3926    0.0000 </r>
       <r>    9.9905    0.0000 </r>
       <r>   13.2669    0.0000 </r>
      </set>
      <set comment="kpoint 4">
       <r>   -5.3880    1.0000 </r>
       <r>    2.6163    1.0000 </r>
       <r>    4.5282    1.0000 </r>
       <r>    4.6044    1.0000 </r>
       <r>    8.0135    0.0000 </r>
       <r>    9.5724    0.0000 </r>
       <r>   10.3490    0.0000 </r>
       <r>   10.6450    0.0000 </r>
      </set>
      <set comment="kpoint 5">
       <r>   -4.3369    1.0000 </r>
       <r>    0.8973    1.0000 </r>
       <r>    3.1694    1.0000 </r>
       <r>    3.6321    1.0000 </r>
       <r>    7.2145    0.0000 </r>
       <r>    8.7704    0.0000 </r>
       <r>   11.8896    0.0000 </r>
       <r>   12.1710    0.0000 </r>
      </set>
      <set comment="kpoint 6">
       <r>   -2.6594    1.0000 </r>
       <r>   -1.0969    1.0000 </r>
       <r>    1.7763    1.0000 </r>
       <r>    2.8785    1.0000 </r>
       <r>    8.2610    0.0000 </r>
       <r>   10.1689    0.0000 </r>
       <r>   11.1597    0.0000 </r>
       <r>   13.3375    0.0000 </r>
      </set>
      <set comment="kpoint 7">
       <r>   -3.9105    1.0000 </r>
       <r>   -0.0051    1.0000 </r>
       <r>    2.5178    1.0000 </r>
       <r>    3.9123    1.0000 </r>
       <r>    8.7504    0.0000 </r>
       <r>    9.4289    0.0000 </r>
       <r>   10.9051    0.0000 </r>
       <r>   11.8352    0.0000 </r>
      </set>
      <set comment="kpoint 8">
       <r>   -2.8357    1.0000 </r>
       <r>   -0.9944    1.0000 </r>
       <r>    2.4018    1.0000 </r>
       <r>    3.1546    1.0000 </r>
       <r>    6.7578    0.0000 </r>
       <r>    7.8426    0.0000 </r>
       <r>   14.1903    0.0000 </r>
       <r>   14.2621    0.0000 </r>
      </set>
      <set comment="kpoint 9">
       <r>   -4.4352    1.0000 </r>
       <r>   -0.1113    1.0000 </r>
       <r>    4.7580    1.0000 </r>
       <r>    4.7580    1.0000 </r>
       <r>    7.5257    0.0000 </r>
       <r>    9.3354    0.0000 </r>
       <r>    9.3354    0.0000 </r>
       <r>   13.7389    0.0000 </r>
      </set>
      <set comment="kpoint 10">
       <r>   -3.2053    1.0000 </r>
       <r>   -0.8057    1.0000 </r>
       <r>    1.8449    1.0000 </r>
       <r>    3.9558    1.0000 </r>
       <r>    7.7145    0.0000 </r>
       <r>   11.3603    0.0000 </r>
       <r>   11.3761    0.0000 </r>
       <r>   12.8576    0.0000 </r>
      </set>
     </set>
    </set>
   </array>
  </eigenvalues>
  <separator name="orbital magnetization" >
   <v name="MAGDIPOLOUT">      0.00000000      0.00000000      0.00000000</v>
  </separator>
  <dos>
   <i name="efermi">      6.15348992 </i>
   <total>
    <array>
     <dimension dim="1">gridpoints</dimension>
     <dimension dim="2">spin</dimension>
     <field>energy</field>
     <field>total</field>
     <field>integrated</field>
     <set>
      <set comment="spin 1">
       <r>    -7.9258     0.0000     0.0000 </r>
       <r>    -7.8452     0.0000     0.0000 </r>
       <r>    -7.7645     0.0000     0.0000 </r>
       <r>    -7.6839     0.0000     0.0000 </r>
       <r>    -7.6033     0.0000     0.0000 </r>
       <r>    -7.5227     0.0000     0.0000 </r>
       <r>    -7.4420     0.0000     0.0000 </r>
       <r>    -7.3614     0.0000     0.0000 </r>
       <r>    -7.2808     0.0000     0.0000 </r>
       <r>    -7.2002     0.0000     0.0000 </r>
       <r>    -7.1195     0.0000     0.0000 </r>
       <r>    -7.0389     0.0000     0.0000 </r>
       <r>    -6.9583     0.0000     0.0000 </r>
       <r>    -6.8777     0.0000     0.0000 </r>
       <r>    -6.7970     0.0000     0.0000 </r>
       <r>    -6.7164     0.0000     0.0000 </r>
       <r>    -6.6358     0.0000     0.0000 </r>
       <r>    -6.5552     0.0000     0.0000 </r>
       <r>    -6.4745     0.0000     0.0000 </r>
       <r>    -6.3939     0.0003     0.0000 </r>
       <r>    -6.3133     0.0020     0.0002 </r>
       <r>    -6.2326     0.0093     0.0009 </r>
       <r>    -6.1520     0.0309     0.0034 </r>
       <r>    -6.0714     0.0750     0.0095 </r>
       <r>    -5.9908     0.1329     0.0202 </r>
       <r>    -5.9101     0.1716     0.0340 </r>
       <r>    -5.8295     0.1630     0.0472 </r>
       <r>    -5.7489     0.1209     0.0569 </r>
       <r>    -5.6683     0.0980     0.0648 </r>
       <r>    -5.5876     0.1487     0.0768 </r>
       <r>    -5.5070     0.2868     0.0999 </r>
       <r>    -5.4264     0.4501     0.1362 </r>
       <r>    -5.3458     0.5229     0.1784 </r>
       <r>    -5.2651     0.4483     0.2145 </r>
       <r>    -5.1845     0.3013     0.2388 </r>
       <r>    -5.1039     0.2169     0.2563 </r>
       <r>    -5.0233     0.2679     0.2779 </r>
       <r>    -4.9426     0.4109     0.3110 </r>
       <r>    -4.8620     0.5177     0.3528 </r>
       <r>    -4.7814     0.4883     0.3921 </r>
       <r>    -4.7007     0.3562     0.4209 </r>
       <r>    -4.6201     0.2548     0.4414 </r>
       <r>    -4.5395     0.2879     0.4646 </r>
       <r>    -4.4589     0.4483     0.5008 </r>
       <r>    -4.3782     0.6215     0.5509 </r>
       <r>    -4.2976     0.6727     0.6051 </r>
       <r>    -4.2170     0.5841     0.6522 </r>
       <r>    -4.1364     0.5023     0.6927 </r>
       <r>    -4.0557     0.6032     0.7413 </r>
       <r>    -3.9751     0.8968     0.8136 </r>
       <r>    -3.8945     1.1915     0.9097 </r>
       <r>    -3.8139     1.2819     1.0131 </r>
       <r>    -3.7332     1.1341     1.1045 </r>
       <r>    -3.6526     0.8496     1.1730 </r>
       <r>    -3.5720     0.5434     1.2168 </r>
       <r>    -3.4914     0.3121     1.2420 </r>
       <r>    -3.4107     0.2287     1.2604 </r>
       <r>    -3.3301     0.3018     1.2847 </r>
       <r>    -3.2495     0.4494     1.3210 </r>
       <r>    -3.1688     0.5410     1.3646 </r>
       <r>    -3.0882     0.5220     1.4067 </r>
       <r>    -3.0076     0.4866     1.4459 </r>
       <r>    -2.9270     0.5778     1.4925 </r>
       <r>    -2.8463     0.8310     1.5595 </r>
       <r>    -2.7657     1.1400     1.6514 </r>
       <r>    -2.6851     1.3287     1.7585 </r>
       <r>    -2.6045     1.2535     1.8596 </r>
       <r>    -2.5238     0.9238     1.9341 </r>
       <r>    -2.4432     0.5173     1.9758 </r>
       <r>    -2.3626     0.2160     1.9932 </r>
       <r>    -2.2820     0.0665     1.9986 </r>
       <r>    -2.2013     0.0150     1.9998 </r>
       <r>    -2.1207     0.0025     2.0000 </r>
       <r>    -2.0401     0.0003     2.0000 </r>
       <r>    -1.9595     0.0000     2.0000 </r>
       <r>    -1.8788     0.0000     2.0000 </r>
       <r>    -1.7982     0.0000     2.0000 </r>
       <r>    -1.7176     0.0000     2.0000 </r>
       <r>    -1.6369     0.0003     2.0000 </r>
       <r>    -1.5563     0.0025     2.0002 </r>
       <r>    -1.4757     0.0153     2.0015 </r>
       <r>    -1.3951     0.0695     2.0071 </r>
       <r>    -1.3144     0.2340     2.0259 </r>
       <r>    -1.2338     0.5883     2.0734 </r>
       <r>    -1.1532     1.1218     2.1638 </r>
       <r>    -1.0726     1.6598     2.2976 </r>
       <r>    -0.9919     1.9676     2.4563 </r>
       <r>    -0.9113     1.9387     2.6126 </r>
       <r>    -0.8307     1.6312     2.7441 </r>
       <r>    -0.7501     1.1745     2.8388 </r>
       <r>    -0.6694     0.7062     2.8957 </r>
       <r>    -0.5888     0.3425     2.9233 </r>
       <r>    -0.5082     0.1318     2.9340 </r>
       <r>    -0.4276     0.0508     2.9381 </r>
       <r>    -0.3469     0.0651     2.9433 </r>
       <r>    -0.2663     0.1843     2.9582 </r>
       <r>    -0.1857     0.4449     2.9940 </r>
       <r>    -0.1050     0.8159     3.0598 </r>
       <r>    -0.0244     1.1223     3.1503 </r>
       <r>     0.0562     1.1499     3.2430 </r>
       <r>     0.1368     0.8725     3.3134 </r>
       <r>     0.2175     0.4880     3.3527 </r>
       <r>     0.2981     0.2005     3.3689 </r>
       <r>     0.3787     0.0606     3.3738 </r>
       <r>     0.4593     0.0153     3.3750 </r>
       <r>     0.5400     0.0132     3.3761 </r>
       <r>     0.6206     0.0455     3.3797 </r>
       <r>     0.7012     0.1343     3.3906 </r>
       <r>     0.7818     0.2915     3.4141 </r>
       <r>     0.8625     0.4677     3.4518 </r>
       <r>     0.9431     0.5720     3.4979 </r>
       <r>     1.0237     0.5811     3.5447 </r>
       <r>     1.1043     0.5705     3.5907 </r>
       <r>     1.1850     0.5843     3.6378 </r>
       <r>     1.2656     0.5585     3.6829 </r>
       <r>     1.3462     0.4362     3.7180 </r>
       <r>     1.4269     0.2803     3.7406 </r>
       <r>     1.5075     0.2261     3.7589 </r>
       <r>     1.5881     0.3877     3.7901 </r>
       <r>     1.6687     0.7876     3.8536 </r>
       <r>     1.7494     1.2693     3.9560 </r>
       <r>     1.8300     1.5239     4.0788 </r>
       <r>     1.9106     1.3561     4.1882 </r>
       <r>     1.9912     0.8981     4.2606 </r>
       <r>     2.0719     0.4593     4.2976 </r>
       <r>     2.1525     0.2465     4.3175 </r>
       <r>     2.2331     0.3093     4.3424 </r>
       <r>     2.3137     0.6318     4.3934 </r>
       <r>     2.3944     1.1374     4.4851 </r>
       <r>     2.4750     1.6329     4.6167 </r>
       <r>     2.5556     1.8742     4.7678 </r>
       <r>     2.6362     1.7749     4.9109 </r>
       <r>     2.7169     1.5166     5.0332 </r>
       <r>     2.7975     1.3541     5.1424 </r>
       <r>     2.8781     1.3334     5.2499 </r>
       <r>     2.9588     1.3295     5.3571 </r>
       <r>     3.0394     1.2995     5.4619 </r>
       <r>     3.1200     1.2832     5.5653 </r>
       <r>     3.2006     1.2248     5.6641 </r>
       <r>     3.2813     1.0613     5.7497 </r>
       <r>     3.3619     0.9285     5.8245 </r>
       <r>     3.4425     1.0341     5.9079 </r>
       <r>     3.5231     1.3450     6.0163 </r>
       <r>     3.6038     1.5830     6.1440 </r>
       <r>     3.6844     1.5789     6.2713 </r>
       <r>     3.7650     1.4932     6.3917 </r>
       <r>     3.8456     1.5529     6.5169 </r>
       <r>     3.9263     1.6824     6.6525 </r>
       <r>     4.0069     1.6144     6.7827 </r>
       <r>     4.0875     1.3137     6.8886 </r>
       <r>     4.1681     1.0254     6.9713 </r>
       <r>     4.2488     0.9179     7.0453 </r>
       <r>     4.3294     0.9335     7.1205 </r>
       <r>     4.4100     0.9928     7.2006 </r>
       <r>     4.4907     1.1013     7.2894 </r>
       <r>     4.5713     1.2163     7.3874 </r>
       <r>     4.6519     1.2139     7.4853 </r>
       <r>     4.7325     1.0420     7.5693 </r>
       <r>     4.8132     0.7896     7.6330 </r>
       <r>     4.8938     0.5965     7.6811 </r>
       <r>     4.9744     0.5379     7.7245 </r>
       <r>     5.0550     0.5618     7.7698 </r>
       <r>     5.1357     0.5404     7.8133 </r>
       <r>     5.2163     0.4162     7.8469 </r>
       <r>     5.2969     0.2652     7.8683 </r>
       <r>     5.3775     0.1963     7.8841 </r>
       <r>     5.4582     0.2382     7.9033 </r>
       <r>     5.5388     0.3215     7.9292 </r>
       <r>     5.6194     0.3465     7.9572 </r>
       <r>     5.7000     0.2760     7.9794 </r>
       <r>     5.7807     0.1606     7.9924 </r>
       <r>     5.8613     0.0681     7.9979 </r>
       <r>     5.9419     0.0210     7.9995 </r>
       <r>     6.0226     0.0047     7.9999 </r>
       <r>     6.1032     0.0008     8.0000 </r>
       <r>     6.1838     0.0001     8.0000 </r>
       <r>     6.2644     0.0005     8.0000 </r>
       <r>     6.3451     0.0035     8.0003 </r>
       <r>     6.4257     0.0178     8.0018 </r>
       <r>     6.5063     0.0657     8.0071 </r>
       <r>     6.5869     0.1763     8.0213 </r>
       <r>     6.6676     0.3449     8.0491 </r>
       <r>     6.7482     0.4922     8.0888 </r>
       <r>     6.8288     0.5163     8.1304 </r>
       <r>     6.9094     0.4146     8.1638 </r>
       <r>     6.9901     0.3077     8.1886 </r>
       <r>     7.0707     0.3148     8.2140 </r>
       <r>     7.1513     0.4300     8.2487 </r>
       <r>     7.2319     0.5328     8.2916 </r>
       <r>     7.3126     0.5230     8.3338 </r>
       <r>     7.3932     0.4347     8.3689 </r>
       <r>     7.4738     0.3892     8.4002 </r>
       <r>     7.5545     0.4677     8.4380 </r>
       <r>     7.6351     0.6655     8.4916 </r>
       <r>     7.7157     0.9179     8.5656 </r>
       <r>     7.7963     1.1457     8.6580 </r>
       <r>     7.8770     1.3154     8.7640 </r>
       <r>     7.9576     1.4496     8.8809 </r>
       <r>     8.0382     1.5616     9.0068 </r>
       <r>     8.1188     1.6334     9.1385 </r>
       <r>     8.1995     1.6513     9.2717 </r>
       <r>     8.2801     1.5821     9.3992 </r>
       <r>     8.3607     1.3900     9.5113 </r>
       <r>     8.4413     1.1648     9.6052 </r>
       <r>     8.5220     1.1158     9.6952 </r>
       <r>     8.6026     1.3643     9.8052 </r>
       <r>     8.6832     1.7927     9.9497 </r>
       <r>     8.7638     2.0891    10.1181 </r>
       <r>     8.8445     1.9719    10.2771 </r>
       <r>     8.9251     1.4541    10.3944 </r>
       <r>     9.0057     0.8414    10.4622 </r>
       <r>     9.0864     0.4548    10.4989 </r>
       <r>     9.1670     0.4514    10.5353 </r>
       <r>     9.2476     0.8538    10.6041 </r>
       <r>     9.3282     1.5510    10.7292 </r>
       <r>     9.4089     2.2498    10.9105 </r>
       <r>     9.4895     2.6046    11.1205 </r>
       <r>     9.5701     2.4825    11.3207 </r>
       <r>     9.6507     2.0362    11.4849 </r>
       <r>     9.7314     1.5226    11.6076 </r>
       <r>     9.8120     1.1305    11.6988 </r>
       <r>     9.8926     0.9530    11.7756 </r>
       <r>     9.9732     1.0063    11.8567 </r>
       <r>    10.0539     1.2198    11.9551 </r>
       <r>    10.1345     1.4466    12.0717 </r>
       <r>    10.2151     1.5328    12.1953 </r>
       <r>    10.2957     1.4180    12.3096 </r>
       <r>    10.3764     1.1795    12.4047 </r>
       <r>    10.4570     0.9620    12.4823 </r>
       <r>    10.5376     0.8648    12.5520 </r>
       <r>    10.6182     0.8815    12.6231 </r>
       <r>    10.6989     0.9515    12.6998 </r>
       <r>    10.7795     1.0627    12.7855 </r>
       <r>    10.8601     1.2226    12.8841 </r>
       <r>    10.9408     1.3690    12.9945 </r>
       <r>    11.0214     1.4501    13.1114 </r>
       <r>    11.1020     1.5152    13.2335 </r>
       <r>    11.1826     1.6048    13.3629 </r>
       <r>    11.2633     1.6612    13.4969 </r>
       <r>    11.3439     1.5957    13.6255 </r>
       <r>    11.4245     1.3543    13.7347 </r>
       <r>    11.5051     0.9833    13.8140 </r>
       <r>    11.5858     0.6788    13.8687 </r>
       <r>    11.6664     0.6699    13.9227 </r>
       <r>    11.7470     1.0001    14.0034 </r>
       <r>    11.8276     1.4342    14.1190 </r>
       <r>    11.9083     1.6431    14.2515 </r>
       <r>    11.9889     1.5486    14.3763 </r>
       <r>    12.0695     1.3721    14.4870 </r>
       <r>    12.1501     1.2729    14.5896 </r>
       <r>    12.2308     1.1422    14.6817 </r>
       <r>    12.3114     0.8526    14.7504 </r>
       <r>    12.3920     0.4867    14.7897 </r>
       <r>    12.4727     0.2110    14.8067 </r>
       <r>    12.5533     0.0921    14.8141 </r>
       <r>    12.6339     0.1099    14.8230 </r>
       <r>    12.7145     0.2327    14.8417 </r>
       <r>    12.7952     0.4051    14.8744 </r>
       <r>    12.8758     0.5236    14.9166 </r>
       <r>    12.9564     0.5201    14.9585 </r>
       <r>    13.0370     0.4760    14.9969 </r>
       <r>    13.1177     0.5800    15.0437 </r>
       <r>    13.1983     0.9257    15.1183 </r>
       <r>    13.2789     1.3503    15.2272 </r>
       <r>    13.3595     1.5288    15.3504 </r>
       <r>    13.4402     1.2998    15.4552 </r>
       <r>    13.5208     0.8407    15.5230 </r>
       <r>    13.6014     0.4531    15.5595 </r>
       <r>    13.6820     0.2654    15.5809 </r>
       <r>    13.7627     0.2074    15.5977 </r>
       <r>    13.8433     0.1798    15.6122 </r>
       <r>    13.9239     0.1741    15.6262 </r>
       <r>    14.0046     0.2613    15.6473 </r>
       <r>    14.0852     0.4952    15.6872 </r>
       <r>    14.1658     0.8071    15.7523 </r>
       <r>    14.2464     1.0031    15.8331 </r>
       <r>    14.3271     0.9305    15.9082 </r>
       <r>    14.4077     0.6419    15.9599 </r>
       <r>    14.4883     0.3288    15.9864 </r>
       <r>    14.5689     0.1248    15.9965 </r>
       <r>    14.6496     0.0350    15.9993 </r>
       <r>    14.7302     0.0073    15.9999 </r>
       <r>    14.8108     0.0011    16.0000 </r>
       <r>    14.8914     0.0001    16.0000 </r>
       <r>    14.9721     0.0000    16.0000 </r>
       <r>    15.0527     0.0000    16.0000 </r>
       <r>    15.1333     0.0000    16.0000 </r>
       <r>    15.2139     0.0000    16.0000 </r>
       <r>    15.2946     0.0000    16.0000 </r>
       <r>    15.3752     0.0000    16.0000 </r>
       <r>    15.4558     0.0000    16.0000 </r>
       <r>    15.5365     0.0000    16.0000 </r>
       <r>    15.6171     0.0000    16.0000 </r>
       <r>    15.6977     0.0000    16.0000 </r>
       <r>    15.7783     0.0000    16.0000 </r>
       <r>    15.8590     0.0000    16.0000 </r>
       <r>    15.9396     0.0000    16.0000 </r>
       <r>    16.0202     0.0000    16.0000 </r>
       <r>    16.1008     0.0000    16.0000 </r>
       <r>    16.1815     0.0000    16.0000 </r>
       <r>    16.2621     0.0000    16.0000 </r>
      </set>
     </set>
    </array>
   </total>
  </dos>
 </calculation>
 <structure name="finalpos" >
  <crystal>
   <varray name="basis" >
    <v>       0.00000000       2.71500000       2.71500000 </v>
    <v>       2.71500000       0.00000000       2.71500000 </v>
    <v>       2.71500000       2.71500000       0.00000000 </v>
   </varray>
   <i name="volume">     40.02575175 </i>
   <varray name="rec_basis" >
    <v>      -0.18416206       0.18416206       0.18416206 </v>
    <v>       0.18416206      -0.18416206       0.18416206 </v>
    <v>       0.18416206       0.18416206      -0.18416206 </v>
   </varray>
  </crystal>
  <varray name="positions" >
   <v>       0.50000000       0.50000000       0.50000000 </v>
   <v>       0.75000000       0.75000000       0.75000000 </v>
  </varray>
 </structure>
</modeling>
