   2   2   0   0
  0.2001288E+02  0.3839590E-09  0.3839590E-09  0.3839590E-09  0.5000000E-15
  1.000000000000000E-004
  CAR 
 unknown system                          
     15.79224124     -8.04522265  301      6.27472141      1.00000000
     -8.045  0.0000E+00  0.0000E+00
     -7.966  0.0000E+00  0.0000E+00
     -7.886  0.0000E+00  0.0000E+00
     -7.807  0.0000E+00  0.0000E+00
     -7.727  0.0000E+00  0.0000E+00
     -7.648  0.0000E+00  0.0000E+00
     -7.568  0.0000E+00  0.0000E+00
     -7.489  0.0000E+00  0.0000E+00
     -7.410  0.0000E+00  0.0000E+00
     -7.330  0.0000E+00  0.0000E+00
     -7.251  0.0000E+00  0.0000E+00
     -7.171  0.5175E-16  0.4112E-17
     -7.092  0.4185E-14  0.3366E-15
     -7.012  0.2453E-12  0.1982E-13
     -6.933  0.1053E-10  0.8568E-12
     -6.853  0.3315E-09  0.2720E-10
     -6.774  0.7647E-08  0.6348E-09
     -6.694  0.1293E-06  0.1091E-07
     -6.615  0.1605E-05  0.1385E-06
     -6.536  0.1462E-04  0.1300E-05
     -6.456  0.9774E-04  0.9067E-05
     -6.377  0.4800E-03  0.4721E-04
     -6.297  0.1732E-02  0.1848E-03
     -6.218  0.4593E-02  0.5498E-03
     -6.138  0.8953E-02  0.1261E-02
     -6.059  0.1283E-01  0.2281E-02
     -5.979  0.1352E-01  0.3355E-02
     -5.900  0.1048E-01  0.4188E-02
     -5.820  0.5969E-02  0.4662E-02
     -5.741  0.2500E-02  0.4861E-02
     -5.661  0.7697E-03  0.4922E-02
     -5.582  0.1741E-03  0.4936E-02
     -5.503  0.2893E-04  0.4938E-02
     -5.423  0.3549E-05  0.4938E-02
     -5.344  0.6910E-06  0.4938E-02
     -5.264  0.5242E-05  0.4939E-02
     -5.185  0.5334E-04  0.4943E-02
     -5.105  0.4001E-03  0.4975E-02
     -5.026  0.2203E-02  0.5150E-02
     -4.946  0.8915E-02  0.5858E-02
     -4.867  0.2651E-01  0.7964E-02
     -4.787  0.5793E-01  0.1257E-01
     -4.708  0.9309E-01  0.1996E-01
     -4.629  0.1101E+00  0.2871E-01
     -4.549  0.9609E-01  0.3634E-01
     -4.470  0.6381E-01  0.4141E-01
     -4.390  0.3882E-01  0.4450E-01
     -4.311  0.3701E-01  0.4744E-01
     -4.231  0.5569E-01  0.5186E-01
     -4.152  0.7714E-01  0.5799E-01
     -4.072  0.8135E-01  0.6446E-01
     -3.993  0.6337E-01  0.6949E-01
     -3.913  0.3632E-01  0.7238E-01
     -3.834  0.1530E-01  0.7360E-01
     -3.754  0.4740E-02  0.7397E-01
     -3.675  0.1079E-02  0.7406E-01
     -3.596  0.1803E-03  0.7407E-01
     -3.516  0.2218E-04  0.7407E-01
     -3.437  0.2869E-05  0.7407E-01
     -3.357  0.1173E-04  0.7408E-01
     -3.278  0.1128E-03  0.7408E-01
     -3.198  0.8049E-03  0.7415E-01
     -3.119  0.4220E-02  0.7448E-01
     -3.039  0.1625E-01  0.7577E-01
     -2.960  0.4600E-01  0.7943E-01
     -2.880  0.9570E-01  0.8703E-01
     -2.801  0.1464E+00  0.9867E-01
     -2.722  0.1646E+00  0.1117E+00
     -2.642  0.1362E+00  0.1226E+00
     -2.563  0.8279E-01  0.1291E+00
     -2.483  0.3701E-01  0.1321E+00
     -2.404  0.1216E-01  0.1331E+00
     -2.324  0.2936E-02  0.1333E+00
     -2.245  0.5208E-03  0.1333E+00
     -2.165  0.6784E-04  0.1333E+00
     -2.086  0.6486E-05  0.1333E+00
     -2.006  0.4551E-06  0.1333E+00
     -1.927  0.2342E-07  0.1333E+00
     -1.847  0.8840E-09  0.1333E+00
     -1.768  0.4659E-10  0.1333E+00
     -1.689  0.8085E-09  0.1333E+00
     -1.609  0.2159E-07  0.1333E+00
     -1.530  0.4229E-06  0.1333E+00
     -1.450  0.6077E-05  0.1333E+00
     -1.371  0.6407E-04  0.1333E+00
     -1.291  0.4959E-03  0.1334E+00
     -1.212  0.2818E-02  0.1336E+00
     -1.132  0.1177E-01  0.1345E+00
     -1.053  0.3609E-01  0.1374E+00
     -0.973  0.8139E-01  0.1439E+00
     -0.894  0.1349E+00  0.1546E+00
     -0.815  0.1645E+00  0.1677E+00
     -0.735  0.1474E+00  0.1794E+00
     -0.656  0.9715E-01  0.1871E+00
     -0.576  0.4707E-01  0.1908E+00
     -0.497  0.1676E-01  0.1922E+00
     -0.417  0.4388E-02  0.1925E+00
     -0.338  0.8437E-03  0.1926E+00
     -0.258  0.1191E-03  0.1926E+00
     -0.179  0.1237E-04  0.1926E+00
     -0.099  0.1238E-05  0.1926E+00
     -0.020  0.4316E-05  0.1926E+00
      0.060  0.4467E-04  0.1926E+00
      0.139  0.3436E-03  0.1926E+00
      0.218  0.1940E-02  0.1928E+00
      0.298  0.8051E-02  0.1934E+00
      0.377  0.2456E-01  0.1954E+00
      0.457  0.5515E-01  0.1998E+00
      0.536  0.9153E-01  0.2070E+00
      0.616  0.1140E+00  0.2161E+00
      0.695  0.1118E+00  0.2250E+00
      0.775  0.9818E-01  0.2328E+00
      0.854  0.9201E-01  0.2401E+00
      0.934  0.9149E-01  0.2473E+00
      1.013  0.8105E-01  0.2538E+00
      1.092  0.5755E-01  0.2584E+00
      1.172  0.3622E-01  0.2612E+00
      1.251  0.3568E-01  0.2641E+00
      1.331  0.6521E-01  0.2693E+00
      1.410  0.1162E+00  0.2785E+00
      1.490  0.1583E+00  0.2911E+00
      1.569  0.1593E+00  0.3037E+00
      1.649  0.1179E+00  0.3131E+00
      1.728  0.6418E-01  0.3182E+00
      1.808  0.2568E-01  0.3202E+00
      1.887  0.7552E-02  0.3208E+00
      1.967  0.1632E-02  0.3210E+00
      2.046  0.2590E-03  0.3210E+00
      2.125  0.3018E-04  0.3210E+00
      2.205  0.2581E-05  0.3210E+00
      2.284  0.1620E-06  0.3210E+00
      2.364  0.7453E-08  0.3210E+00
      2.443  0.2515E-09  0.3210E+00
      2.523  0.7875E-11  0.3210E+00
      2.602  0.7470E-10  0.3210E+00
      2.682  0.2456E-08  0.3210E+00
      2.761  0.5926E-07  0.3210E+00
      2.841  0.1049E-05  0.3210E+00
      2.920  0.1361E-04  0.3210E+00
      2.999  0.1297E-03  0.3210E+00
      3.079  0.9070E-03  0.3211E+00
      3.158  0.4660E-02  0.3214E+00
      3.238  0.1760E-01  0.3228E+00
      3.317  0.4892E-01  0.3267E+00
      3.397  0.1005E+00  0.3347E+00
      3.476  0.1545E+00  0.3470E+00
      3.556  0.1843E+00  0.3616E+00
      3.635  0.1868E+00  0.3765E+00
      3.715  0.1851E+00  0.3912E+00
      3.794  0.1878E+00  0.4061E+00
      3.874  0.1739E+00  0.4199E+00
      3.953  0.1299E+00  0.4302E+00
      4.032  0.7358E-01  0.4361E+00
      4.112  0.3096E-01  0.4385E+00
      4.191  0.9603E-02  0.4393E+00
      4.271  0.2192E-02  0.4395E+00
      4.350  0.3846E-03  0.4395E+00
      4.430  0.2121E-03  0.4395E+00
      4.509  0.1178E-02  0.4396E+00
      4.589  0.6059E-02  0.4401E+00
      4.668  0.2298E-01  0.4419E+00
      4.748  0.6406E-01  0.4470E+00
      4.827  0.1313E+00  0.4574E+00
      4.906  0.1978E+00  0.4732E+00
      4.986  0.2190E+00  0.4906E+00
      5.065  0.1784E+00  0.5047E+00
      5.145  0.1068E+00  0.5132E+00
      5.224  0.4704E-01  0.5170E+00
      5.304  0.1522E-01  0.5182E+00
      5.383  0.3626E-02  0.5185E+00
      5.463  0.6831E-03  0.5185E+00
      5.542  0.4130E-03  0.5185E+00
      5.622  0.1602E-02  0.5187E+00
      5.701  0.5628E-02  0.5191E+00
      5.781  0.1460E-01  0.5203E+00
      5.860  0.2784E-01  0.5225E+00
      5.939  0.3903E-01  0.5256E+00
      6.019  0.4024E-01  0.5288E+00
      6.098  0.3053E-01  0.5312E+00
      6.178  0.1719E-01  0.5326E+00
      6.257  0.8088E-02  0.5332E+00
      6.337  0.6989E-02  0.5338E+00
      6.416  0.1614E-01  0.5351E+00
      6.496  0.3701E-01  0.5380E+00
      6.575  0.6398E-01  0.5431E+00
      6.655  0.8147E-01  0.5496E+00
      6.734  0.7628E-01  0.5556E+00
      6.813  0.5252E-01  0.5598E+00
      6.893  0.2660E-01  0.5619E+00
      6.972  0.1000E-01  0.5627E+00
      7.052  0.3500E-02  0.5630E+00
      7.131  0.4728E-02  0.5634E+00
      7.211  0.1631E-01  0.5647E+00
      7.290  0.4652E-01  0.5684E+00
      7.370  0.9933E-01  0.5762E+00
      7.449  0.1607E+00  0.5890E+00
      7.529  0.2037E+00  0.6052E+00
      7.608  0.2148E+00  0.6223E+00
      7.688  0.2034E+00  0.6384E+00
      7.767  0.1839E+00  0.6530E+00
      7.846  0.1607E+00  0.6658E+00
      7.926  0.1315E+00  0.6763E+00
      8.005  0.9496E-01  0.6838E+00
      8.085  0.5697E-01  0.6883E+00
      8.164  0.2853E-01  0.6906E+00
      8.244  0.1650E-01  0.6919E+00
      8.323  0.1983E-01  0.6935E+00
      8.403  0.3137E-01  0.6960E+00
      8.482  0.4045E-01  0.6992E+00
      8.562  0.3883E-01  0.7023E+00
      8.641  0.2744E-01  0.7045E+00
      8.720  0.1426E-01  0.7056E+00
      8.800  0.5461E-02  0.7060E+00
      8.879  0.1640E-02  0.7062E+00
      8.959  0.1081E-02  0.7062E+00
      9.038  0.4106E-02  0.7066E+00
      9.118  0.1624E-01  0.7079E+00
      9.197  0.4884E-01  0.7117E+00
      9.277  0.1099E+00  0.7205E+00
      9.356  0.1842E+00  0.7351E+00
      9.436  0.2292E+00  0.7533E+00
      9.515  0.2113E+00  0.7701E+00
      9.595  0.1439E+00  0.7815E+00
      9.674  0.7230E-01  0.7873E+00
      9.753  0.2677E-01  0.7894E+00
      9.833  0.7299E-02  0.7900E+00
      9.912  0.1464E-02  0.7901E+00
      9.992  0.2157E-03  0.7901E+00
     10.071  0.2336E-04  0.7901E+00
     10.151  0.1857E-05  0.7901E+00
     10.230  0.1083E-06  0.7901E+00
     10.310  0.4634E-08  0.7901E+00
     10.389  0.1453E-09  0.7901E+00
     10.469  0.3341E-11  0.7901E+00
     10.548  0.5626E-13  0.7901E+00
     10.627  0.1656E-14  0.7901E+00
     10.707  0.7663E-13  0.7901E+00
     10.786  0.4354E-11  0.7901E+00
     10.866  0.1812E-09  0.7901E+00
     10.945  0.5528E-08  0.7901E+00
     11.025  0.1236E-06  0.7901E+00
     11.104  0.2027E-05  0.7901E+00
     11.184  0.2438E-04  0.7901E+00
     11.263  0.2153E-03  0.7901E+00
     11.343  0.1395E-02  0.7903E+00
     11.422  0.6644E-02  0.7908E+00
     11.501  0.2324E-01  0.7926E+00
     11.581  0.5976E-01  0.7974E+00
     11.660  0.1129E+00  0.8064E+00
     11.740  0.1570E+00  0.8188E+00
     11.819  0.1604E+00  0.8316E+00
     11.899  0.1206E+00  0.8412E+00
     11.978  0.6756E-01  0.8465E+00
     12.058  0.3211E-01  0.8491E+00
     12.137  0.2689E-01  0.8512E+00
     12.217  0.5304E-01  0.8554E+00
     12.296  0.1029E+00  0.8636E+00
     12.376  0.1511E+00  0.8756E+00
     12.455  0.1635E+00  0.8886E+00
     12.534  0.1303E+00  0.8990E+00
     12.614  0.7718E-01  0.9051E+00
     12.693  0.3806E-01  0.9081E+00
     12.773  0.3024E-01  0.9105E+00
     12.852  0.5794E-01  0.9151E+00
     12.932  0.1178E+00  0.9245E+00
     13.011  0.1921E+00  0.9397E+00
     13.091  0.2509E+00  0.9597E+00
     13.170  0.2694E+00  0.9811E+00
     13.250  0.2401E+00  0.1000E+01
     13.329  0.1750E+00  0.1014E+01
     13.408  0.1022E+00  0.1022E+01
     13.488  0.5090E-01  0.1026E+01
     13.567  0.3497E-01  0.1029E+01
     13.647  0.5148E-01  0.1033E+01
     13.726  0.8451E-01  0.1040E+01
     13.806  0.1083E+00  0.1048E+01
     13.885  0.1027E+00  0.1057E+01
     13.965  0.7163E-01  0.1062E+01
     14.044  0.3674E-01  0.1065E+01
     14.124  0.1386E-01  0.1066E+01
     14.203  0.3840E-02  0.1067E+01
     14.283  0.7820E-03  0.1067E+01
     14.362  0.1169E-03  0.1067E+01
     14.441  0.1284E-04  0.1067E+01
     14.521  0.1035E-05  0.1067E+01
     14.600  0.6117E-07  0.1067E+01
     14.680  0.2652E-08  0.1067E+01
     14.759  0.8427E-10  0.1067E+01
     14.839  0.1962E-11  0.1067E+01
     14.918  0.3345E-13  0.1067E+01
     14.998  0.4416E-15  0.1067E+01
     15.077  0.0000E+00  0.1067E+01
     15.157  0.0000E+00  0.1067E+01
     15.236  0.0000E+00  0.1067E+01
     15.315  0.0000E+00  0.1067E+01
     15.395  0.0000E+00  0.1067E+01
     15.474  0.0000E+00  0.1067E+01
     15.554  0.0000E+00  0.1067E+01
     15.633  0.0000E+00  0.1067E+01
     15.713  0.0000E+00  0.1067E+01
     15.792  0.0000E+00  0.1067E+01
