    2    2   15    1
  0.1540502E+02  0.3518863E-09  0.3518863E-09  0.3518863E-09  0.5000000E-15
  1.000000000000000E-004
  CAR 
 unknown system                          
      8     60      8
 
  0.6250000E-01  0.6250000E-01  0.6250000E-01  0.3906250E-02
    1       -5.099052   1.000000
    2        8.236473   0.999962
    3        8.703958   0.742246
    4        8.703958   0.742246
    5       11.608823   0.000000
    6       11.608823   0.000000
    7       11.649759   0.000000
    8       15.688720   0.000000
 
  0.1875000E+00  0.6250000E-01  0.6250000E-01  0.1171875E-01
    1       -4.761070   1.000000
    2        6.557462   1.000000
    3        7.639274   1.000000
    4        8.599149   0.917948
    5       11.889579   0.000000
    6       12.057364   0.000000
    7       12.459535   0.000000
    8       15.376238   0.000000
 
  0.3125000E+00  0.6250000E-01  0.6250000E-01  0.1171875E-01
    1       -3.936054   1.000000
    2        3.846787   1.000000
    3        7.095593   1.000000
    4        8.035781   1.000000
    5       11.917747   0.000000
    6       12.299936   0.000000
    7       12.671529   0.000000
    8       15.590497   0.000000
 
  0.4375000E+00  0.6250000E-01  0.6250000E-01  0.1171875E-01
    1       -2.733431   1.000000
    2        1.460318   1.000000
    3        6.886538   1.000000
    4        7.534287   1.000000
    5       11.641086   0.000000
    6       12.118541   0.000000
    7       12.176116   0.000000
    8       17.226234   0.000000
 
 -0.4375000E+00  0.6250000E-01  0.6250000E-01  0.1171875E-01
    1       -2.062043   1.000000
    2        0.485108   1.000000
    3        6.991967   1.000000
    4        7.241591   1.000000
    5       11.469091   0.000000
    6       11.953052   0.000000
    7       12.179148   0.000000
    8       17.122482   0.000000
 
 -0.3125000E+00  0.6250000E-01  0.6250000E-01  0.1171875E-01
    1       -3.157429   1.000000
    2        2.184294   1.000000
    3        7.225835   1.000000
    4        7.358528   1.000000
    5       11.546978   0.000000
    6       12.114952   0.000000
    7       12.628328   0.000000
    8       16.281728   0.000000
 
 -0.1875000E+00  0.6250000E-01  0.6250000E-01  0.1171875E-01
    1       -4.261723   1.000000
    2        4.741233   1.000000
    3        7.527728   1.000000
    4        7.914686   1.000000
    5       11.678424   0.000000
    6       12.393600   0.000000
    7       13.006363   0.000000
    8       14.808732   0.000000
 
 -0.6250000E-01  0.6250000E-01  0.6250000E-01  0.1171875E-01
    1       -4.929481   1.000000
    2        7.436086   1.000000
    3        8.115744   0.999999
    4        8.440630   0.994003
    5       11.259497   0.000000
    6       12.269310   0.000000
    7       12.381927   0.000000
    8       15.194331   0.000000
 
  0.1875000E+00  0.1875000E+00  0.6250000E-01  0.1171875E-01
    1       -4.591644   1.000000
    2        6.537536   1.000000
    3        7.390805   1.000000
    4        7.671092   1.000000
    5       10.711018   0.000000
    6       13.322495   0.000000
    7       13.463468   0.000000
    8       13.745726   0.000000
 
  0.3125000E+00  0.1875000E+00  0.6250000E-01  0.2343750E-01
    1       -3.926621   1.000000
    2        4.793586   1.000000
    3        6.188238   1.000000
    4        7.304367   1.000000
    5       10.911762   0.000000
    6       12.896618   0.000000
    7       13.732524   0.000000
    8       14.400665   0.000000
 
  0.4375000E+00  0.1875000E+00  0.6250000E-01  0.2343750E-01
    1       -2.826383   1.000000
    2        2.386903   1.000000
    3        5.723528   1.000000
    4        6.713153   1.000000
    5       11.055750   0.000000
    6       13.000262   0.000000
    7       14.154884   0.000000
    8       14.665267   0.000000
 
 -0.4375000E+00  0.1875000E+00  0.6250000E-01  0.2343750E-01
    1       -1.730017   1.000000
    2        0.723266   1.000000
    3        5.406035   1.000000
    4        6.568495   1.000000
    5       11.182083   0.000000
    6       12.520947   0.000000
    7       14.108527   0.000000
    8       16.992142   0.000000
 
 -0.3125000E+00  0.1875000E+00  0.6250000E-01  0.2343750E-01
    1       -2.408116   1.000000
    2        1.694106   1.000000
    3        5.244340   1.000000
    4        6.970647   1.000000
    5       11.705490   0.000000
    6       12.279190   0.000000
    7       14.080999   0.000000
    8       15.922544   0.000000
 
 -0.1875000E+00  0.1875000E+00  0.6250000E-01  0.2343750E-01
    1       -3.605954   1.000000
    2        3.966445   1.000000
    3        5.471666   1.000000
    4        7.663244   1.000000
    5       12.094068   0.000000
    6       12.523371   0.000000
    7       13.995402   0.000000
    8       14.069200   0.000000
 
 -0.6250000E-01  0.1875000E+00  0.6250000E-01  0.2343750E-01
    1       -4.425738   1.000000
    2        5.659708   1.000000
    3        6.905917   1.000000
    4        8.162808   0.999996
    5       11.472459   0.000000
    6       12.825867   0.000000
    7       13.199487   0.000000
    8       14.196325   0.000000
 
  0.3125000E+00  0.3125000E+00  0.6250000E-01  0.1171875E-01
    1       -3.423977   1.000000
    2        4.466363   1.000000
    3        5.998659   1.000000
    4        6.149578   1.000000
    5        9.633995   0.000000
    6       11.185639   0.000000
    7       15.858193   0.000000
    8       15.879321   0.000000
 
  0.4375000E+00  0.3125000E+00  0.6250000E-01  0.2343750E-01
    1       -2.461257   1.000000
    2        2.960079   1.000000
    3        4.942980   1.000000
    4        5.671359   1.000000
    5        9.953234   0.000000
    6       11.123987   0.000000
    7       15.711377   0.000000
    8       17.104766   0.000000
 
 -0.4375000E+00  0.3125000E+00  0.6250000E-01  0.2343750E-01
    1       -1.236795   1.000000
    2        1.327261   1.000000
    3        3.861805   1.000000
    4        5.640817   1.000000
    5       10.140147   0.000000
    6       13.212246   0.000000
    7       15.141843   0.000000
    8       17.097874   0.000000
 
 -0.3125000E+00  0.3125000E+00  0.6250000E-01  0.2343750E-01
    1       -1.304449   1.000000
    2        1.432574   1.000000
    3        3.349892   1.000000
    4        6.106192   1.000000
    5       10.682914   0.000000
    6       14.298905   0.000000
    7       15.617522   0.000000
    8       16.235722   0.000000
 
 -0.1875000E+00  0.3125000E+00  0.6250000E-01  0.2343750E-01
    1       -2.517446   1.000000
    2        2.528380   1.000000
    3        4.217846   1.000000
    4        6.898967   1.000000
    5       11.606526   0.000000
    6       13.076849   0.000000
    7       14.652700   0.000000
    8       15.149560   0.000000
 
 -0.6250000E-01  0.3125000E+00  0.6250000E-01  0.2343750E-01
    1       -3.454204   1.000000
    2        3.056792   1.000000
    3        6.446918   1.000000
    4        7.552350   1.000000
    5       11.687228   0.000000
    6       12.434346   0.000000
    7       13.268773   0.000000
    8       15.013222   0.000000
 
  0.4375000E+00  0.4375000E+00  0.6250000E-01  0.1171875E-01
    1       -1.642474   1.000000
    2        1.925191   1.000000
    3        5.084700   1.000000
    4        5.418768   1.000000
    5        9.013142   0.062272
    6        9.680620   0.000000
    7       18.353202   0.000000
    8       18.599699   0.000000
 
 -0.4375000E+00  0.4375000E+00  0.6250000E-01  0.2343750E-01
    1       -0.457316   1.000000
    2        0.697361   1.000000
    3        4.276112   1.000000
    4        5.052724   1.000000
    5        9.486896   0.000001
    6       10.409809   0.000000
    7       18.063680   0.000000
    8       19.314529   0.000000
 
 -0.3125000E+00  0.4375000E+00  0.6250000E-01  0.2343750E-01
    1       -0.465293   1.000000
    2        0.831126   1.000000
    3        3.243978   1.000000
    4        5.462189   1.000000
    5        9.951067   0.000000
    6       13.085446   0.000000
    7       16.248909   0.000000
    8       17.526741   0.000000
 
 -0.1875000E+00  0.4375000E+00  0.6250000E-01  0.2343750E-01
    1       -1.411133   1.000000
    2        0.927596   1.000000
    3        4.295022   1.000000
    4        6.254729   1.000000
    5       10.852761   0.000000
    6       13.366786   0.000000
    7       15.162384   0.000000
    8       16.907069   0.000000
 
 -0.6250000E-01  0.4375000E+00  0.6250000E-01  0.2343750E-01
    1       -2.224448   1.000000
    2        0.942331   1.000000
    3        6.313034   1.000000
    4        7.088416   1.000000
    5       11.635337   0.000000
    6       11.911876   0.000000
    7       12.993844   0.000000
    8       17.159993   0.000000
 
 -0.4375000E+00 -0.4375000E+00  0.6250000E-01  0.1171875E-01
    1       -0.550146   1.000000
    2        0.650995   1.000000
    3        4.910441   1.000000
    4        5.270239   1.000000
    5        8.916789   0.196370
    6        9.353906   0.000040
    7       19.667097   0.000000
    8       19.946730   0.000000
 
 -0.3125000E+00 -0.4375000E+00  0.6250000E-01  0.2343750E-01
    1       -1.516382   1.000000
    2        1.861133   1.000000
    3        4.501174   1.000000
    4        5.246937   1.000000
    5        9.646143   0.000000
    6       10.642748   0.000000
    7       16.835860   0.000000
    8       18.491848   0.000000
 
 -0.1875000E+00 -0.4375000E+00  0.6250000E-01  0.2343750E-01
    1       -2.072431   1.000000
    2        1.826745   1.000000
    3        4.813137   1.000000
    4        6.030931   1.000000
    5       10.514680   0.000000
    6       13.354758   0.000000
    7       14.316178   0.000000
    8       15.784611   0.000000
 
 -0.3125000E+00 -0.3125000E+00  0.6250000E-01  0.1171875E-01
    1       -2.605374   1.000000
    2        3.222614   1.000000
    3        5.440906   1.000000
    4        5.713630   1.000000
    5        9.251077   0.000644
    6       10.292961   0.000000
    7       17.088413   0.000000
    8       17.229530   0.000000
 
 -0.1875000E+00 -0.3125000E+00  0.6250000E-01  0.2343750E-01
    1       -3.269032   1.000000
    2        3.923430   1.000000
    3        5.530785   1.000000
    4        6.384398   1.000000
    5       10.386352   0.000000
    6       11.875317   0.000000
    7       14.680208   0.000000
    8       15.728255   0.000000
 
 -0.1875000E+00 -0.1875000E+00  0.6250000E-01  0.1171875E-01
    1       -4.088322   1.000000
    2        5.571960   1.000000
    3        6.716083   1.000000
    4        6.772640   1.000000
    5       10.137083   0.000000
    6       12.353039   0.000000
    7       14.562266   0.000000
    8       14.645910   0.000000
 
  0.1875000E+00  0.1875000E+00  0.1875000E+00  0.3906250E-02
    1       -4.594027   1.000000
    2        5.641651   1.000000
    3        8.148501   0.999998
    4        8.148501   0.999998
    5       11.798007   0.000000
    6       12.348875   0.000000
    7       12.348876   0.000000
    8       15.811728   0.000000
 
  0.3125000E+00  0.1875000E+00  0.1875000E+00  0.1171875E-01
    1       -4.095787   1.000000
    2        4.780520   1.000000
    3        6.174702   1.000000
    4        8.244657   0.999952
    5       12.437454   0.000000
    6       12.449671   0.000000
    7       12.900484   0.000000
    8       14.768846   0.000000
 
  0.4375000E+00  0.1875000E+00  0.1875000E+00  0.1171875E-01
    1       -3.132405   1.000000
    2        3.202640   1.000000
    3        4.790281   1.000000
    4        7.580311   1.000000
    5       11.746548   0.000000
    6       13.305117   0.000000
    7       13.776781   0.000000
    8       14.999234   0.000000
 
 -0.4375000E+00  0.1875000E+00  0.1875000E+00  0.1171875E-01
    1       -1.905146   1.000000
    2        1.179216   1.000000
    3        4.744453   1.000000
    4        6.875607   1.000000
    5       10.907919   0.000000
    6       13.514003   0.000000
    7       13.927670   0.000000
    8       17.272009   0.000000
 
 -0.3125000E+00  0.1875000E+00  0.1875000E+00  0.1171875E-01
    1       -1.890773   1.000000
    2        1.151133   1.000000
    3        5.176214   1.000000
    4        6.444106   1.000000
    5       10.457539   0.000000
    6       13.933252   0.000000
    7       13.933786   0.000000
    8       15.626502   0.000000
 
 -0.1875000E+00  0.1875000E+00  0.1875000E+00  0.1171875E-01
    1       -3.119205   1.000000
    2        3.185757   1.000000
    3        5.943228   1.000000
    4        6.383805   1.000000
    5       10.412962   0.000000
    6       12.805934   0.000000
    7       14.571768   0.000000
    8       14.672136   0.000000
 
  0.3125000E+00  0.3125000E+00  0.1875000E+00  0.1171875E-01
    1       -3.767898   1.000000
    2        3.923525   1.000000
    3        6.914556   1.000000
    4        7.049182   1.000000
    5       11.076465   0.000000
    6       13.220378   0.000000
    7       13.745942   0.000000
    8       13.861723   0.000000
 
  0.4375000E+00  0.3125000E+00  0.1875000E+00  0.2343750E-01
    1       -2.963464   1.000000
    2        3.216881   1.000000
    3        4.860348   1.000000
    4        6.684176   1.000000
    5       11.586751   0.000000
    6       12.682406   0.000000
    7       13.572999   0.000000
    8       15.464248   0.000000
 
 -0.4375000E+00  0.3125000E+00  0.1875000E+00  0.2343750E-01
    1       -1.781967   1.000000
    2        1.933524   1.000000
    3        3.789824   1.000000
    4        5.870329   1.000000
    5       11.948548   0.000000
    6       12.782207   0.000000
    7       14.243847   0.000000
    8       16.637431   0.000000
 
 -0.3125000E+00  0.3125000E+00  0.1875000E+00  0.2343750E-01
    1       -1.081995   1.000000
    2        1.038617   1.000000
    3        3.892247   1.000000
    4        5.421926   1.000000
    5       11.396403   0.000000
    6       13.111993   0.000000
    7       15.080493   0.000000
    8       16.903878   0.000000
 
 -0.1875000E+00  0.3125000E+00  0.1875000E+00  0.2343750E-01
    1       -2.180578   1.000000
    2        2.483734   1.000000
    3        4.356885   1.000000
    4        5.678748   1.000000
    5       11.156214   0.000000
    6       12.321761   0.000000
    7       14.118467   0.000000
    8       16.938331   0.000000
 
  0.4375000E+00  0.4375000E+00  0.1875000E+00  0.1171875E-01
    1       -2.326981   1.000000
    2        2.472863   1.000000
    3        4.856205   1.000000
    4        5.968722   1.000000
    5        9.848814   0.000000
    6       12.225707   0.000000
    7       15.509617   0.000000
    8       15.970308   0.000000
 
 -0.4375000E+00  0.4375000E+00  0.1875000E+00  0.2343750E-01
    1       -1.278732   1.000000
    2        1.676864   1.000000
    3        3.966051   1.000000
    4        4.933103   1.000000
    5       10.850712   0.000000
    6       11.973007   0.000000
    7       15.058621   0.000000
    8       18.249487   0.000000
 
 -0.3125000E+00  0.4375000E+00  0.1875000E+00  0.2343750E-01
    1       -0.172033   1.000000
    2        0.775100   1.000000
    3        3.452572   1.000000
    4        4.228669   1.000000
    5       12.135464   0.000000
    6       13.122519   0.000000
    7       14.611994   0.000000
    8       15.669068   0.000000
 
 -0.1875000E+00  0.4375000E+00  0.1875000E+00  0.2343750E-01
    1       -0.966714   1.000000
    2        1.368871   1.000000
    3        3.531851   1.000000
    4        4.877888   1.000000
    5       12.183096   0.000000
    6       12.884449   0.000000
    7       14.110352   0.000000
    8       16.876490   0.000000
 
 -0.4375000E+00 -0.4375000E+00  0.1875000E+00  0.1171875E-01
    1       -0.431560   1.000000
    2        0.734486   1.000000
    3        3.607326   1.000000
    4        5.542120   1.000000
    5        9.252170   0.000627
    6       11.662709   0.000000
    7       17.786769   0.000000
    8       18.558713   0.000000
 
 -0.3125000E+00 -0.4375000E+00  0.1875000E+00  0.2343750E-01
    1       -0.304188   1.000000
    2        0.752877   1.000000
    3        3.734358   1.000000
    4        4.576194   1.000000
    5       10.692939   0.000000
    6       11.792631   0.000000
    7       16.187671   0.000000
    8       17.449765   0.000000
 
 -0.3125000E+00 -0.3125000E+00  0.1875000E+00  0.1171875E-01
    1       -1.411962   1.000000
    2        1.670283   1.000000
    3        4.024649   1.000000
    4        5.685415   1.000000
    5        9.453286   0.000002
    6       11.847977   0.000000
    7       16.578566   0.000000
    8       17.296371   0.000000
 
  0.3125000E+00  0.3125000E+00  0.3125000E+00  0.3906250E-02
    1       -3.620314   1.000000
    2        2.951633   1.000000
    3        7.666597   1.000000
    4        7.666597   1.000000
    5       11.510131   0.000000
    6       12.329286   0.000000
    7       12.329286   0.000000
    8       16.849554   0.000000
 
  0.4375000E+00  0.3125000E+00  0.3125000E+00  0.1171875E-01
    1       -2.994604   1.000000
    2        2.302200   1.000000
    3        5.845738   1.000000
    4        7.575272   1.000000
    5       11.786625   0.000000
    6       12.615724   0.000000
    7       12.900671   0.000000
    8       16.160650   0.000000
 
 -0.4375000E+00  0.3125000E+00  0.3125000E+00  0.1171875E-01
    1       -1.951131   1.000000
    2        1.925776   1.000000
    3        3.694907   1.000000
    4        6.784274   1.000000
    5       10.748050   0.000000
    6       14.487537   0.000000
    7       14.862583   0.000000
    8       15.931556   0.000000
 
 -0.3125000E+00  0.3125000E+00  0.3125000E+00  0.1171875E-01
    1       -0.825200   1.000000
    2        1.052423   1.000000
    3        3.133535   1.000000
    4        6.065162   1.000000
    5        9.873792   0.000000
    6       14.419528   0.000000
    7       15.997373   0.000000
    8       17.171762   0.000000
 
  0.4375000E+00  0.4375000E+00  0.3125000E+00  0.1171875E-01
    1       -2.566518   1.000000
    2        1.574264   1.000000
    3        6.381002   1.000000
    4        6.799039   1.000000
    5       11.003515   0.000000
    6       12.967870   0.000000
    7       13.173718   0.000000
    8       15.792658   0.000000
 
 -0.4375000E+00  0.4375000E+00  0.3125000E+00  0.2343750E-01
    1       -1.736694   1.000000
    2        1.259547   1.000000
    3        4.621242   1.000000
    4        6.094281   1.000000
    5       11.655887   0.000000
    6       12.388308   0.000000
    7       15.122285   0.000000
    8       15.910472   0.000000
 
 -0.3125000E+00  0.4375000E+00  0.3125000E+00  0.2343750E-01
    1       -0.657395   1.000000
    2        1.047615   1.000000
    3        3.247903   1.000000
    4        5.119787   1.000000
    5       11.248256   0.000000
    6       13.872054   0.000000
    7       15.101942   0.000000
    8       15.924239   0.000000
 
 -0.4375000E+00 -0.4375000E+00  0.3125000E+00  0.1171875E-01
    1       -1.237527   1.000000
    2        0.968264   1.000000
    3        4.000339   1.000000
    4        6.193777   1.000000
    5       10.070335   0.000000
    6       14.383005   0.000000
    7       14.883410   0.000000
    8       16.157945   0.000000
 
  0.4375000E+00  0.4375000E+00  0.4375000E+00  0.3906250E-02
    1       -2.389915   1.000000
    2        0.816359   1.000000
    3        7.421886   1.000000
    4        7.421886   1.000000
    5       11.308859   0.000000
    6       11.966441   0.000000
    7       11.966441   0.000000
    8       16.878113   0.000000
 
 -0.4375000E+00  0.4375000E+00  0.4375000E+00  0.1171875E-01
    1       -1.896860   1.000000
    2        0.610905   1.000000
    3        5.944445   1.000000
    4        7.040882   1.000000
    5       11.197544   0.000000
    6       12.715135   0.000000
    7       12.836973   0.000000
    8       17.873788   0.000000
