 running on    8 total cores
 distrk:  each k-point on    8 cores,    1 groups
 distr:  one band on    1 cores,    8 groups
 using from now: INCAR     
 vasp.5.4.4.18Apr17-6-g9f103f2a35 (build Dec 09 2018 21:25:21) complex          
  
 POSCAR found type information on POSCAR  Si
 POSCAR found :  1 types and       2 ions
 scaLAPACK will be used

 ----------------------------------------------------------------------------- 
|                                                                             |
|           W    W    AA    RRRRR   N    N  II  N    N   GGGG   !!!           |
|           W    W   A  A   R    R  NN   N  II  NN   N  G    G  !!!           |
|           W    W  A    A  R    R  N N  N  II  N N  N  G       !!!           |
|           W WW W  AAAAAA  RRRRR   N  N N  II  N  N N  G  GGG   !            |
|           WW  WW  A    A  R   R   N   NN  II  N   NN  G    G                |
|           W    W  A    A  R    R  N    N  II  N    N   GGGG   !!!           |
|                                                                             |
|      For optimal performance we recommend to set                            |
|        NCORE= 4 - approx SQRT( number of cores)                             |
|      NCORE specifies how many cores store one orbital (NPAR=cpu/NCORE).     |
|      This setting can  greatly improve the performance of VASP for DFT.     |
|      The default,   NCORE=1            might be grossly inefficient         |
|      on modern multi-core architectures or massively parallel machines.     |
|      Do your own testing !!!!                                               |
|      Unfortunately you need to use the default for GW and RPA calculations. |
|      (for HF NCORE is supported but not extensively tested yet)             |
|                                                                             |
 ----------------------------------------------------------------------------- 

 LDA part: xc-table for Pade appr. of Perdew
 POSCAR, INCAR and KPOINTS ok, starting setup
 FFT: planning ...
 WAVECAR not read
 entering main loop
       N       E                     dE             d eps       ncg     rms          rms(c)
DAV:   1     0.443291746729E+01    0.44329E+01   -0.28975E+03   968   0.579E+02
DAV:   2    -0.997417984728E+01   -0.14407E+02   -0.13835E+02  1512   0.757E+01
DAV:   3    -0.101086049977E+02   -0.13443E+00   -0.13442E+00  1152   0.939E+00
DAV:   4    -0.101090994558E+02   -0.49446E-03   -0.49446E-03  1656   0.610E-01
DAV:   5    -0.101090995404E+02   -0.84577E-07   -0.84968E-07  1144   0.771E-03    0.372E+00
DAV:   6    -0.983587799888E+01    0.27322E+00   -0.20424E-01  1056   0.243E+00    0.211E+00
DAV:   7    -0.972881198828E+01    0.10707E+00   -0.29551E-01  1192   0.305E+00    0.206E-01
DAV:   8    -0.973006972621E+01   -0.12577E-02   -0.66434E-03  1232   0.649E-01    0.354E-02
DAV:   9    -0.973009161283E+01   -0.21887E-04   -0.15366E-04   800   0.964E-02
   1 F= -.97300916E+01 E0= -.97287853E+01  d E =-.973009E+01
 curvature:   0.00 expect dE= 0.000E+00 dE for cont linesearch  0.000E+00
 trial: gam= 0.00000 g(F)=  0.202E-46 g(S)=  0.000E+00 ort = 0.000E+00 (trialstep = 0.100E+01)
 search vector abs. value=  0.100E-09
 reached required accuracy - stopping structural energy minimisation
 writing wavefunctions
