unknown system                          
   1.00000000000000     
    -2.310500    2.310500    1.318464
     2.310500   -2.310500    1.318464
     2.310500    2.310500   -1.318464
   Si
     2
Direct
  0.000000  0.000000  0.000000
  0.250000  0.750000  0.500000
 
   32   32   32
 -5.0320     -4.0161     -1.2607      2.4724      6.2371      9.2158      10.936      11.335      10.699      9.5062    
  8.2058      6.9881      5.9504      5.1429      4.5778      4.2468      4.1382      4.2468      4.5777      5.1428    
  5.9504      6.9881      8.2059      9.5062      10.699      11.335      10.936      9.2158      6.2371      2.4724    
 -1.2608     -4.0161     -4.0161     -4.4794     -2.9817     0.40728E-01  3.7594      7.2566      9.8148      11.088    
  11.124      10.275      9.0314      7.7601      6.6038      5.6446      4.9199      4.4340      4.1769      4.1380    
  4.3155      4.7173      5.3563      6.2373      7.3392      8.5999      9.9094      11.019      11.446      10.748    
  8.7217      5.5382      1.7691     -1.7194     -1.2608     -2.9817     -2.9084     -1.0762      1.9759      5.4154    
  8.4120      10.386      11.128      10.788      9.7596      8.5052      7.2825      6.2034      5.3334      4.6970    
  4.2926      4.1087      4.1374      4.3800      4.8471      5.5510      6.4920      7.6408      8.9250      10.223    
  11.239      11.492      10.598      8.4433      5.2897      1.7691      2.4724     0.40714E-01 -1.0762     -.56345    
  1.4062      4.2450      7.1767      9.5039      10.804      11.001      10.323      9.1798      7.9490      6.7936    
  5.8045      5.0302      4.4838      4.1591      4.0453      4.1368      4.4382      4.9616      5.7180      6.7030    
  7.8795      9.1674      10.436      11.365      11.505      10.542      8.4433      5.5382      6.2371      3.7594    
  1.9759      1.4062      2.2045      4.1019      6.5185      8.7836      10.359      10.979      10.684      9.7518    
  8.5692      7.3861      6.3140      5.4234      4.7467      4.2883      4.0391      3.9894      4.1366      4.4878    
  5.0560      5.8502      6.8607      8.0445      9.3169      10.543      11.406      11.505      10.598      8.7217    
  9.2158      7.2566      5.4154      4.2450      4.1019      5.0083      6.6488      8.5011      10.031      10.863    
  10.875      10.194      9.1190      7.9540      6.8396      5.8626      5.0743      4.4933      4.1175      3.9367    
  3.9431      4.1368      4.5270      5.1265      5.9415      6.9581      8.1288      9.3674      10.543      11.365    
  11.492      10.748      10.936      9.8148      8.4120      7.1767      6.5186      6.6489      7.4990      8.7544    
  9.9839      10.799      10.978      10.513      9.5866      8.4766      7.3598      6.3310      5.4560      4.7688    
  4.2777      3.9764      3.8550      3.9077      4.1374      4.5542      5.1700      5.9882      6.9911      8.1288    
  9.3169      10.436      11.239      11.446      11.335      11.088      10.386      9.5039      8.7836      8.5011    
  8.7544      9.4264      10.240      10.871      11.071      10.744      9.9663      8.9414      7.8571      6.8117    
  5.8796      5.1076      4.5159      4.1056      3.8685      3.7957      3.8839      4.1379      4.5681      5.1847    
  5.9882      6.9581      8.0445      9.1674      10.223      11.019      10.699      11.124      11.128      10.804    
  10.359      10.031      9.9839      10.240      10.670      11.056      11.181      10.916      10.261      9.3406    
  8.3181      7.2902      6.3326      5.5013      4.8275      4.3218      3.9807      3.7957      3.7599      3.8721    
  4.1382      4.5681      5.1700      5.9415      6.8607      7.8795      8.9250      9.9094      9.5062      10.275    
  10.788      11.001      10.979      10.863      10.799      10.871      11.056      11.239      11.270      11.026    
  10.471      9.6655      8.7315      7.7533      6.8032      5.9413      5.2080      4.6230      4.1904      3.9050    
  3.7591      3.7479      3.8721      4.1379      4.5542      5.1265      5.8502      6.7030      7.6408      8.5999    
  8.2059      9.0314      9.7596      10.323      10.684      10.875      10.978      11.071      11.181      11.270    
  11.251      11.036      10.578      9.9017      9.0831      8.1874      7.2793      6.4189      5.6524      5.0082    
  4.4987      4.1243      3.8797      3.7591      3.7599      3.8839      4.1374      4.5270      5.0560      5.7180    
  6.4920      7.3392      6.9881      7.7601      8.5052      9.1798      9.7518      10.194      10.513      10.744    
  10.916      11.026      11.036      10.891      10.554      10.029      9.3544      8.5753      7.7460      6.9226    
  6.1539      5.4753      4.9071      4.4570      4.1243      3.9050      3.7957      3.7957      3.9077      4.1368    
  4.4878      4.9616      5.5510      6.2373      5.9504      6.6038      7.2826      7.9491      8.5692      9.1190    
  9.5866      9.9663      10.261      10.471      10.578      10.554      10.371      10.024      9.5229      8.8952    
  8.1833      7.4360      6.7014      6.0189      5.4158      4.9071      4.4987      4.1904      3.9807      3.8685    
  3.8550      3.9431      4.1366      4.4382      4.8471      5.3563      5.1428      5.6446      6.2034      6.7936    
  7.3861      7.9540      8.4766      8.9414      9.3406      9.6655      9.9017      10.029      10.024      9.8714    
  9.5668      9.1224      8.5660      7.9364      7.2765      6.6266      6.0189      5.4753      5.0082      4.6230    
  4.3218      4.1056      3.9764      3.9367      3.9894      4.1368      4.3800      4.7173      4.5777      4.9198    
  5.3334      5.8045      6.3140      6.8396      7.3598      7.8571      8.3182      8.7315      9.0831      9.3544    
  9.5229      9.5668      9.4713      9.2339      8.8666      8.3946      7.8523      7.2765      6.7014      6.1539    
  5.6524      5.2080      4.8275      4.5159      4.2777      4.1175      4.0391      4.0453      4.1374      4.3155    
  4.2468      4.4340      4.6970      5.0302      5.4234      5.8626      6.3310      6.8117      7.2902      7.7533    
  8.1874      8.5753      8.8952      9.1224      9.2339      9.2141      9.0592      8.7788      8.3946      7.9364    
  7.4360      6.9226      6.4189      5.9413      5.5013      5.1076      4.7688      4.4933      4.2883      4.1591    
  4.1087      4.1380      4.1382      4.1769      4.2926      4.4838      4.7467      5.0743      5.4560      5.8796    
  6.3326      6.8032      7.2793      7.7460      8.1832      8.5660      8.8666      9.0592      9.1256      9.0592    
  8.8666      8.5660      8.1833      7.7460      7.2793      6.8032      6.3326      5.8796      5.4560      5.0743    
  4.7467      4.4838      4.2926      4.1769      4.2468      4.1381      4.1088      4.1592      4.2883      4.4933    
  4.7689      5.1076      5.5013      5.9414      6.4189      6.9226      7.4360      7.9364      8.3946      8.7788    
  9.0592      9.2141      9.2339      9.1224      8.8952      8.5753      8.1874      7.7533      7.2902      6.8117    
  6.3310      5.8626      5.4234      5.0302      4.6970      4.4340      4.5778      4.3155      4.1375      4.0454    
  4.0392      4.1176      4.2778      4.5159      4.8275      5.2080      5.6524      6.1539      6.7014      7.2765    
  7.8523      8.3946      8.8666      9.2339      9.4713      9.5668      9.5229      9.3544      9.0831      8.7315    
  8.3181      7.8571      7.3598      6.8396      6.3140      5.8045      5.3334      4.9199      5.1429      4.7174    
  4.3801      4.1369      3.9895      3.9368      3.9764      4.1056      4.3218      4.6230      5.0082      5.4753    
  6.0189      6.6266      7.2765      7.9364      8.5660      9.1224      9.5668      9.8714      10.024      10.029    
  9.9017      9.6655      9.3406      8.9414      8.4766      7.9540      7.3861      6.7936      6.2034      5.6446    
  5.9504      5.3564      4.8471      4.4383      4.1366      3.9431      3.8549      3.8685      3.9807      4.1904    
  4.4987      4.9071      5.4158      6.0189      6.7014      7.4360      8.1832      8.8952      9.5229      10.024    
  10.371      10.554      10.578      10.471      10.261      9.9663      9.5866      9.1190      8.5692      7.9490    
  7.2825      6.6038      6.9881      6.2373      5.5510      4.9616      4.4878      4.1368      3.9077      3.7956    
  3.7957      3.9050      4.1242      4.4570      4.9071      5.4753      6.1539      6.9226      7.7460      8.5753    
  9.3544      10.029      10.554      10.891      11.036      11.026      10.916      10.744      10.513      10.194    
  9.7518      9.1798      8.5052      7.7601      8.2058      7.3392      6.4920      5.7180      5.0560      4.5270    
  4.1373      3.8839      3.7598      3.7591      3.8797      4.1242      4.4987      5.0082      5.6524      6.4189    
  7.2793      8.1874      9.0831      9.9017      10.578      11.036      11.251      11.270      11.181      11.071    
  10.978      10.875      10.684      10.323      9.7596      9.0314      9.5062      8.5999      7.6408      6.7030    
  5.8501      5.1264      4.5541      4.1378      3.8720      3.7478      3.7591      3.9050      4.1904      4.6230    
  5.2080      5.9414      6.8032      7.7533      8.7315      9.6655      10.471      11.026      11.270      11.239    
  11.056      10.871      10.799      10.863      10.979      11.001      10.788      10.275      10.699      9.9094    
  8.9250      7.8795      6.8607      5.9415      5.1699      4.5680      4.1380      3.8720      3.7598      3.7957    
  3.9807      4.3218      4.8275      5.5013      6.3326      7.2902      8.3182      9.3406      10.261      10.916    
  11.181      11.056      10.670      10.240      9.9839      10.031      10.359      10.804      11.128      11.124    
  11.335      11.019      10.223      9.1675      8.0445      6.9581      5.9882      5.1846      4.5680      4.1378    
  3.8839      3.7956      3.8685      4.1056      4.5159      5.1076      5.8796      6.8117      7.8571      8.9414    
  9.9663      10.744      11.071      10.871      10.240      9.4264      8.7544      8.5011      8.7836      9.5039    
  10.386      11.088      10.936      11.446      11.239      10.436      9.3169      8.1288      6.9911      5.9882    
  5.1699      4.5541      4.1373      3.9077      3.8549      3.9764      4.2778      4.7689      5.4560      6.3310    
  7.3598      8.4766      9.5866      10.513      10.978      10.799      9.9839      8.7544      7.4990      6.6488    
  6.5185      7.1767      8.4120      9.8148      9.2158      10.748      11.492      11.365      10.543      9.3674    
  8.1288      6.9581      5.9415      5.1264      4.5270      4.1368      3.9431      3.9368      4.1176      4.4933    
  5.0743      5.8626      6.8396      7.9540      9.1190      10.194      10.875      10.863      10.031      8.5011    
  6.6489      5.0083      4.1019      4.2450      5.4154      7.2566      6.2371      8.7217      10.598      11.505    
  11.406      10.543      9.3169      8.0445      6.8607      5.8501      5.0560      4.4878      4.1366      3.9895    
  4.0392      4.2883      4.7467      5.4234      6.3140      7.3861      8.5692      9.7518      10.684      10.979    
  10.359      8.7836      6.5186      4.1019      2.2045      1.4062      1.9759      3.7594      2.4724      5.5381    
  8.4434      10.542      11.505      11.365      10.436      9.1675      7.8795      6.7030      5.7180      4.9616    
  4.4383      4.1369      4.0454      4.1592      4.4838      5.0302      5.8045      6.7936      7.9491      9.1798    
  10.323      11.001      10.804      9.5039      7.1767      4.2450      1.4062     -.56345     -1.0762     0.40728E-01
 -1.2607      1.7691      5.2897      8.4434      10.598      11.492      11.239      10.223      8.9250      7.6408    
  6.4920      5.5510      4.8471      4.3801      4.1375      4.1088      4.2926      4.6970      5.3334      6.2034    
  7.2826      8.5052      9.7596      10.788      11.128      10.386      8.4120      5.4154      1.9759     -1.0762    
 -2.9084     -2.9817     -4.0161     -1.7194      1.7691      5.5381      8.7217      10.748      11.446      11.019    
  9.9094      8.5999      7.3392      6.2373      5.3564      4.7174      4.3155      4.1381      4.1769      4.4340    
  4.9198      5.6446      6.6038      7.7601      9.0314      10.275      11.124      11.088      9.8148      7.2566    
  3.7594     0.40714E-01 -2.9817     -4.4794     -4.0160     -3.2943     -.89009      2.5301      6.0848      8.9733    
  10.697      11.146      10.559      9.3874      8.0832      6.8520      5.7945      4.9638      4.3732      4.0139    
  3.8721      3.9407      4.2233      4.7318      5.4774      6.4548      7.6234      8.8961      10.116      10.893    
  10.750      9.3778      6.7844      3.3661     -.14130     -2.8519     -3.2943     -4.0162     -2.8521     -.14127    
  3.3662      6.7844      9.3778      10.750      10.893      10.117      8.8960      7.6233      6.4548      5.4775    
  4.7318      4.2233      3.9407      3.8722      4.0139      4.3731      4.9638      5.7946      6.8521      8.0832    
  9.3873      10.559      11.146      10.697      8.9732      6.0848      2.5302     -.88999     -.77605     -2.7293    
 -2.9816     -1.4744      1.3442      4.6929      7.7375      9.8510      10.759      10.556      9.6023      8.3661    
  7.1420      6.0510      5.1643      4.5096      4.0857      3.8803      3.8840      4.0970      4.5299      5.1968    
  6.1030      7.2265      8.5031      9.8210      10.924      11.341      10.669      8.7492      5.7818      2.3350    
  2.8204     0.18503     -1.2460     -1.0763     0.61899      3.3240      6.2815      8.7589      10.267      10.661    
  10.120      9.0349      7.8165      6.6577      5.6567      4.8674      4.3056      3.9653      3.8348      3.9077    
  4.1877      4.6878      5.4217      6.3900      7.5626      8.8661      10.179      11.210      11.505      10.721    
  8.7766      5.9439      6.5508      3.9085      1.8394     0.92325      1.4062      3.1066      5.4898      7.8733    
  9.6618      10.516      10.411      9.5908      8.4433      7.2673      6.1891      5.2866      4.5971      4.1269    
  3.8669      3.8067      3.9431      4.2831      4.8412      5.6296      6.6436      7.8457      9.1564      10.448    
  11.419      11.653      10.873      9.0675      9.5732      7.4977      5.4204      3.9284      3.4519      4.1019    
  5.6298      7.5303      9.2338      10.299      10.530      10.004      8.9992      7.8522      6.7385      5.7530    
  4.9536      4.3628      3.9796      3.7938      3.7971      3.9893      4.3802      4.9845      5.8118      6.8523    
  8.0630      9.3607      10.618      11.546      11.781      11.109      11.380      10.194      8.6195      7.1155    
  6.1410      5.9835      6.6487      7.8642      9.1924      10.197      10.588      10.297      9.4713      8.3923    
  7.2828      6.2491      5.3646      4.6684      4.1714      3.8681      3.7485      3.8067      4.0453      4.4756    
  5.1117      5.9602      7.0067      8.2038      9.4680      10.679      11.580      11.866      11.874      11.612    
  10.806      9.7255      8.7383      8.1750      8.2010      8.7543      9.5764      10.322      10.689      10.525    
  9.8587      8.8769      7.8040      6.7570      5.8167      5.0359      4.4386      4.0277      3.7952      3.7320    
  3.8348      4.1087      4.5654      5.2175      6.0680      7.0985      8.2600      9.4709      10.623      11.507    
  11.311      11.766      11.730      11.282      10.638      10.070      9.7922      9.8801      10.240      10.654    
  10.878      10.734      10.176      9.3012      8.2891      7.2607      6.2958      5.4557      4.7762      4.2701    
  3.9348      3.7619      3.7441      3.8802      4.1769      4.6455      5.2964      6.1292      7.1226      8.2271    
  9.3664      10.446      10.152      10.985      11.512      11.671      11.525      11.228      10.963      10.854    
  10.917      11.055      11.109      10.926      10.432      9.6583      8.7273      7.7462      6.7883      5.9175    
  5.1780      4.5925      4.1662      3.8942      3.7684      3.7837      3.9407      4.2468      4.7122      5.3446    
  6.1402      7.0760      8.1048      9.1572      8.8516      9.7534      10.534      11.102      11.406      11.484    
  11.434      11.364      11.334      11.329      11.270      11.053      10.609      9.9349      9.1051      8.1991    
  7.2803      6.4098      5.6366      4.9918      4.4890      4.1290      3.9062      3.8139      3.8490      4.0139    
  4.3154      4.7623      5.3590      6.0994      6.9600      7.8976      7.6148      8.4637      9.2697      9.9815    
  10.552      10.941      11.163      11.268      11.310      11.307      11.233      11.036      10.664      10.107    
  9.4027      8.6020      7.7559      6.9197      6.1435      5.4641      4.9031      4.4685      4.1592      3.9701    
  3.8969      3.9381      4.0971      4.3800      4.7933      5.3386      6.0081      6.7794      6.5429      7.2707    
  8.0125      8.7235      9.3630      9.9021      10.322      10.619      10.810      10.910      10.917      10.808    
  10.554      10.144      9.5950      8.9321      8.1946      7.4301      6.6860      6.0022      5.4069      4.9152    
  4.5321      4.2565      4.0850      4.0155      4.0485      4.1878      4.4382      4.8038      5.2840      5.8702    
  5.6927      6.2626      6.8823      7.5199      8.1403      8.7115      9.2102      9.6242      9.9492      10.183    
  10.320      10.350      10.255      10.024      9.6560      9.1629      8.5711      7.9181      7.2456      6.5934    
  5.9939      5.4686      5.0292      4.6795      4.4196      4.2487      4.1672      4.1775      4.2832      4.4878    
  4.7933      5.1976      5.0836      5.4844      5.9525      6.4691      7.0096      7.5470      8.0564      8.5191    
  8.9232      9.2611      9.5247      9.7023      9.7782      9.7365      9.5668      9.2693      8.8571      8.3549    
  7.7959      7.2164      6.6494      6.1213      5.6496      5.2439      4.9085      4.6458      4.4582      4.3488    
  4.3217      4.3803      4.5270      4.7623      4.7122      4.9476      5.2559      5.6281      6.0504      6.5043    
  6.9696      7.4272      7.8621      8.2631      8.6204      8.9219      9.1516      9.2907      9.3219      9.2339    
  9.0260      8.7089      8.3041      7.8401      7.3477      6.8546      6.3826      5.9464      5.5552      5.2147    
  4.9305      4.7087      4.5556      4.4767      4.4757      4.5542      4.5681      4.6455      4.7965      5.0180    
  5.3039      5.6442      6.0253      6.4322      6.8510      7.2701      7.6795      8.0677      8.4194      8.7151    
  8.9326      9.0519      9.0592      8.9507      8.7339      8.4261      8.0515      7.6358      7.2026      6.7701    
  6.3513      5.9553      5.5906      5.2666      4.9936      4.7813      4.6371      4.5653      4.6455      4.5681    
  4.5654      4.6371      4.7813      4.9936      5.2666      5.5906      5.9552      6.3512      6.7701      7.2026    
  7.6358      8.0514      8.4261      8.7339      8.9507      9.0592      9.0519      8.9326      8.7151      8.4194    
  8.0677      7.6795      7.2702      6.8510      6.4322      6.0253      5.6442      5.3039      5.0179      4.7964    
  4.9477      4.7122      4.5542      4.4756      4.4767      4.5556      4.7087      4.9305      5.2147      5.5552    
  5.9465      6.3826      6.8545      7.3477      7.8401      8.3041      8.7089      9.0260      9.2339      9.3219    
  9.2907      9.1516      8.9219      8.6204      8.2631      7.8621      7.4272      6.9696      6.5043      6.0503    
  5.6280      5.2559      5.4845      5.0836      4.7622      4.5270      4.3803      4.3217      4.3488      4.4581    
  4.6458      4.9085      5.2439      5.6496      6.1213      6.6494      7.2164      7.7959      8.3549      8.8571    
  9.2693      9.5668      9.7364      9.7782      9.7024      9.5248      9.2611      8.9232      8.5192      8.0564    
  7.5469      7.0095      6.4691      5.9526      6.2625      5.6927      5.1976      4.7933      4.4878      4.2832    
  4.1775      4.1672      4.2487      4.4196      4.6795      5.0292      5.4686      5.9939      6.5934      7.2456    
  7.9181      8.5712      9.1629      9.6560      10.024      10.255      10.350      10.320      10.183      9.9492    
  9.6242      9.2102      8.7115      8.1403      7.5199      6.8823      7.2706      6.5429      5.8703      5.2840    
  4.8038      4.4381      4.1877      4.0485      4.0154      4.0850      4.2565      4.5321      4.9152      5.4069    
  6.0022      6.6860      7.4301      8.1946      8.9321      9.5950      10.144      10.554      10.808      10.917    
  10.910      10.810      10.619      10.322      9.9021      9.3630      8.7235      8.0124      8.4637      7.6148    
  6.7793      6.0080      5.3386      4.7933      4.3800      4.0970      3.9381      3.8968      3.9701      4.1592    
  4.4685      4.9031      5.4641      6.1435      6.9197      7.7559      8.6021      9.4027      10.107      10.664    
  11.036      11.233      11.307      11.310      11.268      11.163      10.941      10.552      9.9814      9.2697    
  9.7534      8.8516      7.8975      6.9600      6.0994      5.3590      4.7623      4.3154      4.0138      3.8490    
  3.8139      3.9061      4.1290      4.4890      4.9918      5.6366      6.4098      7.2803      8.1992      9.1051    
  9.9349      10.609      11.053      11.269      11.329      11.334      11.364      11.434      11.484      11.406    
  11.102      10.534      10.985      10.152      9.1572      8.1048      7.0760      6.1402      5.3446      4.7122    
  4.2467      3.9407      3.7837      3.7684      3.8942      4.1662      4.5924      5.1780      5.9175      6.7883    
  7.7462      8.7273      9.6583      10.432      10.926      11.109      11.055      10.917      10.854      10.963    
  11.228      11.525      11.671      11.512      11.766      11.311      10.446      9.3665      8.2271      7.1225    
  6.1292      5.2964      4.6455      4.1768      3.8802      3.7441      3.7619      3.9348      4.2701      4.7762    
  5.4558      6.2958      7.2607      8.2891      9.3012      10.176      10.734      10.878      10.654      10.240    
  9.8801      9.7921      10.070      10.638      11.282      11.729      11.612      11.874      11.507      10.623    
  9.4709      8.2600      7.0986      6.0680      5.2174      4.5654      4.1087      3.8349      3.7320      3.7952    
  4.0277      4.4386      5.0358      5.8167      6.7571      7.8040      8.8769      9.8586      10.525      10.689    
  10.322      9.5764      8.7543      8.2011      8.1750      8.7384      9.7254      10.806      10.195      11.380    
  11.866      11.580      10.679      9.4680      8.2038      7.0066      5.9602      5.1118      4.4756      4.0453    
  3.8067      3.7486      3.8682      4.1713      4.6683      5.3646      6.2492      7.2828      8.3922      9.4713    
  10.297      10.588      10.197      9.1924      7.8643      6.6489      5.9836      6.1410      7.1154      8.6195    
  7.4977      9.5731      11.109      11.781      11.546      10.618      9.3607      8.0630      6.8523      5.8118    
  4.9845      4.3803      3.9894      3.7971      3.7938      3.9796      4.3628      4.9537      5.7530      6.7385    
  7.8522      8.9992      10.004      10.530      10.299      9.2339      7.5304      5.6298      4.1019      3.4519    
  3.9285      5.4206      3.9084      6.5508      9.0676      10.873      11.653      11.419      10.448      9.1564    
  7.8457      6.6435      5.6295      4.8412      4.2832      3.9431      3.8066      3.8669      4.1269      4.5971    
  5.2866      6.1890      7.2674      8.4434      9.5908      10.411      10.516      9.6619      7.8733      5.4898    
  3.1066      1.4064     0.92349      1.8395     0.18504      2.8205      5.9440      8.7766      10.720      11.505    
  11.210      10.179      8.8660      7.5626      6.3900      5.4217      4.6877      4.1877      3.9077      3.8349    
  3.9653      4.3055      4.8673      5.6567      6.6577      7.8165      9.0348      10.120      10.661      10.267    
  8.7588      6.2815      3.3242     0.61922     -1.0761     -1.2460     -2.7291     -.77588      2.3350      5.7817    
  8.7492      10.669      11.341      10.924      9.8210      8.5031      7.2266      6.1030      5.1967      4.5298    
  4.0971      3.8840      3.8802      4.0856      4.5096      5.1644      6.0510      7.1419      8.3661      9.6024    
  10.556      10.759      9.8509      7.7376      4.6930      1.3443     -1.4744     -2.9816     -1.2605     -.77589    
  1.1824      4.0597      7.0875      9.5482      10.980      11.265      10.609      9.4169      8.1060      6.8659    
  5.7941      4.9433      4.3276      3.9380      3.7598      3.7836      4.0108      4.4521      5.1202      6.0153    
  7.1083      8.3271      9.5511      10.490      10.704      9.8703      7.9334      5.1854      2.2362     -.14117    
 -.88997     -1.7193     -.88997      1.3524      4.3676      7.3610      9.6482      10.840      10.903      10.105    
  8.8849      7.6126      6.4389      5.4503      4.6877      4.1578      3.8490      3.7479      3.8490      4.1578    
  4.6878      5.4503      6.4389      7.6125      8.8849      10.105      10.902      10.840      9.6483      7.3610    
  4.3676      1.3524      1.1824     -.77592     -1.2606     -.14116      2.2362      5.1854      7.9334      9.8703    
  10.704      10.490      9.5511      8.3271      7.1083      6.0153      5.1202      4.4521      4.0108      3.7837    
  3.7599      3.9380      4.3276      4.9434      5.7941      6.8658      8.1059      9.4169      10.609      11.265    
  10.980      9.5482      7.0875      4.0597      4.3314      1.7627     0.18514     0.40813E-01  1.3443      3.6772    
  6.3525      8.6652      10.114      10.518      10.015      8.9624      7.7617      6.6110      5.6101      4.8152    
  4.2439      3.8909      3.7441      3.7957      4.0485      4.5149      5.2103      6.1395      7.2803      8.5701    
  9.9032      11.052      11.595      11.168      9.6395      7.1929      7.6798      5.1471      3.0018      1.8394    
  1.9760      3.3241      5.4300      7.6519      9.3913      10.275      10.235      9.4751      8.3630      7.2065    
  6.1375      5.2371      4.5451      4.0696      3.8022      3.7321      3.8550      4.1775      4.7142      5.4795    
  6.4732      7.6656      8.9862      10.323      11.428      11.898      11.426      9.9425      10.423      8.4735    
  6.3751      4.7026      3.9285      4.2451      5.4897      7.2136      8.8594      9.9592      10.274      9.8345    
  8.8897      7.7741      6.6793      5.7033      4.9078      4.3181      3.9347      3.7477      3.7486      3.9367    
  4.3217      4.9190      5.7408      6.7817      8.0052      9.3353      10.658      11.724      12.167      11.739    
  12.062      10.998      9.4397      7.8170      6.6024      6.1409      6.5183      7.5302      8.7699      9.7904    
  10.263      10.073      9.3286      8.2951      7.2134      6.1965      5.3218      4.6320      4.1405      3.8428    
  3.7293      3.7939      4.0392      4.4767      5.1219      5.9836      7.0514      8.2827      9.5991      10.889    
  11.920      12.376      12.490      12.331      11.561      10.413      9.2480      8.4259      8.1749      8.5010    
  9.1923      9.9122      10.335      10.263      9.6861      8.7622      7.7229      6.6990      5.7737      5.0039    
  4.4167      4.0165      3.7965      3.7477      3.8669      4.1592      4.6371      5.3147      6.1971      7.2686    
  8.4830      9.7613      10.998      11.996      11.931      12.469      12.475      11.997      11.233      10.461    
  9.9370      9.7920      9.9837      10.322      10.553      10.471      9.9904      9.1747      8.1972      7.1949    
  6.2490      5.4237      4.7580      4.2668      3.9490      3.7965      3.8023      3.9654      4.2926      4.7965    
  5.4888      6.3704      7.4215      8.5934      9.8093      10.973      10.809      11.711      12.282      12.436    
  12.215      11.771      11.304      10.978      10.854      10.871      10.878      10.710      10.261      9.5312    
  8.6282      7.6712      6.7336      5.8800      5.1573      4.5903      4.1856      3.9388      3.8424      3.8910    
  4.0857      4.4341      4.9477      5.6354      6.4939      7.5000      8.6049      9.7364      9.5433      10.510    
  11.337      11.917      12.182      12.160      11.957      11.701      11.488      11.334      11.181      10.926    
  10.483      9.8237      9.0053      8.1148      7.2133      6.3604      5.6060      4.9825      4.5048      4.1745    
  3.9859      3.9325      4.0108      4.2233      4.5777      5.0837      5.7466      6.5598      7.4980      8.5143    
  8.3244      9.2385      10.093      10.829      11.387      11.716      11.828      11.785      11.662      11.504    
  11.307      11.026      10.609      10.028      9.3102      8.5097      7.6727      6.8511      6.0936      5.4375    
  4.9050      4.5042      4.2341      4.0892      4.0643      4.1579      4.3732      4.7173      5.1976      5.8161    
  6.5633      7.4137      7.2508      8.0449      8.8380      9.5784      10.219      10.727      11.075      11.261    
  11.314      11.269      11.139      10.917      10.578      10.107      9.5164      8.8337      8.0922      7.3351    