unknown system                          
   1.00000000000000     
    -2.310500    2.310500    1.318464
     2.310500   -2.310500    1.318464
     2.310500    2.310500   -1.318464
   Si
     2
Direct
  0.000000  0.000000  0.000000
  0.250000  0.750000  0.500000
 
   32   32   32
 -.50319795860E+01 -.40160708252E+01 -.12607468709E+01 0.24724202827E+01 0.62371469768E+01
 0.92158363953E+01 0.10935590426E+02 0.11334984194E+02 0.10698519893E+02 0.95062246612E+01
 0.82058487029E+01 0.69881002868E+01 0.59503946970E+01 0.51428841976E+01 0.45777520247E+01
 0.42468218082E+01 0.41382178508E+01 0.42468265009E+01 0.45777299331E+01 0.51428420246E+01
 0.59503765406E+01 0.69881132255E+01 0.82058542477E+01 0.95062090508E+01 0.10698509311E+02
 0.11334986396E+02 0.10935584538E+02 0.92158227077E+01 0.62371452183E+01 0.24724189828E+01
 -.12607761159E+01 -.40161098926E+01 -.40161098926E+01 -.44793913878E+01 -.29816653475E+01
 0.40728254760E-01 0.37594270160E+01 0.72566150711E+01 0.98147828672E+01 0.11087544087E+02
 0.11123806662E+02 0.10274827023E+02 0.90314346051E+01 0.77601375134E+01 0.66037746325E+01
 0.56446351654E+01 0.49198518872E+01 0.44340281939E+01 0.41768852197E+01 0.41380306617E+01
 0.43154664736E+01 0.47173054951E+01 0.53563287882E+01 0.62372684770E+01 0.73392227480E+01
 0.85998520857E+01 0.99093591953E+01 0.11019429540E+02 0.11446197381E+02 0.10747525436E+02
 0.87216661194E+01 0.55381511008E+01 0.17691234941E+01 -.17193805427E+01 -.12607761159E+01
 -.29816944921E+01 -.29084368088E+01 -.10761770193E+01 0.19759317728E+01 0.54153999542E+01
 0.84120146093E+01 0.10385840049E+02 0.11128134085E+02 0.10787902594E+02 0.97595832654E+01
 0.85051650384E+01 0.72825343683E+01 0.62034254564E+01 0.53333906127E+01 0.46970340594E+01
 0.42925825014E+01 0.41087353594E+01 0.41373987249E+01 0.43800017943E+01 0.48470937674E+01
 0.55510206337E+01 0.64920202113E+01 0.76408311583E+01 0.89250087246E+01 0.10223039190E+02
 0.11238835452E+02 0.11491904916E+02 0.10597957236E+02 0.84433415296E+01 0.52897252500E+01
 0.17691234941E+01 0.24724189828E+01 0.40714297669E-01 -.10761873907E+01 -.56344967573E+00
 0.14062337924E+01 0.42450370919E+01 0.71767325847E+01 0.95038575971E+01 0.10803733660E+02
 0.11000886768E+02 0.10323394264E+02 0.91798257318E+01 0.79490382790E+01 0.67935657146E+01
 0.58045068196E+01 0.50301504192E+01 0.44837925402E+01 0.41591385170E+01 0.40452796639E+01
 0.41368368597E+01 0.44382108601E+01 0.49615568774E+01 0.57180231094E+01 0.67030010840E+01
 0.78795225960E+01 0.91674257237E+01 0.10435886392E+02 0.11364711441E+02 0.11505050998E+02
 0.10541584170E+02 0.84433415296E+01 0.55381511008E+01 0.62371452183E+01 0.37594305108E+01
 0.19759318999E+01 0.14062357127E+01 0.22044894284E+01 0.41019231385E+01 0.65185461971E+01
 0.87836035097E+01 0.10358668470E+02 0.10978867202E+02 0.10683549988E+02 0.97518001042E+01
 0.85691778521E+01 0.73861107256E+01 0.63139845246E+01 0.54234201689E+01 0.47467150578E+01
 0.42882839140E+01 0.40391253001E+01 0.39894232015E+01 0.41365947356E+01 0.44877595597E+01
 0.50559565121E+01 0.58501712730E+01 0.68607374735E+01 0.80445070742E+01 0.93168571059E+01
 0.10543150644E+02 0.11405621753E+02 0.11505050998E+02 0.10597957236E+02 0.87216661194E+01
 0.92158227077E+01 0.72566065261E+01 0.54153961374E+01 0.42450424609E+01 0.41019327513E+01
 0.50082817394E+01 0.66488462160E+01 0.85011153868E+01 0.10030526295E+02 0.10862651839E+02
 0.10874688829E+02 0.10193691243E+02 0.91190029880E+01 0.79539804613E+01 0.68395725824E+01
 0.58626236584E+01 0.50742570685E+01 0.44932844923E+01 0.41175220458E+01 0.39367439091E+01
 0.39430575754E+01 0.41367812594E+01 0.45269830504E+01 0.51264597628E+01 0.59415162905E+01
 0.69581149336E+01 0.81288062217E+01 0.93674148652E+01 0.10543150644E+02 0.11364711441E+02
 0.11491904916E+02 0.10747525436E+02 0.10935584538E+02 0.98147645014E+01 0.84119977345E+01
 0.71767303694E+01 0.65185570423E+01 0.66488562415E+01 0.74989678817E+01 0.87543532867E+01
 0.99839226572E+01 0.10799408620E+02 0.10978122074E+02 0.10512917137E+02 0.95865809562E+01
 0.84766244834E+01 0.73597885376E+01 0.63309713580E+01 0.54560208275E+01 0.47688397024E+01
 0.42777272496E+01 0.39764200128E+01 0.38549522847E+01 0.39077017162E+01 0.41373694493E+01
 0.45541501381E+01 0.51699529890E+01 0.59882019265E+01 0.69910953660E+01 0.81288062217E+01
 0.93168571059E+01 0.10435886392E+02 0.11238835452E+02 0.11446197381E+02 0.11334986396E+02
 0.11087541890E+02 0.10385833739E+02 0.95038524943E+01 0.87836039646E+01 0.85011209562E+01
 0.87543587236E+01 0.94264017801E+01 0.10239763482E+02 0.10871043406E+02 0.11071065842E+02
 0.10744224910E+02 0.99663270625E+01 0.89414177761E+01 0.78570621900E+01 0.68117357758E+01
 0.58796360594E+01 0.51076054703E+01 0.45158905552E+01 0.41056181237E+01 0.38685091800E+01
 0.37957036207E+01 0.38839482113E+01 0.41379052454E+01 0.45680852330E+01 0.51847053922E+01
 0.59882019265E+01 0.69581149336E+01 0.80445070742E+01 0.91674257237E+01 0.10223039190E+02
 0.11019429540E+02 0.10698509311E+02 0.11123817555E+02 0.11128149449E+02 0.10803739697E+02
 0.10358666724E+02 0.10030525623E+02 0.99839266889E+01 0.10239768154E+02 0.10669726341E+02
 0.11055508668E+02 0.11181099875E+02 0.10916304203E+02 0.10261247724E+02 0.93406054645E+01
 0.83181470899E+01 0.72901672443E+01 0.63326143232E+01 0.55012594925E+01 0.48275259120E+01
 0.43217655945E+01 0.39807065664E+01 0.37957305263E+01 0.37598565919E+01 0.38720663077E+01
 0.41381655751E+01 0.45680852330E+01 0.51699529890E+01 0.59415162905E+01 0.68607374735E+01
 0.78795225960E+01 0.89250087246E+01 0.99093591953E+01 0.95062090508E+01 0.10274829050E+02
 0.10787913216E+02 0.11000896534E+02 0.10978876271E+02 0.10862660734E+02 0.10799414720E+02
 0.10871047478E+02 0.11055512681E+02 0.11238895924E+02 0.11269513440E+02 0.11026180007E+02
 0.10470680215E+02 0.96655035001E+01 0.87314537333E+01 0.77532602530E+01 0.68032027417E+01
 0.59413478386E+01 0.52080014392E+01 0.46230416383E+01 0.41904460980E+01 0.39050349661E+01
 0.37591482366E+01 0.37479052152E+01 0.38720663077E+01 0.41379052454E+01 0.45541501381E+01
 0.51264597628E+01 0.58501712730E+01 0.67030010840E+01 0.76408311583E+01 0.85998520857E+01
 0.82058542477E+01 0.90314314840E+01 0.97595754568E+01 0.10323392301E+02 0.10683562535E+02
 0.10874709576E+02 0.10978135247E+02 0.11071068093E+02 0.11181102962E+02 0.11269520843E+02
 0.11250680739E+02 0.11035659083E+02 0.10578048200E+02 0.99017096237E+01 0.90830909911E+01
 0.81873710025E+01 0.72792970579E+01 0.64189007629E+01 0.56523725128E+01 0.50082249081E+01
 0.44986733238E+01 0.41242842963E+01 0.38797375042E+01 0.37591482366E+01 0.37598565919E+01
 0.38839482113E+01 0.41373694493E+01 0.45269830504E+01 0.50559565121E+01 0.57180231094E+01
 0.64920202113E+01 0.73392227480E+01 0.69881132255E+01 0.77601438797E+01 0.85051648081E+01
 0.91798238318E+01 0.97518032832E+01 0.10193703106E+02 0.10512930707E+02 0.10744230476E+02
 0.10916305430E+02 0.11026187741E+02 0.11035670008E+02 0.10890877994E+02 0.10553711616E+02
 0.10028635914E+02 0.93543835632E+01 0.85753253325E+01 0.77459603248E+01 0.69225592120E+01
 0.61539092759E+01 0.54753289121E+01 0.49071398120E+01 0.44569856799E+01 0.41242842963E+01
 0.39050349661E+01 0.37957305263E+01 0.37957036207E+01 0.39077017162E+01 0.41367812594E+01
 0.44877595597E+01 0.49615568774E+01 0.55510206337E+01 0.62372684770E+01 0.59503765406E+01
 0.66037781570E+01 0.72825556539E+01 0.79490566905E+01 0.85691783690E+01 0.91189963859E+01
 0.95865851646E+01 0.99663385430E+01 0.10261251923E+02 0.10470679506E+02 0.10578055270E+02
 0.10553722637E+02 0.10371175329E+02 0.10024040819E+02 0.95228631830E+01 0.88952424179E+01
 0.81832501959E+01 0.74360352437E+01 0.67014248045E+01 0.60188915234E+01 0.54157586284E+01
 0.49071398120E+01 0.44986733238E+01 0.41904460980E+01 0.39807065664E+01 0.38685091800E+01
 0.38549522847E+01 0.39430575754E+01 0.41365947356E+01 0.44382108601E+01 0.48470937674E+01
 0.53563287882E+01 0.51428420246E+01 0.56446208939E+01 0.62034406468E+01 0.67935908112E+01
 0.73861211313E+01 0.79539748939E+01 0.84766232615E+01 0.89414291911E+01 0.93406139259E+01
 0.96654985807E+01 0.99017042393E+01 0.10028642696E+02 0.10024050620E+02 0.98714066407E+01
 0.95667812456E+01 0.91224185328E+01 0.85660464987E+01 0.79364107776E+01 0.72765114663E+01
 0.66265941387E+01 0.60188915234E+01 0.54753289121E+01 0.50082249081E+01 0.46230416383E+01
 0.43217655945E+01 0.41056181237E+01 0.39764200128E+01 0.39367439091E+01 0.39894232015E+01
 0.41368368597E+01 0.43800017943E+01 0.47173054951E+01 0.45777299331E+01 0.49198405542E+01
 0.53333853641E+01 0.58045137926E+01 0.63140011989E+01 0.68395856064E+01 0.73597930915E+01
 0.78570666566E+01 0.83181542023E+01 0.87314553063E+01 0.90830851698E+01 0.93543804383E+01
 0.95228677653E+01 0.95667861905E+01 0.94713226989E+01 0.92339158856E+01 0.88665915184E+01
 0.83946447793E+01 0.78522646833E+01 0.72765114663E+01 0.67014248045E+01 0.61539092759E+01
 0.56523725128E+01 0.52080014392E+01 0.48275259120E+01 0.45158905552E+01 0.42777272496E+01
 0.41175220458E+01 0.40391253001E+01 0.40452796639E+01 0.41373987249E+01 0.43154664736E+01
 0.42468265009E+01 0.44340460292E+01 0.46970423968E+01 0.50301570555E+01 0.54234390979E+01
 0.58626470289E+01 0.63309823602E+01 0.68117358635E+01 0.72901707200E+01 0.77532692279E+01
 0.81873751293E+01 0.85753218543E+01 0.88952391982E+01 0.91224191860E+01 0.92339166661E+01
 0.92141243293E+01 0.90591932279E+01 0.87787870077E+01 0.83946447793E+01 0.79364107776E+01
 0.74360352437E+01 0.69225592120E+01 0.64189007629E+01 0.59413478386E+01 0.55012594925E+01
 0.51076054703E+01 0.47688397024E+01 0.44932844923E+01 0.42882839140E+01 0.41591385170E+01
 0.41087353594E+01 0.41380306617E+01 0.41382178508E+01 0.41769222592E+01 0.42926342809E+01
 0.44838383588E+01 0.47467491873E+01 0.50742798673E+01 0.54560323861E+01 0.58796411358E+01
 0.63326209962E+01 0.68032122652E+01 0.72793031878E+01 0.77459607000E+01 0.81832495012E+01
 0.85660472230E+01 0.88665910203E+01 0.90591912555E+01 0.91255968528E+01 0.90591932279E+01
 0.88665915184E+01 0.85660464987E+01 0.81832501959E+01 0.77459603248E+01 0.72792970579E+01
 0.68032027417E+01 0.63326143232E+01 0.58796360594E+01 0.54560208275E+01 0.50742570685E+01
 0.47467150578E+01 0.44837925402E+01 0.42925825014E+01 0.41768852197E+01 0.42468218082E+01
 0.41380685447E+01 0.41088121528E+01 0.41592196381E+01 0.42883407090E+01 0.44933147891E+01
 0.47688565024E+01 0.51076191832E+01 0.55012723042E+01 0.59413561647E+01 0.64189021698E+01
 0.69225578277E+01 0.74360377060E+01 0.79364167334E+01 0.83946477053E+01 0.87787850739E+01
 0.90591912555E+01 0.92141243293E+01 0.92339158856E+01 0.91224185328E+01 0.88952424179E+01
 0.85753253325E+01 0.81873710025E+01 0.77532602530E+01 0.72901672443E+01 0.68117357758E+01
 0.63309713580E+01 0.58626236584E+01 0.54234201689E+01 0.50301504192E+01 0.46970340594E+01
 0.44340281939E+01 0.45777520247E+01 0.43155132611E+01 0.41374692607E+01 0.40453540872E+01
 0.40391860190E+01 0.41175654603E+01 0.42777555329E+01 0.45159055070E+01 0.48275335416E+01
 0.52080087795E+01 0.56523781317E+01 0.61539085614E+01 0.67014216866E+01 0.72765138521E+01
 0.78522710461E+01 0.83946477053E+01 0.88665910203E+01 0.92339166661E+01 0.94713226989E+01
 0.95667812456E+01 0.95228631830E+01 0.93543835632E+01 0.90830909911E+01 0.87314537333E+01
 0.83181470899E+01 0.78570621900E+01 0.73597885376E+01 0.68395725824E+01 0.63139845246E+01
 0.58045068196E+01 0.53333906127E+01 0.49198518872E+01 0.51428841976E+01 0.47173627490E+01
 0.43800608786E+01 0.41368894929E+01 0.39894682807E+01 0.39367818653E+01 0.39764436235E+01
 0.41056195970E+01 0.43217543601E+01 0.46230392711E+01 0.50082367147E+01 0.54753372615E+01
 0.60188857667E+01 0.66265863320E+01 0.72765138521E+01 0.79364167334E+01 0.85660472230E+01
 0.91224191860E+01 0.95667861905E+01 0.98714066407E+01 0.10024040819E+02 0.10028635914E+02
 0.99017096237E+01 0.96655035001E+01 0.93406054645E+01 0.89414177761E+01 0.84766244834E+01
 0.79539804613E+01 0.73861107256E+01 0.67935657146E+01 0.62034254564E+01 0.56446351654E+01
 0.59503946970E+01 0.53563630021E+01 0.48471396006E+01 0.44382586559E+01 0.41366283786E+01
 0.39430676661E+01 0.38549418291E+01 0.38684840117E+01 0.39806738788E+01 0.41904207147E+01
 0.44986684707E+01 0.49071484818E+01 0.54157618807E+01 0.60188857667E+01 0.67014216866E+01
 0.74360377060E+01 0.81832495012E+01 0.88952391982E+01 0.95228677653E+01 0.10024050620E+02
 0.10371175329E+02 0.10553711616E+02 0.10578048200E+02 0.10470680215E+02 0.10261247724E+02
 0.99663270625E+01 0.95865809562E+01 0.91190029880E+01 0.85691778521E+01 0.79490382790E+01
 0.72825343683E+01 0.66037746325E+01 0.69881002868E+01 0.62372616879E+01 0.55510385579E+01
 0.49615958166E+01 0.44877849519E+01 0.41367638138E+01 0.39076506052E+01 0.37956466149E+01
 0.37956768220E+01 0.39049809831E+01 0.41242411180E+01 0.44569712653E+01 0.49071484818E+01
 0.54753372615E+01 0.61539085614E+01 0.69225578277E+01 0.77459607000E+01 0.85753218543E+01
 0.93543804383E+01 0.10028642696E+02 0.10553722637E+02 0.10890877994E+02 0.11035659083E+02
 0.11026180007E+02 0.10916304203E+02 0.10744224910E+02 0.10512917137E+02 0.10193691243E+02
 0.97518001042E+01 0.91798257318E+01 0.85051650384E+01 0.77601375134E+01 0.82058487029E+01
 0.73392127478E+01 0.64920160001E+01 0.57180288848E+01 0.50559568924E+01 0.45269526191E+01
 0.41373025684E+01 0.38838644878E+01 0.37597730569E+01 0.37590663720E+01 0.38796642914E+01
 0.41242411180E+01 0.44986684707E+01 0.50082367147E+01 0.56523781317E+01 0.64189021698E+01
 0.72793031878E+01 0.81873751293E+01 0.90830851698E+01 0.99017042393E+01 0.10578055270E+02
 0.11035670008E+02 0.11250680739E+02 0.11269513440E+02 0.11181099875E+02 0.11071065842E+02
 0.10978122074E+02 0.10874688829E+02 0.10683549988E+02 0.10323394264E+02 0.97595832654E+01
 0.90314346051E+01 0.95062246612E+01 0.85998739335E+01 0.76408363426E+01 0.67029836376E+01
 0.58501446953E+01 0.51264266241E+01 0.45540910797E+01 0.41378088556E+01 0.38719504029E+01
 0.37477986681E+01 0.37590663720E+01 0.39049809831E+01 0.41904207147E+01 0.46230392711E+01
 0.52080087795E+01 0.59413561647E+01 0.68032122652E+01 0.77532692279E+01 0.87314553063E+01
 0.96654985807E+01 0.10470679506E+02 0.11026187741E+02 0.11269520843E+02 0.11238895924E+02
 0.11055508668E+02 0.10871043406E+02 0.10799408620E+02 0.10862651839E+02 0.10978867202E+02
 0.11000886768E+02 0.10787902594E+02 0.10274827023E+02 0.10698519893E+02 0.99093880744E+01
 0.89250318290E+01 0.78795229061E+01 0.68607207590E+01 0.59414902222E+01 0.51699031918E+01
 0.45679930424E+01 0.41380427177E+01 0.38719504029E+01 0.37597730569E+01 0.37956768220E+01
 0.39806738788E+01 0.43217543601E+01 0.48275335416E+01 0.55012723042E+01 0.63326209962E+01
 0.72901707200E+01 0.83181542023E+01 0.93406139259E+01 0.10261251923E+02 0.10916305430E+02
 0.11181102962E+02 0.11055512681E+02 0.10669726341E+02 0.10239763482E+02 0.99839226572E+01
 0.10030526295E+02 0.10358668470E+02 0.10803733660E+02 0.11128134085E+02 0.11123806662E+02
 0.11334984194E+02 0.11019431294E+02 0.10223054759E+02 0.91674530933E+01 0.80445283374E+01
 0.69581093212E+01 0.59881603918E+01 0.51846325498E+01 0.45679930424E+01 0.41378088556E+01
 0.38838644878E+01 0.37956466149E+01 0.38684840117E+01 0.41056195970E+01 0.45159055070E+01
 0.51076191832E+01 0.58796411358E+01 0.68117358635E+01 0.78570666566E+01 0.89414291911E+01
 0.99663385430E+01 0.10744230476E+02 0.11071068093E+02 0.10871047478E+02 0.10239768154E+02
 0.94264017801E+01 0.87543532867E+01 0.85011153868E+01 0.87836035097E+01 0.95038575971E+01
 0.10385840049E+02 0.11087544087E+02 0.10935590426E+02 0.11446192398E+02 0.11238837816E+02
 0.10435910644E+02 0.93168918413E+01 0.81288217746E+01 0.69910766449E+01 0.59881603918E+01
 0.51699031918E+01 0.45540910797E+01 0.41373025684E+01 0.39076506052E+01 0.38549418291E+01
 0.39764436235E+01 0.42777555329E+01 0.47688565024E+01 0.54560323861E+01 0.63309823602E+01
 0.73597930915E+01 0.84766232615E+01 0.95865851646E+01 0.10512930707E+02 0.10978135247E+02
 0.10799414720E+02 0.99839266889E+01 0.87543587236E+01 0.74989678817E+01 0.66488462160E+01
 0.65185461971E+01 0.71767325847E+01 0.84120146093E+01 0.98147828672E+01 0.92158363953E+01
 0.10747545232E+02 0.11491922496E+02 0.11364721010E+02 0.10543161529E+02 0.93674343741E+01
 0.81288217746E+01 0.69581093212E+01 0.59414902222E+01 0.51264266241E+01 0.45269526191E+01
 0.41367638138E+01 0.39430676661E+01 0.39367818653E+01 0.41175654603E+01 0.44933147891E+01
 0.50742798673E+01 0.58626470289E+01 0.68395856064E+01 0.79539748939E+01 0.91189963859E+01
 0.10193703106E+02 0.10874709576E+02 0.10862660734E+02 0.10030525623E+02 0.85011209562E+01
 0.66488562415E+01 0.50082817394E+01 0.41019231385E+01 0.42450370919E+01 0.54153999542E+01
 0.72566150711E+01 0.62371469768E+01 0.87216903175E+01 0.10597993592E+02 0.11505067913E+02
 0.11405618222E+02 0.10543161529E+02 0.93168918413E+01 0.80445283374E+01 0.68607207590E+01
 0.58501446953E+01 0.50559568924E+01 0.44877849519E+01 0.41366283786E+01 0.39894682807E+01
 0.40391860190E+01 0.42883407090E+01 0.47467491873E+01 0.54234390979E+01 0.63140011989E+01
 0.73861211313E+01 0.85691783690E+01 0.97518032832E+01 0.10683562535E+02 0.10978876271E+02
 0.10358666724E+02 0.87836039646E+01 0.65185570423E+01 0.41019327513E+01 0.22044894284E+01
 0.14062337924E+01 0.19759317728E+01 0.37594270160E+01 0.24724202827E+01 0.55381494724E+01
 0.84433592575E+01 0.10541613645E+02 0.11505067913E+02 0.11364721010E+02 0.10435910644E+02
 0.91674530933E+01 0.78795229061E+01 0.67029836376E+01 0.57180288848E+01 0.49615958166E+01
 0.44382586559E+01 0.41368894929E+01 0.40453540872E+01 0.41592196381E+01 0.44838383588E+01
 0.50301570555E+01 0.58045137926E+01 0.67935908112E+01 0.79490566905E+01 0.91798238318E+01
 0.10323392301E+02 0.11000896534E+02 0.10803739697E+02 0.95038524943E+01 0.71767303694E+01
 0.42450424609E+01 0.14062357127E+01 -.56344967573E+00 -.10761770193E+01 0.40728254760E-01
 -.12607468709E+01 0.17691202310E+01 0.52897125666E+01 0.84433592575E+01 0.10597993592E+02
 0.11491922496E+02 0.11238837816E+02 0.10223054759E+02 0.89250318290E+01 0.76408363426E+01
 0.64920160001E+01 0.55510385579E+01 0.48471396006E+01 0.43800608786E+01 0.41374692607E+01
 0.41088121528E+01 0.42926342809E+01 0.46970423968E+01 0.53333853641E+01 0.62034406468E+01
 0.72825556539E+01 0.85051648081E+01 0.97595754568E+01 0.10787913216E+02 0.11128149449E+02
 0.10385833739E+02 0.84119977345E+01 0.54153961374E+01 0.19759318999E+01 -.10761873907E+01
 -.29084368088E+01 -.29816653475E+01 -.40160708252E+01 -.17193500304E+01 0.17691202310E+01
 0.55381494724E+01 0.87216903175E+01 0.10747545232E+02 0.11446192398E+02 0.11019431294E+02
 0.99093880744E+01 0.85998739335E+01 0.73392127478E+01 0.62372616879E+01 0.53563630021E+01
 0.47173627490E+01 0.43155132611E+01 0.41380685447E+01 0.41769222592E+01 0.44340460292E+01
 0.49198405542E+01 0.56446208939E+01 0.66037781570E+01 0.77601438797E+01 0.90314314840E+01
 0.10274829050E+02 0.11123817555E+02 0.11087541890E+02 0.98147645014E+01 0.72566065261E+01
 0.37594305108E+01 0.40714297669E-01 -.29816944921E+01 -.44793913878E+01 -.40159909904E+01
 -.32942933491E+01 -.89009332575E+00 0.25301017339E+01 0.60848396329E+01 0.89732721965E+01
 0.10696668836E+02 0.11145904403E+02 0.10559103359E+02 0.93874118693E+01 0.80831871291E+01
 0.68520067551E+01 0.57945285387E+01 0.49638124296E+01 0.43732101195E+01 0.40138638850E+01
 0.38720986849E+01 0.39407406284E+01 0.42233305144E+01 0.47318163172E+01 0.54774230355E+01
 0.64547598621E+01 0.76233854018E+01 0.88960522330E+01 0.10116458293E+02 0.10892782612E+02
 0.10749760488E+02 0.93778300212E+01 0.67844385212E+01 0.33661462931E+01 -.14130396666E+00
 -.28519323826E+01 -.32943301748E+01 -.40161644331E+01 -.28520541421E+01 -.14127078522E+00
 0.33662161962E+01 0.67844091114E+01 0.93777616987E+01 0.10749795592E+02 0.10892900851E+02
 0.10116508245E+02 0.88959953480E+01 0.76233486422E+01 0.64548207964E+01 0.54774904935E+01
 0.47317909828E+01 0.42232664213E+01 0.39407478643E+01 0.38721620417E+01 0.40138744549E+01
 0.43731462387E+01 0.49637732469E+01 0.57945733525E+01 0.68520605698E+01 0.80831579938E+01
 0.93873316870E+01 0.10559071401E+02 0.11145924078E+02 0.10696641381E+02 0.89731678772E+01
 0.60847741735E+01 0.25301695534E+01 -.88999021669E+00 -.77604885733E+00 -.27293028139E+01
 -.29816254135E+01 -.14743793505E+01 0.13442343775E+01 0.46928547871E+01 0.77375466358E+01
 0.98509801064E+01 0.10759490959E+02 0.10555634987E+02 0.96023046557E+01 0.83660769958E+01
 0.71419940327E+01 0.60510366036E+01 0.51643416999E+01 0.45096178085E+01 0.40856681680E+01
 0.38802778397E+01 0.38839705964E+01 0.40970239166E+01 0.45298618156E+01 0.51968092915E+01
 0.61029792787E+01 0.72265004044E+01 0.85030957465E+01 0.98210343121E+01 0.10923568456E+02
 0.11341243358E+02 0.10669096501E+02 0.87492405549E+01 0.57818327628E+01 0.23349598696E+01
 0.28203704976E+01 0.18502914878E+00 -.12460134235E+01 -.10762804933E+01 0.61898807854E+00
 0.33240471532E+01 0.62814987939E+01 0.87588760648E+01 0.10266790522E+02 0.10660606138E+02
 0.10119628092E+02 0.90348646145E+01 0.78165499630E+01 0.66576846131E+01 0.56566878959E+01
 0.48673606894E+01 0.43055699734E+01 0.39653058933E+01 0.38348330770E+01 0.39077142296E+01
 0.41877434759E+01 0.46877509685E+01 0.54216633294E+01 0.63900229305E+01 0.75626289732E+01
 0.88660541674E+01 0.10179103888E+02 0.11209920353E+02 0.11505309429E+02 0.10720529128E+02
 0.87765768558E+01 0.59439115748E+01 0.65508040874E+01 0.39084670361E+01 0.18394023739E+01
 0.92325187875E+00 0.14062089361E+01 0.31065883931E+01 0.54897692861E+01 0.78732968917E+01
 0.96617671491E+01 0.10515913373E+02 0.10411148054E+02 0.95908105622E+01 0.84433077831E+01
 0.72673213003E+01 0.61890659120E+01 0.52866309241E+01 0.45971255393E+01 0.41268536638E+01
 0.38668695439E+01 0.38066899183E+01 0.39430618647E+01 0.42830925884E+01 0.48411931655E+01
 0.56295889465E+01 0.66435655368E+01 0.78456951249E+01 0.91563772583E+01 0.10448420005E+02
 0.11418772513E+02 0.11652894196E+02 0.10872513901E+02 0.90675232239E+01 0.95731710334E+01
 0.74976950008E+01 0.54204473520E+01 0.39284041680E+01 0.34519036882E+01 0.41018918728E+01
 0.56297718355E+01 0.75302683087E+01 0.92338245160E+01 0.10298568146E+02 0.10530261552E+02
 0.10004062621E+02 0.89992050203E+01 0.78521946884E+01 0.67384974506E+01 0.57530335843E+01
 0.49536279007E+01 0.43628093588E+01 0.39796380098E+01 0.37938465475E+01 0.37970739263E+01
 0.39893399953E+01 0.43802467812E+01 0.49844974077E+01 0.58117572946E+01 0.68523075900E+01
 0.80629971041E+01 0.93607164526E+01 0.10618155821E+02 0.11545709479E+02 0.11780643518E+02
 0.11109205139E+02 0.11379769158E+02 0.10194464039E+02 0.86194624970E+01 0.71154519419E+01
 0.61410401704E+01 0.59835139724E+01 0.66487476537E+01 0.78642340089E+01 0.91924221463E+01
 0.10196858365E+02 0.10587665121E+02 0.10296947161E+02 0.94713316536E+01 0.83922574387E+01
 0.72827800012E+01 0.62491225341E+01 0.53645707513E+01 0.46683591259E+01 0.41713823295E+01
 0.38681276456E+01 0.37485313264E+01 0.38066610799E+01 0.40452809453E+01 0.44756025700E+01
 0.51117437759E+01 0.59602484893E+01 0.70066578711E+01 0.82037566350E+01 0.94679605227E+01
 0.10678856544E+02 0.11580277512E+02 0.11866304271E+02 0.11874087396E+02 0.11611925327E+02
 0.10805799154E+02 0.97254905844E+01 0.87383413300E+01 0.81749570687E+01 0.82010472065E+01
 0.87543199116E+01 0.95764212892E+01 0.10321665964E+02 0.10689350807E+02 0.10524940389E+02
 0.98586586070E+01 0.88768877454E+01 0.78039790501E+01 0.67570345424E+01 0.58166889908E+01
 0.50358722739E+01 0.44386274560E+01 0.40277004135E+01 0.37951755663E+01 0.37320297618E+01
 0.38348396425E+01 0.41086596552E+01 0.45653696287E+01 0.52174583719E+01 0.60679676856E+01
 0.70985458673E+01 0.82599660253E+01 0.94708788107E+01 0.10622808729E+02 0.11506942596E+02
 0.11311032328E+02 0.11765802786E+02 0.11729512196E+02 0.11281759698E+02 0.10638377867E+02
 0.10069715712E+02 0.97921556286E+01 0.98801434422E+01 0.10239682307E+02 0.10654218493E+02
 0.10878106934E+02 0.10734066120E+02 0.10176432147E+02 0.93011585196E+01 0.82891198528E+01
 0.72607232238E+01 0.62958434988E+01 0.54557453040E+01 0.47762470128E+01 0.42700908628E+01
 0.39348474533E+01 0.37619255533E+01 0.37440760836E+01 0.38802284135E+01 0.41768673478E+01
 0.46455159859E+01 0.52964259619E+01 0.61292186291E+01 0.71225616722E+01 0.82271103232E+01
 0.93663992298E+01 0.10445987187E+02 0.10151912897E+02 0.10984947238E+02 0.11511788770E+02
 0.11671189031E+02 0.11524693367E+02 0.11228363346E+02 0.10963114536E+02 0.10854175890E+02
 0.10917118252E+02 0.11055497053E+02 0.11108913638E+02 0.10926452859E+02 0.10432309825E+02
 0.96583204229E+01 0.87273333521E+01 0.77461656521E+01 0.67883068668E+01 0.59174586132E+01
 0.51779656101E+01 0.45924808470E+01 0.41662226644E+01 0.38942056899E+01 0.37684431999E+01
 0.37836708072E+01 0.39407169978E+01 0.42467667326E+01 0.47122294007E+01 0.53445919074E+01
 0.61402009007E+01 0.70760039013E+01 0.81047530607E+01 0.91571704981E+01 0.88515701247E+01
 0.97533884608E+01 0.10534244937E+02 0.11102115372E+02 0.11406114619E+02 0.11483588286E+02
 0.11433891083E+02 0.11364146618E+02 0.11334427780E+02 0.11329453090E+02 0.11269501126E+02
 0.11052939702E+02 0.10608664813E+02 0.99349077208E+01 0.91050919203E+01 0.81991457471E+01
 0.72802951140E+01 0.64098033470E+01 0.56366335389E+01 0.49918228525E+01 0.44889893757E+01
 0.41290101524E+01 0.39061660713E+01 0.38138878951E+01 0.38490217605E+01 0.40138514304E+01
 0.43154307353E+01 0.47623021072E+01 0.53590230310E+01 0.60993627263E+01 0.69599916547E+01
 0.78975554021E+01 0.76147973240E+01 0.84636749634E+01 0.92697376967E+01 0.99814850893E+01
 0.10551937810E+02 0.10941333516E+02 0.11162837963E+02 0.11268252314E+02 0.11309792502E+02
 0.11306547760E+02 0.11233205427E+02 0.11035683701E+02 0.10664204437E+02 0.10106767381E+02
 0.94027329254E+01 0.86020405269E+01 0.77558684625E+01 0.69197132096E+01 0.61434563719E+01
 0.54640833558E+01 0.49031135213E+01 0.44685047692E+01 0.41591782429E+01 0.39701412017E+01
 0.38968543756E+01 0.39381242809E+01 0.40970784884E+01 0.43800209088E+01 0.47932935022E+01
 0.53386484204E+01 0.60080505597E+01 0.67793625901E+01 0.65428600605E+01 0.72706564164E+01
 0.80125063320E+01 0.87234933414E+01 0.93629530137E+01 0.99020502539E+01 0.10322345295E+02
 0.10619420283E+02 0.10810026208E+02 0.10910200292E+02 0.10917156339E+02 0.10807764287E+02
 0.10553725962E+02 0.10144266611E+02 0.95949932887E+01 0.89320742937E+01 0.81946397066E+01
 0.74301082756E+01 0.66859716235E+01 0.60022438883E+01 0.54068950274E+01 0.49151769707E+01
 0.45321031406E+01 0.42564785713E+01 0.40850022777E+01 0.40154692861E+01 0.40485267920E+01
 0.41877597189E+01 0.44382254150E+01 0.48038307616E+01 0.52840053131E+01 0.58701780190E+01
 0.56927129042E+01 0.62625773540E+01 0.68823411139E+01 0.75199284937E+01 0.81402807445E+01
 0.87114549719E+01 0.92101997059E+01 0.96241634616E+01 0.99491637321E+01 0.10182855780E+02
 0.10320404309E+02 0.10349763438E+02 0.10254765209E+02 0.10024063130E+02 0.96560153495E+01
 0.91628818780E+01 0.85711498818E+01 0.79180630436E+01 0.72455576110E+01 0.65934469341E+01
 0.59938954404E+01 0.54686244864E+01 0.50291757976E+01 0.46795088708E+01 0.44196003764E+01
 0.42486813927E+01 0.41672309873E+01 0.41775487336E+01 0.42832166886E+01 0.44878355924E+01
 0.47932790384E+01 0.51975875956E+01 0.50836449174E+01 0.54844446092E+01 0.59525179990E+01
 0.64690814535E+01 0.70095870572E+01 0.75469840209E+01 0.80564228079E+01 0.85191224629E+01
 0.89232221760E+01 0.92610879401E+01 0.95247371436E+01 0.97023400700E+01 0.97781938916E+01
 0.97364564855E+01 0.95667971352E+01 0.92693481362E+01 0.88570656401E+01 0.83548661432E+01
 0.77959443274E+01 0.72163578951E+01 0.66493986210E+01 0.61213335841E+01 0.56496369100E+01
 0.52438915015E+01 0.49085072799E+01 0.46457982368E+01 0.44581553895E+01 0.43488410319E+01
 0.43216903727E+01 0.43802833629E+01 0.45270243552E+01 0.47623090898E+01 0.47122120518E+01
 0.49476426673E+01 0.52558500512E+01 0.56280580768E+01 0.60503634858E+01 0.65043421700E+01
 0.69695951142E+01 0.74271820823E+01 0.78620736041E+01 0.82631064605E+01 0.86203995539E+01
 0.89219170122E+01 0.91516180152E+01 0.92907450146E+01 0.93218795449E+01 0.92339204007E+01
 0.90259670271E+01 0.87088706103E+01 0.83040831452E+01 0.78401280171E+01 0.73476552312E+01
 0.68545511712E+01 0.63825811633E+01 0.59464451315E+01 0.55551515640E+01 0.52146880742E+01
 0.49305077736E+01 0.47086877940E+01 0.45555769366E+01 0.44766662641E+01 0.44756579383E+01
 0.45542212536E+01 0.45680844330E+01 0.46455061224E+01 0.47964629024E+01 0.50179543062E+01
 0.53038964106E+01 0.56442082105E+01 0.60253075667E+01 0.64321973349E+01 0.68509862547E+01
 0.72701429666E+01 0.76795197156E+01 0.80676998110E+01 0.84194446789E+01 0.87150863853E+01
 0.89326342767E+01 0.90519178261E+01 0.90592053231E+01 0.89507020014E+01 0.87338577609E+01
 0.84261131143E+01 0.80514506589E+01 0.76357782330E+01 0.72025663319E+01 0.67701136613E+01
 0.63512529955E+01 0.59552549124E+01 0.55905635073E+01 0.52665933982E+01 0.49936315121E+01
 0.47813222396E+01 0.46370627267E+01 0.45653365317E+01 0.46454622279E+01 0.45681406086E+01
 0.45654225834E+01 0.46370850961E+01 0.47812936084E+01 0.49936322348E+01 0.52666390240E+01
 0.55905936096E+01 0.59552422924E+01 0.63512398950E+01 0.67701286909E+01 0.72025801289E+01
 0.76357647974E+01 0.80514330964E+01 0.84261184356E+01 0.87338715503E+01 0.89506983401E+01
 0.90591897457E+01 0.90519127589E+01 0.89326429708E+01 0.87150939469E+01 0.84194430603E+01
 0.80676962367E+01 0.76795235754E+01 0.72701507906E+01 0.68509832407E+01 0.64321811249E+01
 0.60253033588E+01 0.56442342612E+01 0.53039164012E+01 0.50179102727E+01 0.47963708196E+01
 0.49476785434E+01 0.47121988899E+01 0.45541801854E+01 0.44756449900E+01 0.44766993962E+01
 0.45556252032E+01 0.47087163257E+01 0.49305141366E+01 0.52146949200E+01 0.55551704281E+01
 0.59464587378E+01 0.63825711109E+01 0.68545330797E+01 0.73476588836E+01 0.78401477544E+01
 0.83040847875E+01 0.87088501721E+01 0.90259577729E+01 0.92339308728E+01 0.93218761626E+01
 0.92907174132E+01 0.91516074845E+01 0.89219456299E+01 0.86204249396E+01 0.82630919819E+01
 0.78620550755E+01 0.74272064899E+01 0.69696329421E+01 0.65043293392E+01 0.60503084922E+01