       N       E                     dE             d eps       ncg     rms          rms(c)
DAV:   1     0.236944754164E+01    0.23694E+01   -0.28335E+03   912   0.585E+02
DAV:   2    -0.100550861971E+02   -0.12425E+02   -0.11886E+02  1320   0.692E+01
DAV:   3    -0.102053501225E+02   -0.15026E+00   -0.14788E+00  1200   0.899E+00
DAV:   4    -0.102059954240E+02   -0.64530E-03   -0.64488E-03  1416   0.429E-01
DAV:   5    -0.102059956846E+02   -0.26056E-06   -0.25993E-06  1224   0.808E-03    0.178E+00
DAV:   6    -0.101901574032E+02    0.15838E-01   -0.59869E-03  1264   0.491E-01    0.109E+00
DAV:   7    -0.101807261204E+02    0.94313E-02   -0.14035E-02  1176   0.808E-01    0.697E-02
DAV:   8    -0.101806314078E+02    0.94713E-04   -0.85403E-04   792   0.216E-01
   1 F= -.10180631E+02 E0= -.10172475E+02  d E =-.101806E+02
