unknown system                          
           1
    -2.310500    2.310500    1.318464
     2.310500   -2.310500    1.318464
     2.310500    2.310500   -1.318464
   Si
   2
Direct configuration=     1
   0.00000000  0.00000000  0.00000000
   0.25000000  0.75000000  0.50000000
