 vasp.5.4.4.18Apr17-6-g9f103f2a35 (build Dec 09 2018 21:25:21) complex          
  
 executed on IFC18.0.1.163_CrayMP date 2019.03.20  09:06:54
 running on    8 total cores
 distrk:  each k-point on    8 cores,    1 groups
 distr:  one band on NCORES_PER_BAND=   1 cores,    8 groups


--------------------------------------------------------------------------------------------------------


 INCAR:
 POTCAR:   PAW_PBE Si 05Jan2001                   

 ----------------------------------------------------------------------------- 
|                                                                             |
|           W    W    AA    RRRRR   N    N  II  N    N   GGGG   !!!           |
|           W    W   A  A   R    R  NN   N  II  NN   N  G    G  !!!           |
|           W    W  A    A  R    R  N N  N  II  N N  N  G       !!!           |
|           W WW W  AAAAAA  RRRRR   N  N N  II  N  N N  G  GGG   !            |
|           WW  WW  A    A  R   R   N   NN  II  N   NN  G    G                |
|           W    W  A    A  R    R  N    N  II  N    N   GGGG   !!!           |
|                                                                             |
|      For optimal performance we recommend to set                            |
|        NCORE= 4 - approx SQRT( number of cores)                             |
|      NCORE specifies how many cores store one orbital (NPAR=cpu/NCORE).     |
|      This setting can  greatly improve the performance of VASP for DFT.     |
|      The default,   NCORE=1            might be grossly inefficient         |
|      on modern multi-core architectures or massively parallel machines.     |
|      Do your own testing !!!!                                               |
|      Unfortunately you need to use the default for GW and RPA calculations. |
|      (for HF NCORE is supported but not extensively tested yet)             |
|                                                                             |
 ----------------------------------------------------------------------------- 

 POTCAR:   PAW_PBE Si 05Jan2001                   
   VRHFIN =Si: s2p2                                                             
   LEXCH  = PE                                                                  
   EATOM  =   103.0669 eV,    7.5752 Ry                                         
                                                                                
   TITEL  = PAW_PBE Si 05Jan2001                                                
   LULTRA =        F    use ultrasoft PP ?                                      
   IUNSCR =        1    unscreen: 0-lin 1-nonlin 2-no                           
   RPACOR =    1.500    partial core radius                                     
   POMASS =   28.085; ZVAL   =    4.000    mass and valenz                      
   RCORE  =    1.900    outmost cutoff radius                                   
   RWIGS  =    2.480; RWIGS  =    1.312    wigner-seitz radius (au A)           
   ENMAX  =  245.345; ENMIN  =  184.009 eV                                      
   ICORE  =        2    local potential                                         
   LCOR   =        T    correct aug charges                                     
   LPAW   =        T    paw PP                                                  
   EAUG   =  322.069                                                            
   DEXC   =    -.007                                                            
   RMAX   =    2.944    core radius for proj-oper                               
   RAUG   =    1.300    factor for augmentation sphere                          
   RDEP   =    1.993    radius for radial grids                                 
   QCUT   =   -4.246; QGAM   =    8.493    optimization parameters              
                                                                                
   Description                                                                  
     l     E      TYP  RCUT    TYP  RCUT                                        
     0   .000     23  1.900                                                     
     0   .000     23  1.900                                                     
     1   .000     23  1.900                                                     
     1   .000     23  1.900                                                     
     2   .000      7  1.900                                                     
  local pseudopotential read in
  partial core-charges read in
  atomic valenz-charges read in
  non local Contribution for L=           0  read in
    real space projection operators read in
  non local Contribution for L=           0  read in
    real space projection operators read in
  non local Contribution for L=           1  read in
    real space projection operators read in
  non local Contribution for L=           1  read in
    real space projection operators read in
    PAW grid and wavefunctions read in
 
   number of l-projection  operators is LMAX  =           4
   number of lm-projection operators is LMMAX =           8
 
 PAW_PBE Si 05Jan2001                   :
 energy of atom  1       EATOM= -103.0669
 kinetic energy error for atom=    0.0210 (will be added to EATOM!!)
 
 
 POSCAR: Si2                                     
  positions in direct lattice
  No initial velocities read in
 exchange correlation table for  LEXCH =        8
   RHO(1)=    0.500       N(1)  =     2000
   RHO(2)=  100.500       N(2)  =     4000
 


--------------------------------------------------------------------------------------------------------


 ion  position               nearest neighbor table
   1  0.250  0.750  0.500-   2 2.53   2 2.53   2 2.53   2 2.53   2 3.11   2 3.11   2 3.11   2 3.11

   2  0.000  0.000  0.000-   1 2.53   1 2.53   1 2.53   1 2.53   1 3.11   1 3.11   1 3.11   1 3.11

 
  LATTYP: Found a body centered tetragonal cell.
 ALAT       =     4.9000000000
 C/A-ratio  =     0.5200000000
  
  Lattice vectors:
  
 A1 = (  -2.4500000000,   2.4500000000,   1.2740000000)
 A2 = (   2.4500000000,  -2.4500000000,   1.2740000000)
 A3 = (   2.4500000000,   2.4500000000,  -1.2740000000)


Analysis of symmetry for initial positions (statically):
=====================================================================
 Subroutine PRICEL returns:
 Original cell was already a primitive cell.
 

 Routine SETGRP: Setting up the symmetry group for a 
 body centered tetragonal supercell.


 Subroutine GETGRP returns: Found 16 space group operations
 (whereof  8 operations were pure point group operations)
 out of a pool of 16 trial point group operations.


The static configuration has the point symmetry D_2d.
 The point group associated with its full space group is D_4h.


Analysis of symmetry for dynamics (positions and initial velocities):
=====================================================================
 Subroutine PRICEL returns:
 Original cell was already a primitive cell.
 

 Routine SETGRP: Setting up the symmetry group for a 
 body centered tetragonal supercell.


 Subroutine GETGRP returns: Found 16 space group operations
 (whereof  8 operations were pure point group operations)
 out of a pool of 16 trial point group operations.


The dynamic configuration has the point symmetry D_2d.
 The point group associated with its full space group is D_4h.


 Subroutine INISYM returns: Found 16 space group operations
 (whereof  8 operations are pure point group operations),
 and found     1 'primitive' translations

 
 
 KPOINTS: Automatic kpoint scheme                 

Automatic generation of k-mesh.
Space group operators:
 irot       det(A)        alpha          n_x          n_y          n_z        tau_x        tau_y        tau_z
    1     1.000000     0.000000     1.000000     0.000000     0.000000     0.000000     0.000000     0.000000
    2    -1.000000    90.000000    -0.000000    -0.000000    -1.000000     0.000000     0.000000     0.000000
    3     1.000000   180.000000    -0.000000    -0.000000    -1.000000     0.000000     0.000000     0.000000
    4    -1.000000    90.000000    -0.000000     0.000000     1.000000     0.000000     0.000000     0.000000
    5    -1.000000   180.000000     0.000000    -1.000000     0.000000     0.000000     0.000000     0.000000
    6     1.000000   180.000000     0.707107     0.707107    -0.000000     0.000000     0.000000     0.000000
    7    -1.000000   180.000000     1.000000     0.000000     0.000000     0.000000     0.000000     0.000000
    8     1.000000   180.000000     0.707107    -0.707107     0.000000     0.000000     0.000000     0.000000
    9    -1.000000     0.000000     1.000000     0.000000     0.000000     0.250000     0.750000     0.500000
   10     1.000000    90.000000    -0.000000    -0.000000    -1.000000     0.250000     0.750000     0.500000
   11    -1.000000   180.000000    -0.000000    -0.000000    -1.000000     0.250000     0.750000     0.500000
   12     1.000000    90.000000    -0.000000     0.000000     1.000000     0.250000     0.750000     0.500000
   13     1.000000   180.000000     0.000000    -1.000000     0.000000     0.250000     0.750000     0.500000
   14    -1.000000   180.000000     0.707107     0.707107    -0.000000     0.250000     0.750000     0.500000
   15     1.000000   180.000000     1.000000     0.000000     0.000000     0.250000     0.750000     0.500000
   16    -1.000000   180.000000     0.707107    -0.707107     0.000000     0.250000     0.750000     0.500000
 
 Subroutine IBZKPT returns following result:
 ===========================================
 
 Found      3 irreducible k-points:
 
 Following reciprocal coordinates:
            Coordinates               Weight
  0.250000  0.250000  0.250000     32.000000
 -0.250000  0.250000  0.250000     64.000000
 -0.250000 -0.250000  0.250000     32.000000
 
 Following cartesian coordinates:
            Coordinates               Weight
  0.102041  0.102041  0.196232     32.000000
  0.102041  0.000000  0.000000     64.000000
 -0.000000  0.000000 -0.196232     32.000000
 


--------------------------------------------------------------------------------------------------------




 Dimension of arrays:
   k-points           NKPTS =      3   k-points in BZ     NKDIM =      3   number of bands    NBANDS=      8
   number of dos      NEDOS =    301   number of ions     NIONS =      2
   non local maximal  LDIM  =      4   non local SUM 2l+1 LMDIM =      8
   total plane-waves  NPLWV =   1728
   max r-space proj   IRMAX =      1   max aug-charges    IRDMAX=   2088
   dimension x,y,z NGX =    12 NGY =   12 NGZ =   12
   dimension x,y,z NGXF=    24 NGYF=   24 NGZF=   24
   support grid    NGXF=    24 NGYF=   24 NGZF=   24
   ions per type =               2
   NGX,Y,Z   is equivalent  to a cutoff of   5.40,  5.40,  5.40 a.u.
   NGXF,Y,Z  is equivalent  to a cutoff of  10.81, 10.81, 10.81 a.u.

 SYSTEM =  unknown system                          
 POSCAR =  Si2                                     

 Startparameter for this run:
   NWRITE =      2    write-flag & timer
   PREC   = normal    normal or accurate (medium, high low for compatibility)
   ISTART =      0    job   : 0-new  1-cont  2-samecut
   ICHARG =      2    charge: 1-file 2-atom 10-const
   ISPIN  =      1    spin polarized calculation?
   LNONCOLLINEAR =      F non collinear calculations
   LSORBIT =      F    spin-orbit coupling
   INIWAV =      1    electr: 0-lowe 1-rand  2-diag
   LASPH  =      F    aspherical Exc in radial PAW
   METAGGA=      F    non-selfconsistent MetaGGA calc.

 Electronic Relaxation 1
   ENCUT  =  150.0 eV  11.02 Ry    3.32 a.u.   3.69  3.69  3.69*2*pi/ulx,y,z
   ENINI  =  150.0     initial cutoff
   ENAUG  =  322.1 eV  augmentation charge cutoff
   NELM   =     60;   NELMIN=  2; NELMDL= -5     # of ELM steps 
   EDIFF  = 0.4E-03   stopping-criterion for ELM
   LREAL  =      F    real-space projection
   NLSPLINE    = F    spline interpolate recip. space projectors
   LCOMPAT=      F    compatible to vasp.4.4
   GGA_COMPAT  = T    GGA compatible to vasp.4.4-vasp.4.6
   LMAXPAW     = -100 max onsite density
   LMAXMIX     =    2 max onsite mixed and CHGCAR
   VOSKOWN=      0    Vosko Wilk Nusair interpolation
   ROPT   =    0.00000
 Ionic relaxation
   EDIFFG = -.1E-01   stopping-criterion for IOM
   NSW    =     15    number of steps for IOM
   NBLOCK =      1;   KBLOCK =     15    inner block; outer block 
   IBRION =      2    ionic relax: 0-MD 1-quasi-New 2-CG
   NFREE  =      1    steps in history (QN), initial steepest desc. (CG)
   ISIF   =      3    stress and relaxation
   IWAVPR =     11    prediction:  0-non 1-charg 2-wave 3-comb
   ISYM   =      2    0-nonsym 1-usesym 2-fastsym
   LCORR  =      T    Harris-Foulkes like correction to forces

   POTIM  = 0.5000    time-step for ionic-motion
   TEIN   =    0.0    initial temperature
   TEBEG  =    0.0;   TEEND  =   0.0 temperature during run
   SMASS  =  -3.00    Nose mass-parameter (am)
   estimated Nose-frequenzy (Omega)   =  0.10E-29 period in steps =****** mass=  -0.311E-27a.u.
   SCALEE = 1.0000    scale energy and forces
   NPACO  =    256;   APACO  = 16.0  distance and # of slots for P.C.
   PSTRESS=    0.0 pullay stress

  Mass of Ions in am
   POMASS =  28.09
  Ionic Valenz
   ZVAL   =   4.00
  Atomic Wigner-Seitz radii
   RWIGS  =  -1.00
  virtual crystal weights 
   VCA    =   1.00
   NELECT =       8.0000    total number of electrons
   NUPDOWN=      -1.0000    fix difference up-down

 DOS related values:
   EMIN   =  10.00;   EMAX   =-10.00  energy-range for DOS
   EFERMI =   0.00
   ISMEAR =     0;   SIGMA  =   0.20  broadening in eV -4-tet -1-fermi 0-gaus

 Electronic relaxation 2 (details)
   IALGO  =     38    algorithm
   LDIAG  =      T    sub-space diagonalisation (order eigenvalues)
   LSUBROT=      F    optimize rotation matrix (better conditioning)
   TURBO    =      0    0=normal 1=particle mesh
   IRESTART =      0    0=no restart 2=restart with 2 vectors
   NREBOOT  =      0    no. of reboots
   NMIN     =      0    reboot dimension
   EREF     =   0.00    reference energy to select bands
   IMIX   =      4    mixing-type and parameters
     AMIX     =   0.40;   BMIX     =  1.00
     AMIX_MAG =   1.60;   BMIX_MAG =  1.00
     AMIN     =   0.10
     WC   =   100.;   INIMIX=   1;  MIXPRE=   1;  MAXMIX= -45

 Intra band minimization:
   WEIMIN = 0.0010     energy-eigenvalue tresh-hold
   EBREAK =  0.13E-04  absolut break condition
   DEPER  =   0.30     relativ break condition  

   TIME   =   0.40     timestep for ELM

  volume/ion in A,a.u.               =      15.29       103.21
  Fermi-wavevector in a.u.,A,eV,Ry     =   1.046930  1.978411 14.912834  1.096062
  Thomas-Fermi vector in A             =   2.181789
 
 Write flags
   LWAVE        =      T    write WAVECAR
   LDOWNSAMPLE  =      F    k-point downsampling of WAVECAR
   LCHARG       =      T    write CHGCAR
   LVTOT        =      F    write LOCPOT, total local potential
   LVHAR        =      F    write LOCPOT, Hartree potential only
   LELF         =      F    write electronic localiz. function (ELF)
   LORBIT       =      0    0 simple, 1 ext, 2 COOP (PROOUT), +10 PAW based schemes


 Dipole corrections
   LMONO  =      F    monopole corrections only (constant potential shift)
   LDIPOL =      F    correct potential (dipole corrections)
   IDIPOL =      0    1-x, 2-y, 3-z, 4-all directions 
   EPSILON=  1.0000000 bulk dielectric constant

 Exchange correlation treatment:
   GGA     =    --    GGA type
   LEXCH   =     8    internal setting for exchange type
   VOSKOWN=      0    Vosko Wilk Nusair interpolation
   LHFCALC =     F    Hartree Fock is set to
   LHFONE  =     F    Hartree Fock one center treatment
   AEXX    =    0.0000 exact exchange contribution

 Linear response parameters
   LEPSILON=     F    determine dielectric tensor
   LRPA    =     F    only Hartree local field effects (RPA)
   LNABLA  =     F    use nabla operator in PAW spheres
   LVEL    =     F    velocity operator in full k-point grid
   LINTERFAST=   F  fast interpolation
   KINTER  =     0    interpolate to denser k-point grid
   CSHIFT  =0.1000    complex shift for real part using Kramers Kronig
   OMEGAMAX=  -1.0    maximum frequency
   DEG_THRESHOLD= 0.2000000E-02 threshold for treating states as degnerate
   RTIME   =   -0.100 relaxation time in fs
  (WPLASMAI=    0.000 imaginary part of plasma frequency in eV, 0.658/RTIME)
   DFIELD  = 0.0000000 0.0000000 0.0000000 field for delta impulse in time
 
 Orbital magnetization related:
   ORBITALMAG=     F  switch on orbital magnetization
   LCHIMAG   =     F  perturbation theory with respect to B field
   DQ        =  0.001000  dq finite difference perturbation B field
   LLRAUG    =     F  two centre corrections for induced B field



--------------------------------------------------------------------------------------------------------


 conjugate gradient relaxation of ions
 charge density and potential will be updated during run
 non-spin polarized calculation
 Variant of blocked Davidson
 Davidson routine will perform the subspace rotation
 perform sub-space diagonalisation
    after iterative eigenvector-optimisation
 modified Broyden-mixing scheme, WC =      100.0
 initial mixing is a Kerker type mixing with AMIX =  0.4000 and BMIX =      1.0000
 Hartree-type preconditioning will be used
 using additional bands            4
 reciprocal scheme for non local part
 use partial core corrections
 calculate Harris-corrections to forces 
   (improved forces if not selfconsistent)
 use gradient corrections 
 use of overlap-Matrix (Vanderbilt PP)
 Gauss-broadening in eV      SIGMA  =   0.20


--------------------------------------------------------------------------------------------------------


  energy-cutoff  :      150.00
  volume of cell :       30.59
      direct lattice vectors                 reciprocal lattice vectors
    -2.450000000  2.450000000  1.274000000     0.000000000  0.204081633  0.392464678
     2.450000000 -2.450000000  1.274000000     0.204081633  0.000000000  0.392464678
     2.450000000  2.450000000 -1.274000000     0.204081633  0.204081633 -0.000000000

  length of vectors
     3.691622408  3.691622408  3.691622408     0.442354876  0.442354876  0.288615013


 
 k-points in units of 2pi/SCALE and weight: Automatic kpoint scheme                 
   0.10204082  0.10204082  0.19623234       0.250
   0.10204082  0.00000000 -0.00000000       0.500
   0.00000000  0.00000000 -0.19623234       0.250
 
 k-points in reciprocal lattice and weights: Automatic kpoint scheme                 
   0.25000000  0.25000000  0.25000000       0.250
  -0.25000000  0.25000000  0.25000000       0.500
  -0.25000000 -0.25000000  0.25000000       0.250
 
 position of ions in fractional coordinates (direct lattice) 
   0.25000000  0.75000000  0.50000000
   0.00000000  0.00000000  0.00000000
 
 position of ions in cartesian coordinates  (Angst):
   2.45000000  0.00000000  0.63700000
   0.00000000  0.00000000  0.00000000
 


--------------------------------------------------------------------------------------------------------


 k-point  1 :   0.2500 0.2500 0.2500  plane waves:     132
 k-point  2 :  -0.2500 0.2500 0.2500  plane waves:     123
 k-point  3 :  -0.2500-0.2500 0.2500  plane waves:     115

 maximum and minimum number of plane-waves per node :       132      115

 maximum number of plane-waves:       132
 maximum index in each direction: 
   IXMAX=    3   IYMAX=    3   IZMAX=    3
   IXMIN=   -3   IYMIN=   -3   IZMIN=   -3


 serial   3D FFT for wavefunctions
 parallel 3D FFT for charge:
    minimum data exchange during FFTs selected (reduces bandwidth)


 total amount of memory used by VASP MPI-rank0    30267. kBytes
=======================================================================

   base      :      30000. kBytes
   nonl-proj :         30. kBytes
   fftplans  :         66. kBytes
   grid      :        158. kBytes
   one-center:          6. kBytes
   wavefun   :          7. kBytes
 
     INWAV:  cpu time    0.0000: real time    0.0003
 Broyden mixing: mesh for mixing (old mesh)
   NGX =  7   NGY =  7   NGZ =  7
  (NGX  = 24   NGY  = 24   NGZ  = 24)
  gives a total of    343 points

 initial charge density was supplied:
 charge density of overlapping atoms calculated
 number of electron       8.0000000 magnetization 
 keeping initial charge density in first step


--------------------------------------------------------------------------------------------------------


 Maximum index for augmentation-charges          241 (set IRDMAX)


--------------------------------------------------------------------------------------------------------


 First call to EWALD:  gamma=   0.567
 Maximum number of real-space cells 4x 4x 3
 Maximum number of reciprocal cells 3x 3x 3

    FEWALD:  cpu time    0.0080: real time    0.0073


--------------------------------------- Iteration      1(   1)  ---------------------------------------


    POTLOK:  cpu time    0.0240: real time    0.0345
    SETDIJ:  cpu time    0.0080: real time    0.0085
     EDDAV:  cpu time    0.0360: real time    0.0408
       DOS:  cpu time    0.0040: real time    0.0015
    --------------------------------------------
      LOOP:  cpu time    0.0720: real time    0.0859

 eigenvalue-minimisations  :    56
 total energy-change (2. order) :-0.5279508E+01  (-0.2085822E+03)
 number of electron       8.0000000 magnetization 
 augmentation part        8.0000000 magnetization 

 Free energy of the ion-electron system (eV)
  ---------------------------------------------------
  alpha Z        PSCENC =         4.40202223
  Ewald energy   TEWEN  =      -265.18101312
  -Hartree energ DENC   =        -2.30415367
  -exchange      EXHF   =         0.00000000
  -V(xc)+E(xc)   XCENC  =       -17.81530915
  PAW double counting   =        65.95520812      -30.76852678
  entropy T*S    EENTRO =        -0.00000000
  eigenvalues    EBANDS =        34.34042839
  atomic energy  EATOM  =       206.09183643
  Solvation  Ediel_sol  =         0.00000000
  ---------------------------------------------------
  free energy    TOTEN  =        -5.27950756 eV

  energy without entropy =       -5.27950756  energy(sigma->0) =       -5.27950756


--------------------------------------------------------------------------------------------------------




--------------------------------------- Iteration      1(   2)  ---------------------------------------


     EDDAV:  cpu time    0.0440: real time    0.0535
       DOS:  cpu time    0.0000: real time    0.0020
    --------------------------------------------
      LOOP:  cpu time    0.0440: real time    0.0555

 eigenvalue-minimisations  :    80
 total energy-change (2. order) :-0.6596380E+01  (-0.5904695E+01)
 number of electron       8.0000000 magnetization 
 augmentation part        8.0000000 magnetization 

 Free energy of the ion-electron system (eV)
  ---------------------------------------------------
  alpha Z        PSCENC =         4.40202223
  Ewald energy   TEWEN  =      -265.18101312
  -Hartree energ DENC   =        -2.30415367
  -exchange      EXHF   =         0.00000000
  -V(xc)+E(xc)   XCENC  =       -17.81530915
  PAW double counting   =        65.95520812      -30.76852678
  entropy T*S    EENTRO =        -0.05641896
  eigenvalues    EBANDS =        27.80046701
  atomic energy  EATOM  =       206.09183643
  Solvation  Ediel_sol  =         0.00000000
  ---------------------------------------------------
  free energy    TOTEN  =       -11.87588790 eV

  energy without entropy =      -11.81946894  energy(sigma->0) =      -11.84767842


--------------------------------------------------------------------------------------------------------




--------------------------------------- Iteration      1(   3)  ---------------------------------------


     EDDAV:  cpu time    0.0360: real time    0.0409
       DOS:  cpu time    0.0000: real time    0.0013
    --------------------------------------------
      LOOP:  cpu time    0.0360: real time    0.0420

 eigenvalue-minimisations  :    64
 total energy-change (2. order) :-0.5248085E-01  (-0.5248085E-01)
 number of electron       8.0000000 magnetization 
 augmentation part        8.0000000 magnetization 

 Free energy of the ion-electron system (eV)
  ---------------------------------------------------
  alpha Z        PSCENC =         4.40202223
  Ewald energy   TEWEN  =      -265.18101312
  -Hartree energ DENC   =        -2.30415367
  -exchange      EXHF   =         0.00000000
  -V(xc)+E(xc)   XCENC  =       -17.81530915
  PAW double counting   =        65.95520812      -30.76852678
  entropy T*S    EENTRO =        -0.05641896
  eigenvalues    EBANDS =        27.74798615
  atomic energy  EATOM  =       206.09183643
  Solvation  Ediel_sol  =         0.00000000
  ---------------------------------------------------
  free energy    TOTEN  =       -11.92836875 eV

  energy without entropy =      -11.87194979  energy(sigma->0) =      -11.90015927


--------------------------------------------------------------------------------------------------------




--------------------------------------- Iteration      1(   4)  ---------------------------------------


     EDDAV:  cpu time    0.0400: real time    0.0433
       DOS:  cpu time    0.0000: real time    0.0013
    --------------------------------------------
      LOOP:  cpu time    0.0400: real time    0.0446

 eigenvalue-minimisations  :    72
 total energy-change (2. order) :-0.4419684E-04  (-0.4419773E-04)
 number of electron       8.0000000 magnetization 
 augmentation part        8.0000000 magnetization 

 Free energy of the ion-electron system (eV)
  ---------------------------------------------------
  alpha Z        PSCENC =         4.40202223
  Ewald energy   TEWEN  =      -265.18101312
  -Hartree energ DENC   =        -2.30415367
  -exchange      EXHF   =         0.00000000
  -V(xc)+E(xc)   XCENC  =       -17.81530915
  PAW double counting   =        65.95520812      -30.76852678
  entropy T*S    EENTRO =        -0.05641896
  eigenvalues    EBANDS =        27.74794196
  atomic energy  EATOM  =       206.09183643
  Solvation  Ediel_sol  =         0.00000000
  ---------------------------------------------------
  free energy    TOTEN  =       -11.92841295 eV

  energy without entropy =      -11.87199399  energy(sigma->0) =      -11.90020347


--------------------------------------------------------------------------------------------------------




--------------------------------------- Iteration      1(   5)  ---------------------------------------


     EDDAV:  cpu time    0.0320: real time    0.0360
       DOS:  cpu time    0.0040: real time    0.0012
    CHARGE:  cpu time    0.0040: real time    0.0060
    MIXING:  cpu time    0.0000: real time    0.0015
    --------------------------------------------
      LOOP:  cpu time    0.0400: real time    0.0447

 eigenvalue-minimisations  :    56
 total energy-change (2. order) :-0.9343302E-07  (-0.9249525E-07)
 number of electron       8.0000043 magnetization 
 augmentation part       -0.4672095 magnetization 

 Broyden mixing:
  rms(total) = 0.13931E+00    rms(broyden)= 0.13917E+00
  rms(prec ) = 0.32291E+00
  weight for this iteration     100.00

 Free energy of the ion-electron system (eV)
  ---------------------------------------------------
  alpha Z        PSCENC =         4.40202223
  Ewald energy   TEWEN  =      -265.18101312
  -Hartree energ DENC   =        -2.30415367
  -exchange      EXHF   =         0.00000000
  -V(xc)+E(xc)   XCENC  =       -17.81530915
  PAW double counting   =        65.95520812      -30.76852678
  entropy T*S    EENTRO =        -0.05641896
  eigenvalues    EBANDS =        27.74794186
  atomic energy  EATOM  =       206.09183643
  Solvation  Ediel_sol  =         0.00000000
  ---------------------------------------------------
  free energy    TOTEN  =       -11.92841304 eV

  energy without entropy =      -11.87199408  energy(sigma->0) =      -11.90020356


--------------------------------------------------------------------------------------------------------




--------------------------------------- Iteration      1(   6)  ---------------------------------------


    POTLOK:  cpu time    0.0160: real time    0.0195
    SETDIJ:  cpu time    0.0080: real time    0.0080
     EDDAV:  cpu time    0.0200: real time    0.0214
       DOS:  cpu time    0.0040: real time    0.0012
    CHARGE:  cpu time    0.0040: real time    0.0048
    MIXING:  cpu time    0.0000: real time    0.0013
    --------------------------------------------
      LOOP:  cpu time    0.0520: real time    0.0563

 eigenvalue-minimisations  :    48
 total energy-change (2. order) : 0.1562946E-01  (-0.4762541E-03)
 number of electron       8.0000044 magnetization 
 augmentation part       -0.4697129 magnetization 

 Broyden mixing:
  rms(total) = 0.86369E-01    rms(broyden)= 0.86364E-01
  rms(prec ) = 0.19946E+00
  weight for this iteration     100.00

 eigenvalues of (default mixing * dielectric matrix)
  average eigenvalue GAMMA=   2.6261
  2.6261

 Free energy of the ion-electron system (eV)
  ---------------------------------------------------
  alpha Z        PSCENC =         4.40202223
  Ewald energy   TEWEN  =      -265.18101312
  -Hartree energ DENC   =        -2.24056764
  -exchange      EXHF   =         0.00000000
  -V(xc)+E(xc)   XCENC  =       -17.73114581
  PAW double counting   =        68.24529959      -33.08787471
  entropy T*S    EENTRO =        -0.05641896
  eigenvalues    EBANDS =        27.64507840
  atomic energy  EATOM  =       206.09183643
  Solvation  Ediel_sol  =         0.00000000
  ---------------------------------------------------
  free energy    TOTEN  =       -11.91278358 eV

  energy without entropy =      -11.85636462  energy(sigma->0) =      -11.88457410


--------------------------------------------------------------------------------------------------------




--------------------------------------- Iteration      1(   7)  ---------------------------------------


    POTLOK:  cpu time    0.0160: real time    0.0205
    SETDIJ:  cpu time    0.0080: real time    0.0081
     EDDAV:  cpu time    0.0200: real time    0.0211
       DOS:  cpu time    0.0000: real time    0.0016
    CHARGE:  cpu time    0.0080: real time    0.0048
    MIXING:  cpu time    0.0000: real time    0.0012
    --------------------------------------------
      LOOP:  cpu time    0.0520: real time    0.0577

 eigenvalue-minimisations  :    48
 total energy-change (2. order) : 0.1023258E-01  (-0.1128918E-02)
 number of electron       8.0000044 magnetization 
 augmentation part       -0.4739740 magnetization 

 Broyden mixing:
  rms(total) = 0.46164E-02    rms(broyden)= 0.45882E-02
  rms(prec ) = 0.12251E-01
  weight for this iteration     100.00

 eigenvalues of (default mixing * dielectric matrix)
  average eigenvalue GAMMA=   2.4602
  2.4602  2.4602

 Free energy of the ion-electron system (eV)
  ---------------------------------------------------
  alpha Z        PSCENC =         4.40202223
  Ewald energy   TEWEN  =      -265.18101312
  -Hartree energ DENC   =        -2.23348510
  -exchange      EXHF   =         0.00000000
  -V(xc)+E(xc)   XCENC  =       -17.58046088
  PAW double counting   =        71.89913962      -36.79460097
  entropy T*S    EENTRO =        -0.05641896
  eigenvalues    EBANDS =        27.55042975
  atomic energy  EATOM  =       206.09183643
  Solvation  Ediel_sol  =         0.00000000
  ---------------------------------------------------
  free energy    TOTEN  =       -11.90255099 eV

  energy without entropy =      -11.84613204  energy(sigma->0) =      -11.87434152


--------------------------------------------------------------------------------------------------------




--------------------------------------- Iteration      1(   8)  ---------------------------------------


    POTLOK:  cpu time    0.0160: real time    0.0366
    SETDIJ:  cpu time    0.0080: real time    0.0081
     EDDAV:  cpu time    0.0160: real time    0.0155
       DOS:  cpu time    0.0000: real time    0.0013
    --------------------------------------------
      LOOP:  cpu time    0.0400: real time    0.0613

 eigenvalue-minimisations  :    32
 total energy-change (2. order) : 0.4739430E-04  (-0.1239290E-04)
 number of electron       8.0000044 magnetization 
 augmentation part       -0.4739740 magnetization 

 Free energy of the ion-electron system (eV)
  ---------------------------------------------------
  alpha Z        PSCENC =         4.40202223
  Ewald energy   TEWEN  =      -265.18101312
  -Hartree energ DENC   =        -2.26248505
  -exchange      EXHF   =         0.00000000
  -V(xc)+E(xc)   XCENC  =       -17.57560114
  PAW double counting   =        71.91766014      -36.81991901
  entropy T*S    EENTRO =        -0.05641896
  eigenvalues    EBANDS =        27.58141487
  atomic energy  EATOM  =       206.09183643
  Solvation  Ediel_sol  =         0.00000000
  ---------------------------------------------------
  free energy    TOTEN  =       -11.90250360 eV

  energy without entropy =      -11.84608464  energy(sigma->0) =      -11.87429412


--------------------------------------------------------------------------------------------------------




 average (electrostatic) potential at core
  the test charge radii are     0.9892
  (the norm of the test charge is              1.0000)
       1 -80.6909       2 -80.6909
 
 
 
 E-fermi :   8.5711     XC(G=0): -10.9131     alpha+bet :-15.6819


 k-point     1 :       0.2500    0.2500    0.2500
  band No.  band energies     occupation 
      1       3.3874      2.00000
      2       3.3874      2.00000
      3       4.0403      2.00000
      4       4.0404      2.00000
      5      13.2584      0.00000
      6      13.2584      0.00000
      7      15.0424      0.00000
      8      15.0424      0.00000

 k-point     2 :      -0.2500    0.2500    0.2500
  band No.  band energies     occupation 
      1      -3.1642      2.00000
      2       1.9013      2.00000
      3       3.6316      2.00000
      4       8.5711      1.00000
      5      12.9166      0.00000
      6      16.2090      0.00000
      7      17.3808      0.00000
      8      18.2891      0.00000

 k-point     3 :      -0.2500   -0.2500    0.2500
  band No.  band energies     occupation 
      1       0.8368      2.00000
      2       5.7474      2.00000
      3       5.8404      2.00000
      4       7.2871      2.00000
      5       7.2872      2.00000
      6      11.5326      0.00000
      7      12.3731      0.00000
      8      12.3732      0.00000


--------------------------------------------------------------------------------------------------------


 soft charge-density along one line, spin component           1
         0         1         2         3         4         5         6         7         8         9
 total charge-density along one line
 
 pseudopotential strength for first ion, spin component:           1
 18.079  -0.003   0.000  -0.000  -0.000  -0.000   0.000   0.000
 -0.003   0.005  -0.000   0.000   0.000   0.000  -0.000  -0.000
  0.000  -0.000   4.117   0.000   0.000  -0.006  -0.000  -0.000
 -0.000   0.000   0.000   4.119   0.000  -0.000  -0.006  -0.000
 -0.000   0.000   0.000   0.000   4.117  -0.000  -0.000  -0.006
 -0.000   0.000  -0.006  -0.000  -0.000   0.005   0.000   0.000
  0.000  -0.000  -0.000  -0.006  -0.000   0.000   0.005   0.000
  0.000  -0.000  -0.000  -0.000  -0.006   0.000   0.000   0.005
 total augmentation occupancy for first ion, spin component:           1
  1.655  -0.692   0.000   0.000   0.000   0.000   0.000  -0.000
 -0.692   0.958   0.000   0.000   0.000   0.000   0.000  -0.000
  0.000   0.000   0.802   0.000  -0.000  -0.793   0.000   0.000
  0.000   0.000   0.000   0.881  -0.000   0.000  -0.936  -0.000
  0.000   0.000  -0.000  -0.000   0.802   0.000  -0.000  -0.793
  0.000  -0.000  -0.793   0.000   0.000   0.864   0.000  -0.000
  0.000   0.000   0.000  -0.936  -0.000   0.000   1.025   0.000
 -0.000  -0.000   0.000  -0.000  -0.793  -0.000   0.000   0.864


------------------------ aborting loop because EDIFF is reached ----------------------------------------


    CHARGE:  cpu time    0.0040: real time    0.0060
    FORLOC:  cpu time    0.0000: real time    0.0004
    FORNL :  cpu time    0.0040: real time    0.0040
    STRESS:  cpu time    0.0160: real time    0.0141
    FORCOR:  cpu time    0.0080: real time    0.0091
    FORHAR:  cpu time    0.0040: real time    0.0029
    MIXING:  cpu time    0.0000: real time    0.0008
    OFIELD:  cpu time    0.0000: real time    0.0005

  FORCE on cell =-STRESS in cart. coord.  units (eV):
  Direction    XX          YY          ZZ          XY          YZ          ZX
  --------------------------------------------------------------------------------------
  Alpha Z     4.40202     4.40202     4.40202
  Ewald     -90.96023   -90.96023   -83.26083    -0.00000     0.00000     0.00000
  Hartree     0.52986     0.52986     1.20642    -0.00000    -0.00000    -0.00000
  E(xc)     -25.34087   -25.34087   -25.29003     0.00013     0.00007     0.00007
  Local     -11.20646   -11.20646   -16.57983    -0.00013    -0.00012    -0.00012
  n-local    77.02740    77.96675    76.70071    -0.00064    -0.00040    -0.00046
  augment   -12.00667   -12.00667   -12.20168     0.00009     0.00008     0.00008
  Kinetic    51.72607    53.59353    59.67943     0.00003     0.00001    -0.00000
  Fock        0.00000     0.00000     0.00000     0.00000     0.00000     0.00000
  -------------------------------------------------------------------------------------
  Total      -4.42546    -4.42546     4.65621     0.00000    -0.00000     0.00000
  in kB    -231.79677  -231.79677   243.88326     0.00000    -0.00000     0.00000
  external pressure =      -73.24 kB  Pullay stress =        0.00 kB


 VOLUME and BASIS-vectors are now :
 -----------------------------------------------------------------------------
  energy-cutoff  :      150.00
  volume of cell :       30.59
      direct lattice vectors                 reciprocal lattice vectors
    -2.450000000  2.450000000  1.274000000     0.000000000  0.204081633  0.392464678
     2.450000000 -2.450000000  1.274000000     0.204081633  0.000000000  0.392464678
     2.450000000  2.450000000 -1.274000000     0.204081633  0.204081633 -0.000000000

  length of vectors
     3.691622408  3.691622408  3.691622408     0.442354876  0.442354876  0.288615013


 FORCES acting on ions
    electron-ion (+dipol)            ewald-force                    non-local-force                 convergence-correction
 -----------------------------------------------------------------------------------------------
   -.169E-04 0.169E-04 -.103E-13   0.198E-14 0.156E-15 0.342E-17   -.573E-18 0.332E-18 -.252E-18   -.417E-06 0.417E-06 -.152E-15
   0.169E-04 -.169E-04 0.378E-14   -.185E-14 0.943E-16 0.891E-15   0.616E-18 -.464E-18 -.235E-18   0.417E-06 -.417E-06 0.869E-16
 -----------------------------------------------------------------------------------------------
   -.775E-14 0.354E-15 -.655E-14   0.139E-15 0.250E-15 0.894E-15   0.432E-19 -.132E-18 -.487E-18   0.879E-16 -.439E-16 -.653E-16
 
 
 POSITION                                       TOTAL-FORCE (eV/Angst)
 -----------------------------------------------------------------------------------
      2.45000      0.00000      0.63700        -0.000000      0.000000     -0.000000
      0.00000      0.00000      0.00000         0.000000     -0.000000      0.000000
 -----------------------------------------------------------------------------------
    total drift:                               -0.000000      0.000000     -0.000000


--------------------------------------------------------------------------------------------------------



  FREE ENERGIE OF THE ION-ELECTRON SYSTEM (eV)
  ---------------------------------------------------
  free  energy   TOTEN  =       -11.90250360 eV

  energy  without entropy=      -11.84608464  energy(sigma->0) =      -11.87429412
 


--------------------------------------------------------------------------------------------------------


    POTLOK:  cpu time    0.0280: real time    0.0359


--------------------------------------------------------------------------------------------------------




--------------------------------------------------------------------------------------------------------


    WAVPRE:  cpu time    0.2960: real time    0.5092
    FEWALD:  cpu time    0.0000: real time    0.0006
    GENKIN:  cpu time    0.0000: real time    0.0009
    ORTHCH:  cpu time    0.0040: real time    0.0020
     LOOP+:  cpu time    0.7720: real time    1.1832


--------------------------------------- Iteration      2(   1)  ---------------------------------------


    POTLOK:  cpu time    0.0160: real time    0.0210
    SETDIJ:  cpu time    0.0080: real time    0.0081
     EDDAV:  cpu time    0.0200: real time    0.0210
       DOS:  cpu time    0.0000: real time    0.0014
    CHARGE:  cpu time    0.0080: real time    0.0049
    MIXING:  cpu time    0.0000: real time    0.0009
    --------------------------------------------
      LOOP:  cpu time    0.0520: real time    0.0580

 eigenvalue-minimisations  :    48
 total energy-change (2. order) :-0.1235500E+00  (-0.2899831E+01)
 number of electron       8.0000038 magnetization 
 augmentation part       -0.4904965 magnetization 

 Broyden mixing:
  rms(total) = 0.32656E+00    rms(broyden)= 0.32504E+00
  rms(prec ) = 0.10439E+01
  weight for this iteration     100.00

 Free energy of the ion-electron system (eV)
  ---------------------------------------------------
  alpha Z        PSCENC =         4.95994389
  Ewald energy   TEWEN  =      -274.59735246
  -Hartree energ DENC   =        -2.25987559
  -exchange      EXHF   =         0.00000000
  -V(xc)+E(xc)   XCENC  =       -16.99361730
  PAW double counting   =        71.93529364      -36.83833130
  entropy T*S    EENTRO =        -0.05641896
  eigenvalues    EBANDS =        35.73242061
  atomic energy  EATOM  =       206.09183643
  Solvation  Ediel_sol  =         0.00000000
  ---------------------------------------------------
  free energy    TOTEN  =       -12.02610103 eV

  energy without entropy =      -11.96968207  energy(sigma->0) =      -11.99789155


--------------------------------------------------------------------------------------------------------




--------------------------------------- Iteration      2(   2)  ---------------------------------------


    POTLOK:  cpu time    0.0160: real time    0.0209
    SETDIJ:  cpu time    0.0080: real time    0.0081
     EDDAV:  cpu time    0.0320: real time    0.0341
       DOS:  cpu time    0.0000: real time    0.0014
    CHARGE:  cpu time    0.0080: real time    0.0049
    MIXING:  cpu time    0.0000: real time    0.0010
    --------------------------------------------
      LOOP:  cpu time    0.0640: real time    0.0703

 eigenvalue-minimisations  :    72
 total energy-change (2. order) : 0.2707681E+00  (-0.4336176E-01)
 number of electron       8.0000038 magnetization 
 augmentation part       -0.4903212 magnetization 

 Broyden mixing:
  rms(total) = 0.18860E+00    rms(broyden)= 0.18849E+00
  rms(prec ) = 0.60343E+00
  weight for this iteration     100.00

 eigenvalues of (default mixing * dielectric matrix)
  average eigenvalue GAMMA=   2.3785
  2.3785

 Free energy of the ion-electron system (eV)
  ---------------------------------------------------
  alpha Z        PSCENC =         4.95994389
  Ewald energy   TEWEN  =      -274.59735246
  -Hartree energ DENC   =        -2.22373963
  -exchange      EXHF   =         0.00000000
  -V(xc)+E(xc)   XCENC  =       -16.93349813
  PAW double counting   =        74.48469695      -39.45296753
  entropy T*S    EENTRO =        -0.05641896
  eigenvalues    EBANDS =        35.97216651
  atomic energy  EATOM  =       206.09183643
  Solvation  Ediel_sol  =         0.00000000
  ---------------------------------------------------
  free energy    TOTEN  =       -11.75533293 eV

  energy without entropy =      -11.69891398  energy(sigma->0) =      -11.72712345


--------------------------------------------------------------------------------------------------------




--------------------------------------- Iteration      2(   3)  ---------------------------------------


    POTLOK:  cpu time    0.0160: real time    0.0198
    SETDIJ:  cpu time    0.0080: real time    0.0081
     EDDAV:  cpu time    0.0240: real time    0.0248
       DOS:  cpu time    0.0000: real time    0.0014
    CHARGE:  cpu time    0.0040: real time    0.0050
    MIXING:  cpu time    0.0000: real time    0.0010
    --------------------------------------------
      LOOP:  cpu time    0.0520: real time    0.0600

 eigenvalue-minimisations  :    56
 total energy-change (2. order) : 0.1391614E+00  (-0.3260380E-01)
 number of electron       8.0000037 magnetization 
 augmentation part       -0.4891690 magnetization 

 Broyden mixing:
  rms(total) = 0.17822E-01    rms(broyden)= 0.17786E-01
  rms(prec ) = 0.52606E-01
  weight for this iteration     100.00

 eigenvalues of (default mixing * dielectric matrix)
  average eigenvalue GAMMA=   1.3147
  2.3631  0.2664

 Free energy of the ion-electron system (eV)
  ---------------------------------------------------
  alpha Z        PSCENC =         4.95994389
  Ewald energy   TEWEN  =      -274.59735246
  -Hartree energ DENC   =        -2.63904068
  -exchange      EXHF   =         0.00000000
  -V(xc)+E(xc)   XCENC  =       -16.79627122
  PAW double counting   =        78.14071588      -43.20138411
  entropy T*S    EENTRO =        -0.05641896
  eigenvalues    EBANDS =        36.48179971
  atomic energy  EATOM  =       206.09183643
  Solvation  Ediel_sol  =         0.00000000
  ---------------------------------------------------
  free energy    TOTEN  =       -11.61617152 eV

  energy without entropy =      -11.55975256  energy(sigma->0) =      -11.58796204


--------------------------------------------------------------------------------------------------------




--------------------------------------- Iteration      2(   4)  ---------------------------------------


    POTLOK:  cpu time    0.0160: real time    0.0213
    SETDIJ:  cpu time    0.0080: real time    0.0080
     EDDAV:  cpu time    0.0200: real time    0.0211
       DOS:  cpu time    0.0040: real time    0.0014
    CHARGE:  cpu time    0.0040: real time    0.0049
    MIXING:  cpu time    0.0000: real time    0.0011
    --------------------------------------------
      LOOP:  cpu time    0.0520: real time    0.0578

 eigenvalue-minimisations  :    48
 total energy-change (2. order) :-0.5049755E-03  (-0.6916847E-03)
 number of electron       8.0000037 magnetization 
 augmentation part       -0.4894805 magnetization 

 Broyden mixing:
  rms(total) = 0.17193E-01    rms(broyden)= 0.17191E-01
  rms(prec ) = 0.48806E-01
  weight for this iteration     100.00

 eigenvalues of (default mixing * dielectric matrix)
  average eigenvalue GAMMA=   1.1499
  2.3627  0.5436  0.5436

 Free energy of the ion-electron system (eV)
  ---------------------------------------------------
  alpha Z        PSCENC =         4.95994389
  Ewald energy   TEWEN  =      -274.59735246
  -Hartree energ DENC   =        -2.62917461
  -exchange      EXHF   =         0.00000000
  -V(xc)+E(xc)   XCENC  =       -16.79717996
  PAW double counting   =        78.10225512      -43.16204363
  entropy T*S    EENTRO =        -0.05641896
  eigenvalues    EBANDS =        36.47145768
  atomic energy  EATOM  =       206.09183643
  Solvation  Ediel_sol  =         0.00000000
  ---------------------------------------------------
  free energy    TOTEN  =       -11.61667650 eV

  energy without entropy =      -11.56025754  energy(sigma->0) =      -11.58846702


--------------------------------------------------------------------------------------------------------




--------------------------------------- Iteration      2(   5)  ---------------------------------------


    POTLOK:  cpu time    0.0160: real time    0.0199
    SETDIJ:  cpu time    0.0080: real time    0.0082
     EDDAV:  cpu time    0.0120: real time    0.0127
       DOS:  cpu time    0.0000: real time    0.0025
    --------------------------------------------
      LOOP:  cpu time    0.0360: real time    0.0432

 eigenvalue-minimisations  :    24
 total energy-change (2. order) : 0.2123612E-03  (-0.9912945E-05)
 number of electron       8.0000037 magnetization 
 augmentation part       -0.4894805 magnetization 

 Free energy of the ion-electron system (eV)
  ---------------------------------------------------
  alpha Z        PSCENC =         4.95994389
  Ewald energy   TEWEN  =      -274.59735246
  -Hartree energ DENC   =        -2.61272451
  -exchange      EXHF   =         0.00000000
  -V(xc)+E(xc)   XCENC  =       -16.79793436
  PAW double counting   =        78.07552381      -43.13495745
  entropy T*S    EENTRO =        -0.05641896
  eigenvalues    EBANDS =        36.45561948
  atomic energy  EATOM  =       206.09183643
  Solvation  Ediel_sol  =         0.00000000
  ---------------------------------------------------
  free energy    TOTEN  =       -11.61646414 eV

  energy without entropy =      -11.56004518  energy(sigma->0) =      -11.58825466


--------------------------------------------------------------------------------------------------------




 average (electrostatic) potential at core
  the test charge radii are     0.9892
  (the norm of the test charge is              1.0000)
       1 -78.8127       2 -78.8127
 
 
 
 E-fermi :  11.6456     XC(G=0): -11.3589     alpha+bet :-17.6695


 k-point     1 :       0.2500    0.2500    0.2500
  band No.  band energies     occupation 
      1       3.1442      2.00000
      2       3.1443      2.00000
      3       4.8101      2.00000
      4       4.8102      2.00000
      5      15.6444      0.00000
      6      15.6445      0.00000
      7      18.2290      0.00000
      8      18.2290      0.00000

 k-point     2 :      -0.2500    0.2500    0.2500
  band No.  band energies     occupation 
      1      -2.2714      2.00000
      2       4.8280      2.00000
      3       5.1391      2.00000
      4      11.6456      1.00000
      5      14.6749      0.00000
      6      15.3032      0.00000
      7      19.3142      0.00000
      8      19.3955      0.00000

 k-point     3 :      -0.2500   -0.2500    0.2500
  band No.  band energies     occupation 
      1       0.2041      2.00000
      2       7.3322      2.00000
      3       7.3322      2.00000
      4       7.3830      2.00000
      5       7.7141      2.00000
      6      14.4599      0.00000
      7      14.4600      0.00000
      8      15.8271      0.00000


--------------------------------------------------------------------------------------------------------


 soft charge-density along one line, spin component           1
         0         1         2         3         4         5         6         7         8         9
 total charge-density along one line
 
 pseudopotential strength for first ion, spin component:           1
 17.892  -0.005  -0.000  -0.000   0.000   0.000   0.000  -0.000
 -0.005   0.005   0.000   0.000  -0.000  -0.000  -0.000   0.000
 -0.000   0.000   4.101   0.000   0.000  -0.007  -0.000  -0.000
 -0.000   0.000   0.000   4.101   0.000  -0.000  -0.007  -0.000
  0.000  -0.000   0.000   0.000   4.101  -0.000  -0.000  -0.007
  0.000  -0.000  -0.007  -0.000  -0.000   0.005   0.000   0.000
  0.000  -0.000  -0.000  -0.007  -0.000   0.000   0.005   0.000
 -0.000   0.000  -0.000  -0.000  -0.007   0.000   0.000   0.005
 total augmentation occupancy for first ion, spin component:           1
  1.686  -0.954   0.000   0.000  -0.000   0.000   0.000   0.000
 -0.954   1.614   0.000   0.000   0.000   0.000   0.000   0.000
  0.000   0.000   1.012   0.000  -0.000  -0.998  -0.000   0.000
  0.000   0.000   0.000   0.729  -0.000   0.000  -0.863   0.000
 -0.000   0.000  -0.000  -0.000   1.012   0.000   0.000  -0.998
  0.000   0.000  -0.998   0.000   0.000   1.120  -0.000  -0.000
  0.000   0.000  -0.000  -0.863   0.000  -0.000   1.101  -0.000
  0.000   0.000   0.000   0.000  -0.998  -0.000  -0.000   1.120


------------------------ aborting loop because EDIFF is reached ----------------------------------------


    CHARGE:  cpu time    0.0040: real time    0.0044
    FORLOC:  cpu time    0.0000: real time    0.0003
    FORNL :  cpu time    0.0040: real time    0.0040
    STRESS:  cpu time    0.0160: real time    0.0144
    FORCOR:  cpu time    0.0080: real time    0.0088
    FORHAR:  cpu time    0.0000: real time    0.0026
    MIXING:  cpu time    0.0000: real time    0.0007
    OFIELD:  cpu time    0.0000: real time    0.0004

  FORCE on cell =-STRESS in cart. coord.  units (eV):
  Direction    XX          YY          ZZ          XY          YZ          ZX
  --------------------------------------------------------------------------------------
  Alpha Z     4.95994     4.95994     4.95994
  Ewald     -83.64069   -83.64069  -107.31613    -0.00000     0.00000    -0.00000
  Hartree     1.29042     1.29042    -0.07218    -0.00000    -0.00000    -0.00000
  E(xc)     -26.54697   -26.54697   -26.20873     0.00003     0.00003     0.00003
  Local     -21.62041   -21.62041     4.67751    -0.00008    -0.00008    -0.00008
  n-local    83.71656    83.26839    77.27860    -0.00042    -0.00022    -0.00024
  augment   -12.62678   -12.62678   -11.91162     0.00017     0.00012     0.00013
  Kinetic    58.96575    64.02425    54.60014    -0.00011    -0.00002    -0.00005
  Fock        0.00000     0.00000     0.00000     0.00000     0.00000     0.00000
  -------------------------------------------------------------------------------------
  Total       6.80299     6.80299    -3.99247    -0.00000     0.00000    -0.00000
  in kB     401.48846   401.48846  -235.62160    -0.00000     0.00000    -0.00000
  external pressure =      189.12 kB  Pullay stress =        0.00 kB


 VOLUME and BASIS-vectors are now :
 -----------------------------------------------------------------------------
  energy-cutoff  :      150.00
  volume of cell :       27.15
      direct lattice vectors                 reciprocal lattice vectors
    -2.188467502  2.188467502  1.417088134    -0.000000000  0.228470379  0.352836206
     2.188467502 -2.188467502  1.417088134     0.228470379 -0.000000000  0.352836206
     2.188467502  2.188467502 -1.417088134     0.228470379  0.228470379 -0.000000000

  length of vectors
     3.403956344  3.403956344  3.403956344     0.420347597  0.420347597  0.323105909


 FORCES acting on ions
    electron-ion (+dipol)            ewald-force                    non-local-force                 convergence-correction
 -----------------------------------------------------------------------------------------------
   0.529E-06 -.529E-06 -.284E-14   -.121E-13 -.102E-15 -.306E-14   0.137E-16 -.150E-16 0.100E-16   0.139E-05 -.139E-05 -.268E-15
   -.529E-06 0.529E-06 -.101E-13   0.120E-13 0.216E-15 0.355E-14   -.832E-17 0.995E-17 -.906E-17   -.139E-05 0.139E-05 -.289E-15
 -----------------------------------------------------------------------------------------------
   -.954E-14 0.114E-14 -.130E-13   -.108E-15 0.114E-15 0.481E-15   0.541E-17 -.505E-17 0.953E-18   0.380E-16 -.335E-15 -.557E-15
 
 
 POSITION                                       TOTAL-FORCE (eV/Angst)
 -----------------------------------------------------------------------------------
      2.18847     -0.00000      0.70854        -0.000000      0.000000     -0.000000
      0.00000     -0.00000      0.00000         0.000000     -0.000000      0.000000
 -----------------------------------------------------------------------------------
    total drift:                               -0.000000      0.000000     -0.000000


--------------------------------------------------------------------------------------------------------



  FREE ENERGIE OF THE ION-ELECTRON SYSTEM (eV)
  ---------------------------------------------------
  free  energy   TOTEN  =       -11.61646414 eV

  energy  without entropy=      -11.56004518  energy(sigma->0) =      -11.58825466
 
 d Force = 0.0000000E+00[ 0.000E+00, 0.000E+00]  d Energy =-0.2860395E+00 0.286E+00
 d Force = 0.0000000E+00[ 0.000E+00, 0.000E+00]  d Ewald  = 0.9416339E+01-0.942E+01


--------------------------------------------------------------------------------------------------------


    POTLOK:  cpu time    0.0240: real time    0.0348


--------------------------------------------------------------------------------------------------------


 Steepest descent step on ions:
 trial-energy change:    0.286039  1 .order    0.216522   -1.467776    1.900820
  (g-gl).g = 0.147E+01      g.g   = 0.147E+01  gl.gl    = 0.000E+00
 g(Force)  = 0.254E-43   g(Stress)= 0.147E+01 ortho     = 0.000E+00
 gamma     =   0.00000
 trial     =   1.00000
 opt step  =   0.40587  (harmonic =   0.43572) maximal distance =0.00000000
 next E    =   -12.195716   (d E  =  -0.29321)


--------------------------------------------------------------------------------------------------------


    WAVPRE:  cpu time    0.0120: real time    0.0308
    FEWALD:  cpu time    0.0000: real time    0.0007
    GENKIN:  cpu time    0.0000: real time    0.0010
    ORTHCH:  cpu time    0.0040: real time    0.0019
     LOOP+:  cpu time    0.3680: real time    0.4630


--------------------------------------- Iteration      3(   1)  ---------------------------------------


    POTLOK:  cpu time    0.0160: real time    0.0208
    SETDIJ:  cpu time    0.0080: real time    0.0081
     EDDAV:  cpu time    0.0200: real time    0.0214
       DOS:  cpu time    0.0000: real time    0.0016
    CHARGE:  cpu time    0.0080: real time    0.0051
    MIXING:  cpu time    0.0000: real time    0.0009
    --------------------------------------------
      LOOP:  cpu time    0.0520: real time    0.0588

 eigenvalue-minimisations  :    48
 total energy-change (2. order) :-0.7248681E+00  (-0.1018980E+01)
 number of electron       7.9999943 magnetization 
 augmentation part       -0.4746749 magnetization 

 Broyden mixing:
  rms(total) = 0.18095E+00    rms(broyden)= 0.18018E+00
  rms(prec ) = 0.55715E+00
  weight for this iteration     100.00

 Free energy of the ion-electron system (eV)
  ---------------------------------------------------
  alpha Z        PSCENC =         4.60007120
  Ewald energy   TEWEN  =      -269.12251804
  -Hartree energ DENC   =        -2.35796823
  -exchange      EXHF   =         0.00000000
  -V(xc)+E(xc)   XCENC  =       -17.20756270
  PAW double counting   =        77.96135142      -43.01947762
  entropy T*S    EENTRO =        -0.05641896
  eigenvalues    EBANDS =        30.76914192
  atomic energy  EATOM  =       206.09183643
  Solvation  Ediel_sol  =         0.00000000
  ---------------------------------------------------
  free energy    TOTEN  =       -12.34154458 eV

  energy without entropy =      -12.28512563  energy(sigma->0) =      -12.31333511


--------------------------------------------------------------------------------------------------------




--------------------------------------- Iteration      3(   2)  ---------------------------------------


    POTLOK:  cpu time    0.0160: real time    0.0222
    SETDIJ:  cpu time    0.0080: real time    0.0081
     EDDAV:  cpu time    0.0240: real time    0.0250
       DOS:  cpu time    0.0000: real time    0.0015
    CHARGE:  cpu time    0.0040: real time    0.0049
    MIXING:  cpu time    0.0040: real time    0.0010
    --------------------------------------------
      LOOP:  cpu time    0.0560: real time    0.0623

 eigenvalue-minimisations  :    56
 total energy-change (2. order) : 0.8320647E-01  (-0.1365366E-01)
 number of electron       7.9999942 magnetization 
 augmentation part       -0.4789754 magnetization 

 Broyden mixing:
  rms(total) = 0.10436E+00    rms(broyden)= 0.10429E+00
  rms(prec ) = 0.32162E+00
  weight for this iteration     100.00

 eigenvalues of (default mixing * dielectric matrix)
  average eigenvalue GAMMA=   2.3419
  2.3419

 Free energy of the ion-electron system (eV)
  ---------------------------------------------------
  alpha Z        PSCENC =         4.60007120
  Ewald energy   TEWEN  =      -269.12251804
  -Hartree energ DENC   =        -2.14896864
  -exchange      EXHF   =         0.00000000
  -V(xc)+E(xc)   XCENC  =       -17.26179482
  PAW double counting   =        75.95990533      -40.96542642
  entropy T*S    EENTRO =        -0.05641896
  eigenvalues    EBANDS =        30.64497582
  atomic energy  EATOM  =       206.09183643
  Solvation  Ediel_sol  =         0.00000000
  ---------------------------------------------------
  free energy    TOTEN  =       -12.25833811 eV

  energy without entropy =      -12.20191915  energy(sigma->0) =      -12.23012863


--------------------------------------------------------------------------------------------------------




--------------------------------------- Iteration      3(   3)  ---------------------------------------


    POTLOK:  cpu time    0.0120: real time    0.0217
    SETDIJ:  cpu time    0.0080: real time    0.0082
     EDDAV:  cpu time    0.0280: real time    0.0250
       DOS:  cpu time    0.0000: real time    0.0015
    CHARGE:  cpu time    0.0040: real time    0.0049
    MIXING:  cpu time    0.0000: real time    0.0011
    --------------------------------------------
      LOOP:  cpu time    0.0520: real time    0.0623

 eigenvalue-minimisations  :    56
 total energy-change (2. order) : 0.4531297E-01  (-0.1036388E-01)
 number of electron       7.9999942 magnetization 
 augmentation part       -0.4780165 magnetization 

 Broyden mixing:
  rms(total) = 0.93604E-02    rms(broyden)= 0.93423E-02
  rms(prec ) = 0.23431E-01
  weight for this iteration     100.00

 eigenvalues of (default mixing * dielectric matrix)
  average eigenvalue GAMMA=   1.6135
  0.9426  2.2845

 Free energy of the ion-electron system (eV)
  ---------------------------------------------------
  alpha Z        PSCENC =         4.60007120
  Ewald energy   TEWEN  =      -269.12251804
  -Hartree energ DENC   =        -2.05092410
  -exchange      EXHF   =         0.00000000
  -V(xc)+E(xc)   XCENC  =       -17.31917292
  PAW double counting   =        73.47119873      -38.41519338
  entropy T*S    EENTRO =        -0.05641896
  eigenvalues    EBANDS =        30.58809590
  atomic energy  EATOM  =       206.09183643
  Solvation  Ediel_sol  =         0.00000000
  ---------------------------------------------------
  free energy    TOTEN  =       -12.21302514 eV

  energy without entropy =      -12.15660618  energy(sigma->0) =      -12.18481566


--------------------------------------------------------------------------------------------------------




--------------------------------------- Iteration      3(   4)  ---------------------------------------


    POTLOK:  cpu time    0.0160: real time    0.0210
    SETDIJ:  cpu time    0.0080: real time    0.0081
     EDDAV:  cpu time    0.0200: real time    0.0215
       DOS:  cpu time    0.0040: real time    0.0014
    --------------------------------------------
      LOOP:  cpu time    0.0480: real time    0.0520

 eigenvalue-minimisations  :    48
 total energy-change (2. order) :-0.9780203E-04  (-0.2360679E-03)
 number of electron       7.9999942 magnetization 
 augmentation part       -0.4780165 magnetization 

 Free energy of the ion-electron system (eV)
  ---------------------------------------------------
  alpha Z        PSCENC =         4.60007120
  Ewald energy   TEWEN  =      -269.12251804
  -Hartree energ DENC   =        -2.06563452
  -exchange      EXHF   =         0.00000000
  -V(xc)+E(xc)   XCENC  =       -17.31890495
  PAW double counting   =        73.47089851      -38.41420084
  entropy T*S    EENTRO =        -0.05641896
  eigenvalues    EBANDS =        30.60174823
  atomic energy  EATOM  =       206.09183643
  Solvation  Ediel_sol  =         0.00000000
  ---------------------------------------------------
  free energy    TOTEN  =       -12.21312294 eV

  energy without entropy =      -12.15670399  energy(sigma->0) =      -12.18491346


--------------------------------------------------------------------------------------------------------




 average (electrostatic) potential at core
  the test charge radii are     0.9892
  (the norm of the test charge is              1.0000)
       1 -80.0761       2 -80.0761
 
 
 
 E-fermi :   9.7744     XC(G=0): -11.0908     alpha+bet :-16.3875


 k-point     1 :       0.2500    0.2500    0.2500
  band No.  band energies     occupation 
      1       3.1721      2.00000
      2       3.1721      2.00000
      3       4.3334      2.00000
      4       4.3334      2.00000
      5      14.0382      0.00000
      6      14.0382      0.00000
      7      16.0899      0.00000
      8      16.0899      0.00000

 k-point     2 :      -0.2500    0.2500    0.2500
  band No.  band energies     occupation 
      1      -2.8205      2.00000
      2       3.0179      2.00000
      3       4.1688      2.00000
      4       9.7744      1.00000
      5      14.5103      0.00000
      6      16.3912      0.00000
      7      17.4531      0.00000
      8      17.4821      0.00000

 k-point     3 :      -0.2500   -0.2500    0.2500
  band No.  band energies     occupation 
      1       0.5217      2.00000
      2       6.3179      2.00000
      3       6.4848      2.00000
      4       7.1807      2.00000
      5       7.1807      2.00000
      6      13.0404      0.00000
      7      13.0485      0.00000
      8      13.0485      0.00000


--------------------------------------------------------------------------------------------------------


 soft charge-density along one line, spin component           1
         0         1         2         3         4         5         6         7         8         9
 total charge-density along one line
 
 pseudopotential strength for first ion, spin component:           1
 18.015  -0.003   0.000  -0.000  -0.000  -0.000   0.000   0.000
 -0.003   0.005  -0.000   0.000   0.000   0.000  -0.000  -0.000
  0.000  -0.000   4.111  -0.000  -0.000  -0.006   0.000   0.000
 -0.000   0.000  -0.000   4.112  -0.000   0.000  -0.006   0.000
 -0.000   0.000  -0.000  -0.000   4.111   0.000   0.000  -0.006
 -0.000   0.000  -0.006   0.000   0.000   0.005  -0.000  -0.000
  0.000  -0.000   0.000  -0.006   0.000  -0.000   0.005  -0.000
  0.000  -0.000   0.000   0.000  -0.006  -0.000  -0.000   0.005
 total augmentation occupancy for first ion, spin component:           1
  1.664  -0.776   0.000   0.000   0.000   0.000   0.000   0.000
 -0.776   1.101  -0.000   0.000   0.000   0.000   0.000  -0.000
 -0.000   0.000   0.880  -0.000   0.000  -0.868   0.000   0.000
  0.000   0.000  -0.000   0.788   0.000  -0.000  -0.867   0.000
  0.000   0.000   0.000   0.000   0.880   0.000   0.000  -0.868
 -0.000   0.000  -0.868  -0.000   0.000   0.956   0.000   0.000
  0.000   0.000   0.000  -0.867   0.000   0.000   0.992   0.000
  0.000   0.000   0.000   0.000  -0.868   0.000   0.000   0.956


------------------------ aborting loop because EDIFF is reached ----------------------------------------


    CHARGE:  cpu time    0.0040: real time    0.0044
    FORLOC:  cpu time    0.0000: real time    0.0003
    FORNL :  cpu time    0.0040: real time    0.0040
    STRESS:  cpu time    0.0120: real time    0.0143
    FORCOR:  cpu time    0.0080: real time    0.0088
    FORHAR:  cpu time    0.0040: real time    0.0026
    MIXING:  cpu time    0.0000: real time    0.0007
    OFIELD:  cpu time    0.0000: real time    0.0004

  FORCE on cell =-STRESS in cart. coord.  units (eV):
  Direction    XX          YY          ZZ          XY          YZ          ZX
  --------------------------------------------------------------------------------------
  Alpha Z     4.60007     4.60007     4.60007
  Ewald     -87.50077   -87.50077   -94.12120     0.00000     0.00000    -0.00000
  Hartree     0.78314     0.78314     0.51563    -0.00000    -0.00000    -0.00000
  E(xc)     -25.70481   -25.70481   -25.51221     0.00000     0.00000     0.00000
  Local     -15.53176   -15.53176    -6.33867    -0.00012    -0.00011    -0.00011
  n-local    79.15877    79.58385    76.08117    -0.00016    -0.00011    -0.00011
  augment   -12.23724   -12.23724   -11.99282     0.00005     0.00006     0.00006
  Kinetic    54.56391    57.08009    56.42249     0.00005     0.00002     0.00002
  Fock        0.00000     0.00000     0.00000     0.00000     0.00000     0.00000
  -------------------------------------------------------------------------------------
  Total      -0.39806    -0.39806    -0.34554    -0.00000    -0.00000     0.00000
  in kB     -21.78771   -21.78771   -18.91293    -0.00000    -0.00000     0.00000
  external pressure =      -20.83 kB  Pullay stress =        0.00 kB


 VOLUME and BASIS-vectors are now :
 -----------------------------------------------------------------------------
  energy-cutoff  :      150.00
  volume of cell :       29.27
      direct lattice vectors                 reciprocal lattice vectors
    -2.343853056  2.343853056  1.332074497    -0.000000000  0.213323953  0.375354382
     2.343853056 -2.343853056  1.332074497     0.213323953 -0.000000000  0.375354382
     2.343853056  2.343853056 -1.332074497     0.213323953  0.213323953 -0.000000000

  length of vectors
     3.572354512  3.572354512  3.572354512     0.431738372  0.431738372  0.301685628


 FORCES acting on ions
    electron-ion (+dipol)            ewald-force                    non-local-force                 convergence-correction
 -----------------------------------------------------------------------------------------------
   -.865E-05 0.865E-05 -.832E-14   0.124E-14 0.165E-15 0.701E-16   -.495E-17 0.691E-18 0.150E-17   0.521E-06 -.521E-06 -.405E-15
   0.865E-05 -.865E-05 0.286E-16   -.117E-14 -.203E-15 -.450E-15   0.540E-17 0.358E-18 0.239E-17   -.521E-06 0.521E-06 -.285E-15
 -----------------------------------------------------------------------------------------------
   -.919E-14 0.183E-14 -.829E-14   0.730E-16 -.380E-16 -.380E-15   0.448E-18 0.105E-17 0.389E-17   0.155E-16 -.691E-16 -.691E-15
 
 
 POSITION                                       TOTAL-FORCE (eV/Angst)
 -----------------------------------------------------------------------------------
      2.34385      0.00000      0.66604         0.000000      0.000000      0.000000
      0.00000     -0.00000      0.00000        -0.000000     -0.000000     -0.000000
 -----------------------------------------------------------------------------------
    total drift:                               -0.000000      0.000000     -0.000000


--------------------------------------------------------------------------------------------------------



  FREE ENERGIE OF THE ION-ELECTRON SYSTEM (eV)
  ---------------------------------------------------
  free  energy   TOTEN  =       -12.21312294 eV

  energy  without entropy=      -12.15670399  energy(sigma->0) =      -12.18491346
 
 d Force = 0.0000000E+00[ 0.000E+00, 0.000E+00]  d Energy = 0.5966588E+00-0.597E+00
 d Force = 0.0000000E+00[ 0.000E+00, 0.000E+00]  d Ewald  =-0.5474834E+01 0.547E+01


--------------------------------------------------------------------------------------------------------


    POTLOK:  cpu time    0.0280: real time    0.0366


--------------------------------------------------------------------------------------------------------




--------------------------------------------------------------------------------------------------------


    WAVPRE:  cpu time    0.0080: real time    0.0197
    FEWALD:  cpu time    0.0000: real time    0.0006
    GENKIN:  cpu time    0.0040: real time    0.0009
    ORTHCH:  cpu time    0.0000: real time    0.0018
     LOOP+:  cpu time    0.3160: real time    0.3981


--------------------------------------- Iteration      4(   1)  ---------------------------------------


    POTLOK:  cpu time    0.0160: real time    0.0208
    SETDIJ:  cpu time    0.0080: real time    0.0108
     EDDAV:  cpu time    0.0200: real time    0.0213
       DOS:  cpu time    0.0040: real time    0.0014
    CHARGE:  cpu time    0.0040: real time    0.0049
    MIXING:  cpu time    0.0000: real time    0.0009
    --------------------------------------------
      LOOP:  cpu time    0.0520: real time    0.0609

 eigenvalue-minimisations  :    48
 total energy-change (2. order) :-0.5647047E-03  (-0.5742506E-03)
 number of electron       7.9999941 magnetization 
 augmentation part       -0.4775475 magnetization 

 Broyden mixing:
  rms(total) = 0.48635E-02    rms(broyden)= 0.48409E-02
  rms(prec ) = 0.14943E-01
  weight for this iteration     100.00

 Free energy of the ion-electron system (eV)
  ---------------------------------------------------
  alpha Z        PSCENC =         4.60759651
  Ewald energy   TEWEN  =      -269.25509475
  -Hartree energ DENC   =        -2.08350694
  -exchange      EXHF   =         0.00000000
  -V(xc)+E(xc)   XCENC  =       -17.31302250
  PAW double counting   =        73.31099998      -38.24887468
  entropy T*S    EENTRO =        -0.05641896
  eigenvalues    EBANDS =        30.73289508
  atomic energy  EATOM  =       206.09183643
  Solvation  Ediel_sol  =         0.00000000
  ---------------------------------------------------
  free energy    TOTEN  =       -12.21358985 eV

  energy without entropy =      -12.15717089  energy(sigma->0) =      -12.18538037


--------------------------------------------------------------------------------------------------------




--------------------------------------- Iteration      4(   2)  ---------------------------------------


    POTLOK:  cpu time    0.0160: real time    0.0224
    SETDIJ:  cpu time    0.0080: real time    0.0081
     EDDAV:  cpu time    0.0120: real time    0.0125
       DOS:  cpu time    0.0000: real time    0.0014
    --------------------------------------------
      LOOP:  cpu time    0.0360: real time    0.0443

 eigenvalue-minimisations  :    24
 total energy-change (2. order) : 0.6152831E-04  (-0.8580952E-05)
 number of electron       7.9999941 magnetization 
 augmentation part       -0.4775475 magnetization 

 Free energy of the ion-electron system (eV)
  ---------------------------------------------------
  alpha Z        PSCENC =         4.60759651
  Ewald energy   TEWEN  =      -269.25509475
  -Hartree energ DENC   =        -2.08270533
  -exchange      EXHF   =         0.00000000
  -V(xc)+E(xc)   XCENC  =       -17.31224070
  PAW double counting   =        73.34309225      -38.28170231
  entropy T*S    EENTRO =        -0.05641896
  eigenvalues    EBANDS =        30.73210855
  atomic energy  EATOM  =       206.09183643
  Solvation  Ediel_sol  =         0.00000000
  ---------------------------------------------------
  free energy    TOTEN  =       -12.21352832 eV

  energy without entropy =      -12.15710936  energy(sigma->0) =      -12.18531884


--------------------------------------------------------------------------------------------------------




 average (electrostatic) potential at core
  the test charge radii are     0.9892
  (the norm of the test charge is              1.0000)
       1 -80.0321       2 -80.0321
 
 
 
 E-fermi :   9.8192     XC(G=0): -11.0953     alpha+bet :-16.4143


 k-point     1 :       0.2500    0.2500    0.2500
  band No.  band energies     occupation 
      1       3.1685      2.00000
      2       3.1685      2.00000
      3       4.3462      2.00000
      4       4.3462      2.00000
      5      14.0714      0.00000
      6      14.0714      0.00000
      7      16.1333      0.00000
      8      16.1333      0.00000

 k-point     2 :      -0.2500    0.2500    0.2500
  band No.  band energies     occupation 
      1      -2.8068      2.00000
      2       3.0618      2.00000
      3       4.1881      2.00000
      4       9.8192      1.00000
      5      14.5559      0.00000
      6      16.3617      0.00000
      7      17.4826      0.00000
      8      17.4958      0.00000

 k-point     3 :      -0.2500   -0.2500    0.2500
  band No.  band energies     occupation 
      1       0.5134      2.00000
      2       6.3436      2.00000
      3       6.5142      2.00000
      4       7.1791      2.00000
      5       7.1791      2.00000
      6      13.0766      0.00000
      7      13.0766      0.00000
      8      13.1060      0.00000


--------------------------------------------------------------------------------------------------------


 soft charge-density along one line, spin component           1
         0         1         2         3         4         5         6         7         8         9
 total charge-density along one line
 
 pseudopotential strength for first ion, spin component:           1
 18.009  -0.003   0.000  -0.000  -0.000  -0.000   0.000   0.000
 -0.003   0.005  -0.000   0.000   0.000   0.000  -0.000  -0.000
  0.000  -0.000   4.110   0.000   0.000  -0.006  -0.000  -0.000
 -0.000   0.000   0.000   4.110   0.000  -0.000  -0.006  -0.000
 -0.000   0.000   0.000   0.000   4.110  -0.000  -0.000  -0.006
 -0.000   0.000  -0.006  -0.000  -0.000   0.005   0.000   0.000
  0.000  -0.000  -0.000  -0.006  -0.000   0.000   0.005   0.000
  0.000  -0.000  -0.000  -0.000  -0.006   0.000   0.000   0.005
 total augmentation occupancy for first ion, spin component:           1
  1.663  -0.796   0.000   0.000   0.000   0.000   0.000  -0.000
 -0.796   1.135   0.000   0.000   0.000  -0.000   0.000   0.000
  0.000   0.000   0.883   0.000   0.000  -0.868   0.000   0.000
  0.000   0.000   0.000   0.782   0.000  -0.000  -0.873   0.000
  0.000   0.000   0.000   0.000   0.883   0.000   0.000  -0.868
  0.000   0.000  -0.868  -0.000   0.000   0.950   0.000   0.000
  0.000   0.000   0.000  -0.873   0.000   0.000   1.015   0.000
  0.000   0.000   0.000   0.000  -0.868   0.000   0.000   0.950


------------------------ aborting loop because EDIFF is reached ----------------------------------------


    CHARGE:  cpu time    0.0040: real time    0.0045
    FORLOC:  cpu time    0.0000: real time    0.0003
    FORNL :  cpu time    0.0040: real time    0.0040
    STRESS:  cpu time    0.0160: real time    0.0142
    FORCOR:  cpu time    0.0080: real time    0.0088
    FORHAR:  cpu time    0.0040: real time    0.0026
    MIXING:  cpu time    0.0000: real time    0.0005
    OFIELD:  cpu time    0.0000: real time    0.0004

  FORCE on cell =-STRESS in cart. coord.  units (eV):
  Direction    XX          YY          ZZ          XY          YZ          ZX
  --------------------------------------------------------------------------------------
  Alpha Z     4.60760     4.60760     4.60760
  Ewald     -87.39187   -87.39187   -94.47157    -0.00000     0.00000    -0.00000
  Hartree     0.79354     0.79354     0.49377    -0.00000    -0.00000    -0.00000
  E(xc)     -25.72801   -25.72801   -25.53299     0.00006     0.00004     0.00004
  Local     -15.69410   -15.69410    -5.96455    -0.00012    -0.00011    -0.00011
  n-local    79.22278    79.62522    76.01270    -0.00040    -0.00026    -0.00025
  augment   -12.23324   -12.23324   -11.97731     0.00011     0.00010     0.00010
  Kinetic    54.66413    57.20972    56.32527    -0.00001    -0.00001    -0.00001
  Fock        0.00000     0.00000     0.00000     0.00000     0.00000     0.00000
  -------------------------------------------------------------------------------------
  Total      -0.28516    -0.28516    -0.50709    -0.00000     0.00000    -0.00000
  in kB     -15.63382   -15.63382   -27.80050    -0.00000     0.00000    -0.00000
  external pressure =      -19.69 kB  Pullay stress =        0.00 kB


 VOLUME and BASIS-vectors are now :
 -----------------------------------------------------------------------------
  energy-cutoff  :      150.00
[...]
  -exchange      EXHF   =         0.00000000
  -V(xc)+E(xc)   XCENC  =       -17.31103874
  PAW double counting   =        73.39299134      -38.33279656
  entropy T*S    EENTRO =        -0.05641896
  eigenvalues    EBANDS =        30.72985592
  atomic energy  EATOM  =       206.09183643
  Solvation  Ediel_sol  =         0.00000000
  ---------------------------------------------------
  free energy    TOTEN  =       -12.21349805 eV

  energy without entropy =      -12.15707909  energy(sigma->0) =      -12.18528857


--------------------------------------------------------------------------------------------------------




 average (electrostatic) potential at core
  the test charge radii are     0.9892
  (the norm of the test charge is              1.0000)
       1 -80.0378       2 -80.0378
 
 
 
 E-fermi :   9.8194     XC(G=0): -11.0957     alpha+bet :-16.4143


 k-point     1 :       0.2500    0.2500    0.2500
  band No.  band energies     occupation 
      1       3.1696      2.00000
      2       3.1696      2.00000
      3       4.3441      2.00000
      4       4.3441      2.00000
      5      14.0717      0.00000
      6      14.0717      0.00000
      7      16.1330      0.00000
      8      16.1330      0.00000

 k-point     2 :      -0.2500    0.2500    0.2500
  band No.  band energies     occupation 
      1      -2.8071      2.00000
      2       3.0600      2.00000
      3       4.1895      2.00000
      4       9.8194      1.00000
      5      14.5538      0.00000
      6      16.3598      0.00000
      7      17.4805      0.00000
      8      17.4983      0.00000

 k-point     3 :      -0.2500   -0.2500    0.2500
  band No.  band energies     occupation 
      1       0.5135      2.00000
      2       6.3414      2.00000
      3       6.5114      2.00000
      4       7.1810      2.00000
      5       7.1810      2.00000
      6      13.0761      0.00000
      7      13.0761      0.00000
      8      13.1020      0.00000


--------------------------------------------------------------------------------------------------------


 soft charge-density along one line, spin component           1
         0         1         2         3         4         5         6         7         8         9
 total charge-density along one line
 
 pseudopotential strength for first ion, spin component:           1
 18.010  -0.003   0.000  -0.000  -0.000  -0.000   0.000   0.000
 -0.003   0.005  -0.000   0.000   0.000   0.000  -0.000  -0.000
  0.000  -0.000   4.110   0.000   0.000  -0.006  -0.000  -0.000
 -0.000   0.000   0.000   4.111   0.000  -0.000  -0.006  -0.000
 -0.000   0.000   0.000   0.000   4.110  -0.000  -0.000  -0.006
 -0.000   0.000  -0.006  -0.000  -0.000   0.005   0.000   0.000
  0.000  -0.000  -0.000  -0.006  -0.000   0.000   0.005   0.000
  0.000  -0.000  -0.000  -0.000  -0.006   0.000   0.000   0.005
 total augmentation occupancy for first ion, spin component:           1
  1.663  -0.796   0.000   0.000   0.000   0.000   0.000   0.000
 -0.796   1.135   0.000   0.000   0.000   0.000   0.000   0.000
  0.000   0.000   0.883   0.000  -0.000  -0.867   0.000   0.000
  0.000   0.000   0.000   0.782   0.000   0.000  -0.874  -0.000
  0.000   0.000  -0.000   0.000   0.883   0.000  -0.000  -0.867
  0.000  -0.000  -0.867   0.000   0.000   0.949   0.000  -0.000
  0.000   0.000   0.000  -0.874  -0.000   0.000   1.017   0.000
  0.000  -0.000   0.000  -0.000  -0.867  -0.000   0.000   0.949


------------------------ aborting loop because EDIFF is reached ----------------------------------------


    CHARGE:  cpu time    0.0040: real time    0.0037
    FORLOC:  cpu time    0.0000: real time    0.0003
    FORNL :  cpu time    0.0040: real time    0.0032
    STRESS:  cpu time    0.0120: real time    0.0112
    FORCOR:  cpu time    0.0040: real time    0.0064
    FORHAR:  cpu time    0.0040: real time    0.0019
    MIXING:  cpu time    0.0000: real time    0.0005
    OFIELD:  cpu time    0.0000: real time    0.0004

  FORCE on cell =-STRESS in cart. coord.  units (eV):
  Direction    XX          YY          ZZ          XY          YZ          ZX
  --------------------------------------------------------------------------------------
  Alpha Z     4.60760     4.60760     4.60760
  Ewald     -87.39186   -87.39186   -94.47159    -0.00000     0.00000     0.00000
  Hartree     0.79205     0.79205     0.49632    -0.00000    -0.00000    -0.00000
  E(xc)     -25.72473   -25.72473   -25.53339     0.00004     0.00003     0.00003
  Local     -15.67027   -15.67027    -6.01682    -0.00012    -0.00011    -0.00011
  n-local    79.21847    79.62348    76.04426    -0.00033    -0.00021    -0.00021
  augment   -12.23660   -12.23660   -11.97933     0.00009     0.00008     0.00008
  Kinetic    54.66899    57.21339    56.32021     0.00001     0.00000     0.00000
  Fock        0.00000     0.00000     0.00000     0.00000     0.00000     0.00000
  -------------------------------------------------------------------------------------
  Total      -0.26164    -0.26164    -0.53275     0.00000    -0.00000     0.00000
  in kB     -14.34423   -14.34423   -29.20730     0.00000    -0.00000     0.00000
  external pressure =      -19.30 kB  Pullay stress =        0.00 kB


 VOLUME and BASIS-vectors are now :
 -----------------------------------------------------------------------------
  energy-cutoff  :      150.00
  volume of cell :       29.22
      direct lattice vectors                 reciprocal lattice vectors
    -2.340167597  2.340167597  1.334090863    -0.000000000  0.213659911  0.374787066
     2.340167597 -2.340167597  1.334090863     0.213659911 -0.000000000  0.374787066
     2.340167597  2.340167597 -1.334090863     0.213659911  0.213659911 -0.000000000

  length of vectors
     3.568272298  3.568272298  3.568272298     0.431411523  0.431411523  0.302160744


 FORCES acting on ions
    electron-ion (+dipol)            ewald-force                    non-local-force                 convergence-correction
 -----------------------------------------------------------------------------------------------
   -.839E-05 0.839E-05 0.866E-15   0.906E-15 -.645E-15 0.332E-16   -.179E-17 0.320E-17 0.436E-17   0.812E-10 -.812E-10 -.631E-16
   0.839E-05 -.839E-05 -.888E-14   -.104E-14 0.515E-15 -.295E-15   -.102E-17 -.364E-17 -.412E-17   -.812E-10 0.812E-10 0.211E-15
 -----------------------------------------------------------------------------------------------
   -.968E-14 0.175E-15 -.802E-14   -.130E-15 -.130E-15 -.262E-15   -.280E-17 -.440E-18 0.242E-18   -.185E-16 0.228E-15 0.148E-15
 
 
 POSITION                                       TOTAL-FORCE (eV/Angst)
 -----------------------------------------------------------------------------------
      2.34017      0.00000      0.66705        -0.000000      0.000000     -0.000000
      0.00000     -0.00000      0.00000         0.000000     -0.000000      0.000000
 -----------------------------------------------------------------------------------
    total drift:                               -0.000000      0.000000     -0.000000


--------------------------------------------------------------------------------------------------------



  FREE ENERGIE OF THE ION-ELECTRON SYSTEM (eV)
  ---------------------------------------------------
  free  energy   TOTEN  =       -12.21349805 eV

  energy  without entropy=      -12.15707909  energy(sigma->0) =      -12.18528857
 
 d Force = 0.0000000E+00[ 0.000E+00, 0.000E+00]  d Energy =-0.9628707E-09 0.963E-09
 d Force = 0.0000000E+00[ 0.000E+00, 0.000E+00]  d Ewald  =-0.1040498E-04 0.104E-04


--------------------------------------------------------------------------------------------------------


    POTLOK:  cpu time    0.0200: real time    0.0291


--------------------------------------------------------------------------------------------------------




--------------------------------------------------------------------------------------------------------


    WAVPRE:  cpu time    0.0080: real time    0.0286
    FEWALD:  cpu time    0.0000: real time    0.0006
    GENKIN:  cpu time    0.0040: real time    0.0008
    ORTHCH:  cpu time    0.0000: real time    0.0014
     LOOP+:  cpu time    0.1520: real time    0.2141


--------------------------------------- Iteration     15(   1)  ---------------------------------------


    POTLOK:  cpu time    0.0120: real time    0.0159
    SETDIJ:  cpu time    0.0080: real time    0.0069
     EDDAV:  cpu time    0.0080: real time    0.0095
       DOS:  cpu time    0.0000: real time    0.0012
    CHARGE:  cpu time    0.0040: real time    0.0040
    MIXING:  cpu time    0.0000: real time    0.0008
    --------------------------------------------
      LOOP:  cpu time    0.0320: real time    0.0389

 eigenvalue-minimisations  :    24
 total energy-change (2. order) : 0.1733781E-08  (-0.6316614E-12)
 number of electron       7.9999941 magnetization 
 augmentation part       -0.4775967 magnetization 

 Broyden mixing:
  rms(total) = 0.38062E-05    rms(broyden)= 0.18106E-06
  rms(prec ) = 0.56208E-06
  weight for this iteration     100.00
  WARNING: grid for Broyden might be to small

 Free energy of the ion-electron system (eV)
  ---------------------------------------------------
  alpha Z        PSCENC =         4.60759680
  Ewald energy   TEWEN  =      -269.25509986
  -Hartree energ DENC   =        -2.08041952
  -exchange      EXHF   =         0.00000000
  -V(xc)+E(xc)   XCENC  =       -17.31103916
  PAW double counting   =        73.39298807      -38.33279320
  entropy T*S    EENTRO =        -0.05641896
  eigenvalues    EBANDS =        30.72985136
  atomic energy  EATOM  =       206.09183643
  Solvation  Ediel_sol  =         0.00000000
  ---------------------------------------------------
  free energy    TOTEN  =       -12.21349805 eV

  energy without entropy =      -12.15707909  energy(sigma->0) =      -12.18528857


--------------------------------------------------------------------------------------------------------




--------------------------------------- Iteration     15(   2)  ---------------------------------------


    POTLOK:  cpu time    0.0120: real time    0.0232
    SETDIJ:  cpu time    0.0080: real time    0.0071
     EDDAV:  cpu time    0.0080: real time    0.0094
       DOS:  cpu time    0.0040: real time    0.0012
    --------------------------------------------
      LOOP:  cpu time    0.0320: real time    0.0408

 eigenvalue-minimisations  :    24
 total energy-change (2. order) :-0.5928769E-10  (-0.3785861E-13)
 number of electron       7.9999941 magnetization 
 augmentation part       -0.4775967 magnetization 

 Free energy of the ion-electron system (eV)
  ---------------------------------------------------
  alpha Z        PSCENC =         4.60759680
  Ewald energy   TEWEN  =      -269.25509986
  -Hartree energ DENC   =        -2.08041955
  -exchange      EXHF   =         0.00000000
  -V(xc)+E(xc)   XCENC  =       -17.31103919
  PAW double counting   =        73.39298682      -38.33279192
  entropy T*S    EENTRO =        -0.05641896
  eigenvalues    EBANDS =        30.72985138
  atomic energy  EATOM  =       206.09183643
  Solvation  Ediel_sol  =         0.00000000
  ---------------------------------------------------
  free energy    TOTEN  =       -12.21349805 eV

  energy without entropy =      -12.15707909  energy(sigma->0) =      -12.18528857


--------------------------------------------------------------------------------------------------------




 average (electrostatic) potential at core
  the test charge radii are     0.9892
  (the norm of the test charge is              1.0000)
       1 -80.0378       2 -80.0378
 
 
 
 E-fermi :   9.8194     XC(G=0): -11.0957     alpha+bet :-16.4143


 k-point     1 :       0.2500    0.2500    0.2500
  band No.  band energies     occupation 
      1       3.1696      2.00000
      2       3.1696      2.00000
      3       4.3441      2.00000
      4       4.3441      2.00000
      5      14.0717      0.00000
      6      14.0717      0.00000
      7      16.1330      0.00000
      8      16.1330      0.00000

 k-point     2 :      -0.2500    0.2500    0.2500
  band No.  band energies     occupation 
      1      -2.8071      2.00000
      2       3.0600      2.00000
      3       4.1895      2.00000
      4       9.8194      1.00000
      5      14.5538      0.00000
      6      16.3598      0.00000
      7      17.4805      0.00000
      8      17.4983      0.00000

 k-point     3 :      -0.2500   -0.2500    0.2500
  band No.  band energies     occupation 
      1       0.5135      2.00000
      2       6.3414      2.00000
      3       6.5114      2.00000
      4       7.1810      2.00000
      5       7.1810      2.00000
      6      13.0761      0.00000
      7      13.0761      0.00000
      8      13.1020      0.00000


--------------------------------------------------------------------------------------------------------


 soft charge-density along one line, spin component           1
         0         1         2         3         4         5         6         7         8         9
 total charge-density along one line
 
 pseudopotential strength for first ion, spin component:           1
 18.010  -0.003   0.000  -0.000  -0.000  -0.000   0.000   0.000
 -0.003   0.005  -0.000   0.000   0.000   0.000  -0.000  -0.000
  0.000  -0.000   4.110   0.000   0.000  -0.006  -0.000  -0.000
 -0.000   0.000   0.000   4.111   0.000  -0.000  -0.006  -0.000
 -0.000   0.000   0.000   0.000   4.110  -0.000  -0.000  -0.006
 -0.000   0.000  -0.006  -0.000  -0.000   0.005   0.000   0.000
  0.000  -0.000  -0.000  -0.006  -0.000   0.000   0.005   0.000
  0.000  -0.000  -0.000  -0.000  -0.006   0.000   0.000   0.005
 total augmentation occupancy for first ion, spin component:           1
  1.663  -0.796   0.000   0.000   0.000   0.000   0.000  -0.000
 -0.796   1.135   0.000   0.000   0.000   0.000   0.000   0.000
  0.000   0.000   0.883   0.000  -0.000  -0.867   0.000   0.000
  0.000   0.000   0.000   0.782   0.000   0.000  -0.874  -0.000
  0.000   0.000  -0.000   0.000   0.883   0.000  -0.000  -0.867
  0.000   0.000  -0.867   0.000   0.000   0.949   0.000  -0.000
  0.000   0.000   0.000  -0.874  -0.000   0.000   1.017   0.000
  0.000   0.000   0.000  -0.000  -0.867  -0.000   0.000   0.949


------------------------ aborting loop because EDIFF is reached ----------------------------------------


    CHARGE:  cpu time    0.0000: real time    0.0037
    FORLOC:  cpu time    0.0000: real time    0.0003
    FORNL :  cpu time    0.0000: real time    0.0033
    STRESS:  cpu time    0.0120: real time    0.0111
    FORCOR:  cpu time    0.0040: real time    0.0064
    FORHAR:  cpu time    0.0040: real time    0.0018
    MIXING:  cpu time    0.0000: real time    0.0005
    OFIELD:  cpu time    0.0000: real time    0.0004

  FORCE on cell =-STRESS in cart. coord.  units (eV):
  Direction    XX          YY          ZZ          XY          YZ          ZX
  --------------------------------------------------------------------------------------
  Alpha Z     4.60760     4.60760     4.60760
  Ewald     -87.39187   -87.39187   -94.47158     0.00000     0.00000     0.00000
  Hartree     0.79205     0.79205     0.49632    -0.00000    -0.00000    -0.00000
  E(xc)     -25.72473   -25.72473   -25.53339     0.00004     0.00003     0.00003
  Local     -15.67026   -15.67026    -6.01683    -0.00012    -0.00011    -0.00011
  n-local    79.21847    79.62348    76.04426    -0.00033    -0.00021    -0.00021
  augment   -12.23660   -12.23660   -11.97933     0.00009     0.00008     0.00008
  Kinetic    54.66899    57.21339    56.32021     0.00001     0.00000     0.00000
  Fock        0.00000     0.00000     0.00000     0.00000     0.00000     0.00000
  -------------------------------------------------------------------------------------
  Total      -0.26165    -0.26165    -0.53274     0.00000    -0.00000     0.00000
  in kB     -14.34460   -14.34460   -29.20694     0.00000    -0.00000     0.00000
  external pressure =      -19.30 kB  Pullay stress =        0.00 kB


 VOLUME and BASIS-vectors are now :
 -----------------------------------------------------------------------------
  energy-cutoff  :      150.00
  volume of cell :       29.22
      direct lattice vectors                 reciprocal lattice vectors
    -2.340167740  2.340167740  1.334090785    -0.000000000  0.213659898  0.374787088
     2.340167740 -2.340167740  1.334090785     0.213659898 -0.000000000  0.374787088
     2.340167740  2.340167740 -1.334090785     0.213659898  0.213659898  0.000000000

  length of vectors
     3.568272457  3.568272457  3.568272457     0.431411536  0.431411536  0.302160725


 FORCES acting on ions
    electron-ion (+dipol)            ewald-force                    non-local-force                 convergence-correction
 -----------------------------------------------------------------------------------------------
   -.839E-05 0.839E-05 -.464E-14   0.203E-13 0.665E-15 0.633E-14   -.788E-18 0.141E-17 -.514E-17   0.403E-10 -.403E-10 0.210E-15
   0.839E-05 -.839E-05 -.208E-14   -.205E-13 -.676E-15 -.568E-14   0.196E-17 -.294E-17 0.892E-18   -.403E-10 0.403E-10 -.436E-17
 -----------------------------------------------------------------------------------------------
   -.117E-13 -.184E-14 -.672E-14   -.122E-15 -.111E-16 0.648E-15   0.117E-17 -.154E-17 -.425E-17   -.259E-16 0.209E-15 0.206E-15
 
 
 POSITION                                       TOTAL-FORCE (eV/Angst)
 -----------------------------------------------------------------------------------
      2.34017      0.00000      0.66705         0.000000      0.000000     -0.000000
      0.00000     -0.00000      0.00000        -0.000000     -0.000000      0.000000
 -----------------------------------------------------------------------------------
    total drift:                               -0.000000     -0.000000     -0.000000


--------------------------------------------------------------------------------------------------------



  FREE ENERGIE OF THE ION-ELECTRON SYSTEM (eV)
  ---------------------------------------------------
  free  energy   TOTEN  =       -12.21349805 eV

  energy  without entropy=      -12.15707909  energy(sigma->0) =      -12.18528857
 
 d Force = 0.0000000E+00[ 0.000E+00, 0.000E+00]  d Energy =-0.9299299E-09 0.930E-09
 d Force = 0.0000000E+00[ 0.000E+00, 0.000E+00]  d Ewald  =-0.5165670E-05 0.517E-05


--------------------------------------------------------------------------------------------------------


    POTLOK:  cpu time    0.0240: real time    0.0289


--------------------------------------------------------------------------------------------------------




--------------------------------------------------------------------------------------------------------


 writing wavefunctions
     LOOP+:  cpu time    0.1560: real time    0.2698
    4ORBIT:  cpu time    0.0000: real time    0.0000

 total amount of memory used by VASP MPI-rank0    30267. kBytes
=======================================================================

   base      :      30000. kBytes
   nonl-proj :         30. kBytes
   fftplans  :         66. kBytes
   grid      :        158. kBytes
   one-center:          6. kBytes
   wavefun   :          7. kBytes
 
  
  
 General timing and accounting informations for this job:
 ========================================================
  
                  Total CPU time used (sec):        7.076
                            User time (sec):        5.124
                          System time (sec):        1.952
                         Elapsed time (sec):       10.354
  
                   Maximum memory used (kb):        9104.
                   Average memory used (kb):           0.
  
                          Minor page faults:        37931
                          Major page faults:           24
                 Voluntary context switches:        29602
