unknown system                          
   1.00000000000000     
    -2.450000    2.450000    1.274000
     2.450000   -2.450000    1.274000
     2.450000    2.450000   -1.274000
   Si
     2
Direct
  0.250000  0.750000  0.500000
  0.000000  0.000000  0.000000
 
   28   28   28
 -5.4052     -3.8747     0.10288      5.0034      9.1440      11.425      11.678      10.520      8.8807      7.3332    
  6.0401      5.0564      4.3795      3.9863      3.8576      3.9863      4.3795      5.0565      6.0401      7.3331    
  8.8807      10.520      11.678      11.425      9.1440      5.0035     0.10283     -3.8749     -3.8749     -4.6915    
 -2.5674      1.6428      6.3410      9.9625      11.639      11.423      10.050      8.4110      6.9253      5.7174    
  4.8231      4.2302      3.9140      3.8575      4.0572      4.5229      5.2747      6.3323      7.6881      9.2703    
  10.872      11.811      11.194      8.5533      4.2573     -.44514     0.10283     -2.5674     -2.6781     -.18807    
  3.8873      7.9985      10.806      11.724      11.017      9.4852      7.8857      6.4870      5.3816      4.5864    
  4.0818      3.8434      3.8575      4.1235      4.6532      5.4664      6.5780      7.9714      9.5610      11.101    
  11.867      11.049      8.3383      4.2573      5.0035      1.6428     -.18809     0.28146      2.8459      6.4323    
  9.6540      11.472      11.597      10.463      8.8634      7.3341      6.0424      5.0502      4.3579      3.9412    
  3.7779      3.8575      4.1820      4.7637      5.6209      6.7639      8.1683      9.7401      11.213      11.880    
  11.049      8.5533      9.1440      6.3410      3.8873      2.8460      3.6869      6.0300      8.8500      11.011    
  11.810      11.227      9.8028      8.2207      6.7872      5.6155      4.7399      4.1483      3.8150      3.7204    
  3.8575      4.2294      4.8479      5.7293      6.8796      8.2692      9.8006      11.213      11.867      11.194    
  11.425      9.9624      7.9985      6.4323      6.0301      7.0027      8.8829      10.783      11.869      11.761    
  10.651      9.1091      7.5941      6.2751      5.2281      4.4656      3.9676      3.7092      3.6742      3.8576    
  4.2628      4.9007      5.7852      6.9189      8.2692      9.7401      11.101      11.811      11.678      11.639    
  10.806      9.6539      8.8500      8.8830      9.7717      11.047      12.018      12.159      11.366      9.9656    
  8.4378      7.0191      5.8241      4.8986      4.2397      3.8241      3.6292      3.6418      3.8577      4.2801    
  4.9187      5.7852      6.8796      8.1683      9.5610      10.872      10.520      11.423      11.724      11.472    
  11.011      10.783      11.047      11.704      12.350      12.517      11.952      10.754      9.2874      7.8303    
  6.5261      5.4550      4.6407      4.0717      3.7245      3.5795      3.6251      3.8578      4.2801      4.9007    
  5.7293      6.7639      7.9714      9.2703      8.8807      10.050      11.017      11.597      11.810      11.869    
  12.018      12.350      12.717      12.822      12.405      11.427      10.100      8.6789      7.3220      6.1383    
  5.1823      4.4640      3.9683      3.6735      3.5626      3.6251      3.8577      4.2628      4.8479      5.6209    
  6.5780      7.6881      7.3331      8.4109      9.4852      10.463      11.227      11.761      12.159      12.517    
  12.822      12.931      12.660      11.923      10.814      9.5167      8.1832      6.9404      5.8719      5.0155    
  4.3743      3.9333      3.6735      3.5795      3.6418      3.8576      4.2294      4.7637      5.4664      6.3323    
  6.0401      6.9253      7.8857      8.8634      9.8029      10.651      11.366      11.952      12.405      12.660    
  12.607      12.163      11.351      10.275      9.0594      7.8339      6.7042      5.7366      4.9594      4.3743    
  3.9683      3.7245      3.6292      3.6742      3.8575      4.1820      4.6532      5.2747      5.0565      5.7174    
  6.4869      7.3340      8.2207      9.1091      9.9657      10.754      11.427      11.923      12.163      12.074    
  11.632      10.872      9.8787      8.7682      7.6536      6.6244      5.7366      5.0155      4.4640      4.0717    
  3.8241      3.7092      3.7204      3.8575      4.1235      4.5229      4.3795      4.8231      5.3816      6.0423    
  6.7872      7.5941      8.4378      9.2874      10.100      10.814      11.351      11.632      11.595      11.224    
  10.555      9.6687      8.6682      7.6536      6.7042      5.8719      5.1823      4.6407      4.2397      3.9676    
  3.8150      3.7779      3.8575      4.0572      3.9863      4.2301      4.5864      5.0502      5.6155      6.2751    
  7.0191      7.8303      8.6789      9.5167      10.275      10.872      11.224      11.274      11.003      10.445    
  9.6687      8.7682      7.8339      6.9404      6.1383      5.4550      4.8986      4.4656      4.1483      3.9412    
  3.8434      3.8575      3.8576      3.9140      4.0818      4.3579      4.7399      5.2282      5.8241      6.5260    
  7.3220      8.1832      9.0594      9.8787      10.555      11.003      11.161      11.003      10.555      9.8787    
  9.0594      8.1832      7.3220      6.5261      5.8241      5.2281      4.7399      4.3579      4.0818      3.9140    
  3.9863      3.8576      3.8434      3.9412      4.1483      4.4657      4.8987      5.4550      6.1383      6.9404    
  7.8339      8.7682      9.6688      10.445      11.003      11.274      11.224      10.872      10.275      9.5167    
  8.6789      7.8303      7.0191      6.2751      5.6155      5.0502      4.5864      4.2302      4.3795      4.0573    
  3.8575      3.7779      3.8149      3.9676      4.2397      4.6407      5.1824      5.8719      6.7042      7.6536    
  8.6683      9.6688      10.555      11.224      11.595      11.632      11.351      10.814      10.100      9.2874    
  8.4378      7.5941      6.7872      6.0424      5.3816      4.8231      5.0564      4.5228      4.1236      3.8575    
  3.7205      3.7091      3.8241      4.0717      4.4640      5.0156      5.7366      6.6243      7.6536      8.7682    
  9.8787      10.872      11.632      12.074      12.163      11.923      11.427      10.754      9.9656      9.1091    
  8.2207      7.3341      6.4870      5.7174      6.0401      5.2747      4.6532      4.1820      3.8575      3.6743    
  3.6293      3.7245      3.9682      4.3743      4.9595      5.7366      6.7042      7.8339      9.0594      10.275    
  11.351      12.163      12.607      12.660      12.405      11.952      11.366      10.651      9.8028      8.8634    
  7.8857      6.9253      7.3332      6.3323      5.4664      4.7637      4.2293      3.8576      3.6419      3.5795    
  3.6735      3.9333      4.3743      5.0156      5.8719      6.9404      8.1832      9.5167      10.814      11.923    
  12.660      12.931      12.822      12.517      12.159      11.761      11.227      10.463      9.4852      8.4110    
  8.8807      7.6882      6.5780      5.6209      4.8479      4.2627      3.8577      3.6252      3.5626      3.6735    
  3.9682      4.4640      5.1824      6.1383      7.3220      8.6789      10.100      11.427      12.405      12.822    
  12.717      12.350      12.018      11.869      11.810      11.597      11.017      10.050      10.520      9.2703    
  7.9714      6.7639      5.7293      4.9007      4.2800      3.8577      3.6252      3.5795      3.7245      4.0717    
  4.6407      5.4550      6.5260      7.8303      9.2874      10.754      11.952      12.517      12.350      11.704    
  11.047      10.783      11.011      11.472      11.724      11.423      11.678      10.872      9.5610      8.1682    
  6.8797      5.7853      4.9187      4.2800      3.8577      3.6419      3.6293      3.8241      4.2397      4.8987    
  5.8241      7.0191      8.4378      9.9657      11.366      12.159      12.018      11.047      9.7717      8.8829    
  8.8500      9.6540      10.806      11.639      11.425      11.811      11.101      9.7401      8.2691      6.9190    
  5.7853      4.9007      4.2627      3.8576      3.6743      3.7091      3.9676      4.4657      5.2282      6.2751    
  7.5941      9.1091      10.651      11.761      11.869      10.783      8.8830      7.0027      6.0300      6.4323    
  7.9985      9.9625      9.1440      11.194      11.867      11.213      9.8005      8.2691      6.8797      5.7293    
  4.8479      4.2293      3.8575      3.7205      3.8149      4.1483      4.7399      5.6155      6.7872      8.2207    
  9.8029      11.227      11.810      11.011      8.8500      6.0301      3.6869      2.8459      3.8873      6.3410    
  5.0034      8.5532      11.049      11.880      11.213      9.7401      8.1682      6.7639      5.6209      4.7637    
  4.1820      3.8575      3.7779      3.9412      4.3579      5.0502      6.0423      7.3340      8.8634      10.463    
  11.597      11.472      9.6539      6.4323      2.8460     0.28146     -.18807      1.6428     0.10288      4.2573    
  8.3382      11.049      11.867      11.101      9.5610      7.9714      6.5780      5.4664      4.6532      4.1236    
  3.8575      3.8434      4.0818      4.5864      5.3816      6.4869      7.8857      9.4852      11.017      11.724    
  10.806      7.9985      3.8873     -.18809     -2.6781     -2.5674     -3.8747     -.44507      4.2573      8.5532    
  11.194      11.811      10.872      9.2703      7.6882      6.3323      5.2747      4.5228      4.0573      3.8576    
  3.9140      4.2301      4.8231      5.7174      6.9253      8.4109      10.050      11.423      11.639      9.9624    
  6.3410      1.6428     -2.5674     -4.6915     -3.8748     -2.7571     0.71541      5.1880      9.0750      11.274    
  11.547      10.428      8.7973      7.2396      5.9260      4.9168      4.2123      3.7890      3.6250      3.7110    
  4.0523      4.6692      5.5873      6.8162      8.3132      9.9433      11.252      11.364      9.6196      6.0610    
  1.6140     -2.1884     -2.7572     -3.8748     -2.1884      1.6140      6.0610      9.6196      11.364      11.252    
  9.9434      8.3133      6.8162      5.5873      4.6692      4.0523      3.7109      3.6251      3.7890      4.2123    
  4.9168      5.9259      7.2396      8.7973      10.428      11.547      11.274      9.0750      5.1881     0.71537    
 0.82117     -2.0730     -2.5675     -.47348      3.3393      7.3903      10.308      11.407      10.850      9.3805    
  7.7860      6.3737      5.2476      4.4316      3.9079      3.6501      3.6418      3.8812      4.3807      5.1626    
  6.2463      7.6221      9.2146      10.815      11.764      11.234      8.8336      4.9657      5.4511      1.9159    
 -.25953     -.18817      2.0750      5.5620      8.8935      10.946      11.310      10.328      8.7710      7.2416    
  5.9344      4.9233      4.2146      3.7847      3.6087      3.6743      3.9832      4.5493      5.3938      6.5314    
  7.9437      9.5451      11.100      11.932      11.308      8.9770      9.4864      6.5506      3.7949      2.3579    
  2.8459      5.0097      7.8786      10.270      11.363      11.017      9.7084      8.1465      6.7074      5.5199    
  4.6291      4.0270      3.6870      3.5877      3.7205      4.0896      4.7089      5.5975      6.7651      8.1870    
  9.7716      11.276      12.062      11.509      11.793      10.247      8.0430      6.1129      5.3269      6.0300    
  7.8504      9.9052      11.274      11.451      10.528      9.0463      7.5389      6.2102      5.1496      4.3775    
  3.8760      3.6186      3.5877      3.7780      4.1945      4.8502      5.7615      6.9339      8.3379      9.8807    
  11.335      12.140      12.130      12.067      11.078      9.6340      8.4641      8.1697      8.8830      10.189    
  11.362      11.772      11.201      9.9076      8.4000      6.9796      5.7742      4.8399      4.1788      3.7677    
  3.5823      3.6087      3.8436      4.2918      4.9648      5.8760      7.0273      8.3865      9.8633      11.264    
  11.049      11.986      12.223      11.782      11.027      10.474      10.485      11.047      11.769      12.127    
  11.765      10.695      9.2608      7.8080      6.4972      5.4189      4.6033      4.0407      3.7066      3.5802    
  3.6502      3.9141      4.3761      5.0459      5.9339      7.0389      8.3277      9.7158      9.4419      10.685    
  11.670      12.170      12.195      11.991      11.877      12.028      12.350      12.530      12.246      11.376    
  10.083      8.6660      7.3046      6.1152      5.1590      4.4486      3.9686      3.6962      3.6134      3.7110    
  3.9864      4.4431      5.0889      5.9316      6.9672      8.1627      7.8989      9.0540      10.187      11.174    
  11.859      12.227      12.411      12.568      12.745      12.822      12.590      11.905      10.810      9.5076    
  8.1670      6.9184      5.8507      5.0040      4.3813      3.9661      3.7380      3.6818      3.7890      4.0573    
  4.4895      5.0918      5.8693      6.8155      6.5920      7.5505      8.5733      9.5898      10.528      11.308    
  11.888      12.307      12.607      12.760      12.660      12.199      11.364      10.266      9.0344      7.7999    
  6.6708      5.7147      4.9595      4.4042      4.0342      3.8317      3.7832      3.8811      4.1235      4.5131    
  5.0547      5.7505      5.5820      6.3093      7.1379      8.0286      8.9325      9.8013      10.596      11.276    
  11.817      12.188      12.328      12.163      11.661      10.857      9.8351      8.7084      7.5918      6.5753    
  5.7131      5.0274      4.5176      4.1717      3.9744      3.9136      3.9830      4.1819      4.5131      4.9800    
  4.8717      5.3732      5.9839      6.6858      7.4535      8.2566      9.0632      9.8411      10.553      11.152    
  11.574      11.752      11.632      11.197      10.483      9.5697      8.5619      7.5592      6.6385      5.8473    
  5.2068      4.7189      4.3743      4.1604      4.0668      4.0894      4.2292      4.4894      4.4430      4.7355    
  5.1355      5.6343      6.2211      6.8828      7.6036      8.3628      9.1316      9.8683      10.515      11.002    
  11.256      11.224      10.893      10.295      9.5038      8.6120      7.7076      6.8601      6.1145      5.4935    
  5.0021      4.6346      4.3811      4.2348      4.1943      4.2626      4.2800      4.3760      4.5783      4.8818    
  5.2805      5.7704      6.3488      7.0104      7.7416      8.5157      9.2886      9.9978      10.567      10.921    
  11.003      10.795      10.323      9.6499      8.8594      8.0319      7.2328      6.5068      5.8789      5.3576    
  4.9414      4.6258      4.4085      4.2917      4.3761      4.2800      4.2916      4.4084      4.6258      4.9415    
  5.3575      5.8788      6.5068      7.2327      8.0318      8.8594      9.6499      10.323      10.795      11.003    
  10.921      10.567      9.9978      9.2886      8.5157      7.7416      7.0104      6.3489      5.7704      5.2804    
  4.8818      4.5784      4.7355      4.4432      4.2627      4.1943      4.2348      4.3811      4.6346      5.0021    
  5.4934      6.1144      6.8600      7.7076      8.6120      9.5038      10.295      10.893      11.224      11.256    
  11.002      10.515      9.8684      9.1316      8.3628      7.6036      6.8829      6.2212      5.6343      5.1354    
  5.3730      4.8717      4.4895      4.2294      4.0895      4.0668      4.1604      4.3743      4.7188      5.2068    
  5.8473      6.6385      7.5592      8.5619      9.5697      10.483      11.197      11.632      11.752      11.574    
  11.152      10.554      9.8412      9.0633      8.2567      7.4536      6.6859      5.9838      6.3092      5.5819    
  4.9800      4.5132      4.1820      3.9831      3.9137      3.9744      4.1717      4.5176      5.0274      5.7131    
  6.5753      7.5918      8.7084      9.8351      10.857      11.660      12.163      12.328      12.188      11.817    
  11.277      10.596      9.8013      8.9325      8.0287      7.1380      7.5506      6.5919      5.7504      5.0547    
  4.5132      4.1236      3.8812      3.7833      3.8317      4.0341      4.4042      4.9595      5.7147      6.6708    
  7.7999      9.0344      10.266      11.364      12.199      12.660      12.760      12.607      12.307      11.888    
  11.308      10.528      9.5897      8.5734      9.0540      7.8989      6.8155      5.8692      5.0918      4.4895    
  4.0573      3.7890      3.6818      3.7380      3.9660      4.3813      5.0041      5.8507      6.9184      8.1670    
  9.5077      10.810      11.905      12.590      12.822      12.745      12.568      12.411      12.228      11.859    
  11.174      10.187      10.685      9.4418      8.1627      6.9672      5.9316      5.0889      4.4431      3.9864    
  3.7110      3.6135      3.6961      3.9686      4.4486      5.1590      6.1152      7.3046      8.6661      10.083    
  11.376      12.246      12.530      12.350      12.028      11.877      11.991      12.195      12.170      11.670    
  11.986      11.048      9.7157      8.3277      7.0390      5.9339      5.0459      4.3760      3.9140      3.6502    
  3.5802      3.7066      4.0406      4.6033      5.4190      6.4973      7.8080      9.2608      10.695      11.765    
  12.127      11.769      11.047      10.485      10.474      11.027      11.782      12.223      12.067      12.130    
  11.264      9.8632      8.3864      7.0273      5.8761      4.9648      4.2917      3.8435      3.6087      3.5823    
  3.7676      4.1788      4.8400      5.7742      6.9796      8.4001      9.9077      11.201      11.772      11.362    
  10.189      8.8830      8.1697      8.4640      9.6340      11.078      10.247      11.793      12.140      11.335    
  9.8806      8.3379      6.9339      5.7616      4.8502      4.1943      3.7779      3.5877      3.6186      3.8760    
  4.3775      5.1497      6.2103      7.5389      9.0463      10.529      11.451      11.274      9.9052      7.8505    
  6.0301      5.3270      6.1129      8.0430      6.5505      9.4863      11.509      12.062      11.276      9.7715    
  8.1869      6.7651      5.5975      4.7089      4.0895      3.7204      3.5877      3.6870      4.0270      4.6291    
  5.5199      6.7074      8.1465      9.7084      11.017      11.363      10.270      7.8786      5.0098      2.8461    
  2.3580      3.7949      1.9160      5.4510      8.9770      11.308      11.932      11.100      9.5451      7.9437    
  6.5314      5.3939      4.5493      3.9831      3.6742      3.6087      3.7847      4.2146      4.9233      5.9344    
  7.2416      8.7709      10.328      11.310      10.946      8.8934      5.5620      2.0751     -.18792     -.25934    
 -2.0728     0.82124      4.9656      8.8335      11.234      11.764      10.816      9.2147      7.6221      6.2464    
  5.1626      4.3807      3.8811      3.6418      3.6502      3.9079      4.4316      5.2476      6.3737      7.7860    
  9.3805      10.850      11.407      10.308      7.3903      3.3393     -.47336     -2.5673     0.10296     0.82125    
  3.4827      7.0023      10.050      11.674      11.653      10.446      8.8258      7.2842      5.9759      4.9595    
  4.2360      3.7833      3.5795      3.6135      3.8885      4.4221      5.2403      6.3592      7.7517      9.3142    
  10.763      11.384      10.521      8.0716      4.6916      1.6141     0.71541     -.44505     0.71545      3.7055    
  7.3085      10.196      11.530      11.245      9.9101      8.3042      6.8253      5.6025      4.6790      4.0471    
  3.6818      3.5626      3.6819      4.0471      4.6789      5.6024      6.8254      8.3042      9.9101      11.245    
  11.530      10.196      7.3085      3.7054      3.4827     0.82120     0.10290      1.6141      4.6917      8.0717    
  10.521      11.383      10.763      9.3143      7.7517      6.3591      5.2404      4.4221      3.8885      3.6135    
  3.5795      3.7834      4.2360      4.9594      5.9759      7.2842      8.8258      10.446      11.653      11.674    
  10.050      7.0023      7.2467      4.0809      1.9159      1.6428      3.3394      6.2298      9.0955      10.884    
  11.163      10.199      8.6882      7.1941      5.9077      4.9061      4.1995      3.7658      3.5802      3.6293    
  3.9138      4.4469      5.2504      6.3422      7.7124      9.2905      10.900      11.998      11.869      10.173    
  10.572      8.0082      5.3897      3.7949      3.8873      5.5620      8.0055      10.133      11.134      10.813    
  9.5685      8.0598      6.6568      5.4912      4.6133      4.0189      3.6825      3.5823      3.7092      4.0669    
  4.6694      5.5365      6.6813      8.0864      9.6731      11.253      12.283      12.132      12.432      11.174    
  9.1347      7.1583      6.1129      6.4323      7.8786      9.6789      10.952      11.158      10.318      8.9107    
  7.4560      6.1634      5.1270      4.3728      3.8859      3.6404      3.6186      3.8150      4.2348      4.8914    
  5.8015      6.9734      8.3838      9.9498      11.484      12.490      12.585      12.699      11.839      10.394    
  9.0559      8.4641      8.8499      9.9052      10.966      11.393      10.912      9.7143      8.2739      6.9039    
  5.7351      4.8292      4.1927      3.8044      3.6404      3.6870      3.9412      4.4085      5.1000      6.0295    
  7.2005      8.5852      10.100      11.574      11.501      12.526      12.840      12.403      11.533      10.748    
  10.474      10.783      11.362      11.701      11.411      10.440      9.0827      7.6907      6.4285      5.3895    
  4.6085      4.0788      3.7770      3.6824      3.7846      4.0818      4.5783      5.2832      6.2064      7.3475    
  8.6756      10.109      9.9711      11.256      12.277      12.774      12.716      12.334      11.974      11.877    
  12.018      12.127      11.868      11.073      9.8524      8.4968      7.1913      6.0512      5.1399      4.4726    
  4.0352      3.8053      3.7657      3.9079      4.2301      4.7355      5.4304      6.3214      7.4042      8.6462    
  8.4963      9.6901      10.846      11.827      12.453      12.689      12.671      12.596      12.568      12.517    
  12.246      11.586      10.537      9.2830      7.9965      6.8026      5.7887      4.9955      4.4263      4.0644    
  3.8899      3.8884      4.0523      4.3795      4.8717      5.5332      6.3672      7.3658      7.2339      8.2335    
  9.2817      10.299      11.200      11.887      12.312      12.530      12.623      12.607      12.405      11.905    
  11.069      9.9909      8.7997      7.6169      6.5461      5.6526      4.9621      4.4721      4.1670      4.0296    
  4.0470      4.2122      4.5228      4.9800      5.5861      6.3409      6.2441      7.0161      7.8739      8.7719    
  9.6523      10.457      11.139      11.659      12.011      12.197      12.188      11.923      11.364      10.543    
  9.5355      8.4469      7.3857      6.4368      5.6496      5.0419      4.6104      4.3416      4.2207      4.2359    
  4.3806      4.6532      5.0547      5.5861      5.5333      6.0824      6.7257      7.4404      8.1947      8.9506    
  9.6699      10.319      10.869      11.289      11.540      11.574      11.351      10.857      10.123      9.2248    
  8.2597      7.3224      6.4831      5.7821      5.2345      4.8385      4.5837      4.4566      4.4468      4.5492    
  4.7636      5.0918      5.0890      5.4306      5.8652      6.3806      6.9609      7.5877      8.2395      8.8925    
  9.5199      10.090      10.562      10.885      11.002      10.872      10.483      9.8679      9.0978      8.2602    
  7.4366      6.6874      6.0486      5.5361      5.1509      4.8850      4.7273      4.6694      4.7089      4.8479    
  4.9007      5.0459      5.2834      5.6053      6.0019      6.4652      6.9882      7.5619      8.1719      8.7956    
  9.3992      9.9354      10.345      10.567      10.555      10.295      9.8144      9.1761      8.4568      7.7284    
  7.0455      6.4431      5.9389      5.5371      5.2333      5.0196      4.8915      4.8502      4.9649      4.9187    
  4.9648      5.1001      5.3178      5.6122      5.9822      6.4296      6.9539      7.5468      8.1881      8.8433    
  9.4613      9.9771      10.323      10.445      10.323      9.9771      9.4612      8.8433      8.1881      7.5468    
  6.9539      6.4296      5.9822      5.6121      5.3178      5.1002      5.2834      5.0461      4.9007      4.8502    
  4.8914      5.0196      5.2333      5.5372      5.9389      6.4431      7.0455      7.7284      8.4568      9.1761    
  9.8144      10.295      10.555      10.567      10.345      9.9353      9.3992      8.7956      8.1719      7.5619    
  6.9882      6.4653      6.0018      5.6052      5.8651      5.4306      5.0891      4.8479      4.7088      4.6694    
  4.7273      4.8850      5.1509      5.5361      6.0486      6.6874      7.4366      8.2602      9.0979      9.8679    
  10.483      10.872      11.002      10.885      10.562      10.090      9.5199      8.8924      8.2395      7.5878    
  6.9610      6.3805      6.7256      6.0823      5.5333      5.0919      4.7637      4.5492      4.4468      4.4566    
  4.5837      4.8385      5.2345      5.7821      6.4831      7.3224      8.2597      9.2248      10.123      10.857    
  11.351      11.574      11.540      11.289      10.869      10.319      9.6698      8.9506      8.1948      7.4405    
  7.8740      7.0161      6.2440      5.5861      5.0548      4.6532      4.3806      4.2359      4.2207      4.3416    
  4.6103      5.0419      5.6496      6.4368      7.3857      8.4470      9.5355      10.543      11.364      11.923    
  12.188      12.197      12.011      11.659      11.139      10.457      9.6523      8.7720      9.2817      8.2336    
  7.2339      6.3409      5.5860      4.9800      4.5229      4.2122      4.0470      4.0296      4.1670      4.4721    
  4.9621      5.6526      6.5461      7.6169      8.7997      9.9909      11.069      11.905      12.405      12.607    
  12.623      12.530      12.312      11.887      11.200      10.299      10.846      9.6901      8.4964      7.3658    
  6.3672      5.5332      4.8717      4.3795      4.0523      3.8884      3.8899      4.0644      4.4263      4.9956    
  5.7887      6.8026      7.9965      9.2831      10.537      11.586      12.246      12.517      12.568      12.596    
  12.671      12.689      12.453      11.827      12.277      11.256      9.9711      8.6463      7.4042      6.3214    
  5.4304      4.7354      4.2301      3.9079      3.7657      3.8053      4.0352      4.4726      5.1399      6.0512    
  7.1912      8.4968      9.8525      11.073      11.868      12.127      12.018      11.877      11.974      12.334    
  12.716      12.774      12.840      12.526      11.501      10.109      8.6756      7.3475      6.2065      5.2832    
  4.5783      4.0818      3.7846      3.6824      3.7770      4.0787      4.6085      5.3895      6.4284      7.6906    
  9.0827      10.440      11.411      11.701      11.362      10.783      10.474      10.748      11.533      12.403    
  11.840      12.699      12.585      11.574      10.100      8.5852      7.2005      6.0295      5.1000      4.4084    
  3.9412      3.6870      3.6404      3.8043      4.1926      4.8292      5.7352      6.9039      8.2739      9.7143    
  10.913      11.393      10.966      9.9052      8.8500      8.4641      9.0558      10.394      9.1347      11.174    
  12.433      12.490      11.484      9.9497      8.3838      6.9734      5.8015      4.8914      4.2348      3.8149    
  3.6186      3.6405      3.8858      4.3728      5.1270      6.1635      7.4560      8.9106      10.318      11.158    
  10.952      9.6789      7.8786      6.4324      6.1129      7.1582      5.3896      8.0081      10.572      12.132    
  12.283      11.253      9.6731      8.0863      6.6813      5.5365      4.6695      4.0669      3.7091      3.5823    
  3.6825      4.0188      4.6133      5.4913      6.6569      8.0597      9.5685      10.813      11.134      10.133    
  8.0054      5.5621      3.8874      3.7949      1.9160      4.0809      7.2467      10.172      11.869      11.998    
  10.900      9.2905      7.7123      6.3422      5.2504      4.4469      3.9137      3.6292      3.5802      3.7658    
  4.1994      4.9061      5.9078      7.1942      8.6882      10.199      11.163      10.884      9.0954      6.2297    
  3.3394      1.6430      5.0036      5.4511      7.2466      9.6076      11.543      12.347      11.881      10.546    
  8.9627      7.4701      6.1956      5.1906      4.4567      3.9744      3.7245      3.6962      3.8900      4.3192    
  5.0070      5.9732      7.2066      8.6359      10.102      11.163      11.231      10.080      8.0716      6.0611    
  5.1881      4.2575      4.9657      7.0023      9.4651      11.336      11.974      11.349      9.9471      8.3900    
  6.9604      5.7706      4.8596      4.2208      3.8317      3.6735      3.7381      4.0297      4.5652      5.3685    
  6.4536      7.7951      9.2999      10.752      11.589      11.256      9.6551      7.3084      7.0022      4.9658    
  4.2575      5.1882      7.3085      9.6552      11.256      11.589      10.752      9.2999      7.7950      6.4535    
  5.3685      4.5653      4.0297      3.7380      3.6735      3.8318      4.2208      4.8596      5.7706      6.9605    
  8.3900      9.9471      11.349      11.974      11.337      9.4651      9.6076      7.2466      5.4512      5.0037    
  6.0612      8.0717      10.080      11.230      11.162      10.102      8.6359      7.2066      5.9731      5.0071    