unknown system                          
   1.00000000000000     
    -0.000000    2.753743    2.753743
     2.753743    0.000000    2.753743
     2.753743    2.753743    0.000000
   Si
     2
Direct
  0.500000  0.500000  0.500000
  0.750000  0.750000  0.750000
 
   36   36   36
 0.80516     0.82179     0.87274     0.96103      1.0913      1.2695      1.5021      1.7956      2.1558      2.5856    
  3.0838      3.6418      4.2418      4.8560      5.4471      5.9717      6.3861      6.6522      6.7439      6.6522    
  6.3861      5.9718      5.4471      4.8561      4.2419      3.6418      3.0838      2.5856      2.1557      1.7956    
  1.5020      1.2695      1.0913     0.96103     0.87274     0.82179     0.82179     0.85090     0.91083      1.0048    
  1.1373      1.3136      1.5388      1.8179      2.1539      2.5468      2.9919      3.4779      3.9857      4.4886    
  4.9533      5.3441      5.6270      5.7758      5.7758      5.6271      5.3441      4.9533      4.4886      3.9858    
  3.4779      2.9919      2.5468      2.1538      1.8179      1.5388      1.3136      1.1374      1.0048     0.91083    
 0.85090     0.82179     0.87274     0.91083     0.97664      1.0734      1.2052      1.3763      1.5910      1.8520    
  2.1604      2.5134      2.9040      3.3192      3.7400      4.1418      4.4965      4.7755      4.9542      5.0158    
  4.9542      4.7755      4.4965      4.1418      3.7400      3.3192      2.9039      2.5134      2.1603      1.8520    
  1.5910      1.3763      1.2052      1.0734     0.97664     0.91082     0.87273     0.86028     0.96103      1.0048    
  1.0734      1.1698      1.2977      1.4605      1.6610      1.9006      2.1781      2.4891      2.8249      3.1723    
  3.5131      3.8260      4.0878      4.2768      4.3760      4.3760      4.2768      4.0878      3.8260      3.5131    
  3.1722      2.8249      2.4890      2.1780      1.9006      1.6610      1.4605      1.2977      1.1698      1.0734    
  1.0048     0.96101     0.93971     0.93972      1.0913      1.1373      1.2052      1.2977      1.4179      1.5685    
  1.7510      1.9653      2.2090      2.4763      2.7582      3.0417      3.3107      3.5470      3.7323      3.8508    
  3.8916      3.8508      3.7323      3.5470      3.3106      3.0416      2.7581      2.4763      2.2090      1.9653    
  1.7510      1.5685      1.4179      1.2977      1.2052      1.1373      1.0913      1.0647      1.0560      1.0647    
  1.2695      1.3136      1.3763      1.4605      1.5685      1.7022      1.8621      2.0471      2.2539      2.4763    
  2.7055      2.9297      3.1349      3.3064      3.4301      3.4950      3.4950      3.4301      3.3064      3.1349    
  2.9296      2.7055      2.4763      2.2539      2.0472      1.8621      1.7022      1.5685      1.4605      1.3763    
  1.3136      1.2695      1.2416      1.2282      1.2282      1.2417      1.5021      1.5388      1.5910      1.6610    
  1.7510      1.8621      1.9942      2.1455      2.3125      2.4891      2.6673      2.8369      2.9862      3.1035    
  3.1786      3.2045      3.1786      3.1035      2.9862      2.8368      2.6673      2.4891      2.3125      2.1456    
  1.9942      1.8621      1.7510      1.6610      1.5910      1.5388      1.5020      1.4781      1.4647      1.4604    
  1.4647      1.4781      1.7956      1.8179      1.8520      1.9006      1.9653      2.0471      2.1455      2.2587    
  2.3831      2.5134      2.6427      2.7623      2.8631      2.9362      2.9747      2.9747      2.9362      2.8631    
  2.7623      2.6427      2.5134      2.3831      2.2587      2.1456      2.0472      1.9653      1.9006      1.8520    
  1.8179      1.7956      1.7823      1.7752      1.7723      1.7723      1.7752      1.7823      2.1558      2.1539    
  2.1604      2.1781      2.2090      2.2539      2.3125      2.3831      2.4627      2.5468      2.6296      2.7044    
  2.7641      2.8028      2.8162      2.8028      2.7642      2.7044      2.6296      2.5468      2.4627      2.3830    
  2.3125      2.2539      2.2090      2.1781      2.1603      2.1538      2.1557      2.1625      2.1706      2.1769    
  2.1792      2.1769      2.1706      2.1625      2.5856      2.5468      2.5134      2.4891      2.4763      2.4763    
  2.4891      2.5134      2.5468      2.5856      2.6253      2.6610      2.6878      2.7023      2.7023      2.6879    
  2.6610      2.6254      2.5856      2.5468      2.5134      2.4890      2.4763      2.4763      2.4890      2.5134    
  2.5468      2.5856      2.6254      2.6610      2.6879      2.7023      2.7023      2.6878      2.6610      2.6253    
  3.0838      2.9919      2.9040      2.8249      2.7582      2.7055      2.6673      2.6427      2.6296      2.6253    
  2.6266      2.6301      2.6334      2.6347      2.6334      2.6302      2.6266      2.6253      2.6296      2.6426    
  2.6672      2.7054      2.7581      2.8249      2.9040      2.9919      3.0838      3.1734      3.2535      3.3171    
  3.3580      3.3721      3.3579      3.3171      3.2535      3.1734      3.6418      3.4779      3.3192      3.1723    
  3.0417      2.9297      2.8369      2.7623      2.7044      2.6610      2.6301      2.6104      2.6007      2.6007    
  2.6104      2.6302      2.6610      2.7043      2.7622      2.8367      2.9296      3.0416      3.1723      3.3192    
  3.4779      3.6418      3.8021      3.9485      4.0704      4.1580      4.2038      4.2038      4.1580      4.0704    
  3.9485      3.8020      4.2418      3.9857      3.7400      3.5131      3.3107      3.1349      2.9862      2.8631    
  2.7641      2.6878      2.6334      2.6007      2.5898      2.6007      2.6334      2.6878      2.7641      2.8630    
  2.9860      3.1349      3.3106      3.5132      3.7400      3.9858      4.2419      4.4964      4.7351      4.9424    
  5.1034      5.2056      5.2407      5.2056      5.1034      4.9424      4.7351      4.4964      4.8560      4.4886    
  4.1418      3.8260      3.5470      3.3064      3.1035      2.9362      2.8028      2.7023      2.6347      2.6007    
  2.6007      2.6347      2.7023      2.8027      2.9361      3.1034      3.3063      3.5470      3.8261      4.1419    
  4.4886      4.8561      5.2289      5.5881      5.9119      6.1786      6.3688      6.4678      6.4678      6.3688    
  6.1786      5.9119      5.5881      5.2289      5.4471      4.9533      4.4965      4.0878      3.7323      3.4301    
  3.1786      2.9747      2.8162      2.7023      2.6334      2.6104      2.6334      2.7023      2.8161      2.9746    
  3.1785      3.4300      3.7323      4.0879      4.4965      4.9534      5.4471      5.9596      6.4664      6.9390    
  7.3472      7.6628      7.8624      7.9307      7.8624      7.6628      7.3473      6.9390      6.4665      5.9596    
  5.9717      5.3441      4.7755      4.2768      3.8508      3.4950      3.2045      2.9747      2.8028      2.6879    
  2.6302      2.6302      2.6878      2.8027      2.9746      3.2043      3.4949      3.8508      4.2769      4.7756    
  5.3441      5.9718      6.6385      7.3153      7.9663      8.5521      9.0337      9.3767      9.5552      9.5552    
  9.3767      9.0337      8.5521      7.9663      7.3153      6.6385      6.3861      5.6270      4.9542      4.3760    
  3.8916      3.4950      3.1786      2.9362      2.7642      2.6610      2.6266      2.6610      2.7641      2.9361    
  3.1785      3.4949      3.8916      4.3761      4.9543      5.6271      6.3861      7.2115      8.0711      8.9228    
  9.7180      10.406      10.939      11.277      11.393      11.277      10.939      10.406      9.7180      8.9228    
  8.0711      7.2115      6.6522      5.7758      5.0158      4.3760      3.8508      3.4301      3.1035      2.8631    
  2.7044      2.6254      2.6253      2.7043      2.8630      3.1034      3.4300      3.8508      4.3761      5.0158    
  5.7758      6.6521      7.6274      8.6693      9.7316      10.758      11.687      12.456      13.007      13.295    
  13.295      13.007      12.456      11.687      10.758      9.7316      8.6693      7.6275      6.7439      5.7758    
  4.9542      4.2768      3.7323      3.3064      2.9862      2.7623      2.6296      2.5856      2.6296      2.7622    
  2.9860      3.3063      3.7323      4.2769      4.9543      5.7758      6.7439      7.8464      9.0538      10.320    
  11.584      12.775      13.819      14.636      15.160      15.339      15.159      14.636      13.818      12.775    
  11.584      10.320      9.0539      7.8464      6.6522      5.6271      4.7755      4.0878      3.5470      3.1349    
  2.8368      2.6427      2.5468      2.5468      2.6426      2.8367      3.1349      3.5470      4.0879      4.7756    
  5.6271      6.6521      7.8464      9.1866      10.630      12.116      13.570      14.908      16.032      16.841    
  17.265      17.265      16.841      16.031      14.908      13.570      12.116      10.630      9.1866      7.8464    
  6.3861      5.3441      4.4965      3.8260      3.3106      2.9296      2.6673      2.5134      2.4627      2.5134    
  2.6672      2.9296      3.3106      3.8261      4.4965      5.3441      6.3861      7.6274      9.0538      10.630    
  12.300      13.991      15.615      17.054      18.183      18.904      19.151      18.904      18.183      17.054    
  15.615      13.991      12.300      10.630      9.0538      7.6274      5.9718      4.9533      4.1418      3.5131    
  3.0416      2.7055      2.4891      2.3831      2.3830      2.4890      2.7054      3.0416      3.5132      4.1419    
  4.9534      5.9718      7.2115      8.6693      10.320      12.116      13.991      15.860      17.595      19.050    
  20.101      20.653      20.653      20.101      19.050      17.595      15.860      13.991      12.116      10.320    
  8.6693      7.2115      5.4471      4.4886      3.7400      3.1722      2.7581      2.4763      2.3125      2.2587    
  2.3125      2.4763      2.7581      3.1723      3.7400      4.4886      5.4471      6.6385      8.0711      9.7316    
  11.584      13.570      15.615      17.595      19.350      20.734      21.624      21.931      21.624      20.734    
  19.350      17.595      15.615      13.570      11.584      9.7315      8.0711      6.6385      4.8561      3.9858    
  3.3192      2.8249      2.4763      2.2539      2.1456      2.1456      2.2539      2.4763      2.8249      3.3192    
  3.9858      4.8561      5.9596      7.3153      8.9228      10.758      12.775      14.908      17.054      19.050    
  20.734      21.960      22.608      22.608      21.961      20.735      19.050      17.054      14.908      12.775    
  10.758      8.9228      7.3153      5.9596      4.2419      3.4779      2.9039      2.4890      2.2090      2.0472    
  1.9942      2.0472      2.2090      2.4890      2.9040      3.4779      4.2419      5.2289      6.4664      7.9663    
  9.7180      11.687      13.819      16.032      18.183      20.101      21.624      22.608      22.949      22.608    
  21.624      20.101      18.183      16.032      13.818      11.687      9.7180      7.9663      6.4665      5.2290    
  3.6418      2.9919      2.5134      2.1780      1.9653      1.8621      1.8621      1.9653      2.1781      2.5134    
  2.9919      3.6418      4.4964      5.5881      6.9390      8.5521      10.406      12.456      14.636      16.841    
  18.904      20.653      21.931      22.608      22.608      21.931      20.653      18.904      16.841      14.636    
  12.456      10.406      8.5521      6.9391      5.5882      4.4965      3.0838      2.5468      2.1603      1.9006    
  1.7510      1.7022      1.7510      1.9006      2.1603      2.5468      3.0838      3.8021      4.7351      5.9119    
  7.3472      9.0337      10.939      13.007      15.160      17.265      19.151      20.653      21.624      21.961    
  21.624      20.653      19.151      17.265      15.159      13.007      10.939      9.0337      7.3473      5.9120    
  4.7352      3.8021      2.5856      2.1538      1.8520      1.6610      1.5685      1.5685      1.6610      1.8520    
  2.1538      2.5856      3.1734      3.9485      4.9424      6.1786      7.6628      9.3767      11.277      13.295    
  15.339      17.265      18.904      20.101      20.734      20.735      20.101      18.904      17.265      15.339    
  13.295      11.277      9.3767      7.6628      6.1787      4.9425      3.9486      3.1734      2.1557      1.8179    
  1.5910      1.4605      1.4179      1.4605      1.5910      1.8179      2.1557      2.6254      3.2535      4.0704    
  5.1034      6.3688      7.8624      9.5552      11.393      13.295      15.159      16.841      18.183      19.050    
  19.350      19.050      18.183      16.841      15.159      13.295      11.393      9.5552      7.8624      6.3688    
  5.1036      4.0705      3.2536      2.6254      1.7956      1.5388      1.3763      1.2977      1.2977      1.3763    
  1.5388      1.7956      2.1625      2.6610      3.3171      4.1580      5.2056      6.4678      7.9307      9.5552    
  11.277      13.007      14.636      16.031      17.054      17.595      17.595      17.054      16.032      14.636    
  13.007      11.277      9.5552      7.9307      6.4679      5.2057      4.1581      3.3171      2.6610      2.1625    
  1.5020      1.3136      1.2052      1.1698      1.2052      1.3136      1.5020      1.7823      2.1706      2.6879    
  3.3580      4.2038      5.2407      6.4678      7.8624      9.3767      10.939      12.456      13.818      14.908    
  15.615      15.860      15.615      14.908      13.818      12.456      10.939      9.3767      7.8624      6.4679    
  5.2408      4.2039      3.3580      2.6879      2.1706      1.7823      1.2695      1.1374      1.0734      1.0734    
  1.1373      1.2695      1.4781      1.7752      2.1769      2.7023      3.3721      4.2038      5.2056      6.3688    
  7.6628      9.0337      10.406      11.687      12.775      13.570      13.991      13.991      13.570      12.775    
  11.687      10.406      9.0337      7.6628      6.3688      5.2057      4.2039      3.3721      2.7023      2.1768    
  1.7752      1.4780      1.0913      1.0048     0.97664      1.0048      1.0913      1.2416      1.4647      1.7723    
  2.1792      2.7023      3.3579      4.1580      5.1034      6.1786      7.3473      8.5521      9.7180      10.758    
  11.584      12.116      12.300      12.116      11.584      10.758      9.7180      8.5521      7.3473      6.1787    
  5.1036      4.1581      3.3580      2.7023      2.1792      1.7722      1.4646      1.2416     0.96103     0.91083    
 0.91082     0.96101      1.0647      1.2282      1.4604      1.7723      2.1769      2.6878      3.3171      4.0704    
  4.9424      5.9119      6.9390      7.9663      8.9228      9.7316      10.320      10.630      10.630      10.320    
  9.7315      8.9228      7.9663      6.9391      5.9120      4.9425      4.0705      3.3171      2.6879      2.1768    
  1.7722      1.4604      1.2282      1.0647     0.87274     0.85090     0.87273     0.93971      1.0560      1.2282    
  1.4647      1.7752      2.1706      2.6610      3.2535      3.9485      4.7351      5.5881      6.4665      7.3153    
  8.0711      8.6693      9.0539      9.1866      9.0538      8.6693      8.0711      7.3153      6.4665      5.5882    
  4.7352      3.9486      3.2536      2.6610      2.1706      1.7752      1.4646      1.2282      1.0560     0.93972    
 0.82179     0.82179     0.86028     0.93972      1.0647      1.2417      1.4781      1.7823      2.1625      2.6253    
  3.1734      3.8020      4.4964      5.2289      5.9596      6.6385      7.2115      7.6275      7.8464      7.8464    
  7.6274      7.2115      6.6385      5.9596      5.2290      4.4965      3.8021      3.1734      2.6254      2.1625    
  1.7823      1.4780      1.2416      1.0647     0.93972     0.86029     0.82179     0.85090     0.91083      1.0048    
  1.1373      1.3136      1.5388      1.8179      2.1539      2.5468      2.9919      3.4779      3.9857      4.4886    
  4.9533      5.3441      5.6270      5.7758      5.7758      5.6271      5.3441      4.9533      4.4886      3.9858    
  3.4779      2.9919      2.5468      2.1538      1.8179      1.5388      1.3136      1.1374      1.0048     0.91083    
 0.85090     0.82179     0.85090     0.88834     0.95296      1.0479      1.1772      1.3451      1.5557      1.8122    
  2.1153      2.4627      2.8471      3.2558      3.6699      4.0652      4.4139      4.6881      4.8637      4.9242    
  4.8637      4.6882      4.4139      4.0653      3.6700      3.2558      2.8471      2.4626      2.1152      1.8121    
  1.5557      1.3451      1.1772      1.0479     0.95296     0.88833     0.85089     0.83865     0.91083     0.95296    
  1.0188      1.1113      1.2339      1.3902      1.5831      1.8140      2.0821      2.3831      2.7082      3.0445    
  3.3742      3.6765      3.9292      4.1115      4.2070      4.2070      4.1115      3.9292      3.6765      3.3742    
  3.0445      2.7082      2.3830      2.0821      1.8140      1.5831      1.3902      1.2339      1.1113      1.0188    
 0.95295     0.91082     0.89031     0.89031      1.0048      1.0479      1.1113      1.1977      1.3102      1.4516    
  1.6236      1.8265      2.0580      2.3125      2.5809      2.8507      3.1063      3.3305      3.5060      3.6181    
  3.6567      3.6181      3.5060      3.3305      3.1063      2.8507      2.5809      2.3124      2.0580      1.8265    
  1.6236      1.4516      1.3103      1.1978      1.1113      1.0479      1.0048     0.97989     0.97174     0.97990    
  1.1373      1.1772      1.2339      1.3102      1.4087      1.5315      1.6795      1.8518      2.0453      2.2539    
  2.4688      2.6788      2.8706      3.0305      3.1456      3.2059      3.2059      3.1456      3.0305      2.8706    
  2.6788      2.4688      2.2539      2.0453      1.8518      1.6795      1.5315      1.4088      1.3103      1.2339    
  1.1772      1.1373      1.1122      1.1001      1.1001      1.1122      1.3136      1.3451      1.3902      1.4516    
  1.5315      1.6315      1.7518      1.8910      2.0453      2.2090      2.3741      2.5309      2.6686      2.7766    
  2.8456      2.8693      2.8456      2.7766      2.6686      2.5309      2.3741      2.2090      2.0453      1.8910    
  1.7519      1.6316      1.5315      1.4516      1.3902      1.3451      1.3136      1.2932      1.2819      1.2783    
  1.2819      1.2932      1.5388      1.5557      1.5831      1.6236      1.6795      1.7518      1.8405      1.9437    
  2.0580      2.1781      2.2972      2.4073      2.4998      2.5668      2.6021      2.6021      2.5668      2.4998    
  2.4073      2.2972      2.1781      2.0580      1.9437      1.8405      1.7519      1.6795      1.6236      1.5831    
  1.5557      1.5388      1.5295      1.5251      1.5234      1.5234      1.5251      1.5295      1.8179      1.8122    
  1.8140      1.8265      1.8518      1.8910      1.9437      2.0084      2.0821      2.1604      2.2375      2.3072    
  2.3628      2.3988      2.4113      2.3988      2.3628      2.3072      2.2375      2.1604      2.0821      2.0084    
  1.9437      1.8910      1.8518      1.8265      1.8140      1.8121      1.8179      1.8277      1.8380      1.8456    
  1.8484      1.8456      1.8380      1.8277      2.1539      2.1153      2.0821      2.0580      2.0453      2.0453    
  2.0580      2.0821      2.1153      2.1539      2.1934      2.2289      2.2557      2.2702      2.2702      2.2557    
  2.2289      2.1934      2.1539      2.1153      2.0821      2.0580      2.0453      2.0453      2.0580      2.0821    
  2.1153      2.1539      2.1934      2.2289      2.2557      2.2702      2.2702      2.2557      2.2289      2.1934    
  2.5468      2.4627      2.3831      2.3125      2.2539      2.2090      2.1781      2.1604      2.1539      2.1558    
  2.1625      2.1706      2.1769      2.1792      2.1769      2.1706      2.1625      2.1557      2.1538      2.1603    
  2.1781      2.2090      2.2539      2.3125      2.3830      2.4627      2.5468      2.6296      2.7044      2.7642    
  2.8028      2.8162      2.8028      2.7641      2.7044      2.6296      2.9919      2.8471      2.7082      2.5809    
  2.4688      2.3741      2.2972      2.2375      2.1934      2.1625      2.1423      2.1304      2.1250      2.1250    
  2.1304      2.1423      2.1625      2.1933      2.2375      2.2971      2.3741      2.4688      2.5809      2.7083    
  2.8471      2.9919      3.1350      3.2671      3.3781      3.4585      3.5007      3.5007      3.4584      3.3781    
  3.2671      3.1350      3.4779      3.2558      3.0445      2.8507      2.6788      2.5309      2.4073      2.3072    
  2.2289      2.1706      2.1304      2.1069      2.0992      2.1069      2.1304      2.1706      2.2288      2.3071    
  2.4072      2.5308      2.6788      2.8507      3.0445      3.2559      3.4780      3.7009      3.9124      4.0981    
  4.2437      4.3367      4.3688      4.3367      4.2437      4.0980      3.9123      3.7009      3.9857      3.6699    
  3.3742      3.1063      2.8706      2.6686      2.4998      2.3628      2.2557      2.1769      2.1250      2.0992    
  2.0992      2.1249      2.1768      2.2557      2.3627      2.4998      2.6686      2.8706      3.1064      3.3743    
  3.6700      3.9858      4.3096      4.6253      4.9136      5.1539      5.3268      5.4174      5.4174      5.3268    
  5.1539      4.9136      4.6253      4.3095      4.4886      4.0652      3.6765      3.3305      3.0305      2.7766    
  2.5668      2.3988      2.2702      2.1792      2.1250      2.1069      2.1249      2.1792      2.2701      2.3987    
  2.5668      2.7765      3.0305      3.3306      3.6766      4.0653      4.4886      4.9328      5.3781      5.7993    
  6.1683      6.4569      6.6411      6.7044      6.6411      6.4570      6.1683      5.7993      5.3781      4.9328    
  4.9533      4.4139      3.9292      3.5060      3.1456      2.8456      2.6021      2.4113      2.2702      2.1769    
  2.1304      2.1304      2.1768      2.2701      2.4112      2.6020      2.8455      3.1456      3.5061      3.9293    
  4.4140      4.9533      5.5329      6.1299      6.7134      7.2468      7.6915      8.0115      8.1792      8.1792    
  8.0115      7.6915      7.2468      6.7134      6.1299      5.5329      5.3441      4.6881      4.1115      3.6181    
  3.2059      2.8693      2.6021      2.3988      2.2557      2.1706      2.1423      2.1706      2.2557      2.3987    
  2.6020      2.8693      3.2059      3.6182      4.1115      4.6882      5.3441      6.0659      6.8294      7.5988    
  8.3295      8.9713      9.4742      9.7956      9.9061      9.7955      9.4742      8.9712      8.3295      7.5988    
  6.8294      6.0659      5.6270      4.8637      4.2070      3.6567      3.2059      2.8456      2.5668      2.3628    
  2.2289      2.1625      2.1625      2.2288      2.3627      2.5668      2.8455      3.2059      3.6567      4.2071    
  4.8638      5.6271      6.4871      7.4203      8.3888      9.3411      10.216      10.949      11.478      11.756    
  11.756      11.478      10.949      10.216      9.3411      8.3888      7.4203      6.4871      5.7758      4.9242    
  4.2070      3.6181      3.1456      2.7766      2.4998      2.3072      2.1934      2.1557      2.1933      2.3071    
  2.4998      2.7765      3.1456      3.6182      4.2071      4.9242      5.7758      6.7575      7.8497      9.0151    
  10.199      11.331      12.334      13.124      13.632      13.808      13.632      13.124      12.333      11.331    
  10.199      9.0151      7.8497      6.7575      5.7758      4.8637      4.1115      3.5060      3.0305      2.6686    
  2.4073      2.2375      2.1539      2.1538      2.2375      2.4072      2.6686      3.0305      3.5061      4.1115    
  4.8638      5.7758      6.8508      8.0759      9.4182      10.824      12.219      13.514      14.610      15.409    
  15.831      15.831      15.409      14.610      13.514      12.219      10.824      9.4182      8.0758      6.8508    
  5.6271      4.6882      3.9292      3.3305      2.8706      2.5309      2.2972      2.1604      2.1153      2.1603    
  2.2971      2.5308      2.8706      3.3306      3.9293      4.6882      5.6271      6.7575      8.0759      9.5574    
  11.154      12.793      14.379      15.802      16.938      17.675      17.931      17.675      16.938      15.802    
  14.379      12.792      11.154      9.5574      8.0758      6.7575      5.3441      4.4139      3.6765      3.1063    
  2.6788      2.3741      2.1781      2.0821      2.0821      2.1781      2.3741      2.6788      3.1064      3.6766    
  4.4140      5.3441      6.4871      7.8497      9.4182      11.154      12.991      14.838      16.577      18.069    
  19.167      19.750      19.750      19.167      18.069      16.576      14.838      12.991      11.154      9.4182    
  7.8497      6.4871      4.9533      4.0653      3.3742      2.8507      2.4688      2.2090      2.0580      2.0084    
  2.0580      2.2090      2.4688      2.8507      3.3743      4.0653      4.9533      6.0659      7.4203      9.0151    
  10.824      12.793      14.838      16.846      18.670      20.140      21.095      21.427      21.095      20.140    
  18.671      16.845      14.838      12.792      10.824      9.0151      7.4203      6.0659      4.4886      3.6700    
  3.0445      2.5809      2.2539      2.0453      1.9437      1.9437      2.0453      2.2539      2.5809      3.0445    
  3.6700      4.4886      5.5329      6.8294      8.3888      10.199      12.219      14.379      16.577      18.670    
  20.478      21.811      22.521      22.521      21.812      20.478      18.671      16.576      14.379      12.219    
  10.199      8.3888      6.8294      5.5330      3.9858      3.2558      2.7082      2.3124      2.0453      1.8910    
  1.8405      1.8910      2.0453      2.3125      2.7083      3.2559      3.9858      4.9328      6.1299      7.5988    
  9.3411      11.331      13.514      15.802      18.069      20.140      21.811      22.901      23.280      22.902    
  21.812      20.140      18.069      15.802      13.514      11.331      9.3411      7.5988      6.1300      4.9329    
  3.4779      2.8471      2.3830      2.0580      1.8518      1.7519      1.7519      1.8518      2.0580      2.3830    
  2.8471      3.4780      4.3096      5.3781      6.7134      8.3295      10.216      12.334      14.610      16.938    
  19.167      21.095      22.521      23.280      23.281      22.521      21.095      19.167      16.938      14.610    
  12.333      10.216      8.3295      6.7135      5.3782      4.3096      2.9919      2.4626      2.0821      1.8265    
  1.6795      1.6316      1.6795      1.8265      2.0821      2.4627      2.9919      3.7009      4.6253      5.7993    
  7.2468      8.9713      10.949      13.124      15.409      17.675      19.750      21.427      22.521      22.902    
  22.521      21.427      19.750      17.676      15.409      13.124      10.949      8.9713      7.2469      5.7994    
  4.6254      3.7009      2.5468      2.1152      1.8140      1.6236      1.5315      1.5315      1.6236      1.8140    
  2.1153      2.5468      3.1350      3.9124      4.9136      6.1683      7.6915      9.4742      11.478      13.632    
  15.831      17.931      19.750      21.095      21.812      21.812      21.095      19.750      17.931      15.831    
  13.632      11.478      9.4742      7.6915      6.1684      4.9137      3.9124      3.1350      2.1538      1.8121    
  1.5831      1.4516      1.4088      1.4516      1.5831      1.8121      2.1539      2.6296      3.2671      4.0981    
  5.1539      6.4569      8.0115      9.7956      11.756      13.808      15.831      17.675      19.167      20.140    
  20.478      20.140      19.167      17.676      15.831      13.808      11.756      9.7956      8.0116      6.4571    
  5.1540      4.0981      3.2671      2.6296      1.8179      1.5557      1.3902      1.3103      1.3103      1.3902    
  1.5557      1.8179      2.1934      2.7044      3.3781      4.2437      5.3268      6.6411      8.1792      9.9061    
  11.756      13.632      15.409      16.938      18.069      18.671      18.671      18.069      16.938      15.409    
  13.632      11.756      9.9062      8.1793      6.6412      5.3270      4.2437      3.3781      2.7044      2.1933    
  1.5388      1.3451      1.2339      1.1978      1.2339      1.3451      1.5388      1.8277      2.2289      2.7642    
  3.4585      4.3367      5.4174      6.7044      8.1792      9.7955      11.478      13.124      14.610      15.802    
  16.576      16.845      16.576      15.802      14.610      13.124      11.478      9.7956      8.1793      6.7046    
  5.4176      4.3368      3.4585      2.7641      2.2289      1.8277      1.3136      1.1772      1.1113      1.1113    
  1.1772      1.3136      1.5295      1.8380      2.2557      2.8028      3.5007      4.3688      5.4174      6.6411    
  8.0115      9.4742      10.949      12.333      13.514      14.379      14.838      14.838      14.379      13.514    
  12.333      10.949      9.4742      8.0116      6.6412      5.4176      4.3688      3.5007      2.8027      2.2557    
  1.8379      1.5295      1.1374      1.0479      1.0188      1.0479      1.1373      1.2932      1.5251      1.8456    
  2.2702      2.8162      3.5007      4.3367      5.3268      6.4570      7.6915      8.9712      10.216      11.331    
  12.219      12.792      12.991      12.792      12.219      11.331      10.216      8.9713      7.6915      6.4571    
  5.3270      4.3368      3.5007      2.8161      2.2701      1.8455      1.5250      1.2932      1.0048     0.95296    