   2   2   0   0
  0.2001288E+02  0.3839590E-09  0.3839590E-09  0.3839590E-09  0.5000000E-15
  1.000000000000000E-004
  CAR 
 unknown system                          
     14.33077958     -7.39975188  301      5.78350794      1.00000000
     -7.400  0.0000E+00  0.0000E+00
     -7.327  0.0000E+00  0.0000E+00
     -7.255  0.0000E+00  0.0000E+00
     -7.182  0.0000E+00  0.0000E+00
     -7.110  0.0000E+00  0.0000E+00
     -7.038  0.0000E+00  0.0000E+00
     -6.965  0.0000E+00  0.0000E+00
     -6.893  0.0000E+00  0.0000E+00
     -6.820  0.0000E+00  0.0000E+00
     -6.748  0.0000E+00  0.0000E+00
     -6.675  0.0000E+00  0.0000E+00
     -6.603  0.0000E+00  0.0000E+00
     -6.531  0.3065E-15  0.2220E-16
     -6.458  0.1632E-13  0.1205E-14
     -6.386  0.7053E-12  0.5229E-13
     -6.313  0.2349E-10  0.1754E-11
     -6.241  0.6040E-09  0.4551E-10
     -6.168  0.1199E-07  0.9141E-09
     -6.096  0.1838E-06  0.1423E-07
     -6.023  0.2177E-05  0.1719E-06
     -5.951  0.1992E-04  0.1615E-05
     -5.879  0.1408E-03  0.1182E-04
     -5.806  0.7698E-03  0.6758E-04
     -5.734  0.3253E-02  0.3032E-03
     -5.661  0.1063E-01  0.1073E-02
     -5.589  0.2686E-01  0.3019E-02
     -5.516  0.5250E-01  0.6822E-02
     -5.444  0.7939E-01  0.1257E-01
     -5.372  0.9287E-01  0.1930E-01
     -5.299  0.8404E-01  0.2539E-01
     -5.227  0.5884E-01  0.2965E-01
     -5.154  0.3186E-01  0.3196E-01
     -5.082  0.1335E-01  0.3292E-01
     -5.009  0.4325E-02  0.3324E-01
     -4.937  0.1084E-02  0.3332E-01
     -4.865  0.2099E-03  0.3333E-01
     -4.792  0.3143E-04  0.3333E-01
     -4.720  0.3638E-05  0.3333E-01
     -4.647  0.3253E-06  0.3333E-01
     -4.575  0.2247E-07  0.3333E-01
     -4.502  0.1202E-08  0.3333E-01
     -4.430  0.1637E-09  0.3333E-01
     -4.357  0.2833E-08  0.3333E-01
     -4.285  0.5416E-07  0.3333E-01
     -4.213  0.8000E-06  0.3333E-01
     -4.140  0.9128E-05  0.3333E-01
     -4.068  0.8048E-04  0.3334E-01
     -3.995  0.5483E-03  0.3338E-01
     -3.923  0.2888E-02  0.3359E-01
     -3.850  0.1176E-01  0.3444E-01
     -3.778  0.3703E-01  0.3712E-01
     -3.706  0.9017E-01  0.4365E-01
     -3.633  0.1698E+00  0.5596E-01
     -3.561  0.2475E+00  0.7388E-01
     -3.488  0.2790E+00  0.9409E-01
     -3.416  0.2433E+00  0.1117E+00
     -3.343  0.1642E+00  0.1236E+00
     -3.271  0.8568E-01  0.1298E+00
     -3.199  0.3459E-01  0.1323E+00
     -3.126  0.1080E-01  0.1331E+00
     -3.054  0.2607E-02  0.1333E+00
     -2.981  0.4867E-03  0.1333E+00
     -2.909  0.7022E-04  0.1333E+00
     -2.836  0.7830E-05  0.1333E+00
     -2.764  0.6746E-06  0.1333E+00
     -2.691  0.4490E-07  0.1333E+00
     -2.619  0.2307E-08  0.1333E+00
     -2.547  0.9157E-10  0.1333E+00
     -2.474  0.2805E-11  0.1333E+00
     -2.402  0.6621E-13  0.1333E+00
     -2.329  0.1226E-14  0.1333E+00
     -2.257  0.0000E+00  0.1333E+00
     -2.184  0.0000E+00  0.1333E+00
     -2.112  0.0000E+00  0.1333E+00
     -2.040  0.0000E+00  0.1333E+00
     -1.967  0.0000E+00  0.1333E+00
     -1.895  0.0000E+00  0.1333E+00
     -1.822  0.2069E-14  0.1333E+00
     -1.750  0.1066E-12  0.1333E+00
     -1.677  0.4369E-11  0.1333E+00
     -1.605  0.1381E-09  0.1333E+00
     -1.533  0.3372E-08  0.1333E+00
     -1.460  0.6355E-07  0.1333E+00
     -1.388  0.9250E-06  0.1333E+00
     -1.315  0.1040E-04  0.1333E+00
     -1.243  0.9037E-04  0.1333E+00
     -1.170  0.6067E-03  0.1334E+00
     -1.098  0.3149E-02  0.1336E+00
     -1.025  0.1264E-01  0.1345E+00
     -0.953  0.3921E-01  0.1374E+00
     -0.881  0.9411E-01  0.1442E+00
     -0.808  0.1747E+00  0.1568E+00
     -0.736  0.2509E+00  0.1750E+00
     -0.663  0.2788E+00  0.1952E+00
     -0.591  0.2396E+00  0.2126E+00
     -0.518  0.1593E+00  0.2241E+00
     -0.446  0.8194E-01  0.2300E+00
     -0.374  0.3260E-01  0.2324E+00
     -0.301  0.1003E-01  0.2331E+00
     -0.229  0.2387E-02  0.2333E+00
     -0.156  0.4390E-03  0.2333E+00
     -0.084  0.6242E-04  0.2333E+00
     -0.011  0.6859E-05  0.2333E+00
      0.061  0.5824E-06  0.2333E+00
      0.133  0.3819E-07  0.2333E+00
      0.206  0.1934E-08  0.2333E+00
      0.278  0.7564E-10  0.2333E+00
      0.351  0.2283E-11  0.2333E+00
      0.423  0.5334E-13  0.2333E+00
      0.496  0.9196E-15  0.2333E+00
      0.568  0.5109E-16  0.2333E+00
      0.641  0.3500E-14  0.2333E+00
      0.713  0.1667E-12  0.2333E+00
      0.785  0.6145E-11  0.2333E+00
      0.858  0.1749E-09  0.2333E+00
      0.930  0.3841E-08  0.2333E+00
      1.003  0.6515E-07  0.2333E+00
      1.075  0.8535E-06  0.2333E+00
      1.148  0.8638E-05  0.2333E+00
      1.220  0.6756E-04  0.2333E+00
      1.292  0.4084E-03  0.2334E+00
      1.365  0.1908E-02  0.2335E+00
      1.437  0.6896E-02  0.2340E+00
      1.510  0.1927E-01  0.2354E+00
      1.582  0.4168E-01  0.2384E+00
      1.655  0.6988E-01  0.2435E+00
      1.727  0.9153E-01  0.2501E+00
      1.800  0.9680E-01  0.2571E+00
      1.872  0.9326E-01  0.2639E+00
      1.944  0.1056E+00  0.2715E+00
      2.017  0.1534E+00  0.2826E+00
      2.089  0.2247E+00  0.2989E+00
      2.162  0.2756E+00  0.3189E+00
      2.234  0.2664E+00  0.3382E+00
      2.307  0.2002E+00  0.3527E+00
      2.379  0.1164E+00  0.3611E+00
      2.451  0.5240E-01  0.3649E+00
      2.524  0.1824E-01  0.3662E+00
      2.596  0.4910E-02  0.3666E+00
      2.669  0.1022E-02  0.3667E+00
      2.741  0.1648E-03  0.3667E+00
      2.814  0.2436E-04  0.3667E+00
      2.886  0.3979E-04  0.3667E+00
      2.958  0.2829E-03  0.3667E+00
      3.031  0.1634E-02  0.3668E+00
      3.103  0.7301E-02  0.3673E+00
      3.176  0.2522E-01  0.3692E+00
      3.248  0.6738E-01  0.3740E+00
      3.321  0.1392E+00  0.3841E+00
      3.393  0.2226E+00  0.4003E+00
      3.466  0.2752E+00  0.4202E+00
      3.538  0.2633E+00  0.4393E+00
      3.610  0.1949E+00  0.4534E+00
      3.683  0.1116E+00  0.4615E+00
      3.755  0.4941E-01  0.4650E+00
      3.828  0.1693E-01  0.4663E+00
      3.900  0.4483E-02  0.4666E+00
      3.973  0.9182E-03  0.4667E+00
      4.045  0.1454E-03  0.4667E+00
      4.117  0.1784E-04  0.4667E+00
      4.190  0.2429E-05  0.4667E+00
      4.262  0.8361E-05  0.4667E+00
      4.335  0.7020E-04  0.4667E+00
      4.407  0.4622E-03  0.4667E+00
      4.480  0.2353E-02  0.4669E+00
      4.552  0.9260E-02  0.4675E+00
      4.624  0.2818E-01  0.4696E+00
      4.697  0.6634E-01  0.4744E+00
      4.769  0.1208E+00  0.4831E+00
      4.842  0.1701E+00  0.4955E+00
      4.914  0.1854E+00  0.5089E+00
      4.987  0.1563E+00  0.5202E+00
      5.059  0.1019E+00  0.5276E+00
      5.132  0.5141E-01  0.5313E+00
      5.204  0.2006E-01  0.5328E+00
      5.276  0.6054E-02  0.5332E+00
      5.349  0.1413E-02  0.5333E+00
      5.421  0.2549E-03  0.5333E+00
      5.494  0.3554E-04  0.5333E+00
      5.566  0.3830E-05  0.5333E+00
      5.639  0.3189E-06  0.5333E+00
      5.711  0.2051E-07  0.5333E+00
      5.783  0.1019E-08  0.5333E+00
      5.856  0.3906E-10  0.5333E+00
      5.928  0.1156E-11  0.5333E+00
      6.001  0.2685E-13  0.5333E+00
      6.073  0.2187E-13  0.5333E+00
      6.146  0.9801E-12  0.5333E+00
      6.218  0.3447E-10  0.5333E+00
      6.290  0.9358E-09  0.5333E+00
      6.363  0.1962E-07  0.5333E+00
      6.435  0.3175E-06  0.5333E+00
      6.508  0.3969E-05  0.5333E+00
      6.580  0.3834E-04  0.5333E+00
      6.653  0.2862E-03  0.5334E+00
      6.725  0.1651E-02  0.5335E+00
      6.798  0.7365E-02  0.5340E+00
      6.870  0.2540E-01  0.5359E+00
      6.942  0.6775E-01  0.5408E+00
      7.015  0.1398E+00  0.5509E+00
      7.087  0.2233E+00  0.5671E+00
      7.160  0.2764E+00  0.5871E+00
      7.232  0.2673E+00  0.6064E+00
      7.305  0.2075E+00  0.6215E+00
      7.377  0.1426E+00  0.6318E+00
      7.449  0.1075E+00  0.6396E+00
      7.522  0.1006E+00  0.6469E+00
      7.594  0.9734E-01  0.6539E+00
      7.667  0.8062E-01  0.6598E+00
      7.739  0.5306E-01  0.6636E+00
      7.812  0.2719E-01  0.6656E+00
      7.884  0.1079E-01  0.6664E+00
      7.956  0.3315E-02  0.6666E+00
      8.029  0.7874E-03  0.6667E+00
      8.101  0.1446E-03  0.6667E+00
      8.174  0.2053E-04  0.6667E+00
      8.246  0.2253E-05  0.6667E+00
      8.319  0.2161E-06  0.6667E+00
      8.391  0.3975E-06  0.6667E+00
      8.464  0.4540E-05  0.6667E+00
      8.536  0.4134E-04  0.6667E+00
      8.608  0.2910E-03  0.6667E+00
      8.681  0.1583E-02  0.6668E+00
      8.753  0.6659E-02  0.6673E+00
      8.826  0.2166E-01  0.6689E+00
      8.898  0.5449E-01  0.6728E+00
      8.971  0.1060E+00  0.6805E+00
      9.043  0.1596E+00  0.6920E+00
      9.115  0.1858E+00  0.7055E+00
      9.188  0.1674E+00  0.7176E+00
      9.260  0.1167E+00  0.7261E+00
      9.333  0.6289E-01  0.7306E+00
      9.405  0.2623E-01  0.7325E+00
      9.478  0.8511E-02  0.7332E+00
      9.550  0.2487E-02  0.7333E+00
      9.622  0.2502E-02  0.7335E+00
      9.695  0.9056E-02  0.7342E+00
      9.767  0.2987E-01  0.7363E+00
      9.840  0.7667E-01  0.7419E+00
      9.912  0.1523E+00  0.7529E+00
      9.985  0.2339E+00  0.7699E+00
     10.057  0.2780E+00  0.7900E+00
     10.130  0.2556E+00  0.8085E+00
     10.202  0.1818E+00  0.8217E+00
     10.274  0.1000E+00  0.8289E+00
     10.347  0.4257E-01  0.8320E+00
     10.419  0.1401E-01  0.8330E+00
     10.492  0.3567E-02  0.8333E+00
     10.564  0.7034E-03  0.8333E+00
     10.637  0.1217E-03  0.8333E+00
     10.709  0.1369E-03  0.8333E+00
     10.781  0.8033E-03  0.8334E+00
     10.854  0.4002E-02  0.8337E+00
     10.926  0.1546E-01  0.8348E+00
     10.999  0.4634E-01  0.8382E+00
     11.071  0.1083E+00  0.8460E+00
     11.144  0.1994E+00  0.8605E+00
     11.216  0.2950E+00  0.8818E+00
     11.289  0.3641E+00  0.9082E+00
     11.361  0.3947E+00  0.9368E+00
     11.433  0.3907E+00  0.9651E+00
     11.506  0.3511E+00  0.9905E+00
     11.578  0.2735E+00  0.1010E+01
     11.651  0.1759E+00  0.1023E+01
     11.723  0.9038E-01  0.1030E+01
     11.796  0.3648E-01  0.1032E+01
     11.868  0.1166E-01  0.1033E+01
     11.940  0.3871E-02  0.1033E+01
     12.013  0.4850E-02  0.1034E+01
     12.085  0.1343E-01  0.1035E+01
     12.158  0.3187E-01  0.1037E+01
     12.230  0.5884E-01  0.1041E+01
     12.303  0.8404E-01  0.1047E+01
     12.375  0.9287E-01  0.1054E+01
     12.447  0.7939E-01  0.1060E+01
     12.520  0.5250E-01  0.1064E+01
     12.592  0.2686E-01  0.1066E+01
     12.665  0.1063E-01  0.1066E+01
     12.737  0.3253E-02  0.1067E+01
     12.810  0.7698E-03  0.1067E+01
     12.882  0.1408E-03  0.1067E+01
     12.955  0.1992E-04  0.1067E+01
     13.027  0.2177E-05  0.1067E+01
     13.099  0.1838E-06  0.1067E+01
     13.172  0.1199E-07  0.1067E+01
     13.244  0.6040E-09  0.1067E+01
     13.317  0.2349E-10  0.1067E+01
     13.389  0.7053E-12  0.1067E+01
     13.462  0.1635E-13  0.1067E+01
     13.534  0.3065E-15  0.1067E+01
     13.606  0.0000E+00  0.1067E+01
     13.679  0.0000E+00  0.1067E+01
     13.751  0.0000E+00  0.1067E+01
     13.824  0.0000E+00  0.1067E+01
     13.896  0.0000E+00  0.1067E+01
     13.969  0.0000E+00  0.1067E+01
     14.041  0.0000E+00  0.1067E+01
     14.113  0.0000E+00  0.1067E+01
     14.186  0.0000E+00  0.1067E+01
     14.258  0.0000E+00  0.1067E+01
     14.331  0.0000E+00  0.1067E+01
