unknown system                          
   1.00000000000000     
    -2.450000    2.450000    1.274000
     2.450000   -2.450000    1.274000
     2.450000    2.450000   -1.274000
   Si
     2
Direct
  0.250000  0.750000  0.500000
  0.000000  0.000000  0.000000
 
   24   24   24
 -.55623135553E+01 -.35368300367E+01 0.15033377581E+01 0.71071221114E+01 0.10900359204E+02
 0.11865619302E+02 0.10607690760E+02 0.85746299880E+01 0.66934962649E+01 0.52378520272E+01
 0.42644223977E+01 0.37240349429E+01 0.35528069661E+01 0.37240992274E+01 0.42644172449E+01
 0.52378003528E+01 0.66935295220E+01 0.85746869039E+01 0.10607621939E+02 0.11865528762E+02
 0.10900450245E+02 0.71072758779E+01 0.15032753678E+01 -.35370282302E+01 -.35370282302E+01
 -.45820029944E+01 -.17900845845E+01 0.33999666486E+01 0.84899703583E+01 0.11423087339E+02
 0.11633293837E+02 0.10024115893E+02 0.79991785378E+01 0.62290117403E+01 0.49117928125E+01
 0.40660940209E+01 0.36321955550E+01 0.35528111600E+01 0.38144707131E+01 0.44552278835E+01
 0.55412401079E+01 0.71060048714E+01 0.90542105504E+01 0.11034663948E+02 0.11949419778E+02
 0.10459940411E+02 0.62956843984E+01 0.81124575781E+00 0.15032753678E+01 -.17902575209E+01
 -.18754010957E+01 0.12814841491E+01 0.60194318412E+01 0.10044274274E+02 0.11796735728E+02
 0.11190984595E+02 0.93275961868E+01 0.73721749468E+01 0.57488109930E+01 0.45876077144E+01
 0.38743673330E+01 0.35451212938E+01 0.35527428134E+01 0.38968864663E+01 0.46238633917E+01
 0.57970247891E+01 0.74312447735E+01 0.93986476269E+01 0.11290201407E+02 0.11964515460E+02
 0.10289221626E+02 0.62956843984E+01 0.71072758779E+01 0.33999193973E+01 0.12813570772E+01
 0.19252641367E+01 0.49624954301E+01 0.87287067657E+01 0.11344423859E+02 0.11835629433E+02
 0.10535266649E+02 0.85753187001E+01 0.67390885524E+01 0.52869196229E+01 0.42869882983E+01
 0.37014490261E+01 0.34683630668E+01 0.35526597788E+01 0.39652113965E+01 0.47563069322E+01
 0.59823006093E+01 0.76396552631E+01 0.95787496688E+01 0.11374716756E+02 0.11964515460E+02
 0.10459940411E+02 0.10900450245E+02 0.84900868343E+01 0.60194061650E+01 0.49624263138E+01
 0.59792780440E+01 0.84583606712E+01 0.10936959391E+02 0.12077051194E+02 0.11471746621E+02
 0.97392898597E+01 0.78197862918E+01 0.61427335465E+01 0.48723893925E+01 0.40275702687E+01
 0.35573020288E+01 0.34066274806E+01 0.35525741823E+01 0.40140569119E+01 0.48409241956E+01
 0.60796838352E+01 0.77114687145E+01 0.95787496688E+01 0.11290201407E+02 0.11949419778E+02
 0.11865528762E+02 0.11423139748E+02 0.10044342584E+02 0.87287044704E+01 0.84583514393E+01
 0.94819477138E+01 0.11123056477E+02 0.12265761656E+02 0.12135529186E+02 0.10782000737E+02
 0.89168597157E+01 0.71140353561E+01 0.56205388906E+01 0.45283089093E+01 0.38226793322E+01
 0.34493479244E+01 0.33634377680E+01 0.35524980181E+01 0.40395380083E+01 0.48700478145E+01
 0.60796838352E+01 0.76396552631E+01 0.93986476269E+01 0.11034663948E+02 0.10607621939E+02
 0.11633233056E+02 0.11796744776E+02 0.11344441160E+02 0.10936977716E+02 0.11123099291E+02
 0.11883575492E+02 0.12626182816E+02 0.12640016701E+02 0.11638433564E+02 0.99581144802E+01
 0.81467448254E+01 0.65078665091E+01 0.52029251459E+01 0.42715352521E+01 0.36814304020E+01
 0.33826313064E+01 0.33412511503E+01 0.35524878884E+01 0.40395380083E+01 0.48409241956E+01
 0.59823006093E+01 0.74312447735E+01 0.90542105504E+01 0.85746869039E+01 0.10024100384E+02
 0.11190955934E+02 0.11835599141E+02 0.12077022423E+02 0.12265793839E+02 0.12626262653E+02
 0.13013223103E+02 0.13007380253E+02 0.12273209391E+02 0.10869714976E+02 0.91768324856E+01
 0.74982133037E+01 0.60433947293E+01 0.49123536292E+01 0.41132669094E+01 0.36094959047E+01
 0.33600950417E+01 0.33412511503E+01 0.35524980181E+01 0.40140569119E+01 0.47563069322E+01
 0.57970247891E+01 0.71060048714E+01 0.66935295220E+01 0.79992238237E+01 0.93276283105E+01
 0.10535268828E+02 0.11471688034E+02 0.12135465124E+02 0.12640054120E+02 0.13007479272E+02
 0.13073117310E+02 0.12609506833E+02 0.11561368454E+02 0.10123892009E+02 0.85385311944E+01
 0.70304474296E+01 0.57519814434E+01 0.47635073114E+01 0.40598524390E+01 0.36094959047E+01
 0.33826313064E+01 0.33634377680E+01 0.35525741823E+01 0.39652113965E+01 0.46238633917E+01
 0.55412401079E+01 0.52378003528E+01 0.62289947700E+01 0.73722028251E+01 0.85753843565E+01
 0.97393189370E+01 0.10781929556E+02 0.11638348308E+02 0.12273243873E+02 0.12609608816E+02
 0.12518523845E+02 0.11924450992E+02 0.10883784908E+02 0.95484541114E+01 0.81218331761E+01
 0.67857292596E+01 0.56527390096E+01 0.47635073114E+01 0.41132669094E+01 0.36814304020E+01
 0.34493479244E+01 0.34066274806E+01 0.35526597788E+01 0.38968864663E+01 0.44552278835E+01
 0.42644172449E+01 0.49117418359E+01 0.57487536958E+01 0.67390933691E+01 0.78198678913E+01
 0.89169112630E+01 0.99580468526E+01 0.10869621798E+02 0.11561394134E+02 0.11924545201E+02
 0.11861871959E+02 0.11338388975E+02 0.10415052493E+02 0.92362756660E+01 0.79772083005E+01
 0.67857292596E+01 0.57519814434E+01 0.49123536292E+01 0.42715352521E+01 0.38226793322E+01
 0.35573020288E+01 0.34683630668E+01 0.35527428134E+01 0.38144707131E+01 0.37240992274E+01
 0.40661274941E+01 0.45875687352E+01 0.52868373541E+01 0.61427121999E+01 0.71141165297E+01
 0.81468139896E+01 0.91767800836E+01 0.10123800411E+02 0.10883799976E+02 0.11338472123E+02
 0.11390559690E+02 0.11008339294E+02 0.10248127656E+02 0.92362756660E+01 0.81218331761E+01
 0.70304474296E+01 0.60433947293E+01 0.52029251459E+01 0.45283089093E+01 0.40275702687E+01
 0.37014490261E+01 0.35451212938E+01 0.35528111600E+01 0.35528069661E+01 0.36322553600E+01
 0.38744304645E+01 0.42869741240E+01 0.48722988451E+01 0.56204907437E+01 0.65079353379E+01
 0.74982954731E+01 0.85384987396E+01 0.95483683001E+01 0.10415059134E+02 0.11008414833E+02
 0.11220291878E+02 0.11008339294E+02 0.10415052493E+02 0.95484541114E+01 0.85385311944E+01
 0.74982133037E+01 0.65078665091E+01 0.56205388906E+01 0.48723893925E+01 0.42869882983E+01
 0.38743673330E+01 0.36321955550E+01 0.37240349429E+01 0.35527761873E+01 0.35451610151E+01
 0.37015334336E+01 0.40275902205E+01 0.45282228909E+01 0.52028528952E+01 0.60434470621E+01
 0.70305385046E+01 0.81218170230E+01 0.92361942455E+01 0.10248131046E+02 0.11008414833E+02
 0.11390559690E+02 0.11338388975E+02 0.10883784908E+02 0.10123892009E+02 0.91768324856E+01
 0.81467448254E+01 0.71140353561E+01 0.61427335465E+01 0.52869196229E+01 0.45876077144E+01
 0.40660940209E+01 0.42644223977E+01 0.38144195932E+01 0.35526761206E+01 0.34683719113E+01
 0.35574002080E+01 0.38227362260E+01 0.42714607826E+01 0.49122635523E+01 0.57520202672E+01
 0.67858246477E+01 0.79771982593E+01 0.92361942455E+01 0.10415059134E+02 0.11338472123E+02
 0.11861871959E+02 0.11924450992E+02 0.11561368454E+02 0.10869714976E+02 0.99581144802E+01
 0.89168597157E+01 0.78197862918E+01 0.67390885524E+01 0.57488109930E+01 0.49117928125E+01
 0.52378520272E+01 0.44552788139E+01 0.38968620589E+01 0.35525662838E+01 0.34066025045E+01
 0.34494548827E+01 0.36815191026E+01 0.41132033333E+01 0.47634074493E+01 0.56527724967E+01
 0.67858246477E+01 0.81218170230E+01 0.95483683001E+01 0.10883799976E+02 0.11924545201E+02
 0.12518523845E+02 0.12609506833E+02 0.12273209391E+02 0.11638433564E+02 0.10782000737E+02
 0.97392898597E+01 0.85753187001E+01 0.73721749468E+01 0.62290117403E+01 0.66934962649E+01
 0.55412841570E+01 0.46239615669E+01 0.39652196688E+01 0.35524611141E+01 0.33633848506E+01
 0.33827430920E+01 0.36096026278E+01 0.40597930129E+01 0.47634074493E+01 0.57520202672E+01
 0.70305385046E+01 0.85384987396E+01 0.10123800411E+02 0.11561394134E+02 0.12609608816E+02
 0.13073117310E+02 0.13007380253E+02 0.12640016701E+02 0.12135529186E+02 0.11471746621E+02
 0.10535266649E+02 0.93275961868E+01 0.79991785378E+01 0.85746299880E+01 0.71059188461E+01
 0.57970575756E+01 0.47564473636E+01 0.40140948357E+01 0.35523730759E+01 0.33411821071E+01
 0.33602081269E+01 0.36096026278E+01 0.41132033333E+01 0.49122635523E+01 0.60434470621E+01
 0.74982954731E+01 0.91767800836E+01 0.10869621798E+02 0.12273243873E+02 0.13007479272E+02
 0.13013223103E+02 0.12626182816E+02 0.12265761656E+02 0.12077051194E+02 0.11835629433E+02
 0.11190984595E+02 0.10024115893E+02 0.10607690760E+02 0.90541470555E+01 0.74311130068E+01
 0.59823234612E+01 0.48410939640E+01 0.40395930581E+01 0.35523587262E+01 0.33411821071E+01
 0.33827430920E+01 0.36815191026E+01 0.42714607826E+01 0.52028528952E+01 0.65079353379E+01
 0.81468139896E+01 0.99580468526E+01 0.11638348308E+02 0.12640054120E+02 0.12626262653E+02
 0.11883575492E+02 0.11123056477E+02 0.10936959391E+02 0.11344423859E+02 0.11796735728E+02
 0.11633293837E+02 0.11865619302E+02 0.11034781938E+02 0.93985814894E+01 0.76394924547E+01
 0.60797006123E+01 0.48702278540E+01 0.40395930581E+01 0.35523730759E+01 0.33633848506E+01
 0.34494548827E+01 0.38227362260E+01 0.45282228909E+01 0.56204907437E+01 0.71141165297E+01
 0.89169112630E+01 0.10781929556E+02 0.12135465124E+02 0.12265793839E+02 0.11123099291E+02
 0.94819477138E+01 0.84583606712E+01 0.87287067657E+01 0.10044274274E+02 0.11423087339E+02
 0.10900359204E+02 0.11949533739E+02 0.11290353962E+02 0.95786825151E+01 0.77112947078E+01
 0.60797006123E+01 0.48410939640E+01 0.40140948357E+01 0.35524611141E+01 0.34066025045E+01
 0.35574002080E+01 0.40275902205E+01 0.48722988451E+01 0.61427121999E+01 0.78198678913E+01
 0.97393189370E+01 0.11471688034E+02 0.12077022423E+02 0.10936977716E+02 0.84583514393E+01
 0.59792780440E+01 0.49624954301E+01 0.60194318412E+01 0.84899703583E+01 0.71071221114E+01
 0.10459822792E+02 0.11964642118E+02 0.11374881572E+02 0.95786825151E+01 0.76394924547E+01
 0.59823234612E+01 0.47564473636E+01 0.39652196688E+01 0.35525662838E+01 0.34683719113E+01
 0.37015334336E+01 0.42869741240E+01 0.52868373541E+01 0.67390933691E+01 0.85753843565E+01
 0.10535268828E+02 0.11835599141E+02 0.11344441160E+02 0.87287044704E+01 0.49624263138E+01
 0.19252641367E+01 0.12814841491E+01 0.33999666486E+01 0.15033377581E+01 0.62955101544E+01
 0.10289094424E+02 0.11964642118E+02 0.11290353962E+02 0.93985814894E+01 0.74311130068E+01
 0.57970575756E+01 0.46239615669E+01 0.38968620589E+01 0.35526761206E+01 0.35451610151E+01
 0.38744304645E+01 0.45875687352E+01 0.57487536958E+01 0.73722028251E+01 0.93276283105E+01
 0.11190955934E+02 0.11796744776E+02 0.10044342584E+02 0.60194061650E+01 0.12813570772E+01
 -.18754010957E+01 -.17900845845E+01 -.35368300367E+01 0.81131352243E+00 0.62955101544E+01
 0.10459822792E+02 0.11949533739E+02 0.11034781938E+02 0.90541470555E+01 0.71059188461E+01
 0.55412841570E+01 0.44552788139E+01 0.38144195932E+01 0.35527761873E+01 0.36322553600E+01
 0.40661274941E+01 0.49117418359E+01 0.62289947700E+01 0.79992238237E+01 0.10024100384E+02
 0.11633233056E+02 0.11423139748E+02 0.84900868343E+01 0.33999193973E+01 -.17902575209E+01
 -.45820029944E+01 -.35366353951E+01 -.20952538708E+01 0.22353739607E+01 0.72870028359E+01
 0.10810118367E+02 0.11732271449E+02 0.10516440301E+02 0.85049661796E+01 0.66195617400E+01
 0.51411446713E+01 0.41351008331E+01 0.35568475194E+01 0.33412681781E+01 0.34561147078E+01
 0.39205623734E+01 0.47942275029E+01 0.61327807726E+01 0.79062716086E+01 0.99026895984E+01
 0.11412343812E+02 0.11078929589E+02 0.81478524318E+01 0.33207145429E+01 -.13457344087E+01
 -.20954688497E+01 -.35366649962E+01 -.13455495719E+01 0.33208161287E+01 0.81477481259E+01
 0.11078818162E+02 0.11412366748E+02 0.99027487670E+01 0.79062740233E+01 0.61327728919E+01
 0.47942371401E+01 0.39205487725E+01 0.34560964924E+01 0.33412939120E+01 0.35568647202E+01
 0.41350515642E+01 0.51411157750E+01 0.66196278376E+01 0.85050013827E+01 0.10516334137E+02
 0.11732188276E+02 0.10810243159E+02 0.72871714360E+01 0.22353057842E+01 0.23768956550E+01
 -.11913382817E+01 -.17899450168E+01 0.86340046050E+00 0.53296476383E+01 0.93782886663E+01
 0.11342094486E+02 0.10956444855E+02 0.92001643160E+01 0.72723033447E+01 0.56444040319E+01
 0.44644280927E+01 0.37298708286E+01 0.33796264953E+01 0.33634423552E+01 0.36757386680E+01
 0.43593826744E+01 0.54805810111E+01 0.70685550961E+01 0.90239410909E+01 0.11002747018E+02
 0.11970062990E+02 0.10720968336E+02 0.70870425785E+01 0.76398500836E+01 0.37255848061E+01
 0.11503487015E+01 0.12815343614E+01 0.39869940132E+01 0.77333289366E+01 0.10591480219E+02
 0.11408807061E+02 0.10340384354E+02 0.84611447401E+01 0.66456388417E+01 0.51868912346E+01
 0.41723830759E+01 0.35743209570E+01 0.33319210064E+01 0.34065660085E+01 0.38052056155E+01
 0.45775320101E+01 0.57859775597E+01 0.74423913034E+01 0.94204052308E+01 0.11339268276E+02
 0.12169933169E+02 0.10912737234E+02 0.11359930595E+02 0.88051332899E+01 0.59425631601E+01
 0.43684106483E+01 0.49624895453E+01 0.72982120881E+01 0.99462154011E+01 0.11436313601E+02
 0.11160837427E+02 0.95996039637E+01 0.77308966598E+01 0.60645031195E+01 0.47868880292E+01
 0.39341131916E+01 0.34622392741E+01 0.33157401597E+01 0.34682468411E+01 0.39365996442E+01
 0.47727901612E+01 0.60313871744E+01 0.77074297782E+01 0.96582736089E+01 0.11507377868E+02
 0.12334057794E+02 0.12414169356E+02 0.11915313688E+02 0.10255089912E+02 0.84767558411E+01
 0.77277922378E+01 0.84582875390E+01 0.10104861693E+02 0.11504791796E+02 0.11713500301E+02
 0.10603498503E+02 0.88260883435E+01 0.70527780761E+01 0.55616241873E+01 0.44649795044E+01
 0.37609987174E+01 0.33989171293E+01 0.33319501569E+01 0.35449410616E+01 0.40608358106E+01
 0.49293623431E+01 0.61946136367E+01 0.78380225204E+01 0.97133186484E+01 0.11486853469E+02
 0.11259740270E+02 0.12330091719E+02 0.12364157837E+02 0.11584075983E+02 0.10736331761E+02
 0.10537478845E+02 0.11122938294E+02 0.11944160431E+02 0.12197030288E+02 0.11432335959E+02
 0.98667625211E+01 0.80956070698E+01 0.64687154796E+01 0.51637755727E+01 0.42358681440E+01
 0.36601479021E+01 0.33869318239E+01 0.33796933524E+01 0.36320327987E+01 0.41688839594E+01
 0.50340617016E+01 0.62604221227E+01 0.78207583185E+01 0.95772842351E+01 0.92598051829E+01
 0.10823594723E+02 0.12008349504E+02 0.12505766688E+02 0.12442666373E+02 0.12266715762E+02
 0.12343140184E+02 0.12626067489E+02 0.12690630763E+02 0.12099789533E+02 0.10791241924E+02
 0.91305431176E+01 0.74670739495E+01 0.60165170765E+01 0.48915170115E+01 0.41092268879E+01
 0.36352164547E+01 0.34263743196E+01 0.34562039962E+01 0.37239123471E+01 0.42526754137E+01
 0.50780726617E+01 0.62227362649E+01 0.76565791256E+01 0.73609446210E+01 0.87876967309E+01
 0.10206500156E+02 0.11423754230E+02 0.12231599610E+02 0.12649223517E+02 0.12874882577E+02
 0.13031512393E+02 0.13007258887E+02 0.12547652684E+02 0.11518339856E+02 0.10081087595E+02
 0.85004789997E+01 0.69967040253E+01 0.57272776123E+01 0.47593975321E+01 0.40904003831E+01
 0.36867324910E+01 0.35149392902E+01 0.35570054583E+01 0.38144074603E+01 0.43057770631E+01
 0.50578597175E+01 0.60855054283E+01 0.58621379181E+01 0.69613576778E+01 0.82013255165E+01
 0.94651565446E+01 0.10625891666E+02 0.11569722925E+02 0.12239311290E+02 0.12660114378E+02
 0.12818252858E+02 0.12609438603E+02 0.11935781723E+02 0.10844812341E+02 0.94880122289E+01
 0.80570180010E+01 0.67306535920E+01 0.56231728851E+01 0.47757648530E+01 0.41807255893E+01
 0.38124655229E+01 0.36481312487E+01 0.36759557727E+01 0.38969895045E+01 0.43239956581E+01
 0.49757286477E+01 0.48392930123E+01 0.55732110583E+01 0.64933012459E+01 0.75496041167E+01
 0.86596909675E+01 0.97298113145E+01 0.10677994864E+02 0.11438273264E+02 0.11947622300E+02
 0.12133496891E+02 0.11924410506E+02 0.11299316214E+02 0.10317665419E+02 0.91157720521E+01
 0.78616942971E+01 0.66993721256E+01 0.57158581870E+01 0.49426493592E+01 0.43775979154E+01
 0.40072242140E+01 0.38190218349E+01 0.38054451790E+01 0.39654695864E+01 0.43059328648E+01
 0.42529556675E+01 0.46603861050E+01 0.52436875165E+01 0.59955342397E+01 0.68840134548E+01
 0.78535556208E+01 0.88361972351E+01 0.97619957613E+01 0.10558484867E+02 0.11143308722E+02
 0.11427105327E+02 0.11338393508E+02 0.10860233096E+02 0.10051598889E+02 0.90338244771E+01
 0.79486256666E+01 0.69145103939E+01 0.60053789004E+01 0.52549802807E+01 0.46736852994E+01
 0.42623971692E+01 0.40183536011E+01 0.39368932777E+01 0.40144664496E+01 0.40399915756E+01
 0.41692420483E+01 0.44536104131E+01 0.48996112098E+01 0.55054737121E+01 0.62532935569E+01
 0.71086244824E+01 0.80250865466E+01 0.89460046593E+01 0.97991357866E+01 0.10492106524E+02
 0.10922628945E+02 0.11008373271E+02 0.10722253367E+02 0.10108804806E+02 0.92685263532E+01
 0.83204007870E+01 0.73668395558E+01 0.64786611159E+01 0.56994240192E+01 0.50561555729E+01
 0.45655160344E+01 0.42344528246E+01 0.40611023204E+01 0.41691207087E+01 0.40399797088E+01
 0.40612061374E+01 0.42345407122E+01 0.45654772113E+01 0.50560395075E+01 0.56993809234E+01
 0.64787369221E+01 0.73669094219E+01 0.83203597114E+01 0.92684524353E+01 0.10108825638E+02
 0.10722328924E+02 0.11008364799E+02 0.10922543094E+02 0.10492092337E+02 0.97992293304E+01
 0.89460558406E+01 0.80250004358E+01 0.71085214733E+01 0.62533297895E+01 0.55056093098E+01
 0.48996711815E+01 0.44535236332E+01 0.46603675558E+01 0.42528437297E+01 0.40143826449E+01
 0.39369320059E+01 0.40184656492E+01 0.42624319999E+01 0.46735888056E+01 0.52548853137E+01
 0.60054161407E+01 0.69146066888E+01 0.79486237708E+01 0.90337402762E+01 0.10051583782E+02
 0.10860307122E+02 0.11338414612E+02 0.11427025255E+02 0.11143262311E+02 0.10558557126E+02
 0.97620726171E+01 0.88361502139E+01 0.78534452005E+01 0.68839932486E+01 0.59956318476E+01
 0.52437819578E+01 0.55733201242E+01 0.48393036131E+01 0.43058297334E+01 0.39653609770E+01
 0.38054573465E+01 0.38191363894E+01 0.40072768701E+01 0.43775083155E+01 0.49425559286E+01
 0.57159046690E+01 0.66994693526E+01 0.78616714935E+01 0.91156731747E+01 0.10317670355E+02
 0.11299417796E+02 0.11924420570E+02 0.12133377233E+02 0.11947560210E+02 0.11438370300E+02
 0.10678100953E+02 0.97297656614E+01 0.86595575939E+01 0.75495567980E+01 0.64933866610E+01
 0.69613578178E+01 0.58622188041E+01 0.49758119740E+01 0.43239634598E+01 0.38968552303E+01
 0.36758952150E+01 0.36482315896E+01 0.38125689775E+01 0.41806734075E+01 0.47756580400E+01
 0.56231925267E+01 0.67307489862E+01 0.80570118685E+01 0.94879221944E+01 0.10844806968E+02
 0.11935867044E+02 0.12609449681E+02 0.12818150728E+02 0.12660051430E+02 0.12239373937E+02
 0.11569809680E+02 0.10625887906E+02 0.94650770951E+01 0.82012542312E+01 0.87875862199E+01
 0.73608898590E+01 0.60855921837E+01 0.50579946789E+01 0.43057645320E+01 0.38142488289E+01
 0.35569361930E+01 0.35150630808E+01 0.36868431997E+01 0.40903264610E+01 0.47592884112E+01
 0.57273296068E+01 0.69968157409E+01 0.85004453552E+01 0.10080967706E+02 0.11518341948E+02
 0.12547765103E+02 0.13007281250E+02 0.13031396930E+02 0.12874791386E+02 0.12649263636E+02
 0.12231699960E+02 0.11423799227E+02 0.10206446693E+02 0.10823623040E+02 0.92597136946E+01
 0.76564588569E+01 0.62227696901E+01 0.50782304732E+01 0.42527199449E+01 0.37237806932E+01
 0.34561211968E+01 0.34264711605E+01 0.36353168589E+01 0.41091745488E+01 0.48914396654E+01
 0.60165669908E+01 0.74671505801E+01 0.91304972824E+01 0.10791151669E+02 0.12099805887E+02
 0.12690710902E+02 0.12626071012E+02 0.12343063370E+02 0.12266655822E+02 0.12442663436E+02
 0.12505810070E+02 0.12008422119E+02 0.12330231512E+02 0.11259834233E+02 0.95771685453E+01
 0.78205785438E+01 0.62604531096E+01 0.50342590118E+01 0.41689407186E+01 0.36318872167E+01
 0.33796167490E+01 0.33870508518E+01 0.36602488648E+01 0.42357977127E+01 0.51636919906E+01
 0.64687743868E+01 0.80956934528E+01 0.98667227873E+01 0.11432238911E+02 0.12197018044E+02
 0.11944223035E+02 0.11122979510E+02 0.10537459352E+02 0.10736259999E+02 0.11583995908E+02
 0.12364171937E+02 0.11915274981E+02 0.12414304278E+02 0.11486986403E+02 0.97132374873E+01
 0.78378482941E+01 0.61946215871E+01 0.49295247665E+01 0.40608871318E+01 0.35448409693E+01
 0.33319174074E+01 0.33990147589E+01 0.37610465227E+01 0.44649095458E+01 0.55615889873E+01
 0.70528474310E+01 0.88261336019E+01 0.10603443921E+02 0.11713437379E+02 0.11504791542E+02
 0.10104888079E+02 0.84583164511E+01 0.77278217518E+01 0.84767239569E+01 0.10254980336E+02
 0.88049509765E+01 0.11359829784E+02 0.12334216635E+02 0.11507564176E+02 0.96582034595E+01
 0.77072346757E+01 0.60313820600E+01 0.47729535440E+01 0.39366584231E+01 0.34681572460E+01
 0.33157075404E+01 0.34623226216E+01 0.39341590385E+01 0.47868378258E+01 0.60644676765E+01
 0.77309285000E+01 0.95996367170E+01 0.11160835412E+02 0.11436291889E+02 0.99461658284E+01
 0.72981664757E+01 0.49625452384E+01 0.43685388216E+01 0.59425613189E+01 0.37256038351E+01
 0.76396674295E+01 0.10912625970E+02 0.12170066923E+02 0.11339425839E+02 0.94203473388E+01
 0.74422510784E+01 0.57859949853E+01 0.45776464975E+01 0.38052173583E+01 0.34065021392E+01
 0.33319373285E+01 0.35743947644E+01 0.41723837545E+01 0.51868338593E+01 0.66456281733E+01
 0.84611778004E+01 0.10340401688E+02 0.11408817871E+02 0.10591484404E+02 0.77332700255E+01
 0.39869172107E+01 0.12815894194E+01 0.11505074473E+01 -.11911217565E+01 0.23769718496E+01
 0.70868553463E+01 0.10720811218E+02 0.11970159100E+02 0.11002906635E+02 0.90239211177E+01
 0.70684432547E+01 0.54805768820E+01 0.43594574671E+01 0.36757572910E+01 0.33634172116E+01
 0.33796352573E+01 0.37298909885E+01 0.44644197657E+01 0.56444011847E+01 0.72723107813E+01
 0.92001343937E+01 0.10956420594E+02 0.11342165990E+02 0.93783712490E+01 0.53295676168E+01
 0.86323813305E+00 -.17899166039E+01 0.15039816878E+01 0.23774318368E+01 0.54982988685E+01
 0.91981261908E+01 0.11659061591E+02 0.11993347913E+02 0.10595713997E+02 0.86008268336E+01
 0.67453571528E+01 0.52771390458E+01 0.42583313988E+01 0.36480017991E+01 0.33826111962E+01
 0.34262737834E+01 0.37900764422E+01 0.45253745780E+01 0.56892200336E+01 0.72783252431E+01
 0.91470901994E+01 0.10876175818E+02 0.11421931307E+02 0.99532682693E+01 0.67595403445E+01
 0.33210492277E+01 0.22356341868E+01 0.81197044157E+00 0.22358752862E+01 0.57130217612E+01
 0.93859545617E+01 0.11517596731E+02 0.11479682716E+02 0.99039363337E+01 0.79501806275E+01
 0.62111131535E+01 0.48848871532E+01 0.40032740182E+01 0.35148209761E+01 0.33600853569E+01
 0.35148183856E+01 0.40032513232E+01 0.48848884968E+01 0.62111619248E+01 0.79501774605E+01
 0.99038303116E+01 0.11479638231E+02 0.11517743309E+02 0.93860944520E+01 0.57128996815E+01
 0.54982116681E+01 0.23771902873E+01 0.15039446527E+01 0.33212463922E+01 0.67596677992E+01
 0.99531924344E+01 0.11421831269E+02 0.10876188674E+02 0.91471398925E+01 0.72783320246E+01
 0.56892146764E+01 0.45253763941E+01 0.37900634203E+01 0.34262694395E+01 0.33826363454E+01
 0.36479968766E+01 0.42582777769E+01 0.52771427844E+01 0.67454468991E+01 0.86008351332E+01
 0.10595565537E+02 0.11993266545E+02 0.11659224996E+02 0.91983142662E+01 0.95255407269E+01
 0.62159485718E+01 0.37257649971E+01 0.34003739260E+01 0.53299437610E+01 0.83048360303E+01
 0.10638943749E+02 0.11241642884E+02 0.10176307475E+02 0.83767867563E+01 0.66291838430E+01
 0.52124538725E+01 0.42193957682E+01 0.36300088485E+01 0.33869018762E+01 0.34493688981E+01
 0.38189349684E+01 0.45401993366E+01 0.56762608747E+01 0.72535140397E+01 0.91812368952E+01
 0.11172676231E+02 0.12429046095E+02 0.11937348042E+02 0.12355937881E+02 0.10323165026E+02
 0.76964737386E+01 0.59426081743E+01 0.60196135523E+01 0.77334658642E+01 0.98959521612E+01
 0.11156199179E+02 0.10872803447E+02 0.94066255845E+01 0.76351799309E+01 0.60393990330E+01
 0.48065566783E+01 0.39824237095E+01 0.35309997286E+01 0.33989832777E+01 0.35573341091E+01
 0.40182921240E+01 0.48308940481E+01 0.60527920487E+01 0.76938791456E+01 0.96412046908E+01
 0.11591620401E+02 0.12777372822E+02 0.12994411757E+02 0.12820427014E+02 0.11376707837E+02
 0.95532927963E+01 0.84766822465E+01 0.87286551007E+01 0.99461612601E+01 0.11111652343E+02
 0.11298374460E+02 0.10291416966E+02 0.86346980074E+01 0.69597143828E+01 0.55384287145E+01
 0.44905206872E+01 0.38249498560E+01 0.34975459949E+01 0.34623911548E+01 0.37014947945E+01
 0.42344283921E+01 0.51098711847E+01 0.63760214540E+01 0.80266952372E+01 0.99359143471E+01
 0.11811745341E+02 0.11798817815E+02 0.13011538552E+02 0.13169190490E+02 0.12373877944E+02
 0.11307487464E+02 0.10736136840E+02 0.10936694244E+02 0.11504621428E+02 0.11695036943E+02
 0.11012421460E+02 0.95744173096E+01 0.79183366317E+01 0.63844918739E+01 0.51493043515E+01
 0.42773632858E+01 0.37530951444E+01 0.35311441254E+01 0.35745823296E+01 0.38744184039E+01
 0.44535061636E+01 0.53557777187E+01 0.66175522820E+01 0.82193442083E+01 0.10032861672E+02
 0.99179554968E+01 0.11536412182E+02 0.12763715936E+02 0.13235084345E+02 0.13012037441E+02
 0.12540343176E+02 0.12266484920E+02 0.12265406972E+02 0.12196767208E+02 0.11623247279E+02
 0.10412269750E+02 0.88604810745E+01 0.73022921714E+01 0.59402909507E+01 0.48895539847E+01
 0.41753675154E+01 0.37693920009E+01 0.36302813896E+01 0.37301718170E+01 0.40661557068E+01
 0.46603149177E+01 0.55485401470E+01 0.67549315667E+01 0.82514802157E+01 0.81187961585E+01
 0.95988342393E+01 0.11039442852E+02 0.12224609168E+02 0.12913769788E+02 0.13102412763E+02
 0.13020730421E+02 0.12874631975E+02 0.12639611876E+02 0.12099523425E+02 0.11092208034E+02
 0.97240522665E+01 0.82387480185E+01 0.68325077093E+01 0.56538337198E+01 0.47719972438E+01
 0.41888332041E+01 0.38729925119E+01 0.37903488743E+01 0.39208853780E+01 0.42644924749E+01
 0.48392238752E+01 0.56714995117E+01 0.67749893132E+01 0.66759444409E+01 0.78338279576E+01
 0.91042017785E+01 0.10353160072E+02 0.11432938836E+02 0.12211402600E+02 0.12632526380E+02
 0.12763850599E+02 0.12659913663E+02 0.12272879858E+02 0.11518119374E+02 0.10422770089E+02
 0.91221010345E+01 0.77784026165E+01 0.65508544351E+01 0.55462361366E+01 0.48047234561E+01
 0.43183696271E+01 0.40598328498E+01 0.40035307545E+01 0.41353965361E+01 0.44553581423E+01
 0.49756686723E+01 0.57137245778E+01 0.56713711709E+01 0.64675377774E+01 0.74240830059E+01
 0.84798094493E+01 0.95380808124E+01 0.10491306260E+02 0.11252039972E+02 0.11765363108E+02
 0.12004446134E+02 0.11947496215E+02 0.11561137750E+02 0.10844655139E+02 0.98537267818E+01
 0.87037504517E+01 0.75398348364E+01 0.64896727399E+01 0.56313310834E+01 0.49907727176E+01
 0.45606409487E+01 0.43221266125E+01 0.42584322761E+01 0.43596636124E+01 0.46240488762E+01
 0.50578389777E+01 0.50780749490E+01 0.55483053765E+01 0.61696243215E+01 0.69277154362E+01
 0.77815293442E+01 0.86652735126E+01 0.95028308221E+01 0.10224214544E+02 0.10771674200E+02
 0.11094196032E+02 0.11143254134E+02 0.10883668438E+02 0.10317601446E+02 0.95025086216E+01
 0.85441970971E+01 0.75651712952E+01 0.66678161395E+01 0.59138849856E+01 0.53268189061E+01
 0.49072500817E+01 0.46477655216E+01 0.45402083913E+01 0.45777390367E+01 0.47565292029E+01
 0.48411655944E+01 0.50341443280E+01 0.53555561078E+01 0.58089838392E+01 0.63878352519E+01
 0.70678148994E+01 0.78075438699E+01 0.85558635985E+01 0.92583783529E+01 0.98576431543E+01
 0.10290395881E+02 0.10492139336E+02 0.10415045748E+02 0.10051569229E+02 0.94466372601E+01
 0.86869034909E+01 0.78722625290E+01 0.70872183321E+01 0.63871608662E+01 0.58013803901E+01
 0.53435648402E+01 0.50197436245E+01 0.48307389791E+01 0.47728810583E+01 0.49293447726E+01
 0.48702708137E+01 0.49294934179E+01 0.51096984888E+01 0.54157343052E+01 0.58471470106E+01
 0.63927876126E+01 0.70306395902E+01 0.77299865821E+01 0.84504521840E+01 0.91368414270E+01
 0.97165384647E+01 0.10108880860E+02 0.10248138087E+02 0.10108804367E+02 0.97165237519E+01
 0.91369260147E+01 0.84504985200E+01 0.77299034024E+01 0.70305409499E+01 0.63928300117E+01
 0.58472920996E+01 0.54157919851E+01 0.51095847986E+01 0.53554851316E+01 0.50339781697E+01
 0.48411038197E+01 0.47729896528E+01 0.48308772547E+01 0.50197414764E+01 0.53434373151E+01
 0.58013043451E+01 0.63872290187E+01 0.70873107867E+01 0.78722353458E+01 0.86868121986E+01
 0.94466381148E+01 0.10051656210E+02 0.10415062882E+02 0.10492051774E+02 0.10290357463E+02
 0.98577358703E+01 0.92584602721E+01 0.85557893097E+01 0.78074047701E+01 0.70678135319E+01
 0.63879884816E+01 0.58090965437E+01 0.61697606389E+01 0.55482968908E+01 0.50779375925E+01
 0.47564193622E+01 0.45777786308E+01 0.45403416983E+01 0.46478178224E+01 0.49071561382E+01
 0.53267208323E+01 0.59139229898E+01 0.66679113320E+01 0.75651590429E+01 0.85441041355E+01
 0.95025029346E+01 0.10317694813E+02 0.10883691544E+02 0.11143155737E+02 0.11094143734E+02
 0.10771772651E+02 0.10224319151E+02 0.95027716043E+01 0.86651208064E+01 0.77814891343E+01
 0.69278406322E+01 0.74241476311E+01 0.64676822520E+01 0.56714392342E+01 0.50577479395E+01
 0.46238955257E+01 0.43596356232E+01 0.42585613269E+01 0.43222213965E+01 0.45605629667E+01
 0.49906547948E+01 0.56313612960E+01 0.64897829251E+01 0.75398262348E+01 0.87036426022E+01
 0.98537175618E+01 0.10844764890E+02 0.11561170123E+02 0.11947382795E+02 0.12004369558E+02
 0.11765453901E+02 0.11252167229E+02 0.10491285800E+02 0.95379382033E+01 0.84797213835E+01
 0.91040856953E+01 0.78338147984E+01 0.66760640057E+01 0.57138527855E+01 0.49756361697E+01
 0.44551903088E+01 0.41353196931E+01 0.40036436697E+01 0.40599425244E+01 0.43183018904E+01
 0.48046082386E+01 0.55462726282E+01 0.65509646859E+01 0.77783831269E+01 0.91219906882E+01
 0.10422773797E+02 0.11518236926E+02 0.12272905407E+02 0.12659791126E+02 0.12763762580E+02
 0.12632597465E+02 0.12211528669E+02 0.11432961790E+02 0.10353060921E+02 0.11039419643E+02
 0.95986968359E+01 0.81186907398E+01 0.67750708170E+01 0.56716795835E+01 0.48392447074E+01
 0.42643173069E+01 0.39207783204E+01 0.37904556142E+01 0.38731094388E+01 0.41887661760E+01
 0.47718844403E+01 0.56538780978E+01 0.68326187257E+01 0.82387239361E+01 0.97239434385E+01
 0.11092211925E+02 0.12099633691E+02 0.12639642476E+02 0.12874528316E+02 0.13020630303E+02
 0.13102428209E+02 0.12913871606E+02 0.12224695402E+02 0.12763853015E+02 0.11536466065E+02
 0.99178180265E+01 0.82513098347E+01 0.67549737742E+01 0.55487352869E+01 0.46603621691E+01
 0.40659939071E+01 0.37300729138E+01 0.36303853150E+01 0.37694902062E+01 0.41752930641E+01
 0.48894617951E+01 0.59403522240E+01 0.73023909963E+01 0.88604426034E+01 0.10412167086E+02
 0.11623252579E+02 0.12196862267E+02 0.12265443510E+02 0.12266414747E+02 0.12540240070E+02