       N       E                     dE             d eps       ncg     rms          rms(c)
DAV:   1     0.424325555556E+01    0.42433E+01   -0.27952E+03   896   0.594E+02
DAV:   2    -0.108288725689E+02   -0.15072E+02   -0.14473E+02  1424   0.730E+01
DAV:   3    -0.110214006989E+02   -0.19253E+00   -0.19253E+00  1072   0.105E+01
DAV:   4    -0.110225031754E+02   -0.11025E-02   -0.11025E-02  1496   0.813E-01
DAV:   5    -0.110225067969E+02   -0.36215E-05   -0.36215E-05  1136   0.224E-02    0.301E+00
DAV:   6    -0.108977292663E+02    0.12478E+00   -0.82605E-02  1080   0.150E+00    0.178E+00
DAV:   7    -0.108408337728E+02    0.56895E-01   -0.15161E-01  1112   0.216E+00    0.154E-01
DAV:   8    -0.108421576724E+02   -0.13239E-02   -0.42241E-03  1008   0.487E-01    0.250E-02
DAV:   9    -0.108422489974E+02   -0.91325E-04   -0.98767E-05   720   0.815E-02
   1 F= -.10842249E+02 E0= -.10842188E+02  d E =-.108422E+02
