 running on    8 total cores
 distrk:  each k-point on    8 cores,    1 groups
 distr:  one band on    1 cores,    8 groups
 using from now: INCAR     
 vasp.5.4.4.18Apr17-6-g9f103f2a35 (build Dec 09 2018 21:25:21) complex          
  
 POSCAR found type information on POSCAR  Si
 POSCAR found :  1 types and       2 ions
 scaLAPACK will be used

 ----------------------------------------------------------------------------- 
|                                                                             |
|           W    W    AA    RRRRR   N    N  II  N    N   GGGG   !!!           |
|           W    W   A  A   R    R  NN   N  II  NN   N  G    G  !!!           |
|           W    W  A    A  R    R  N N  N  II  N N  N  G       !!!           |
|           W WW W  AAAAAA  RRRRR   N  N N  II  N  N N  G  GGG   !            |
|           WW  WW  A    A  R   R   N   NN  II  N   NN  G    G                |
|           W    W  A    A  R    R  N    N  II  N    N   GGGG   !!!           |
|                                                                             |
|      For optimal performance we recommend to set                            |
|        NCORE= 4 - approx SQRT( number of cores)                             |
|      NCORE specifies how many cores store one orbital (NPAR=cpu/NCORE).     |
|      This setting can  greatly improve the performance of VASP for DFT.     |
|      The default,   NCORE=1            might be grossly inefficient         |
|      on modern multi-core architectures or massively parallel machines.     |
|      Do your own testing !!!!                                               |
|      Unfortunately you need to use the default for GW and RPA calculations. |
|      (for HF NCORE is supported but not extensively tested yet)             |
|                                                                             |
 ----------------------------------------------------------------------------- 

 LDA part: xc-table for Pade appr. of Perdew
 POSCAR, INCAR and KPOINTS ok, starting setup
 FFT: planning ...
 WAVECAR not read
 entering main loop
       N       E                     dE             d eps       ncg     rms          rms(c)
DAV:   1     0.424325555556E+01    0.42433E+01   -0.27952E+03   896   0.594E+02
DAV:   2    -0.108288725689E+02   -0.15072E+02   -0.14473E+02  1424   0.730E+01
DAV:   3    -0.110214006989E+02   -0.19253E+00   -0.19253E+00  1072   0.105E+01
DAV:   4    -0.110225031754E+02   -0.11025E-02   -0.11025E-02  1496   0.813E-01
DAV:   5    -0.110225067969E+02   -0.36215E-05   -0.36215E-05  1136   0.224E-02    0.301E+00
DAV:   6    -0.108977292663E+02    0.12478E+00   -0.82605E-02  1080   0.150E+00    0.178E+00
DAV:   7    -0.108408337728E+02    0.56895E-01   -0.15161E-01  1112   0.216E+00    0.154E-01
DAV:   8    -0.108421576724E+02   -0.13239E-02   -0.42241E-03  1008   0.487E-01    0.250E-02
DAV:   9    -0.108422489974E+02   -0.91325E-04   -0.98767E-05   720   0.815E-02
   1 F= -.10842249E+02 E0= -.10842188E+02  d E =-.108422E+02
 curvature:   0.00 expect dE= 0.000E+00 dE for cont linesearch  0.000E+00
 trial: gam= 0.00000 g(F)=  0.625E-45 g(S)=  0.172E-01 ort = 0.000E+00 (trialstep = 0.100E+01)
 search vector abs. value=  0.172E-01
 bond charge predicted
       N       E                     dE             d eps       ncg     rms          rms(c)
DAV:   1    -0.108516178691E+02   -0.94602E-02   -0.26237E-01  1080   0.286E+00    0.324E-01
DAV:   2    -0.108471769259E+02    0.44409E-02   -0.37535E-03  1200   0.409E-01    0.186E-01
DAV:   3    -0.108448419169E+02    0.23350E-02   -0.47366E-03  1088   0.347E-01    0.233E-02
DAV:   4    -0.108448312172E+02    0.10700E-04   -0.52637E-05   472   0.663E-02
   2 F= -.10844831E+02 E0= -.10844796E+02  d E =-.258222E-02
 trial-energy change:   -0.002582  1 .order   -0.002959   -0.017229    0.011311
 step:   0.6037(harm=  0.6037)  dis= 0.00000  next Energy=   -10.847449 (dE=-0.520E-02)
 bond charge predicted
       N       E                     dE             d eps       ncg     rms          rms(c)
DAV:   1    -0.108482533942E+02   -0.34115E-02   -0.42222E-02  1064   0.116E+00    0.131E-01
DAV:   2    -0.108475464798E+02    0.70691E-03   -0.59493E-04  1144   0.163E-01    0.750E-02
DAV:   3    -0.108471825044E+02    0.36398E-03   -0.74511E-04   744   0.139E-01
   3 F= -.10847183E+02 E0= -.10847139E+02  d E =-.493351E-02
 curvature:  -0.30 expect dE=-0.420E-05 dE for cont linesearch -0.420E-05
 trial: gam= 0.00000 g(F)=  0.807E-45 g(S)=  0.139E-04 ort =-0.490E-03 (trialstep = 0.921E+00)
 search vector abs. value=  0.139E-04
 reached required accuracy - stopping structural energy minimisation
 writing wavefunctions
