<?xml version="1.0" encoding="ISO-8859-1"?>
<modeling>
 <generator>
  <i name="program" type="string">vasp </i>
  <i name="version" type="string">5.4.4.18Apr17-6-g9f103f2a35  </i>
  <i name="subversion" type="string">(build Dec 09 2018 21:25:21) complex            parallel </i>
  <i name="platform" type="string">IFC18.0.1.163_CrayMPICH7.7.0_MKL18.0.1.163 </i>
  <i name="date" type="string">2019 03 20 </i>
  <i name="time" type="string">10:03:20 </i>
 </generator>
 <incar>
  <i type="string" name="PREC">normal</i>
  <i type="int" name="IBRION">     2</i>
  <i name="EDIFF">      0.00040000</i>
  <i name="EDIFFG">     -0.01000000</i>
  <i type="int" name="NSW">    15</i>
  <i type="int" name="ISIF">     3</i>
  <i name="ENCUT">    350.00000000</i>
  <i type="int" name="NBANDS">     8</i>
  <i type="logical" name="LREAL"> F  </i>
  <i type="int" name="ISMEAR">     0</i>
  <i name="SIGMA">      0.20000000</i>
  <v type="int" name="KPOINT_BSE">    -1     0     0     0</v>
 </incar>
 <structure name="primitive_cell" >
  <crystal>
   <varray name="basis" >
    <v>       0.00000000       2.71500000       2.71500000 </v>
    <v>       2.71500000       0.00000000       2.71500000 </v>
    <v>       2.71500000       2.71500000       0.00000000 </v>
   </varray>
   <i name="volume">     40.02575175 </i>
   <varray name="rec_basis" >
    <v>      -0.18416206       0.18416206       0.18416206 </v>
    <v>       0.18416206      -0.18416206       0.18416206 </v>
    <v>       0.18416206       0.18416206      -0.18416206 </v>
   </varray>
  </crystal>
  <varray name="positions" >
   <v>      -0.50000000      -0.50000000      -0.50000000 </v>
   <v>      -0.25000000      -0.25000000      -0.25000000 </v>
  </varray>
 </structure>
 <varray name="primitive_index" >
  <v type="int" >        1 </v>
  <v type="int" >        2 </v>
 </varray>
 <kpoints>
  <generation param="Monkhorst-Pack">
   <v type="int" name="divisions">      11       11       11 </v>
   <v name="usershift">      0.00000000       0.00000000       0.00000000 </v>
   <v name="genvec1">      0.09090909       0.00000000      -0.00000000 </v>
   <v name="genvec2">      0.00000000       0.09090909       0.00000000 </v>
   <v name="genvec3">     -0.00000000      -0.00000000       0.09090909 </v>
   <v name="shift">      0.00000000       0.00000000       0.00000000 </v>
  </generation>
  <varray name="kpointlist" >
   <v>       0.00000000       0.00000000       0.00000000 </v>
   <v>       0.09090909      -0.00000000       0.00000000 </v>
   <v>       0.18181818      -0.00000000       0.00000000 </v>
   <v>       0.27272727       0.00000000       0.00000000 </v>
   <v>       0.36363636      -0.00000000       0.00000000 </v>
   <v>       0.45454545       0.00000000       0.00000000 </v>
   <v>       0.09090909       0.09090909       0.00000000 </v>
   <v>       0.18181818       0.09090909       0.00000000 </v>
   <v>       0.27272727       0.09090909       0.00000000 </v>
   <v>       0.36363636       0.09090909       0.00000000 </v>
   <v>       0.45454545       0.09090909       0.00000000 </v>
   <v>      -0.45454545       0.09090909      -0.00000000 </v>
   <v>      -0.36363636       0.09090909      -0.00000000 </v>
   <v>      -0.27272727       0.09090909      -0.00000000 </v>
   <v>      -0.18181818       0.09090909      -0.00000000 </v>
   <v>      -0.09090909       0.09090909      -0.00000000 </v>
   <v>       0.18181818       0.18181818       0.00000000 </v>
   <v>       0.27272727       0.18181818       0.00000000 </v>
   <v>       0.36363636       0.18181818       0.00000000 </v>
   <v>       0.45454545       0.18181818       0.00000000 </v>
   <v>      -0.45454545       0.18181818       0.00000000 </v>
   <v>      -0.36363636       0.18181818      -0.00000000 </v>
   <v>      -0.27272727       0.18181818      -0.00000000 </v>
   <v>      -0.18181818       0.18181818      -0.00000000 </v>
   <v>       0.27272727       0.27272727       0.00000000 </v>
   <v>       0.36363636       0.27272727       0.00000000 </v>
   <v>       0.45454545       0.27272727       0.00000000 </v>
   <v>      -0.45454545       0.27272727       0.00000000 </v>
   <v>      -0.36363636       0.27272727       0.00000000 </v>
   <v>      -0.27272727       0.27272727      -0.00000000 </v>
   <v>       0.36363636       0.36363636       0.00000000 </v>
   <v>       0.45454545       0.36363636       0.00000000 </v>
   <v>      -0.45454545       0.36363636      -0.00000000 </v>
   <v>      -0.36363636       0.36363636      -0.00000000 </v>
   <v>       0.45454545       0.45454545       0.00000000 </v>
   <v>      -0.45454545       0.45454545      -0.00000000 </v>
   <v>       0.27272727       0.18181818       0.09090909 </v>
   <v>       0.36363636       0.18181818       0.09090909 </v>
   <v>       0.45454545       0.18181818       0.09090909 </v>
   <v>      -0.45454545       0.18181818       0.09090909 </v>
   <v>       0.36363636       0.27272727       0.09090909 </v>
   <v>       0.45454545       0.27272727       0.09090909 </v>
   <v>      -0.45454545       0.27272727       0.09090909 </v>
   <v>      -0.36363636       0.27272727       0.09090909 </v>
   <v>      -0.27272727       0.27272727       0.09090909 </v>
   <v>      -0.18181818       0.27272727       0.09090909 </v>
   <v>       0.45454545       0.36363636       0.09090909 </v>
   <v>      -0.45454545       0.36363636       0.09090909 </v>
   <v>      -0.36363636       0.36363636       0.09090909 </v>
   <v>      -0.27272727       0.36363636       0.09090909 </v>
   <v>      -0.45454545       0.45454545       0.09090909 </v>
   <v>      -0.36363636       0.45454545       0.09090909 </v>
   <v>      -0.45454545       0.36363636       0.18181818 </v>
   <v>      -0.36363636       0.36363636       0.18181818 </v>
   <v>      -0.36363636       0.45454545       0.18181818 </v>
   <v>      -0.27272727       0.45454545       0.18181818 </v>
  </varray>
  <varray name="weights" >
   <v>       0.00075131 </v>
   <v>       0.00601052 </v>
   <v>       0.00601052 </v>
   <v>       0.00601052 </v>
   <v>       0.00601052 </v>
   <v>       0.00601052 </v>
   <v>       0.00450789 </v>
   <v>       0.01803156 </v>
   <v>       0.01803156 </v>
   <v>       0.01803156 </v>
   <v>       0.01803156 </v>
   <v>       0.01803156 </v>
   <v>       0.01803156 </v>
   <v>       0.01803156 </v>
   <v>       0.01803156 </v>
   <v>       0.00901578 </v>
   <v>       0.00450789 </v>
   <v>       0.01803156 </v>
   <v>       0.01803156 </v>
   <v>       0.01803156 </v>
   <v>       0.01803156 </v>
   <v>       0.01803156 </v>
   <v>       0.01803156 </v>
   <v>       0.00901578 </v>
   <v>       0.00450789 </v>
   <v>       0.01803156 </v>
   <v>       0.01803156 </v>
   <v>       0.01803156 </v>
   <v>       0.01803156 </v>
   <v>       0.00901578 </v>
   <v>       0.00450789 </v>
   <v>       0.01803156 </v>
   <v>       0.01803156 </v>
   <v>       0.00901578 </v>
   <v>       0.00450789 </v>
   <v>       0.00901578 </v>
   <v>       0.01803156 </v>
   <v>       0.03606311 </v>
   <v>       0.03606311 </v>
   <v>       0.03606311 </v>
   <v>       0.01803156 </v>
   <v>       0.03606311 </v>
   <v>       0.03606311 </v>
   <v>       0.03606311 </v>
   <v>       0.03606311 </v>
   <v>       0.01803156 </v>
   <v>       0.01803156 </v>
   <v>       0.03606311 </v>
   <v>       0.03606311 </v>
   <v>       0.01803156 </v>
   <v>       0.01803156 </v>
   <v>       0.01803156 </v>
   <v>       0.01803156 </v>
   <v>       0.03606311 </v>
   <v>       0.01803156 </v>
   <v>       0.01803156 </v>
  </varray>
 </kpoints>
 <parameters>
  <separator name="general" >
   <i type="string" name="SYSTEM">unknown system</i>
   <i type="logical" name="LCOMPAT"> F  </i>
  </separator>
  <separator name="electronic" >
   <i type="string" name="PREC">normal</i>
   <i name="ENMAX">    350.00000000</i>
   <i name="ENAUG">    322.06900000</i>
   <i name="EDIFF">      0.00040000</i>
   <i type="int" name="IALGO">    38</i>
   <i type="int" name="IWAVPR">    11</i>
   <i type="int" name="NBANDS">     8</i>
   <i name="NELECT">      8.00000000</i>
   <i type="int" name="TURBO">     0</i>
   <i type="int" name="IRESTART">     0</i>
   <i type="int" name="NREBOOT">     0</i>
   <i type="int" name="NMIN">     0</i>
   <i name="EREF">      0.00000000</i>
   <separator name="electronic smearing" >
    <i type="int" name="ISMEAR">     0</i>
    <i name="SIGMA">      0.20000000</i>
    <i name="KSPACING">      0.50000000</i>
    <i type="logical" name="KGAMMA"> T  </i>
   </separator>
   <separator name="electronic projectors" >
    <i type="logical" name="LREAL"> F  </i>
    <v name="ROPT">      0.00000000</v>
    <i type="int" name="LMAXPAW">  -100</i>
    <i type="int" name="LMAXMIX">     2</i>
    <i type="logical" name="NLSPLINE"> F  </i>
   </separator>
   <separator name="electronic startup" >
    <i type="int" name="ISTART">     0</i>
    <i type="int" name="ICHARG">     2</i>
    <i type="int" name="INIWAV">     1</i>
   </separator>
   <separator name="electronic spin" >
    <i type="int" name="ISPIN">     1</i>
    <i type="logical" name="LNONCOLLINEAR"> F  </i>
    <v name="MAGMOM">      1.00000000      1.00000000</v>
    <i name="NUPDOWN">     -1.00000000</i>
    <i type="logical" name="LSORBIT"> F  </i>
    <v name="SAXIS">      0.00000000      0.00000000      1.00000000</v>
    <i type="logical" name="LSPIRAL"> F  </i>
    <v name="QSPIRAL">      0.00000000      0.00000000      0.00000000</v>
    <i type="logical" name="LZEROZ"> F  </i>
   </separator>
   <separator name="electronic exchange-correlation" >
    <i type="logical" name="LASPH"> F  </i>
    <i type="logical" name="LMETAGGA"> F  </i>
   </separator>
   <separator name="electronic convergence" >
    <i type="int" name="NELM">    60</i>
    <i type="int" name="NELMDL">    -5</i>
    <i type="int" name="NELMIN">     2</i>
    <i name="ENINI">    350.00000000</i>
    <separator name="electronic convergence detail" >
     <i type="logical" name="LDIAG"> T  </i>
     <i type="logical" name="LSUBROT"> F  </i>
     <i name="WEIMIN">      0.00100000</i>
     <i name="EBREAK">      0.00001250</i>
     <i name="DEPER">      0.30000000</i>
     <i type="int" name="NRMM">     4</i>
     <i name="TIME">      0.40000000</i>
    </separator>
   </separator>
   <separator name="electronic mixer" >
    <i name="AMIX">      0.40000000</i>
    <i name="BMIX">      1.00000000</i>
    <i name="AMIN">      0.10000000</i>
    <i name="AMIX_MAG">      1.60000000</i>
    <i name="BMIX_MAG">      1.00000000</i>
    <separator name="electronic mixer details" >
     <i type="int" name="IMIX">     4</i>
     <i type="logical" name="MIXFIRST"> F  </i>
     <i type="int" name="MAXMIX">   -45</i>
     <i name="WC">    100.00000000</i>
     <i type="int" name="INIMIX">     1</i>
     <i type="int" name="MIXPRE">     1</i>
     <i type="int" name="MREMOVE">     5</i>
    </separator>
   </separator>
   <separator name="electronic dipolcorrection" >
    <i type="logical" name="LDIPOL"> F  </i>
    <i type="logical" name="LMONO"> F  </i>
    <i type="int" name="IDIPOL">     0</i>
    <i name="EPSILON">      1.00000000</i>
    <v name="DIPOL">   -100.00000000   -100.00000000   -100.00000000</v>
    <i name="EFIELD">      0.00000000</i>
   </separator>
  </separator>
  <separator name="grids" >
   <i type="int" name="NGX">    18</i>
   <i type="int" name="NGY">    18</i>
   <i type="int" name="NGZ">    18</i>
   <i type="int" name="NGXF">    36</i>
   <i type="int" name="NGYF">    36</i>
   <i type="int" name="NGZF">    36</i>
   <i type="logical" name="ADDGRID"> F  </i>
  </separator>
  <separator name="ionic" >
   <i type="int" name="NSW">    15</i>
   <i type="int" name="IBRION">     2</i>
   <i type="int" name="MDALGO">     0</i>
   <i type="int" name="ISIF">     3</i>
   <i name="PSTRESS">      0.00000000</i>
   <i name="EDIFFG">     -0.01000000</i>
   <i type="int" name="NFREE">     1</i>
   <i name="POTIM">      0.50000000</i>
   <i name="SMASS">     -3.00000000</i>
   <i name="SCALEE">      1.00000000</i>
  </separator>
  <separator name="ionic md" >
   <i name="TEBEG">      0.00010000</i>
   <i name="TEEND">      0.00010000</i>
   <i type="int" name="NBLOCK">     1</i>
   <i type="int" name="KBLOCK">    15</i>
   <i type="int" name="NPACO">   256</i>
   <i name="APACO">     16.00000000</i>
  </separator>
  <separator name="symmetry" >
   <i type="int" name="ISYM">     2</i>
   <i name="SYMPREC">      0.00001000</i>
  </separator>
  <separator name="dos" >
   <i type="int" name="LORBIT">     0</i>
   <v name="RWIGS">     -1.00000000</v>
   <i type="int" name="NEDOS">   301</i>
   <i name="EMIN">     10.00000000</i>
   <i name="EMAX">    -10.00000000</i>
   <i name="EFERMI">      0.00000000</i>
  </separator>
  <separator name="writing" >
   <i type="int" name="NWRITE">     2</i>
   <i type="logical" name="LWAVE"> T  </i>
   <i type="logical" name="LDOWNSAMPLE"> F  </i>
   <i type="logical" name="LCHARG"> T  </i>
   <i type="logical" name="LPARD"> F  </i>
   <i type="logical" name="LVTOT"> F  </i>
   <i type="logical" name="LVHAR"> F  </i>
   <i type="logical" name="LELF"> F  </i>
   <i type="logical" name="LOPTICS"> F  </i>
   <v name="STM">      0.00000000      0.00000000      0.00000000      0.00000000      0.00000000      0.00000000      0.00000000</v>
  </separator>
  <separator name="performance" >
   <i type="int" name="NPAR">     8</i>
   <i type="int" name="NSIM">     4</i>
   <i type="int" name="NBLK">    -1</i>
   <i type="logical" name="LPLANE"> T  </i>
   <i type="logical" name="LSCALAPACK"> T  </i>
   <i type="logical" name="LSCAAWARE"> F  </i>
   <i type="logical" name="LSCALU"> F  </i>
   <i type="logical" name="LASYNC"> F  </i>
   <i type="logical" name="LORBITALREAL"> F  </i>
  </separator>
  <separator name="miscellaneous" >
   <i type="int" name="IDIOT">     3</i>
   <i type="int" name="ISPECIAL">     0</i>
   <i type="logical" name="LMUSIC"> F  </i>
   <v name="POMASS">     28.08500000</v>
   <v name="DARWINR">      0.00000000</v>
   <v name="DARWINV">      1.00000000</v>
   <i type="logical" name="LCORR"> T  </i>
  </separator>
  <i type="logical" name="GGA_COMPAT"> T  </i>
  <i type="logical" name="LBERRY"> F  </i>
  <i type="int" name="ICORELEVEL">     0</i>
  <i type="logical" name="LDAU"> F  </i>
  <i type="int" name="I_CONSTRAINED_M">     0</i>
  <separator name="electronic exchange-correlation" >
   <i type="string" name="GGA">--</i>
   <i type="int" name="VOSKOWN">     0</i>
   <i type="logical" name="LHFCALC"> F  </i>
   <i type="string" name="PRECFOCK"></i>
   <i type="logical" name="LSYMGRAD"> F  </i>
   <i type="logical" name="LHFONE"> F  </i>
   <i type="logical" name="LRHFCALC"> F  </i>
   <i type="logical" name="LTHOMAS"> F  </i>
   <i type="logical" name="LMODELHF"> F  </i>
   <i name="ENCUT4O">     -1.00000000</i>
   <i type="int" name="EXXOEP">     0</i>
   <i type="int" name="FOURORBIT">     0</i>
   <i name="AEXX">      0.00000000</i>
   <i name="HFALPHA">      0.00000000</i>
   <i name="MCALPHA">      0.00000000</i>
   <i name="ALDAX">      1.00000000</i>
   <i name="AGGAX">      1.00000000</i>
   <i name="ALDAC">      1.00000000</i>
   <i name="AGGAC">      1.00000000</i>
   <i type="int" name="NKREDX">     1</i>
   <i type="int" name="NKREDY">     1</i>
   <i type="int" name="NKREDZ">     1</i>
   <i type="logical" name="SHIFTRED"> F  </i>
   <i type="logical" name="ODDONLY"> F  </i>
   <i type="logical" name="EVENONLY"> F  </i>
   <i type="int" name="LMAXFOCK">     0</i>
   <i type="int" name="NMAXFOCKAE">     0</i>
   <i type="logical" name="LFOCKAEDFT"> F  </i>
   <i name="HFSCREEN">      0.00000000</i>
   <i name="HFSCREENC">      0.00000000</i>
   <i type="int" name="NBANDSGWLOW">     0</i>
  </separator>
  <separator name="vdW DFT" >
   <i type="logical" name="LUSE_VDW"> F  </i>
   <i name="Zab_VDW">     -0.84910000</i>
   <i name="PARAM1">      0.12340000</i>
   <i name="PARAM2">      1.00000000</i>
   <i name="PARAM3">      0.00000000</i>
  </separator>
  <separator name="model GW" >
   <i type="int" name="MODEL_GW">     0</i>
   <i name="MODEL_EPS0">     12.00772552</i>
   <i name="MODEL_ALPHA">      1.00000000</i>
  </separator>
  <separator name="linear response parameters" >
   <i type="logical" name="LEPSILON"> F  </i>
   <i type="logical" name="LRPA"> F  </i>
   <i type="logical" name="LNABLA"> F  </i>
   <i type="logical" name="LVEL"> F  </i>
   <i type="int" name="KINTER">     0</i>
   <i name="CSHIFT">      0.10000000</i>
   <i name="OMEGAMAX">     -1.00000000</i>
   <i name="DEG_THRESHOLD">      0.00200000</i>
   <i name="RTIME">     -0.10000000</i>
   <i name="WPLASMAI">      0.00000000</i>
   <v name="DFIELD">      0.00000000      0.00000000      0.00000000</v>
   <v name="WPLASMA">      0.00000000      0.00000000      0.00000000      0.00000000      0.00000000      0.00000000      0.00000000      0.00000000      0.00000000</v>
  </separator>
  <separator name="orbital magnetization" >
   <i type="logical" name="NUCIND"> F  </i>
   <v name="MAGPOS">      0.00000000      0.00000000      0.00000000</v>
   <i type="logical" name="LNICSALL"> T  </i>
   <i type="logical" name="ORBITALMAG"> F  </i>
   <i type="logical" name="LMAGBLOCH"> F  </i>
   <i type="logical" name="LCHIMAG"> F  </i>
   <i type="logical" name="LGAUGE"> T  </i>
   <i type="int" name="MAGATOM">     0</i>
   <v name="MAGDIPOL">      0.00000000      0.00000000      0.00000000</v>
   <v name="AVECCONST">      0.00000000      0.00000000      0.00000000</v>
  </separator>
  <separator name="response functions" >
   <i type="logical" name="LADDER"> F  </i>
   <i type="logical" name="LRPAFORCE"> F  </i>
   <i type="logical" name="LFXC"> F  </i>
   <i type="logical" name="LHARTREE"> T  </i>
   <i type="int" name="IBSE">     0</i>
   <v type="int" name="KPOINT">    -1     0     0     0</v>
   <i type="logical" name="LTCTE"> F  </i>
   <i type="logical" name="LTETE"> F  </i>
   <i type="logical" name="LTRIPLET"> F  </i>
   <i type="logical" name="LFXCEPS"> F  </i>
   <i type="logical" name="LFXHEG"> F  </i>
   <i type="int" name="NATURALO">     2</i>
   <i type="logical" name="L2ORDER"> F  </i>
   <i type="logical" name="LMP2LT"> F  </i>
   <i type="logical" name="LUSEW"> F  </i>
   <i name="ENCUTGW">     -2.00000000</i>
   <i name="ENCUTGWSOFT">     -2.00000000</i>
   <i name="ENCUTLF">     -1.00000000</i>
   <i type="int" name="LMAXMP2">    -1</i>
   <i name="SCISSOR">      0.00000000</i>
   <i type="int" name="NOMEGA">     0</i>
   <i type="int" name="NOMEGAR">     0</i>
   <i type="int" name="NBANDSGW">    -1</i>
   <i type="int" name="NBANDSO">    -1</i>
   <i type="int" name="NBANDSV">    -1</i>
   <i type="int" name="NELM">     1</i>
   <i type="int" name="NELMHF">     1</i>
   <i type="int" name="DIM">     3</i>
   <i type="int" name="ANTIRES">     0</i>
   <i name="OMEGAMAX">    -30.00000000</i>
   <i name="OMEGAMIN">    -30.00000000</i>
   <i name="OMEGATL">   -200.00000000</i>
   <i type="int" name="OMEGAGRID">   140</i>
   <i name="CSHIFT">     -0.10000000</i>
   <i type="logical" name="SELFENERGY"> F  </i>
   <i type="logical" name="LSPECTRAL"> F  </i>
   <i type="logical" name="LSPECTRALGW"> F  </i>
   <i type="logical" name="LSINGLES"> F  </i>
   <i type="logical" name="LFERMIGW"> F  </i>
   <i type="logical" name="ODDONLYGW"> F  </i>
   <i type="logical" name="EVENONLYGW"> F  </i>
   <i type="int" name="NKREDLFX">     1</i>
   <i type="int" name="NKREDLFY">     1</i>
   <i type="int" name="NKREDLFZ">     1</i>
   <i type="int" name="MAXMEM">  2800</i>
   <i type="int" name="TELESCOPE">     0</i>
   <i type="int" name="TAUPAR">     1</i>
   <i type="int" name="OMEGAPAR">    -1</i>
   <i name="LAMBDA">      1.00000000</i>
  </separator>
  <separator name="External order field" >
   <i name="OFIELD_KAPPA">      0.00000000</i>
   <v name="OFIELD_K">      0.00000000      0.00000000      0.00000000</v>
   <i name="OFIELD_Q6_NEAR">      0.00000000</i>
   <i name="OFIELD_Q6_FAR">      0.00000000</i>
   <i name="OFIELD_A">      0.00000000</i>
  </separator>
 </parameters>
 <atominfo>
  <atoms>       2 </atoms>
  <types>       1 </types>
  <array name="atoms" >
   <dimension dim="1">ion</dimension>
   <field type="string">element</field>
   <field type="int">atomtype</field>
   <set>
    <rc><c>Si</c><c>   1</c></rc>
    <rc><c>Si</c><c>   1</c></rc>
   </set>
  </array>
  <array name="atomtypes" >
   <dimension dim="1">type</dimension>
   <field type="int">atomspertype</field>
   <field type="string">element</field>
   <field>mass</field>
   <field>valence</field>
   <field type="string">pseudopotential</field>
   <set>
    <rc><c>   2</c><c>Si</c><c>     28.08500000</c><c>      4.00000000</c><c> PAW_PBE Si 05Jan2001                   </c></rc>
   </set>
  </array>
 </atominfo>
 <structure name="initialpos" >
  <crystal>
   <varray name="basis" >
    <v>       0.00000000       2.71500000       2.71500000 </v>
    <v>       2.71500000       0.00000000       2.71500000 </v>
    <v>       2.71500000       2.71500000       0.00000000 </v>
   </varray>
   <i name="volume">     40.02575175 </i>
   <varray name="rec_basis" >
    <v>      -0.18416206       0.18416206       0.18416206 </v>
    <v>       0.18416206      -0.18416206       0.18416206 </v>
    <v>       0.18416206       0.18416206      -0.18416206 </v>
   </varray>
  </crystal>
  <varray name="positions" >
   <v>       0.50000000       0.50000000       0.50000000 </v>
   <v>       0.75000000       0.75000000       0.75000000 </v>
  </varray>
 </structure>
 <calculation>
  <scstep>
   <time name="dav">    0.74    0.75</time>
   <time name="total">    0.79    0.81</time>
   <energy>
    <i name="alphaZ">      3.36414203 </i>
    <i name="ewald">   -228.56352493 </i>
    <i name="hartreedc">    -11.00108243 </i>
    <i name="XCdc">    -18.60185131 </i>
    <i name="pawpsdc">     65.95520812 </i>
    <i name="pawaedc">    -30.76852678 </i>
    <i name="eentropy">     -0.01470490 </i>
    <i name="bandstr">     17.74234162 </i>
    <i name="atom">    206.13125414 </i>
    <i name="e_fr_energy">      4.24325556 </i>
    <i name="e_wo_entrp">      4.25796045 </i>
    <i name="e_0_energy">      4.25060800 </i>
   </energy>
  </scstep>
  <scstep>
   <time name="dav">    1.15    1.16</time>
   <time name="total">    1.15    1.16</time>
   <energy>
    <i name="e_fr_energy">    -10.82887257 </i>
    <i name="e_wo_entrp">    -10.82886486 </i>
    <i name="e_0_energy">    -10.82886871 </i>
   </energy>
  </scstep>
  <scstep>
   <time name="dav">    0.88    0.89</time>
   <time name="total">    0.88    0.89</time>
   <energy>
    <i name="e_fr_energy">    -11.02140070 </i>
    <i name="e_wo_entrp">    -11.02139533 </i>
    <i name="e_0_energy">    -11.02139802 </i>
   </energy>
  </scstep>
  <scstep>
   <time name="dav">    1.21    1.23</time>
   <time name="total">    1.21    1.23</time>
   <energy>
    <i name="e_fr_energy">    -11.02250318 </i>
    <i name="e_wo_entrp">    -11.02249782 </i>
    <i name="e_0_energy">    -11.02250050 </i>
   </energy>
  </scstep>
  <scstep>
   <time name="dav">    0.92    0.94</time>
   <time name="total">    0.99    1.01</time>
   <energy>
    <i name="e_fr_energy">    -11.02250680 </i>
    <i name="e_wo_entrp">    -11.02250144 </i>
    <i name="e_0_energy">    -11.02250412 </i>
   </energy>
  </scstep>
  <scstep>
   <time name="dav">    0.87    0.87</time>
   <time name="total">    0.98    1.03</time>
   <energy>
    <i name="e_fr_energy">    -10.89772927 </i>
    <i name="e_wo_entrp">    -10.89770248 </i>
    <i name="e_0_energy">    -10.89771587 </i>
   </energy>
  </scstep>
  <scstep>
   <time name="dav">    0.89    0.90</time>
   <time name="total">    0.99    1.03</time>
   <energy>
    <i name="e_fr_energy">    -10.84083377 </i>
    <i name="e_wo_entrp">    -10.84068508 </i>
    <i name="e_0_energy">    -10.84075942 </i>
   </energy>
  </scstep>
  <scstep>
   <time name="dav">    0.82    0.82</time>
   <time name="total">    0.92    0.94</time>
   <energy>
    <i name="e_fr_energy">    -10.84215767 </i>
    <i name="e_wo_entrp">    -10.84203596 </i>
    <i name="e_0_energy">    -10.84209681 </i>
   </energy>
  </scstep>
  <scstep>
   <time name="dav">    0.64    0.64</time>
   <time name="total">    0.68    0.70</time>
   <energy>
    <i name="alphaZ">      3.36414203 </i>
    <i name="ewald">   -228.56352493 </i>
    <i name="hartreedc">    -14.90758574 </i>
    <i name="XCdc">    -17.96081150 </i>
    <i name="pawpsdc">     74.36824207 </i>
    <i name="pawaedc">    -39.40605786 </i>
    <i name="eentropy">     -0.00012109 </i>
    <i name="bandstr">      6.13221390 </i>
    <i name="atom">    206.13125414 </i>
    <i name="e_fr_energy">    -10.84224900 </i>
    <i name="e_wo_entrp">    -10.84212791 </i>
    <i name="e_0_energy">    -10.84218845 </i>
   </energy>
  </scstep>
  <structure>
   <crystal>
    <varray name="basis" >
     <v>       0.00000000       2.71500000       2.71500000 </v>
     <v>       2.71500000       0.00000000       2.71500000 </v>
     <v>       2.71500000       2.71500000       0.00000000 </v>
    </varray>
    <i name="volume">     40.02575175 </i>
    <varray name="rec_basis" >
     <v>      -0.18416206       0.18416206       0.18416206 </v>
     <v>       0.18416206      -0.18416206       0.18416206 </v>
     <v>       0.18416206       0.18416206      -0.18416206 </v>
    </varray>
   </crystal>
   <varray name="positions" >
    <v>       0.50000000       0.50000000       0.50000000 </v>
    <v>       0.75000000       0.75000000       0.75000000 </v>
   </varray>
  </structure>
  <varray name="forces" >
   <v>       0.00000000       0.00000000       0.00000000 </v>
   <v>      -0.00000000      -0.00000000      -0.00000000 </v>
  </varray>
  <varray name="stress" >
   <v>      19.53156688      -0.00000000       0.00000000 </v>
   <v>      -0.00000000      19.53156688       0.00000000 </v>
   <v>       0.00000000       0.00000000      19.53156688 </v>
  </varray>
  <energy>
   <i name="e_fr_energy">    -10.84224900 </i>
   <i name="e_wo_entrp">    -10.84218845 </i>
   <i name="e_0_energy">     -0.00012109 </i>
  </energy>
  <time name="totalsc">   10.15   11.70</time>
 </calculation>
 <calculation>
  <scstep>
   <time name="dav">    0.87    0.87</time>
   <time name="total">    0.97    0.98</time>
   <energy>
    <i name="alphaZ">      3.24809896 </i>
    <i name="ewald">   -225.90468353 </i>
    <i name="hartreedc">    -14.74607647 </i>
    <i name="XCdc">    -18.13243983 </i>
    <i name="pawpsdc">     74.36520206 </i>
    <i name="pawaedc">    -39.40397206 </i>
    <i name="eentropy">     -0.00004254 </i>
    <i name="bandstr">      3.59104140 </i>
    <i name="atom">    206.13125414 </i>
    <i name="e_fr_energy">    -10.85161787 </i>
    <i name="e_wo_entrp">    -10.85157533 </i>
    <i name="e_0_energy">    -10.85159660 </i>
   </energy>
  </scstep>
  <scstep>
   <time name="dav">    0.96    0.96</time>
   <time name="total">    1.06    1.07</time>
   <energy>
    <i name="e_fr_energy">    -10.84717693 </i>
    <i name="e_wo_entrp">    -10.84712296 </i>
    <i name="e_0_energy">    -10.84714994 </i>
   </energy>
  </scstep>
  <scstep>
   <time name="dav">    0.87    0.87</time>
   <time name="total">    0.97    0.99</time>
   <energy>
    <i name="e_fr_energy">    -10.84484192 </i>
    <i name="e_wo_entrp">    -10.84476981 </i>
    <i name="e_0_energy">    -10.84480587 </i>
   </energy>
  </scstep>
  <scstep>
   <time name="dav">    0.46    0.47</time>
   <time name="total">    0.51    0.52</time>
   <energy>
    <i name="alphaZ">      3.24809896 </i>
    <i name="ewald">   -225.90468353 </i>
    <i name="hartreedc">    -15.33383757 </i>
    <i name="XCdc">    -18.12036891 </i>
    <i name="pawpsdc">     73.28727366 </i>
    <i name="pawaedc">    -38.29672526 </i>
    <i name="eentropy">     -0.00007095 </i>
    <i name="bandstr">      4.14422824 </i>
    <i name="atom">    206.13125414 </i>
    <i name="e_fr_energy">    -10.84483122 </i>
    <i name="e_wo_entrp">    -10.84476027 </i>
    <i name="e_0_energy">    -10.84479574 </i>
   </energy>
  </scstep>
  <structure>
   <crystal>
    <varray name="basis" >
     <v>       0.00000000       2.74695487       2.74695487 </v>
     <v>       2.74695487      -0.00000000       2.74695487 </v>
     <v>       2.74695487       2.74695487       0.00000000 </v>
    </varray>
    <i name="volume">     41.45573009 </i>
    <varray name="rec_basis" >
     <v>      -0.18201974       0.18201974       0.18201974 </v>
     <v>       0.18201974      -0.18201974       0.18201974 </v>
     <v>       0.18201974       0.18201974      -0.18201974 </v>
    </varray>
   </crystal>
   <varray name="positions" >
    <v>       0.50000000       0.50000000       0.50000000 </v>
    <v>       0.75000000       0.75000000       0.75000000 </v>
   </varray>
  </structure>
  <varray name="forces" >
   <v>      -0.00000000      -0.00000000       0.00000000 </v>
   <v>       0.00000000       0.00000000      -0.00000000 </v>
  </varray>
  <varray name="stress" >
   <v>     -12.38089449      -0.00000000       0.00000000 </v>
   <v>      -0.00000000     -12.38089449       0.00000000 </v>
   <v>       0.00000000      -0.00000000     -12.38089449 </v>
  </varray>
  <energy>
   <i name="e_fr_energy">    -10.84483122 </i>
   <i name="e_wo_entrp">    -10.84479574 </i>
   <i name="e_0_energy">     -0.00007095 </i>
  </energy>
  <time name="totalsc">    4.10    4.46</time>
 </calculation>
 <calculation>
  <scstep>
   <time name="dav">    0.85    0.85</time>
   <time name="total">    0.95    0.96</time>
   <energy>
    <i name="alphaZ">      3.29344209 </i>
    <i name="ewald">   -226.95103170 </i>
    <i name="hartreedc">    -15.40771480 </i>
    <i name="XCdc">    -18.05389274 </i>
    <i name="pawpsdc">     73.24531531 </i>
    <i name="pawaedc">    -38.25294975 </i>
    <i name="eentropy">     -0.00010523 </i>
    <i name="bandstr">      5.14742927 </i>
    <i name="atom">    206.13125414 </i>
    <i name="e_fr_energy">    -10.84825339 </i>
    <i name="e_wo_entrp">    -10.84814817 </i>
    <i name="e_0_energy">    -10.84820078 </i>
   </energy>
  </scstep>
  <scstep>
   <time name="dav">    0.92    0.92</time>
   <time name="total">    1.02    1.04</time>
   <energy>
    <i name="e_fr_energy">    -10.84754648 </i>
    <i name="e_wo_entrp">    -10.84744997 </i>
    <i name="e_0_energy">    -10.84749823 </i>
   </energy>
  </scstep>
  <scstep>
   <time name="dav">    0.64    0.65</time>
   <time name="total">    0.68    0.70</time>
   <energy>
    <i name="alphaZ">      3.29344209 </i>
    <i name="ewald">   -226.95103170 </i>
    <i name="hartreedc">    -15.16901887 </i>
    <i name="XCdc">    -18.05955600 </i>
    <i name="pawpsdc">     73.61185219 </i>
    <i name="pawaedc">    -38.62854637 </i>
    <i name="eentropy">     -0.00008638 </i>
    <i name="bandstr">      4.92450840 </i>
    <i name="atom">    206.13125414 </i>
    <i name="e_fr_energy">    -10.84718250 </i>
    <i name="e_wo_entrp">    -10.84709613 </i>
    <i name="e_0_energy">    -10.84713931 </i>
   </energy>
  </scstep>
  <structure>
   <crystal>
    <varray name="basis" >
     <v>       0.00000000       2.73429015       2.73429015 </v>
     <v>       2.73429015      -0.00000000       2.73429015 </v>
     <v>       2.73429015       2.73429015       0.00000000 </v>
    </varray>
    <i name="volume">     40.88497993 </i>
    <varray name="rec_basis" >
     <v>      -0.18286282       0.18286282       0.18286282 </v>
     <v>       0.18286282      -0.18286282       0.18286282 </v>
     <v>       0.18286282       0.18286282      -0.18286282 </v>
    </varray>
   </crystal>
   <varray name="positions" >
    <v>       0.50000000       0.50000000       0.50000000 </v>
    <v>       0.75000000       0.75000000       0.75000000 </v>
   </varray>
  </structure>
  <varray name="forces" >
   <v>      -0.00000000      -0.00000000      -0.00000000 </v>
   <v>       0.00000000       0.00000000       0.00000000 </v>
  </varray>
  <varray name="stress" >
   <v>      -0.54330619      -0.00000000       0.00000000 </v>
   <v>       0.00000000      -0.54330619       0.00000000 </v>
   <v>      -0.00000000      -0.00000000      -0.54330619 </v>
  </varray>
  <energy>
   <i name="e_fr_energy">    -10.84718250 </i>
   <i name="e_wo_entrp">    -10.84713931 </i>
   <i name="e_0_energy">     -0.00008638 </i>
  </energy>
  <time name="totalsc">    3.35    3.96</time>
  <eigenvalues>
   <array>
    <dimension dim="1">band</dimension>
    <dimension dim="2">kpoint</dimension>
    <dimension dim="3">spin</dimension>
    <field>eigene</field>
    <field>occ</field>
    <set>
     <set comment="spin 1">
      <set comment="kpoint 1">
       <r>   -6.1987    1.0000 </r>
       <r>    5.6172    0.9824 </r>
       <r>    5.6172    0.9824 </r>
       <r>    5.6172    0.9824 </r>
       <r>    8.1746    0.0000 </r>
       <r>    8.1746    0.0000 </r>
       <r>    8.1746    0.0000 </r>
       <r>    8.7512    0.0000 </r>
      </set>
      <set comment="kpoint 2">
       <r>   -6.0923    1.0000 </r>
       <r>    4.6322    1.0000 </r>
       <r>    5.4533    0.9995 </r>
       <r>    5.4533    0.9995 </r>
       <r>    8.1652    0.0000 </r>
       <r>    8.4169    0.0000 </r>
       <r>    8.4169    0.0000 </r>
       <r>    9.5734    0.0000 </r>
      </set>
      <set comment="kpoint 3">
       <r>   -5.7775    1.0000 </r>
       <r>    2.9717    1.0000 </r>
       <r>    5.1182    1.0000 </r>
       <r>    5.1182    1.0000 </r>
       <r>    7.8438    0.0000 </r>
       <r>    8.8845    0.0000 </r>
       <r>    8.8845    0.0000 </r>
       <r>   11.1700    0.0000 </r>
      </set>
      <set comment="kpoint 4">
       <r>   -5.2709    1.0000 </r>
       <r>    1.3347    1.0000 </r>
       <r>    4.7988    1.0000 </r>
       <r>    4.7988    1.0000 </r>
       <r>    7.4967    0.0000 </r>
       <r>    9.1376    0.0000 </r>
       <r>    9.1376    0.0000 </r>
       <r>   12.7375    0.0000 </r>
      </set>
      <set comment="kpoint 5">
       <r>   -4.6237    1.0000 </r>
       <r>   -0.0981    1.0000 </r>
       <r>    4.5698    1.0000 </r>
       <r>    4.5698    1.0000 </r>
       <r>    7.2372    0.0000 </r>
       <r>    9.0874    0.0000 </r>
       <r>    9.0874    0.0000 </r>
       <r>   13.4631    0.0000 </r>
      </set>
      <set comment="kpoint 6">
       <r>   -4.0282    1.0000 </r>
       <r>   -1.0936    1.0000 </r>
       <r>    4.4528    1.0000 </r>
       <r>    4.4528    1.0000 </r>
       <r>    7.1024    0.0000 </r>
       <r>    8.9852    0.0000 </r>
       <r>    8.9852    0.0000 </r>
       <r>   13.3470    0.0000 </r>
      </set>
      <set comment="kpoint 7">
       <r>   -6.0567    1.0000 </r>
       <r>    4.7982    1.0000 </r>
       <r>    5.1348    1.0000 </r>
       <r>    5.1348    1.0000 </r>
       <r>    7.8608    0.0000 </r>
       <r>    8.8326    0.0000 </r>
       <r>    8.8326    0.0000 </r>
       <r>    9.5012    0.0000 </r>
      </set>
      <set comment="kpoint 8">
       <r>   -5.8106    1.0000 </r>
       <r>    3.4580    1.0000 </r>
       <r>    4.7446    1.0000 </r>
       <r>    4.9179    1.0000 </r>
       <r>    7.8937    0.0000 </r>
       <r>    8.8581    0.0000 </r>
       <r>    9.4167    0.0000 </r>
       <r>   10.4862    0.0000 </r>
      </set>
      <set comment="kpoint 9">
       <r>   -5.3653    1.0000 </r>
       <r>    1.8597    1.0000 </r>
       <r>    4.4297    1.0000 </r>
       <r>    4.5493    1.0000 </r>
       <r>    7.9989    0.0000 </r>
       <r>    8.8657    0.0000 </r>
       <r>    9.7690    0.0000 </r>
       <r>   10.9489    0.0000 </r>
      </set>
      <set comment="kpoint 10">
       <r>   -4.7552    1.0000 </r>
       <r>    0.3748    1.0000 </r>
       <r>    4.1723    1.0000 </r>
       <r>    4.2446    1.0000 </r>
       <r>    7.8346    0.0000 </r>
       <r>    8.9214    0.0000 </r>
       <r>    9.7103    0.0000 </r>
       <r>   11.7140    0.0000 </r>
      </set>
      <set comment="kpoint 11">
       <r>   -4.1004    1.0000 </r>
       <r>   -0.7963    1.0000 </r>
       <r>    3.8786    1.0000 </r>
       <r>    4.2036    1.0000 </r>
       <r>    7.6908    0.0000 </r>
       <r>    8.8900    0.0000 </r>
       <r>    9.4814    0.0000 </r>
       <r>   12.9423    0.0000 </r>
      </set>
      <set comment="kpoint 12">
       <r>   -3.8381    1.0000 </r>
       <r>   -1.1885    1.0000 </r>
       <r>    3.7044    1.0000 </r>
       <r>    4.3026    1.0000 </r>
       <r>    7.6619    0.0000 </r>
       <r>    8.9482    0.0000 </r>
       <r>    9.2999    0.0000 </r>
       <r>   13.6503    0.0000 </r>
      </set>
      <set comment="kpoint 13">
       <r>   -4.3088    1.0000 </r>
       <r>   -0.4557    1.0000 </r>
       <r>    3.6705    1.0000 </r>
       <r>    4.5259    1.0000 </r>
       <r>    7.7602    0.0000 </r>
       <r>    9.1364    0.0000 </r>
       <r>    9.2210    0.0000 </r>
       <r>   13.3241    0.0000 </r>
      </set>
      <set comment="kpoint 14">
       <r>   -4.9743    1.0000 </r>
       <r>    0.8498    1.0000 </r>
       <r>    3.7922    1.0000 </r>
       <r>    4.8449    1.0000 </r>
       <r>    7.9750    0.0000 </r>
       <r>    9.1488    0.0000 </r>
       <r>    9.3419    0.0000 </r>
       <r>   12.2622    0.0000 </r>
      </set>
      <set comment="kpoint 15">
       <r>   -5.5356    1.0000 </r>
       <r>    2.3769    1.0000 </r>
       <r>    4.0877    1.0000 </r>
       <r>    5.2038    1.0000 </r>
       <r>    8.2718    0.0000 </r>
       <r>    8.8648    0.0000 </r>
       <r>    9.2109    0.0000 </r>
       <r>   11.3676    0.0000 </r>
      </set>
      <set comment="kpoint 16">
       <r>   -5.9162    1.0000 </r>
       <r>    3.8289    1.0000 </r>
       <r>    4.6465    1.0000 </r>
       <r>    5.4751    0.9991 </r>
       <r>    8.4677    0.0000 </r>
       <r>    8.5048    0.0000 </r>
       <r>    8.6295    0.0000 </r>
       <r>   10.4648    0.0000 </r>
      </set>
      <set comment="kpoint 17">
       <r>   -5.6334    1.0000 </r>
       <r>    3.3004    1.0000 </r>
       <r>    4.3183    1.0000 </r>
       <r>    4.3183    1.0000 </r>
       <r>    7.2236    0.0000 </r>
       <r>    9.6927    0.0000 </r>
       <r>   10.1631    0.0000 </r>
       <r>   10.1631    0.0000 </r>
      </set>
      <set comment="kpoint 18">
       <r>   -5.2530    1.0000 </r>
       <r>    2.1594    1.0000 </r>
       <r>    3.9032    1.0000 </r>
       <r>    3.9801    1.0000 </r>
       <r>    7.2751    0.0000 </r>
       <r>    9.2987    0.0000 </r>
       <r>   10.4466    0.0000 </r>
       <r>   10.7419    0.0000 </r>
      </set>
      <set comment="kpoint 19">
       <r>   -4.6923    1.0000 </r>
       <r>    0.8102    1.0000 </r>
       <r>    3.3769    1.0000 </r>
       <r>    3.7857    1.0000 </r>
       <r>    7.5085    0.0000 </r>
       <r>    9.6560    0.0000 </r>
       <r>   10.2451    0.0000 </r>
       <r>   10.8276    0.0000 </r>
      </set>
      <set comment="kpoint 20">
       <r>   -4.0259    1.0000 </r>
       <r>   -0.4050    1.0000 </r>
       <r>    2.9066    1.0000 </r>
       <r>    3.7531    1.0000 </r>
       <r>    7.5470    0.0000 </r>
       <r>   10.0136    0.0000 </r>
       <r>   10.5822    0.0000 </r>
       <r>   10.8625    0.0000 </r>
      </set>
      <set comment="kpoint 21">
       <r>   -3.5555    1.0000 </r>
       <r>   -1.0990    1.0000 </r>
       <r>    2.5766    1.0000 </r>
       <r>    3.8812    1.0000 </r>
       <r>    7.6425    0.0000 </r>
       <r>    9.8893    0.0000 </r>
       <r>   10.2966    0.0000 </r>
       <r>   12.4697    0.0000 </r>
      </set>
      <set comment="kpoint 22">
       <r>   -3.8334    1.0000 </r>
       <r>   -0.6968    1.0000 </r>
       <r>    2.4278    1.0000 </r>
       <r>    4.1542    1.0000 </r>
       <r>    7.8862    0.0000 </r>
       <r>    9.8832    0.0000 </r>
       <r>   10.0741    0.0000 </r>
       <r>   13.2768    0.0000 </r>
      </set>
      <set comment="kpoint 23">
       <r>   -4.4908    1.0000 </r>
       <r>    0.3982    1.0000 </r>
       <r>    2.5121    1.0000 </r>
       <r>    4.5345    1.0000 </r>
       <r>    8.2418    0.0000 </r>
       <r>    9.8283    0.0000 </r>
       <r>    9.9384    0.0000 </r>
       <r>   11.8928    0.0000 </r>
      </set>
      <set comment="kpoint 24">
       <r>   -5.0959    1.0000 </r>
       <r>    1.5707    1.0000 </r>
       <r>    2.9914    1.0000 </r>
       <r>    4.9411    1.0000 </r>
       <r>    8.5563    0.0000 </r>
       <r>    9.3411    0.0000 </r>
       <r>    9.6309    0.0000 </r>
       <r>   11.2229    0.0000 </r>
      </set>
      <set comment="kpoint 25">
       <r>   -4.9372    1.0000 </r>
       <r>    1.6953    1.0000 </r>
       <r>    3.6082    1.0000 </r>
       <r>    3.6082    1.0000 </r>
       <r>    6.6424    0.0000 </r>
       <r>    8.4284    0.0000 </r>
       <r>   11.7070    0.0000 </r>
       <r>   11.7070    0.0000 </r>
      </set>
      <set comment="kpoint 26">
       <r>   -4.4326    1.0000 </r>
       <r>    0.7542    1.0000 </r>
       <r>    3.0808    1.0000 </r>
       <r>    3.3799    1.0000 </r>
       <r>    6.7739    0.0000 </r>
       <r>    8.1432    0.0000 </r>
       <r>   11.9848    0.0000 </r>
       <r>   12.1717    0.0000 </r>
      </set>
      <set comment="kpoint 27">
       <r>   -3.7854    1.0000 </r>
       <r>   -0.2577    1.0000 </r>
       <r>    2.3671    1.0000 </r>
       <r>    3.3190    1.0000 </r>
       <r>    6.9736    0.0000 </r>
       <r>    8.8830    0.0000 </r>
       <r>   11.8211    0.0000 </r>
       <r>   12.0434    0.0000 </r>
      </set>
      <set comment="kpoint 28">
       <r>   -3.1850    1.0000 </r>
       <r>   -1.0429    1.0000 </r>
       <r>    1.8041    1.0000 </r>
       <r>    3.4293    1.0000 </r>
       <r>    7.1061    0.0000 </r>
       <r>   10.3455    0.0000 </r>
       <r>   11.6523    0.0000 </r>
       <r>   11.7224    0.0000 </r>
      </set>
      <set comment="kpoint 29">
       <r>   -3.2408    1.0000 </r>
       <r>   -0.9645    1.0000 </r>
       <r>    1.5254    1.0000 </r>
       <r>    3.6989    1.0000 </r>
       <r>    7.3895    0.0000 </r>
       <r>   11.3733    0.0000 </r>
       <r>   11.3915    0.0000 </r>
       <r>   12.2747    0.0000 </r>
      </set>
      <set comment="kpoint 30">
       <r>   -3.8621    1.0000 </r>
       <r>   -0.2186    1.0000 </r>
       <r>    1.6849    1.0000 </r>
       <r>    4.0940    1.0000 </r>
       <r>    7.8234    0.0000 </r>
       <r>   10.7780    0.0000 </r>
       <r>   11.1196    0.0000 </r>
       <r>   11.9415    0.0000 </r>
      </set>
      <set comment="kpoint 31">
       <r>   -3.9836    1.0000 </r>
       <r>    0.0998    1.0000 </r>
       <r>    3.1093    1.0000 </r>
       <r>    3.1093    1.0000 </r>
       <r>    6.2924    0.0038 </r>
       <r>    7.3089    0.0000 </r>
       <r>   13.3481    0.0000 </r>
       <r>   13.3481    0.0000 </r>
      </set>
      <set comment="kpoint 32">
       <r>   -3.3726    1.0000 </r>
       <r>   -0.7028    1.0000 </r>
       <r>    2.5868    1.0000 </r>
       <r>    3.0056    1.0000 </r>
       <r>    6.4999    0.0000 </r>
       <r>    7.3194    0.0000 </r>
       <r>   13.6678    0.0000 </r>
       <r>   13.6783    0.0000 </r>
      </set>
      <set comment="kpoint 33">
       <r>   -2.7119    1.0000 </r>
       <r>   -1.4082    1.0000 </r>
       <r>    1.8261    1.0000 </r>
       <r>    3.0773    1.0000 </r>
       <r>    6.6691    0.0000 </r>
       <r>    8.4852    0.0000 </r>
       <r>   13.4004    0.0000 </r>
       <r>   13.5333    0.0000 </r>
      </set>
      <set comment="kpoint 34">
       <r>   -2.6520    1.0000 </r>
       <r>   -1.4372    1.0000 </r>
       <r>    1.3515    1.0000 </r>
       <r>    3.3174    1.0000 </r>
       <r>    6.9419    0.0000 </r>
       <r>   10.1882    0.0000 </r>
       <r>   12.7286    0.0000 </r>
       <r>   13.2550    0.0000 </r>
      </set>
      <set comment="kpoint 35">
       <r>   -2.7982    1.0000 </r>
       <r>   -1.4193    1.0000 </r>
       <r>    2.8543    1.0000 </r>
       <r>    2.8543    1.0000 </r>
       <r>    6.2555    0.0080 </r>
       <r>    6.5827    0.0000 </r>
       <r>   15.0172    0.0000 </r>
       <r>   15.0172    0.0000 </r>
      </set>
      <set comment="kpoint 36">
       <r>   -2.1647    1.0000 </r>
       <r>   -2.0527    1.0000 </r>
       <r>    2.4240    1.0000 </r>
       <r>    2.8789    1.0000 </r>
       <r>    6.4362    0.0001 </r>
       <r>    7.0104    0.0000 </r>
       <r>   14.9438    0.0000 </r>
       <r>   15.1738    0.0000 </r>
      </set>
      <set comment="kpoint 37">
       <r>   -5.4978    1.0000 </r>
       <r>    2.6016    1.0000 </r>
       <r>    3.8216    1.0000 </r>
       <r>    4.8068    1.0000 </r>
       <r>    7.9529    0.0000 </r>
       <r>    9.1728    0.0000 </r>
       <r>    9.9598    0.0000 </r>
       <r>   10.3795    0.0000 </r>
      </set>
      <set comment="kpoint 38">
       <r>   -4.9940    1.0000 </r>
       <r>    1.3018    1.0000 </r>
       <r>    3.2646    1.0000 </r>
       <r>    4.4938    1.0000 </r>
       <r>    8.2565    0.0000 </r>
       <r>    9.1364    0.0000 </r>
       <r>   10.2887    0.0000 </r>
       <r>   10.4959    0.0000 </r>
      </set>
      <set comment="kpoint 39">
       <r>   -4.3483    1.0000 </r>
       <r>   -0.0181    1.0000 </r>
       <r>    3.0072    1.0000 </r>
       <r>    4.1571    1.0000 </r>
       <r>    8.2797    0.0000 </r>
       <r>    8.9580    0.0000 </r>
       <r>   10.3831    0.0000 </r>
       <r>   11.3272    0.0000 </r>
      </set>
      <set comment="kpoint 40">
       <r>   -3.7480    1.0000 </r>
       <r>   -0.9796    1.0000 </r>
       <r>    2.9067    1.0000 </r>
       <r>    3.9511    1.0000 </r>
       <r>    8.2478    0.0000 </r>
       <r>    8.7688    0.0000 </r>
       <r>   10.3194    0.0000 </r>
       <r>   12.7741    0.0000 </r>
      </set>
      <set comment="kpoint 41">
       <r>   -4.8116    1.0000 </r>
       <r>    1.3206    1.0000 </r>
       <r>    3.1176    1.0000 </r>
       <r>    3.8199    1.0000 </r>
       <r>    7.3998    0.0000 </r>
       <r>    8.9189    0.0000 </r>
       <r>   10.5554    0.0000 </r>
       <r>   11.5915    0.0000 </r>
      </set>
      <set comment="kpoint 42">
       <r>   -4.2052    1.0000 </r>
       <r>    0.2576    1.0000 </r>
       <r>    2.5501    1.0000 </r>
       <r>    3.5136    1.0000 </r>
       <r>    7.7577    0.0000 </r>
       <r>    9.3280    0.0000 </r>
       <r>   10.2434    0.0000 </r>
       <r>   11.9790    0.0000 </r>
      </set>
      <set comment="kpoint 43">
       <r>   -3.5462    1.0000 </r>
       <r>   -0.7317    1.0000 </r>
       <r>    2.1685    1.0000 </r>
       <r>    3.3618    1.0000 </r>
       <r>    7.8898    0.0000 </r>
       <r>    9.8626    0.0000 </r>
       <r>   10.6718    0.0000 </r>
       <r>   11.9356    0.0000 </r>
      </set>
      <set comment="kpoint 44">
       <r>   -3.2865    1.0000 </r>
       <r>   -1.0724    1.0000 </r>
       <r>    1.9426    1.0000 </r>
       <r>    3.4494    1.0000 </r>
       <r>    8.0985    0.0000 </r>
       <r>    9.6004    0.0000 </r>
       <r>   11.8227    0.0000 </r>
       <r>   12.3399    0.0000 </r>
      </set>
      <set comment="kpoint 45">
       <r>   -3.7810    1.0000 </r>
       <r>   -0.3985    1.0000 </r>
       <r>    1.9353    1.0000 </r>
       <r>    3.7388    1.0000 </r>
       <r>    8.4518    0.0000 </r>
       <r>    9.4138    0.0000 </r>
       <r>   11.1242    0.0000 </r>
       <r>   11.7566    0.0000 </r>
      </set>
      <set comment="kpoint 46">
       <r>   -4.4434    1.0000 </r>
       <r>    0.5665    1.0000 </r>
       <r>    2.3094    1.0000 </r>
       <r>    4.1448    1.0000 </r>
       <r>    8.8769    0.0000 </r>
       <r>    9.0007    0.0000 </r>
       <r>   10.2529    0.0000 </r>
       <r>   11.3028    0.0000 </r>
      </set>
      <set comment="kpoint 47">
       <r>   -3.8768    1.0000 </r>
       <r>   -0.0351    1.0000 </r>
       <r>    2.6500    1.0000 </r>
       <r>    3.0351    1.0000 </r>
       <r>    7.0493    0.0000 </r>
       <r>    7.9010    0.0000 </r>
       <r>   11.9199    0.0000 </r>
       <r>   13.3146    0.0000 </r>
      </set>
      <set comment="kpoint 48">
       <r>   -3.2090    1.0000 </r>
       <r>   -0.8452    1.0000 </r>
       <r>    2.0207    1.0000 </r>
       <r>    2.8606    1.0000 </r>
       <r>    7.3926    0.0000 </r>
       <r>    8.7021    0.0000 </r>
       <r>   11.5734    0.0000 </r>
       <r>   13.6734    0.0000 </r>
      </set>
      <set comment="kpoint 49">
       <r>   -2.7510    1.0000 </r>
       <r>   -1.3337    1.0000 </r>
       <r>    1.5102    1.0000 </r>
       <r>    2.9743    1.0000 </r>
       <r>    7.6043    0.0000 </r>
       <r>   10.2565    0.0000 </r>
       <r>   11.2753    0.0000 </r>
       <r>   12.8604    0.0000 </r>
      </set>
      <set comment="kpoint 50">
       <r>   -3.1302    1.0000 </r>
       <r>   -0.9391    1.0000 </r>
       <r>    1.4080    1.0000 </r>
       <r>    3.2914    1.0000 </r>
       <r>    7.9692    0.0000 </r>
       <r>   10.6640    0.0000 </r>
       <r>   11.3862    0.0000 </r>
       <r>   12.2725    0.0000 </r>
      </set>
      <set comment="kpoint 51">
       <r>   -2.7269    1.0000 </r>
       <r>   -1.4177    1.0000 </r>
       <r>    2.4621    1.0000 </r>
       <r>    2.5821    1.0000 </r>
       <r>    6.9833    0.0000 </r>
       <r>    7.2542    0.0000 </r>
       <r>   13.4372    0.0000 </r>
       <r>   14.8281    0.0000 </r>
      </set>
      <set comment="kpoint 52">
       <r>   -2.2332    1.0000 </r>
       <r>   -1.8567    1.0000 </r>
       <r>    1.8178    1.0000 </r>
       <r>    2.6530    1.0000 </r>
       <r>    7.2625    0.0000 </r>
       <r>    8.4964    0.0000 </r>
       <r>   12.9901    0.0000 </r>
       <r>   13.2187    0.0000 </r>
      </set>
      <set comment="kpoint 53">
       <r>   -3.5731    1.0000 </r>
       <r>   -0.4219    1.0000 </r>
       <r>    1.9084    1.0000 </r>
       <r>    3.0593    1.0000 </r>
       <r>    8.6855    0.0000 </r>
       <r>    9.3361    0.0000 </r>
       <r>    9.8722    0.0000 </r>
       <r>   13.2150    0.0000 </r>
      </set>
      <set comment="kpoint 54">
       <r>   -2.9513    1.0000 </r>
       <r>   -1.1110    1.0000 </r>
       <r>    1.6328    1.0000 </r>
       <r>    2.7460    1.0000 </r>
       <r>    9.0597    0.0000 </r>
       <r>    9.4050    0.0000 </r>
       <r>   10.6626    0.0000 </r>
       <r>   12.5088    0.0000 </r>
      </set>
      <set comment="kpoint 55">
       <r>   -2.5463    1.0000 </r>
       <r>   -1.4623    1.0000 </r>
       <r>    1.8612    1.0000 </r>
       <r>    2.2376    1.0000 </r>
       <r>    8.6066    0.0000 </r>
       <r>    8.8158    0.0000 </r>
       <r>   11.1694    0.0000 </r>
       <r>   12.7436    0.0000 </r>
      </set>
      <set comment="kpoint 56">
       <r>   -2.3516    1.0000 </r>
       <r>   -1.6238    1.0000 </r>
       <r>    1.5884    1.0000 </r>
       <r>    2.2732    1.0000 </r>
       <r>    8.9539    0.0000 </r>
       <r>   10.2295    0.0000 </r>
       <r>   10.9393    0.0000 </r>
       <r>   10.9482    0.0000 </r>
      </set>
     </set>
    </set>
   </array>
  </eigenvalues>
  <separator name="orbital magnetization" >
   <v name="MAGDIPOLOUT">      0.00000000      0.00000000      0.00000000</v>
  </separator>
  <dos>
   <i name="efermi">      5.91502806 </i>
   <total>
    <array>
     <dimension dim="1">gridpoints</dimension>
     <dimension dim="2">spin</dimension>
     <field>energy</field>
     <field>total</field>
     <field>integrated</field>
     <set>
      <set comment="spin 1">
       <r>    -8.1987     0.0000     0.0000 </r>
       <r>    -8.1141     0.0000     0.0000 </r>
       <r>    -8.0295     0.0000     0.0000 </r>
       <r>    -7.9449     0.0000     0.0000 </r>
       <r>    -7.8604     0.0000     0.0000 </r>
       <r>    -7.7758     0.0000     0.0000 </r>
       <r>    -7.6912     0.0000     0.0000 </r>
       <r>    -7.6066     0.0000     0.0000 </r>
       <r>    -7.5221     0.0000     0.0000 </r>
       <r>    -7.4375     0.0000     0.0000 </r>
       <r>    -7.3529     0.0000     0.0000 </r>
       <r>    -7.2683     0.0000     0.0000 </r>
       <r>    -7.1838     0.0000     0.0000 </r>
       <r>    -7.0992     0.0000     0.0000 </r>
       <r>    -7.0146     0.0000     0.0000 </r>
       <r>    -6.9300     0.0000     0.0000 </r>
       <r>    -6.8455     0.0000     0.0000 </r>
       <r>    -6.7609     0.0000     0.0000 </r>
       <r>    -6.6763     0.0000     0.0000 </r>
       <r>    -6.5917     0.0001     0.0000 </r>
       <r>    -6.5072     0.0005     0.0000 </r>
       <r>    -6.4226     0.0024     0.0002 </r>
       <r>    -6.3380     0.0086     0.0010 </r>
       <r>    -6.2534     0.0237     0.0030 </r>
       <r>    -6.1689     0.0504     0.0072 </r>
       <r>    -6.0843     0.0862     0.0145 </r>
       <r>    -5.9997     0.1269     0.0253 </r>
       <r>    -5.9151     0.1689     0.0396 </r>
       <r>    -5.8306     0.2037     0.0568 </r>
       <r>    -5.7460     0.2237     0.0757 </r>
       <r>    -5.6614     0.2399     0.0960 </r>
       <r>    -5.5768     0.2720     0.1190 </r>
       <r>    -5.4923     0.3138     0.1455 </r>
       <r>    -5.4077     0.3396     0.1743 </r>
       <r>    -5.3231     0.3402     0.2030 </r>
       <r>    -5.2385     0.3315     0.2311 </r>
       <r>    -5.1540     0.3420     0.2600 </r>
       <r>    -5.0694     0.3906     0.2930 </r>
       <r>    -4.9848     0.4545     0.3315 </r>
       <r>    -4.9002     0.4875     0.3727 </r>
       <r>    -4.8157     0.4774     0.4131 </r>
       <r>    -4.7311     0.4484     0.4510 </r>
       <r>    -4.6465     0.4293     0.4873 </r>
       <r>    -4.5619     0.4529     0.5256 </r>
       <r>    -4.4774     0.5360     0.5709 </r>
       <r>    -4.3928     0.6391     0.6250 </r>
       <r>    -4.3082     0.6935     0.6836 </r>
       <r>    -4.2236     0.6749     0.7407 </r>
       <r>    -4.1391     0.6223     0.7934 </r>
       <r>    -4.0545     0.5997     0.8441 </r>
       <r>    -3.9699     0.6598     0.8999 </r>
       <r>    -3.8853     0.8030     0.9678 </r>
       <r>    -3.8008     0.9422     1.0475 </r>
       <r>    -3.7162     0.9696     1.1295 </r>
       <r>    -3.6316     0.8794     1.2039 </r>
       <r>    -3.5470     0.7563     1.2678 </r>
       <r>    -3.4625     0.6729     1.3247 </r>
       <r>    -3.3779     0.6676     1.3812 </r>
       <r>    -3.2933     0.7330     1.4432 </r>
       <r>    -3.2087     0.7843     1.5095 </r>
       <r>    -3.1242     0.7344     1.5716 </r>
       <r>    -3.0396     0.6083     1.6231 </r>
       <r>    -2.9550     0.5095     1.6662 </r>
       <r>    -2.8704     0.4993     1.7084 </r>
       <r>    -2.7859     0.5501     1.7549 </r>
       <r>    -2.7013     0.5787     1.8039 </r>
       <r>    -2.6167     0.5233     1.8481 </r>
       <r>    -2.5321     0.4069     1.8825 </r>
       <r>    -2.4476     0.3048     1.9083 </r>
       <r>    -2.3630     0.2606     1.9304 </r>
       <r>    -2.2784     0.2575     1.9521 </r>
       <r>    -2.1938     0.2537     1.9736 </r>
       <r>    -2.1093     0.2274     1.9928 </r>
       <r>    -2.0247     0.1905     2.0089 </r>
       <r>    -1.9401     0.1653     2.0229 </r>
       <r>    -1.8555     0.1587     2.0363 </r>
       <r>    -1.7710     0.1663     2.0504 </r>
       <r>    -1.6864     0.1980     2.0671 </r>
       <r>    -1.6018     0.2789     2.0907 </r>
       <r>    -1.5172     0.4165     2.1260 </r>
       <r>    -1.4327     0.5708     2.1742 </r>
       <r>    -1.3481     0.6832     2.2320 </r>
       <r>    -1.2635     0.7605     2.2963 </r>
       <r>    -1.1789     0.8765     2.3705 </r>
       <r>    -1.0944     1.0442     2.4588 </r>
       <r>    -1.0098     1.1666     2.5574 </r>
       <r>    -0.9252     1.1663     2.6561 </r>
       <r>    -0.8406     1.0723     2.7468 </r>
       <r>    -0.7561     0.9404     2.8263 </r>
       <r>    -0.6715     0.7881     2.8930 </r>
       <r>    -0.5869     0.6523     2.9481 </r>
       <r>    -0.5023     0.6000     2.9989 </r>
       <r>    -0.4178     0.6226     3.0515 </r>
       <r>    -0.3332     0.6236     3.1043 </r>
       <r>    -0.2486     0.5574     3.1514 </r>
       <r>    -0.1640     0.4825     3.1922 </r>
       <r>    -0.0795     0.4525     3.2305 </r>
       <r>     0.0051     0.4420     3.2679 </r>
       <r>     0.0897     0.4128     3.3028 </r>
       <r>     0.1743     0.3858     3.3354 </r>
       <r>     0.2588     0.3935     3.3687 </r>
       <r>     0.3434     0.4117     3.4035 </r>
       <r>     0.4280     0.3941     3.4368 </r>
       <r>     0.5126     0.3407     3.4657 </r>
       <r>     0.5971     0.2955     3.4907 </r>
       <r>     0.6817     0.2931     3.5154 </r>
       <r>     0.7663     0.3188     3.5424 </r>
       <r>     0.8509     0.3175     3.5693 </r>
       <r>     0.9354     0.2567     3.5910 </r>
       <r>     1.0200     0.1757     3.6058 </r>
       <r>     1.1046     0.1549     3.6189 </r>
       <r>     1.1892     0.2457     3.6397 </r>
       <r>     1.2737     0.4282     3.6759 </r>
       <r>     1.3583     0.6267     3.7289 </r>
       <r>     1.4429     0.7780     3.7947 </r>
       <r>     1.5275     0.8701     3.8683 </r>
       <r>     1.6120     0.9169     3.9459 </r>
       <r>     1.6966     0.9559     4.0267 </r>
       <r>     1.7812     1.0430     4.1149 </r>
       <r>     1.8658     1.1667     4.2136 </r>
       <r>     1.9503     1.2225     4.3170 </r>
       <r>     2.0349     1.1488     4.4142 </r>
       <r>     2.1195     1.0205     4.5005 </r>
       <r>     2.2041     0.9486     4.5807 </r>
       <r>     2.2886     0.9653     4.6623 </r>
       <r>     2.3732     1.0480     4.7510 </r>
       <r>     2.4578     1.1685     4.8498 </r>
       <r>     2.5424     1.2763     4.9577 </r>
       <r>     2.6269     1.3063     5.0682 </r>
       <r>     2.7115     1.2691     5.1756 </r>
       <r>     2.7961     1.2803     5.2838 </r>
       <r>     2.8807     1.4174     5.4037 </r>
       <r>     2.9652     1.5883     5.5381 </r>
       <r>     3.0498     1.6241     5.6754 </r>
       <r>     3.1344     1.4959     5.8019 </r>
       <r>     3.2190     1.3615     5.9171 </r>
       <r>     3.3035     1.3556     6.0317 </r>
       <r>     3.3881     1.4134     6.1513 </r>
       <r>     3.4727     1.3888     6.2687 </r>
       <r>     3.5573     1.2842     6.3773 </r>
       <r>     3.6418     1.2454     6.4827 </r>
       <r>     3.7264     1.3423     6.5962 </r>
       <r>     3.8110     1.4616     6.7198 </r>
       <r>     3.8956     1.4618     6.8434 </r>
       <r>     3.9801     1.3501     6.9576 </r>
       <r>     4.0647     1.2410     7.0626 </r>
       <r>     4.1493     1.1830     7.1626 </r>
       <r>     4.2339     1.1159     7.2570 </r>
       <r>     4.3184     1.0124     7.3426 </r>
       <r>     4.4030     0.9414     7.4223 </r>
       <r>     4.4876     0.9352     7.5013 </r>
       <r>     4.5722     0.9192     7.5791 </r>
       <r>     4.6567     0.8390     7.6500 </r>
       <r>     4.7413     0.7378     7.7124 </r>
       <r>     4.8259     0.6569     7.7680 </r>
       <r>     4.9105     0.5712     7.8163 </r>
       <r>     4.9950     0.4639     7.8555 </r>
       <r>     5.0796     0.3674     7.8866 </r>
       <r>     5.1642     0.3036     7.9123 </r>
       <r>     5.2488     0.2548     7.9338 </r>
       <r>     5.3333     0.2091     7.9515 </r>
       <r>     5.4179     0.1761     7.9664 </r>
       <r>     5.5025     0.1517     7.9793 </r>
       <r>     5.5871     0.1178     7.9892 </r>
       <r>     5.6716     0.0736     7.9954 </r>
       <r>     5.7562     0.0356     7.9985 </r>
       <r>     5.8408     0.0136     7.9996 </r>
       <r>     5.9254     0.0052     8.0000 </r>
       <r>     6.0099     0.0065     8.0006 </r>
       <r>     6.0945     0.0177     8.0021 </r>
       <r>     6.1791     0.0419     8.0056 </r>
       <r>     6.2637     0.0804     8.0124 </r>
       <r>     6.3482     0.1320     8.0236 </r>
       <r>     6.4328     0.1923     8.0399 </r>
       <r>     6.5174     0.2501     8.0610 </r>
       <r>     6.6020     0.2925     8.0858 </r>
       <r>     6.6865     0.3170     8.1126 </r>
       <r>     6.7711     0.3391     8.1412 </r>
       <r>     6.8557     0.3900     8.1742 </r>
       <r>     6.9403     0.4860     8.2153 </r>
       <r>     7.0248     0.5993     8.2660 </r>
       <r>     7.1094     0.6973     8.3250 </r>
       <r>     7.1940     0.7964     8.3923 </r>
       <r>     7.2786     0.9162     8.4698 </r>
       <r>     7.3631     1.0185     8.5560 </r>
       <r>     7.4477     1.0614     8.6457 </r>
       <r>     7.5323     1.0749     8.7366 </r>
       <r>     7.6169     1.1230     8.8316 </r>
       <r>     7.7014     1.2287     8.9355 </r>
       <r>     7.7860     1.3656     9.0510 </r>
       <r>     7.8706     1.4705     9.1754 </r>
       <r>     7.9552     1.4736     9.3000 </r>
       <r>     8.0397     1.3842     9.4171 </r>
       <r>     8.1243     1.3083     9.5277 </r>
       <r>     8.2089     1.3105     9.6386 </r>
       <r>     8.2935     1.3264     9.7508 </r>
       <r>     8.3780     1.2794     9.8590 </r>
       <r>     8.4626     1.1905     9.9597 </r>
       <r>     8.5472     1.1282    10.0551 </r>
       <r>     8.6318     1.1562    10.1529 </r>
       <r>     8.7163     1.3303    10.2654 </r>
       <r>     8.8009     1.6383    10.4039 </r>
       <r>     8.8855     1.9455    10.5685 </r>
       <r>     8.9701     2.0850    10.7448 </r>
       <r>     9.0546     2.0268    10.9162 </r>
       <r>     9.1392     1.8920    11.0762 </r>
       <r>     9.2238     1.7970    11.2282 </r>
       <r>     9.3084     1.7444    11.3758 </r>
       <r>     9.3929     1.6494    11.5152 </r>
       <r>     9.4775     1.4528    11.6381 </r>
       <r>     9.5621     1.2139    11.7408 </r>
       <r>     9.6467     1.0529    11.8298 </r>
       <r>     9.7312     1.0258    11.9166 </r>
       <r>     9.8158     1.0886    12.0087 </r>
       <r>     9.9004     1.1383    12.1049 </r>
       <r>     9.9850     1.1159    12.1993 </r>
       <r>    10.0695     1.1111    12.2933 </r>
       <r>    10.1541     1.2797    12.4015 </r>
       <r>    10.2387     1.6088    12.5376 </r>
       <r>    10.3233     1.8698    12.6957 </r>
       <r>    10.4078     1.8762    12.8544 </r>
       <r>    10.4924     1.6826    12.9967 </r>
       <r>    10.5770     1.4594    13.1201 </r>
       <r>    10.6616     1.2847    13.2288 </r>
       <r>    10.7461     1.1329    13.3246 </r>
       <r>    10.8307     0.9832    13.4078 </r>
       <r>    10.9153     0.8588    13.4804 </r>
       <r>    10.9999     0.7916    13.5473 </r>
       <r>    11.0844     0.8092    13.6158 </r>
       <r>    11.1690     0.9200    13.6936 </r>
       <r>    11.2536     1.0720    13.7842 </r>
       <r>    11.3382     1.1579    13.8822 </r>
       <r>    11.4227     1.1113    13.9762 </r>
       <r>    11.5073     1.0003    14.0608 </r>
       <r>    11.5919     0.9648    14.1424 </r>
       <r>    11.6765     1.0589    14.2319 </r>
       <r>    11.7610     1.2169    14.3348 </r>
       <r>    11.8456     1.3371    14.4479 </r>
       <r>    11.9302     1.3403    14.5613 </r>
       <r>    12.0148     1.1979    14.6626 </r>
       <r>    12.0993     0.9772    14.7452 </r>
       <r>    12.1839     0.8096    14.8137 </r>
       <r>    12.2685     0.7512    14.8772 </r>
       <r>    12.3531     0.7352    14.9394 </r>
       <r>    12.4376     0.6851    14.9974 </r>
       <r>    12.5222     0.6037    15.0484 </r>
       <r>    12.6068     0.5503    15.0950 </r>
       <r>    12.6914     0.5744    15.1435 </r>
       <r>    12.7759     0.6515    15.1986 </r>
       <r>    12.8605     0.6903    15.2570 </r>
       <r>    12.9451     0.6352    15.3108 </r>
       <r>    13.0297     0.5373    15.3562 </r>
       <r>    13.1142     0.5055    15.3989 </r>
       <r>    13.1988     0.5958    15.4493 </r>
       <r>    13.2834     0.7437    15.5122 </r>
       <r>    13.3680     0.8298    15.5824 </r>
       <r>    13.4525     0.8146    15.6513 </r>
       <r>    13.5371     0.7630    15.7158 </r>
       <r>    13.6217     0.7238    15.7771 </r>
       <r>    13.7063     0.6496    15.8320 </r>
       <r>    13.7908     0.4854    15.8731 </r>
       <r>    13.8754     0.2766    15.8964 </r>
       <r>    13.9600     0.1153    15.9062 </r>
       <r>    14.0446     0.0345    15.9091 </r>
       <r>    14.1291     0.0074    15.9097 </r>
       <r>    14.2137     0.0011    15.9098 </r>
       <r>    14.2983     0.0002    15.9098 </r>
       <r>    14.3829     0.0003    15.9099 </r>
       <r>    14.4674     0.0020    15.9100 </r>
       <r>    14.5520     0.0092    15.9108 </r>
       <r>    14.6366     0.0298    15.9133 </r>
       <r>    14.7212     0.0707    15.9193 </r>
       <r>    14.8057     0.1247    15.9299 </r>
       <r>    14.8903     0.1682    15.9441 </r>
       <r>    14.9749     0.1812    15.9594 </r>
       <r>    15.0595     0.1638    15.9733 </r>
       <r>    15.1440     0.1300    15.9843 </r>
       <r>    15.2286     0.0914    15.9920 </r>
       <r>    15.3132     0.0550    15.9967 </r>
       <r>    15.3978     0.0266    15.9989 </r>
       <r>    15.4823     0.0098    15.9997 </r>
       <r>    15.5669     0.0026    15.9999 </r>
       <r>    15.6515     0.0005    16.0000 </r>
       <r>    15.7361     0.0001    16.0000 </r>
       <r>    15.8206     0.0000    16.0000 </r>
       <r>    15.9052     0.0000    16.0000 </r>
       <r>    15.9898     0.0000    16.0000 </r>
       <r>    16.0744     0.0000    16.0000 </r>
       <r>    16.1589     0.0000    16.0000 </r>
       <r>    16.2435     0.0000    16.0000 </r>
       <r>    16.3281     0.0000    16.0000 </r>
       <r>    16.4127     0.0000    16.0000 </r>
       <r>    16.4972     0.0000    16.0000 </r>
       <r>    16.5818     0.0000    16.0000 </r>
       <r>    16.6664     0.0000    16.0000 </r>
       <r>    16.7510     0.0000    16.0000 </r>
       <r>    16.8355     0.0000    16.0000 </r>
       <r>    16.9201     0.0000    16.0000 </r>
       <r>    17.0047     0.0000    16.0000 </r>
       <r>    17.0893     0.0000    16.0000 </r>
       <r>    17.1738     0.0000    16.0000 </r>
      </set>
     </set>
    </array>
   </total>
  </dos>
 </calculation>
 <structure name="finalpos" >
  <crystal>
   <varray name="basis" >
    <v>       0.00000000       2.73429015       2.73429015 </v>
    <v>       2.73429015      -0.00000000       2.73429015 </v>
    <v>       2.73429015       2.73429015       0.00000000 </v>
   </varray>
   <i name="volume">     40.88497993 </i>
   <varray name="rec_basis" >
    <v>      -0.18286282       0.18286282       0.18286282 </v>
    <v>       0.18286282      -0.18286282       0.18286282 </v>
    <v>       0.18286282       0.18286282      -0.18286282 </v>
   </varray>
  </crystal>
  <varray name="positions" >
   <v>       0.50000000       0.50000000       0.50000000 </v>
   <v>       0.75000000       0.75000000       0.75000000 </v>
  </varray>
 </structure>
</modeling>
