unknown system                          
   1.00000000000000     
    -2.572515    2.572515    1.467980
     2.572515   -2.572515    1.467980
     2.572515    2.572515   -1.467980
   Si
     2
Direct
  0.000000  0.000000  0.000000
  0.250000  0.750000  0.500000
 
   36   36   36
 -.62627844628E+01 -.49749828683E+01 -.14797004118E+01 0.32615664384E+01 0.80460738761E+01
 0.11820889680E+02 0.13960253615E+02 0.14364384966E+02 0.13392197668E+02 0.11675917246E+02
 0.98328805455E+01 0.81255247923E+01 0.66633015244E+01 0.54909434579E+01 0.46030056629E+01
 0.39671037431E+01 0.35446848014E+01 0.33040963623E+01 0.32260046436E+01 0.33041003588E+01
 0.35447175389E+01 0.39671562482E+01 0.46030386027E+01 0.54909505392E+01 0.66633123859E+01
 0.81255435814E+01 0.98328804854E+01 0.11675898048E+02 0.13392190145E+02 0.14364394265E+02
 0.13960252342E+02 0.11820869737E+02 0.80460513717E+01 0.32615373704E+01 -.14797517892E+01
 -.49750323867E+01 -.49750323867E+01 -.55443638745E+01 -.36291739664E+01 0.21949500330E+00
 0.49534826881E+01 0.94019577687E+01 0.12634752580E+02 0.14186466973E+02 0.14103245735E+02
 0.12838121723E+02 0.11045841831E+02 0.92424416726E+01 0.76128333478E+01 0.62460486697E+01
 0.51695736033E+01 0.43676619739E+01 0.38045778550E+01 0.34431825633E+01 0.32554690634E+01
 0.32261675217E+01 0.33527496340E+01 0.36452047049E+01 0.41264325361E+01 0.48307261018E+01
 0.57965406334E+01 0.70511798353E+01 0.85887373321E+01 0.10348260449E+02 0.12201370829E+02
 0.13798307451E+02 0.14483908279E+02 0.13681853086E+02 0.11145035331E+02 0.71127389317E+01
 0.23344585558E+01 -.20796493917E+01 -.14797517892E+01 -.36292090988E+01 -.35056825627E+01
 -.11560341079E+01 0.27383154667E+01 0.71209650901E+01 0.10927286946E+02 0.13398861714E+02
 0.14248014708E+02 0.13656695335E+02 0.12142860590E+02 0.10334816097E+02 0.85995474139E+01
 0.70710885290E+01 0.58157560724E+01 0.48443294782E+01 0.41327287177E+01 0.36439136261E+01
 0.33436074842E+01 0.32081724722E+01 0.32265623098E+01 0.33998816804E+01 0.37414225369E+01
 0.42769902444E+01 0.50423668599E+01 0.60743562113E+01 0.73939091688E+01 0.89838667380E+01
 0.10769494610E+02 0.12603052667E+02 0.14067209371E+02 0.14518885932E+02 0.13461286151E+02
 0.10763064497E+02 0.67802462228E+01 0.23344585558E+01 0.32615373704E+01 0.21946479604E+00
 -.11560460659E+01 -.47131179134E+00 0.20543737983E+01 0.56774333721E+01 0.94090241998E+01
 0.12348270661E+02 0.13935545678E+02 0.14058443083E+02 0.13010223253E+02 0.11336603247E+02
 0.95687661556E+01 0.79293072385E+01 0.65214094667E+01 0.53883859705E+01 0.45263612824E+01
 0.39055554115E+01 0.34897154488E+01 0.32486159992E+01 0.31633692016E+01 0.32270067406E+01
 0.34438884845E+01 0.38300490571E+01 0.44133052258E+01 0.52296521652E+01 0.63129398267E+01
 0.76771872252E+01 0.92950641967E+01 0.11081424695E+02 0.12872136158E+02 0.14217507307E+02
 0.14521124012E+02 0.13378109524E+02 0.10763064497E+02 0.71127389317E+01 0.80460513717E+01
 0.49534654543E+01 0.27383115905E+01 0.20543853949E+01 0.30950617691E+01 0.55218705094E+01
 0.85998012452E+01 0.11468873378E+02 0.13426307057E+02 0.14115485054E+02 0.13579408603E+02
 0.12187554546E+02 0.10466695036E+02 0.87771591099E+01 0.72577784569E+01 0.59841994831E+01
 0.49785508565E+01 0.42255129896E+01 0.36925247723E+01 0.33460024446E+01 0.31605790977E+01
 0.31221143467E+01 0.32272991903E+01 0.34831908282E+01 0.39078445793E+01 0.45300566161E+01
 0.53847973590E+01 0.65020166900E+01 0.78888975593E+01 0.95098008291E+01 0.11273047577E+02
 0.13006538747E+02 0.14265486479E+02 0.14521124012E+02 0.13461286151E+02 0.11145035331E+02
 0.11820869737E+02 0.94019442344E+01 0.71209608867E+01 0.56774522042E+01 0.55218986423E+01
 0.66851007016E+01 0.87710055584E+01 0.11114159034E+02 0.13022861886E+02 0.14002353381E+02
 0.13883227357E+02 0.12830877197E+02 0.11249856470E+02 0.95713054169E+01 0.79909142402E+01
 0.66099542640E+01 0.54777040618E+01 0.45986738954E+01 0.39499299198E+01 0.34989322110E+01
 0.32162255168E+01 0.30816432869E+01 0.30854267470E+01 0.32273081830E+01 0.35163633806E+01
 0.39718356891E+01 0.46224262139E+01 0.55010161265E+01 0.66331358057E+01 0.80197997594E+01
 0.96193939252E+01 0.11337671412E+02 0.13006538747E+02 0.14217507307E+02 0.14518885932E+02
 0.13681853086E+02 0.13960252342E+02 0.12634754181E+02 0.10927283756E+02 0.94090309967E+01
 0.85998331085E+01 0.87710395212E+01 0.98416116150E+01 0.11415749262E+02 0.12940576642E+02
 0.13908355724E+02 0.14020886540E+02 0.13265034718E+02 0.11887361485E+02 0.10274904113E+02
 0.86861974235E+01 0.72396622038E+01 0.60077493002E+01 0.50168432369E+01 0.42584558871E+01
 0.37059020272E+01 0.33290026160E+01 0.31033289730E+01 0.30137772356E+01 0.30543285381E+01
 0.32270276610E+01 0.35422315977E+01 0.40194921843E+01 0.46864171945E+01 0.55730074246E+01
 0.67002664175E+01 0.80640934471E+01 0.96193939252E+01 0.11273047577E+02 0.12872136158E+02
 0.14067209371E+02 0.14483908279E+02 0.14364394265E+02 0.14186490973E+02 0.13398881520E+02
 0.12348277336E+02 0.11468887070E+02 0.11114192731E+02 0.11415779210E+02 0.12233117385E+02
 0.13215846608E+02 0.13945800677E+02 0.14093806149E+02 0.13530642097E+02 0.12358805277E+02
 0.10860671294E+02 0.93123122677E+01 0.78458424204E+01 0.65490783153E+01 0.54684864780E+01
 0.46125822362E+01 0.39647544300E+01 0.34979500210E+01 0.31860050336E+01 0.30098061310E+01
 0.29587727878E+01 0.30298309360E+01 0.32265835144E+01 0.35599289245E+01 0.40488877782E+01
 0.47191622594E+01 0.55973915656E+01 0.67002664175E+01 0.80197997594E+01 0.95098008291E+01
 0.11081424695E+02 0.12603052667E+02 0.13798307451E+02 0.13392190145E+02 0.14103263937E+02
 0.14248052642E+02 0.13935576373E+02 0.13426321053E+02 0.13022877883E+02 0.12940603656E+02
 0.13215866678E+02 0.13693563165E+02 0.14097162383E+02 0.14146006591E+02 0.13668010072E+02
 0.12664903704E+02 0.11309755490E+02 0.98432393083E+01 0.84019860239E+01 0.70800295908E+01
 0.59390058055E+01 0.50042377269E+01 0.42719577764E+01 0.37218646231E+01 0.33291000654E+01
 0.30724078816E+01 0.29377238792E+01 0.29181976427E+01 0.30128664913E+01 0.32261847258E+01
 0.35689063894E+01 0.40588219111E+01 0.47191622594E+01 0.55730074246E+01 0.66331358057E+01
 0.78888975593E+01 0.92950641967E+01 0.10769494610E+02 0.12201370829E+02 0.11675898048E+02
 0.12838111469E+02 0.13656713277E+02 0.14058481918E+02 0.14115517906E+02 0.14002370988E+02
 0.13908370633E+02 0.13945817341E+02 0.14097171322E+02 0.14225202913E+02 0.14138867491E+02
 0.13682493396E+02 0.12808919039E+02 0.11607699059E+02 0.10257869763E+02 0.88840568076E+01
 0.75784981790E+01 0.64115846206E+01 0.54228026440E+01 0.46220985907E+01 0.39986856601E+01
 0.35320812182E+01 0.32012512240E+01 0.29900204556E+01 0.28887108512E+01 0.28933029092E+01
 0.30041761404E+01 0.32260255136E+01 0.35689063894E+01 0.40488877782E+01 0.46864171945E+01
 0.55010161265E+01 0.65020166900E+01 0.76771872252E+01 0.89838667380E+01 0.10348260449E+02
 0.98328804854E+01 0.11045828398E+02 0.12142848998E+02 0.13010234602E+02 0.13579438571E+02
 0.13883255306E+02 0.14020904328E+02 0.14093818424E+02 0.14146013458E+02 0.14138867261E+02
 0.13971735461E+02 0.13536604321E+02 0.12779546054E+02 0.11740554215E+02 0.10538215155E+02
 0.92708170386E+01 0.80232232571E+01 0.68683561887E+01 0.58556967856E+01 0.50079023764E+01
 0.43252021762E+01 0.37941069548E+01 0.33963695145E+01 0.31155236989E+01 0.29400938622E+01
 0.28639082834E+01 0.28849088234E+01 0.30041761404E+01 0.32261847258E+01 0.35599289245E+01
 0.40194921843E+01 0.46224262139E+01 0.53847973590E+01 0.63129398267E+01 0.73939091688E+01
 0.85887373321E+01 0.81255435814E+01 0.92424555957E+01 0.10334811359E+02 0.11336593194E+02
 0.12187558199E+02 0.12830894638E+02 0.13265054276E+02 0.13530657681E+02 0.13668019379E+02
 0.13682493032E+02 0.13536598113E+02 0.13172512806E+02 0.12552243684E+02 0.11694146332E+02
 0.10668131353E+02 0.95435226302E+01 0.83945145373E+01 0.72914897892E+01 0.62892639273E+01
 0.54207369334E+01 0.46972389697E+01 0.41140820606E+01 0.36582027481E+01 0.33149706352E+01
 0.30725269192E+01 0.29233695184E+01 0.28639082834E+01 0.28933029092E+01 0.30128664913E+01
 0.32265835144E+01 0.35422315977E+01 0.39718356891E+01 0.45300566161E+01 0.52296521652E+01
 0.60743562113E+01 0.70511798353E+01 0.66633123859E+01 0.76128590147E+01 0.85995685734E+01
 0.95687701504E+01 0.10466689995E+02 0.11249855688E+02 0.11887367918E+02 0.12358816036E+02
 0.12664915619E+02 0.12808925429E+02 0.12779541283E+02 0.12552234609E+02 0.12108268989E+02
 0.11457896719E+02 0.10634315728E+02 0.96860624161E+01 0.86746162342E+01 0.76638763870E+01
 0.67094804346E+01 0.58511578541E+01 0.51100519353E+01 0.44910020779E+01 0.39880195753E+01
 0.35904563772E+01 0.32878512053E+01 0.30725269192E+01 0.29400938622E+01 0.28887108512E+01
 0.29181976427E+01 0.30298309360E+01 0.32270276610E+01 0.35163633806E+01 0.39078445793E+01
 0.44133052258E+01 0.50423668599E+01 0.57965406334E+01 0.54909505392E+01 0.62460601072E+01
 0.70711097458E+01 0.79293276910E+01 0.87771696447E+01 0.95713077114E+01 0.10274903067E+02
 0.10860670316E+02 0.11309758656E+02 0.11607706689E+02 0.11740557973E+02 0.11694139685E+02
 0.11457887328E+02 0.11031346251E+02 0.10429890896E+02 0.96864783680E+01 0.88483002896E+01
 0.79694678366E+01 0.71021711080E+01 0.62889838581E+01 0.55583476293E+01 0.49240728411E+01
 0.43882770262E+01 0.39461238595E+01 0.35904563772E+01 0.33149706352E+01 0.31155236989E+01
 0.29900204556E+01 0.29377238792E+01 0.29587727878E+01 0.30543285381E+01 0.32273081830E+01
 0.34831908282E+01 0.38300490571E+01 0.42769902444E+01 0.48307261018E+01 0.46030386027E+01
 0.51695851239E+01 0.58157615172E+01 0.65214193411E+01 0.72577923363E+01 0.79909278188E+01
 0.86862064721E+01 0.93123131250E+01 0.98432342446E+01 0.10257867404E+02 0.10538218893E+02
 0.10668133171E+02 0.10634309336E+02 0.10429883090E+02 0.10058996489E+02 0.95398365296E+01
 0.89042549304E+01 0.81937144867E+01 0.74528587280E+01 0.67227203239E+01 0.60354734736E+01
 0.54119529802E+01 0.48621973348E+01 0.43882770262E+01 0.39880195753E+01 0.36582027481E+01
 0.33963695145E+01 0.32012512240E+01 0.30724078816E+01 0.30098061310E+01 0.30137772356E+01
 0.30854267470E+01 0.32272991903E+01 0.34438884845E+01 0.37414225369E+01 0.41264325361E+01
 0.39671562482E+01 0.43676947393E+01 0.48443399100E+01 0.53883841933E+01 0.59841976007E+01
 0.66099596821E+01 0.72396753955E+01 0.78458552284E+01 0.84019887084E+01 0.88840501616E+01
 0.92708116496E+01 0.95435235269E+01 0.96860631444E+01 0.96864737384E+01 0.95398315027E+01
 0.92512299567E+01 0.88372129481E+01 0.83245939563E+01 0.77467766026E+01 0.71386935106E+01
 0.65318579884E+01 0.59508441975E+01 0.54119529802E+01 0.49240728411E+01 0.44910020779E+01
 0.41140820606E+01 0.37941069548E+01 0.35320812182E+01 0.33291000654E+01 0.31860050336E+01
 0.31033289730E+01 0.30816432869E+01 0.31221143467E+01 0.32270067406E+01 0.33998816804E+01
 0.36452047049E+01 0.35447175389E+01 0.38046100815E+01 0.41327509293E+01 0.45263683684E+01
 0.49785454989E+01 0.54776954502E+01 0.60077486579E+01 0.65490893412E+01 0.70800429458E+01
 0.75785016884E+01 0.80232167802E+01 0.83945081488E+01 0.86746152307E+01 0.88483005106E+01
 0.89042528648E+01 0.88372110904E+01 0.86499831181E+01 0.83542633306E+01 0.79695945539E+01
 0.75206138563E+01 0.70333821373E+01 0.65318579884E+01 0.60354734736E+01 0.55583476293E+01
 0.51100519353E+01 0.46972389697E+01 0.43252021762E+01 0.39986856601E+01 0.37218646231E+01
 0.34979500210E+01 0.33290026160E+01 0.32162255168E+01 0.31605790977E+01 0.31633692016E+01
 0.32265623098E+01 0.33527496340E+01 0.33041003588E+01 0.34431828894E+01 0.36439176564E+01
 0.39055632661E+01 0.42255184667E+01 0.45986714357E+01 0.50168361226E+01 0.54684851186E+01
 0.59390149710E+01 0.64115962485E+01 0.68683594418E+01 0.72914842842E+01 0.76638700358E+01
 0.79694654315E+01 0.81937145755E+01 0.83245945871E+01 0.83542642750E+01 0.82807649800E+01
 0.81089634486E+01 0.78501971876E+01 0.75206138563E+01 0.71386935106E+01 0.67227203239E+01
 0.62889838581E+01 0.58511578541E+01 0.54207369334E+01 0.50079023764E+01 0.46220985907E+01
 0.42719577764E+01 0.39647544300E+01 0.37059020272E+01 0.34989322110E+01 0.33460024446E+01
 0.32486159992E+01 0.32081724722E+01 0.32261675217E+01 0.32260046436E+01 0.32554484133E+01
 0.33435785170E+01 0.34896953401E+01 0.36925220831E+01 0.39499382606E+01 0.42584630167E+01
 0.46125844989E+01 0.50042410532E+01 0.54228108886E+01 0.58557052414E+01 0.62892660442E+01
 0.67094760933E+01 0.71021652145E+01 0.74528553684E+01 0.77467768465E+01 0.79695972905E+01
 0.81089660595E+01 0.81564262852E+01 0.81089634486E+01 0.79695945539E+01 0.77467766026E+01
 0.74528587280E+01 0.71021711080E+01 0.67094804346E+01 0.62892639273E+01 0.58556967856E+01
 0.54228026440E+01 0.50042377269E+01 0.46125822362E+01 0.42584558871E+01 0.39499299198E+01
 0.36925247723E+01 0.34897154488E+01 0.33436074842E+01 0.32554690634E+01 0.33040963623E+01
 0.32261490622E+01 0.32081354347E+01 0.32485716850E+01 0.33459717779E+01 0.34989280290E+01
 0.37059180675E+01 0.39647749124E+01 0.42719733408E+01 0.46221091089E+01 0.50079100019E+01
 0.54207416774E+01 0.58511587333E+01 0.62889808570E+01 0.67227151739E+01 0.71386897491E+01
 0.75206143427E+01 0.78502007340E+01 0.81089660595E+01 0.82807649800E+01 0.83542633306E+01
 0.83245939563E+01 0.81937144867E+01 0.79694678366E+01 0.76638763870E+01 0.72914897892E+01
 0.68683561887E+01 0.64115846206E+01 0.59390058055E+01 0.54684864780E+01 0.50168432369E+01
 0.45986738954E+01 0.42255129896E+01 0.39055554115E+01 0.36439136261E+01 0.34431825633E+01
 0.35446848014E+01 0.33527209467E+01 0.32265318400E+01 0.31633299737E+01 0.31605379957E+01
 0.32162010436E+01 0.33290063701E+01 0.34979762020E+01 0.37218979272E+01 0.39987137476E+01
 0.43252194044E+01 0.46972460370E+01 0.51100537579E+01 0.55583480133E+01 0.60354718336E+01
 0.65318534823E+01 0.70333783066E+01 0.75206143427E+01 0.79695972905E+01 0.83542642750E+01
 0.86499831181E+01 0.88372129481E+01 0.89042549304E+01 0.88483002896E+01 0.86746162342E+01
 0.83945145373E+01 0.80232232571E+01 0.75784981790E+01 0.70800295908E+01 0.65490783153E+01
 0.60077493002E+01 0.54777040618E+01 0.49785508565E+01 0.45263612824E+01 0.41327287177E+01
 0.38045778550E+01 0.39671037431E+01 0.36451493120E+01 0.33998384257E+01 0.32269745164E+01
 0.31220854138E+01 0.30816197826E+01 0.31033221377E+01 0.31860215111E+01 0.33291353760E+01
 0.35321240545E+01 0.37941445797E+01 0.41141044965E+01 0.44910090861E+01 0.49240732707E+01
 0.54119535024E+01 0.59508431855E+01 0.65318534823E+01 0.71386897491E+01 0.77467768465E+01
 0.83245945871E+01 0.88372110904E+01 0.92512299567E+01 0.95398365296E+01 0.96864783680E+01
 0.96860624161E+01 0.95435226302E+01 0.92708170386E+01 0.88840568076E+01 0.84019860239E+01
 0.78458424204E+01 0.72396622038E+01 0.66099542640E+01 0.59841994831E+01 0.53883859705E+01
 0.48443294782E+01 0.43676619739E+01 0.46030056629E+01 0.41263771079E+01 0.37413637773E+01
 0.34438452317E+01 0.32272742675E+01 0.30854145213E+01 0.30137768130E+01 0.30098203368E+01
 0.30724371734E+01 0.32012932579E+01 0.33964186618E+01 0.36582469843E+01 0.39880456383E+01
 0.43882843577E+01 0.48621974491E+01 0.54119535024E+01 0.60354718336E+01 0.67227151739E+01
 0.74528553684E+01 0.81937145755E+01 0.89042528648E+01 0.95398315027E+01 0.10058996489E+02
 0.10429890896E+02 0.10634315728E+02 0.10668131353E+02 0.10538215155E+02 0.10257869763E+02
 0.98432393083E+01 0.93123122677E+01 0.86861974235E+01 0.79909142402E+01 0.72577784569E+01
 0.65214094667E+01 0.58157560724E+01 0.51695736033E+01 0.54909434579E+01 0.48307059444E+01
 0.42769519435E+01 0.38300069689E+01 0.34831609473E+01 0.32272957299E+01 0.30543330790E+01
 0.29587937851E+01 0.29377571763E+01 0.29900607393E+01 0.31155706507E+01 0.33150237919E+01
 0.35905042581E+01 0.39461513213E+01 0.43882843577E+01 0.49240732707E+01 0.55583480133E+01
 0.62889808570E+01 0.71021652145E+01 0.79694654315E+01 0.88483005106E+01 0.96864737384E+01
 0.10429883090E+02 0.11031346251E+02 0.11457896719E+02 0.11694146332E+02 0.11740554215E+02
 0.11607699059E+02 0.11309755490E+02 0.10860671294E+02 0.10274904113E+02 0.95713054169E+01
 0.87771591099E+01 0.79293072385E+01 0.70710885290E+01 0.62460486697E+01 0.66633015244E+01
 0.57965447620E+01 0.50423696212E+01 0.44132976336E+01 0.39078325037E+01 0.35163551927E+01
 0.32270291116E+01 0.30298490706E+01 0.29182351665E+01 0.28887587838E+01 0.29401421652E+01
 0.30725769013E+01 0.32879058476E+01 0.35905042581E+01 0.39880456383E+01 0.44910090861E+01
 0.51100537579E+01 0.58511587333E+01 0.67094760933E+01 0.76638700358E+01 0.86746152307E+01
 0.96860631444E+01 0.10634309336E+02 0.11457887328E+02 0.12108268989E+02 0.12552243684E+02
 0.12779546054E+02 0.12808919039E+02 0.12664903704E+02 0.12358805277E+02 0.11887361485E+02
 0.11249856470E+02 0.10466695036E+02 0.95687661556E+01 0.85995474139E+01 0.76128333478E+01
 0.81255247923E+01 0.70511789041E+01 0.60743766790E+01 0.52296807296E+01 0.45300834911E+01
 0.39718582569E+01 0.35422476286E+01 0.32265980886E+01 0.30128945274E+01 0.28933511485E+01
 0.28639644141E+01 0.29234208910E+01 0.30725769013E+01 0.33150237919E+01 0.36582469843E+01
 0.41141044965E+01 0.46972460370E+01 0.54207416774E+01 0.62892660442E+01 0.72914842842E+01
 0.83945081488E+01 0.95435235269E+01 0.10668133171E+02 0.11694139685E+02 0.12552234609E+02
 0.13172512806E+02 0.13536604321E+02 0.13682493396E+02 0.13668010072E+02 0.13530642097E+02
 0.13265034718E+02 0.12830877197E+02 0.12187554546E+02 0.11336603247E+02 0.10334816097E+02
 0.92424416726E+01 0.98328805455E+01 0.85887364747E+01 0.73939266741E+01 0.63129782979E+01
 0.53848485322E+01 0.46224840125E+01 0.40195463758E+01 0.35599662656E+01 0.32262093771E+01
 0.30042097852E+01 0.28849608843E+01 0.28639644141E+01 0.29401421652E+01 0.31155706507E+01
 0.33964186618E+01 0.37941445797E+01 0.43252194044E+01 0.50079100019E+01 0.58557052414E+01
 0.68683594418E+01 0.80232167802E+01 0.92708116496E+01 0.10538218893E+02 0.11740557973E+02
 0.12779541283E+02 0.13536598113E+02 0.13971735461E+02 0.14138867491E+02 0.14146006591E+02
 0.14093806149E+02 0.14020886540E+02 0.13883227357E+02 0.13579408603E+02 0.13010223253E+02
 0.12142860590E+02 0.11045841831E+02 0.11675917246E+02 0.10348276961E+02 0.89838907206E+01
 0.76772282564E+01 0.65020721662E+01 0.55010846136E+01 0.46864982806E+01 0.40489644358E+01
 0.35689565598E+01 0.32260540777E+01 0.30042097852E+01 0.28933511485E+01 0.28887587838E+01
 0.29900607393E+01 0.32012932579E+01 0.35321240545E+01 0.39987137476E+01 0.46221091089E+01
 0.54228108886E+01 0.64115962485E+01 0.75785016884E+01 0.88840501616E+01 0.10257867404E+02
 0.11607706689E+02 0.12808925429E+02 0.13682493032E+02 0.14138867261E+02 0.14225202913E+02
 0.14097162383E+02 0.13945800677E+02 0.13908355724E+02 0.14002353381E+02 0.14115485054E+02
 0.14058443083E+02 0.13656695335E+02 0.12838121723E+02 0.13392197668E+02 0.12201390971E+02
 0.10769525858E+02 0.92951146765E+01 0.78889625648E+01 0.66332054687E+01 0.55730873011E+01
 0.47192560652E+01 0.40589067984E+01 0.35689565598E+01 0.32262093771E+01 0.30128945274E+01
 0.29182351665E+01 0.29377571763E+01 0.30724371734E+01 0.33291353760E+01 0.37218979272E+01
 0.42719733408E+01 0.50042410532E+01 0.59390149710E+01 0.70800429458E+01 0.84019887084E+01
 0.98432342446E+01 0.11309758656E+02 0.12664915619E+02 0.13668019379E+02 0.14146013458E+02
 0.14097171322E+02 0.13693563165E+02 0.13215846608E+02 0.12940576642E+02 0.13022861886E+02
 0.13426307057E+02 0.13935545678E+02 0.14248014708E+02 0.14103245735E+02 0.14364384966E+02
 0.13798312734E+02 0.12603069832E+02 0.11081467148E+02 0.95098740924E+01 0.80198833354E+01
 0.67003446479E+01 0.55974755489E+01 0.47192560652E+01 0.40489644358E+01 0.35599662656E+01
 0.32265980886E+01 0.30298490706E+01 0.29587937851E+01 0.30098203368E+01 0.31860215111E+01
 0.34979762020E+01 0.39647749124E+01 0.46125844989E+01 0.54684851186E+01 0.65490893412E+01
 0.78458552284E+01 0.93123131250E+01 0.10860670316E+02 0.12358816036E+02 0.13530657681E+02
 0.14093818424E+02 0.13945817341E+02 0.13215866678E+02 0.12233117385E+02 0.11415749262E+02
 0.11114159034E+02 0.11468873378E+02 0.12348270661E+02 0.13398861714E+02 0.14186466973E+02
 0.13960253615E+02 0.14483915746E+02 0.14067214379E+02 0.12872149400E+02 0.11273097283E+02
 0.96194806524E+01 0.80641841271E+01 0.67003446479E+01 0.55730873011E+01 0.46864982806E+01
 0.40195463758E+01 0.35422476286E+01 0.32270291116E+01 0.30543330790E+01 0.30137768130E+01
 0.31033221377E+01 0.33290063701E+01 0.37059180675E+01 0.42584630167E+01 0.50168361226E+01
 0.60077486579E+01 0.72396753955E+01 0.86862064721E+01 0.10274903067E+02 0.11887367918E+02
 0.13265054276E+02 0.14020904328E+02 0.13908370633E+02 0.12940603656E+02 0.11415779210E+02
 0.98416116150E+01 0.87710055584E+01 0.85998012452E+01 0.94090241998E+01 0.10927286946E+02
 0.12634752580E+02 0.11820889680E+02 0.13681884224E+02 0.14518912282E+02 0.14217513621E+02
 0.13006549597E+02 0.11337723720E+02 0.96194806524E+01 0.80198833354E+01 0.66332054687E+01
 0.55010846136E+01 0.46224840125E+01 0.39718582569E+01 0.35163551927E+01 0.32272957299E+01
 0.30854145213E+01 0.30816197826E+01 0.32162010436E+01 0.34989280290E+01 0.39499382606E+01
 0.45986714357E+01 0.54776954502E+01 0.66099596821E+01 0.79909278188E+01 0.95713077114E+01
 0.11249855688E+02 0.12830894638E+02 0.13883255306E+02 0.14002370988E+02 0.13022877883E+02
 0.11114192731E+02 0.87710395212E+01 0.66851007016E+01 0.55218705094E+01 0.56774333721E+01
 0.71209650901E+01 0.94019577687E+01 0.80460738761E+01 0.11145074714E+02 0.13461341690E+02
 0.14521163020E+02 0.14265493628E+02 0.13006549597E+02 0.11273097283E+02 0.95098740924E+01
 0.78889625648E+01 0.65020721662E+01 0.53848485322E+01 0.45300834911E+01 0.39078325037E+01
 0.34831609473E+01 0.32272742675E+01 0.31220854138E+01 0.31605379957E+01 0.33459717779E+01
 0.36925220831E+01 0.42255184667E+01 0.49785454989E+01 0.59841976007E+01 0.72577923363E+01
 0.87771696447E+01 0.10466689995E+02 0.12187558199E+02 0.13579438571E+02 0.14115517906E+02
 0.13426321053E+02 0.11468887070E+02 0.85998331085E+01 0.55218986423E+01 0.30950617691E+01
 0.20543737983E+01 0.27383154667E+01 0.49534826881E+01 0.32615664384E+01 0.71127676244E+01
 0.10763115518E+02 0.13378174526E+02 0.14521163020E+02 0.14217513621E+02 0.12872149400E+02
 0.11081467148E+02 0.92951146765E+01 0.76772282564E+01 0.63129782979E+01 0.52296807296E+01
 0.44132976336E+01 0.38300069689E+01 0.34438452317E+01 0.32269745164E+01 0.31633299737E+01
 0.32485716850E+01 0.34896953401E+01 0.39055632661E+01 0.45263683684E+01 0.53883841933E+01
 0.65214193411E+01 0.79293276910E+01 0.95687701504E+01 0.11336593194E+02 0.13010234602E+02
 0.14058481918E+02 0.13935576373E+02 0.12348277336E+02 0.94090309967E+01 0.56774522042E+01
 0.20543853949E+01 -.47131179134E+00 -.11560341079E+01 0.21949500330E+00 -.14797004118E+01
 0.23344947621E+01 0.67802771496E+01 0.10763115518E+02 0.13461341690E+02 0.14518912282E+02
 0.14067214379E+02 0.12603069832E+02 0.10769525858E+02 0.89838907206E+01 0.73939266741E+01
 0.60743766790E+01 0.50423696212E+01 0.42769519435E+01 0.37413637773E+01 0.33998384257E+01
 0.32265318400E+01 0.32081354347E+01 0.33435785170E+01 0.36439176564E+01 0.41327509293E+01
 0.48443399100E+01 0.58157615172E+01 0.70711097458E+01 0.85995685734E+01 0.10334811359E+02
 0.12142848998E+02 0.13656713277E+02 0.14248052642E+02 0.13398881520E+02 0.10927283756E+02
 0.71209608867E+01 0.27383115905E+01 -.11560460659E+01 -.35056825627E+01 -.36291739664E+01
 -.49749828683E+01 -.20795898936E+01 0.23344947621E+01 0.71127676244E+01 0.11145074714E+02
 0.13681884224E+02 0.14483915746E+02 0.13798312734E+02 0.12201390971E+02 0.10348276961E+02
 0.85887364747E+01 0.70511789041E+01 0.57965447620E+01 0.48307059444E+01 0.41263771079E+01
 0.36451493120E+01 0.33527209467E+01 0.32261490622E+01 0.32554484133E+01 0.34431828894E+01
 0.38046100815E+01 0.43676947393E+01 0.51695851239E+01 0.62460601072E+01 0.76128590147E+01
 0.92424555957E+01 0.11045828398E+02 0.12838111469E+02 0.14103263937E+02 0.14186490973E+02
 0.12634754181E+02 0.94019442344E+01 0.49534654543E+01 0.21946479604E+00 -.36292090988E+01
 -.55443638745E+01 -.49749184652E+01 -.40745024345E+01 -.10213796589E+01 0.33389116848E+01
 0.78789129324E+01 0.11561297393E+02 0.13725094269E+02 0.14209794261E+02 0.13315159349E+02
 0.11635320135E+02 0.97907599468E+01 0.80680021146E+01 0.65823239644E+01 0.53840199289E+01
 0.44711113166E+01 0.38122566970E+01 0.33682498645E+01 0.31059285604E+01 0.30041492188E+01
 0.30547184476E+01 0.32619646209E+01 0.36430168596E+01 0.42276337504E+01 0.50540902747E+01
 0.61577152587E+01 0.75512029931E+01 0.92010099896E+01 0.11010499642E+02 0.12772141317E+02
 0.13937183670E+02 0.13872826587E+02 0.12179477329E+02 0.88814809467E+01 0.45069854304E+01
 0.11425837401E-01 -.34682460333E+01 -.40745459399E+01 -.49749309769E+01 -.34682261278E+01
 0.11459015335E-01 0.45070304875E+01 0.88815486377E+01 0.12179557215E+02 0.13872895782E+02
 0.13937238936E+02 0.12772193841E+02 0.11010543988E+02 0.92010320985E+01 0.75512108758E+01
 0.61577280838E+01 0.50541057039E+01 0.42276366771E+01 0.36430115654E+01 0.32619658644E+01
 0.30547213863E+01 0.30041399489E+01 0.31059134909E+01 0.33682432979E+01 0.38122496319E+01
 0.44710855379E+01 0.53839815359E+01 0.65822919754E+01 0.80679742786E+01 0.97907208719E+01
 0.11635271639E+02 0.13315111187E+02 0.14209737681E+02 0.13725019233E+02 0.11561220659E+02
 0.78788574610E+01 0.33388704518E+01 -.10214269861E+01 -.92745541331E+00 -.33671429641E+01
 -.36291378815E+01 -.16493407735E+01 0.19943587426E+01 0.63006841264E+01 0.10196154738E+02
 0.12863216903E+02 0.13934736500E+02 0.13522717417E+02 0.12104627504E+02 0.10311675287E+02
 0.85634694161E+01 0.70095431531E+01 0.57248579319E+01 0.47259153222E+01 0.39908954974E+01
 0.34825146151E+01 0.31649631669E+01 0.30126801421E+01 0.30128267583E+01 0.31649543586E+01
 0.34808966106E+01 0.39852020373E+01 0.47133359609E+01 0.57038863180E+01 0.69826152427E+01
 0.85401908745E+01 0.10311341392E+02 0.12163368964E+02 0.13733678193E+02 0.14387737746E+02
 0.13597311670E+02 0.11171775991E+02 0.73919092263E+01 0.30077568210E+01 0.35780656568E+01
 0.28018336374E+00 -.14613576477E+01 -.11560174022E+01 0.10861399226E+01 0.45983411490E+01
 0.84069462871E+01 0.11565390279E+02 0.13432678325E+02 0.13812336597E+02 0.12937359485E+02
 0.11330869357E+02 0.95618019788E+01 0.79012346644E+01 0.64630194924E+01 0.52990215516E+01
 0.44101228967E+01 0.37678274555E+01 0.33349922970E+01 0.30795491590E+01 0.29806688278E+01
 0.30297998048E+01 0.32300742598E+01 0.35964879871E+01 0.41562179375E+01 0.49457813187E+01
 0.60016137621E+01 0.73428540837E+01 0.89494168293E+01 0.10744036863E+02 0.12577766750E+02
 0.14038430219E+02 0.14519356965E+02 0.13575045467E+02 0.11119908233E+02 0.75255885841E+01
 0.82629784508E+01 0.49537507421E+01 0.24019587782E+01 0.13363621509E+01 0.20543663196E+01
 0.43101278829E+01 0.74116489853E+01 0.10477659800E+02 0.12733947226E+02 0.13733548390E+02
 0.13441790062E+02 0.12184312481E+02 0.10490073762E+02 0.87868759120E+01 0.72383786732E+01
 0.59309078162E+01 0.48940672191E+01 0.41159270679E+01 0.35641949146E+01 0.32038424574E+01
 0.30074826017E+01 0.29591663458E+01 0.30543215154E+01 0.32991677950E+01 0.37112027370E+01
 0.43192440420E+01 0.51595315788E+01 0.62651003819E+01 0.76481176452E+01 0.92791917910E+01
 0.11072699257E+02 0.12868614761E+02 0.14240498983E+02 0.14636679965E+02 0.13700023270E+02
 0.11434072495E+02 0.12055809402E+02 0.94695820142E+01 0.68998934954E+01 0.50953119070E+01
 0.45936021743E+01 0.55218382487E+01 0.75503496623E+01 0.10023014362E+02 0.12199406110E+02
 0.13500752146E+02 0.13670536090E+02 0.12811247201E+02 0.11303803187E+02 0.96209800183E+01
 0.80147899537E+01 0.65983178376E+01 0.54305386682E+01 0.45217021619E+01 0.38507656871E+01
 0.33845389938E+01 0.30917158336E+01 0.29500977305E+01 0.29483896204E+01 0.30854497177E+01
 0.33699365034E+01 0.38210440699E+01 0.44681237844E+01 0.53458834653E+01 0.64830991574E+01
 0.78852621928E+01 0.95157232938E+01 0.11284311046E+02 0.13029271945E+02 0.14343373472E+02
 0.14744508124E+02 0.13959223233E+02 0.14287690175E+02 0.12853423695E+02 0.10923368342E+02
 0.90932686231E+01 0.79462608468E+01 0.78399375252E+01 0.87709584604E+01 0.10380656287E+02
 0.12097813656E+02 0.13350216921E+02 0.13755447293E+02 0.13225951948E+02 0.11965294094E+02
 0.10365931464E+02 0.87555802841E+01 0.72732491859E+01 0.60020873659E+01 0.49762699748E+01
 0.41910503864E+01 0.36202366242E+01 0.32322734645E+01 0.30006648823E+01 0.29084375464E+01
 0.29484070415E+01 0.31221555500E+01 0.34400383479E+01 0.39220456123E+01 0.45969448690E+01
 0.54968705650E+01 0.66459194223E+01 0.80436901650E+01 0.96485861551E+01 0.11369491459E+02
 0.13053498779E+02 0.14338931009E+02 0.14817769283E+02 0.14808073194E+02 0.14584572944E+02
 0.13652129405E+02 0.12362668303E+02 0.11188864426E+02 0.10550988967E+02 0.10655422887E+02
 0.11415705462E+02 0.12492238020E+02 0.13430118650E+02 0.13831430033E+02 0.13492308759E+02
 0.12459586016E+02 0.10995404404E+02 0.94282552718E+01 0.79262375874E+01 0.65872829759E+01
 0.54668327247E+01 0.45788475234E+01 0.39085449280E+01 0.34282268409E+01 0.31098722933E+01
 0.29322940872E+01 0.28833480352E+01 0.29592086376E+01 0.31634054218E+01 0.35072109473E+01
 0.40104871517E+01 0.47004209684E+01 0.56058374839E+01 0.67461286046E+01 0.81160585968E+01
 0.96713700499E+01 0.11323143164E+02 0.12935035577E+02 0.14208836955E+02 0.13930886723E+02
 0.14657571951E+02 0.14738105835E+02 0.14273054615E+02 0.13540077313E+02 0.12886105888E+02
 0.12587841085E+02 0.12739171239E+02 0.13215820948E+02 0.13732267720E+02 0.13962613322E+02
 0.13671205587E+02 0.12801241426E+02 0.11491597965E+02 0.10006538676E+02 0.85292044179E+01
 0.71625354360E+01 0.59771433691E+01 0.50049523423E+01 0.42453166394E+01 0.36781710294E+01
 0.32772068700E+01 0.30190885219E+01 0.28878635101E+01 0.28755086804E+01 0.29807131962E+01
 0.32081862158E+01 0.35693508229E+01 0.40830972800E+01 0.47742615873E+01 0.56679531786E+01
 0.67791120754E+01 0.80988070411E+01 0.95821754782E+01 0.11145038915E+02 0.12669785192E+02
 0.12259920929E+02 0.13488473091E+02 0.14316469174E+02 0.14653298870E+02 0.14571739689E+02
 0.14269820788E+02 0.13979995362E+02 0.13864795528E+02 0.13945668241E+02 0.14097157264E+02