   2   2   0   0
  0.1942969E+02  0.3923090E-09  0.3923090E-09  0.3923090E-09  0.5000000E-15
  1.000000000000000E-004
  CAR 
 unknown system                          
     18.30179502     -7.35701706  301      6.35575490      1.00000000
     -7.357  0.0000E+00  0.0000E+00
     -7.271  0.0000E+00  0.0000E+00
     -7.186  0.0000E+00  0.0000E+00
     -7.100  0.0000E+00  0.0000E+00
     -7.015  0.0000E+00  0.0000E+00
     -6.929  0.0000E+00  0.0000E+00
     -6.844  0.0000E+00  0.0000E+00
     -6.758  0.0000E+00  0.0000E+00
     -6.673  0.0000E+00  0.0000E+00
     -6.587  0.0000E+00  0.0000E+00
     -6.502  0.3380E-17  0.2891E-18
     -6.416  0.4178E-15  0.3602E-16
     -6.331  0.3484E-13  0.3016E-14
     -6.245  0.2027E-11  0.1764E-12
     -6.160  0.8233E-10  0.7218E-11
     -6.074  0.2334E-08  0.2069E-09
     -5.989  0.4625E-07  0.4162E-08
     -5.903  0.6408E-06  0.5897E-07
     -5.817  0.6216E-05  0.5906E-06
     -5.732  0.4229E-04  0.4208E-05
     -5.646  0.2024E-03  0.2152E-04
     -5.561  0.6860E-03  0.8019E-04
     -5.475  0.1671E-02  0.2232E-03
     -5.390  0.3046E-02  0.4837E-03
     -5.304  0.4566E-02  0.8742E-03
     -5.219  0.6560E-02  0.1435E-02
     -5.133  0.9737E-02  0.2268E-02
     -5.048  0.1356E-01  0.3428E-02
     -4.962  0.1592E-01  0.4789E-02
     -4.877  0.1545E-01  0.6111E-02
     -4.791  0.1316E-01  0.7236E-02
     -4.706  0.1124E-01  0.8197E-02
     -4.620  0.1167E-01  0.9195E-02
     -4.535  0.1554E-01  0.1052E-01
     -4.449  0.2189E-01  0.1240E-01
     -4.363  0.2690E-01  0.1470E-01
     -4.278  0.2682E-01  0.1699E-01
     -4.192  0.2317E-01  0.1897E-01
     -4.107  0.2120E-01  0.2079E-01
     -4.021  0.2236E-01  0.2270E-01
     -3.936  0.2329E-01  0.2469E-01
     -3.850  0.2231E-01  0.2660E-01
     -3.765  0.2156E-01  0.2844E-01
     -3.679  0.2282E-01  0.3040E-01
     -3.594  0.2553E-01  0.3258E-01
     -3.508  0.2851E-01  0.3502E-01
     -3.423  0.3064E-01  0.3764E-01
     -3.337  0.3077E-01  0.4027E-01
     -3.252  0.3011E-01  0.4285E-01
     -3.166  0.3249E-01  0.4562E-01
     -3.081  0.3793E-01  0.4887E-01
     -2.995  0.3977E-01  0.5227E-01
     -2.909  0.3328E-01  0.5512E-01
     -2.824  0.2257E-01  0.5705E-01
     -2.738  0.1567E-01  0.5839E-01
     -2.653  0.1784E-01  0.5991E-01
     -2.567  0.2970E-01  0.6245E-01
     -2.482  0.4621E-01  0.6641E-01
     -2.396  0.5740E-01  0.7131E-01
     -2.311  0.5591E-01  0.7610E-01
     -2.225  0.4568E-01  0.8000E-01
     -2.140  0.3754E-01  0.8321E-01
     -2.054  0.3602E-01  0.8630E-01
     -1.969  0.3677E-01  0.8944E-01
     -1.883  0.3542E-01  0.9247E-01
     -1.798  0.3295E-01  0.9529E-01
     -1.712  0.3245E-01  0.9806E-01
     -1.627  0.3469E-01  0.1010E+00
     -1.541  0.3772E-01  0.1043E+00
     -1.455  0.4031E-01  0.1077E+00
     -1.370  0.4437E-01  0.1115E+00
     -1.284  0.5163E-01  0.1159E+00
     -1.199  0.5904E-01  0.1210E+00
     -1.113  0.6175E-01  0.1262E+00
     -1.028  0.5925E-01  0.1313E+00
     -0.942  0.5597E-01  0.1361E+00
     -0.857  0.5683E-01  0.1410E+00
     -0.771  0.6237E-01  0.1463E+00
     -0.686  0.6768E-01  0.1521E+00
     -0.600  0.6772E-01  0.1579E+00
     -0.515  0.6295E-01  0.1633E+00
     -0.429  0.5707E-01  0.1681E+00
     -0.344  0.5135E-01  0.1725E+00
     -0.258  0.4449E-01  0.1763E+00
     -0.173  0.3607E-01  0.1794E+00
     -0.087  0.2754E-01  0.1818E+00
     -0.001  0.2021E-01  0.1835E+00
      0.084  0.1420E-01  0.1847E+00
      0.170  0.9849E-02  0.1856E+00
      0.255  0.9183E-02  0.1864E+00
      0.341  0.1493E-01  0.1876E+00
      0.426  0.2819E-01  0.1900E+00
      0.512  0.4715E-01  0.1941E+00
      0.597  0.6673E-01  0.1998E+00
      0.683  0.7915E-01  0.2065E+00
      0.768  0.7838E-01  0.2133E+00
      0.854  0.6602E-01  0.2189E+00
      0.939  0.5026E-01  0.2232E+00
      1.025  0.3796E-01  0.2264E+00
      1.110  0.3013E-01  0.2290E+00
      1.196  0.2469E-01  0.2311E+00
      1.281  0.2017E-01  0.2329E+00
      1.367  0.1643E-01  0.2343E+00
      1.453  0.1478E-01  0.2355E+00
      1.538  0.1727E-01  0.2370E+00
      1.624  0.2342E-01  0.2390E+00
      1.709  0.2903E-01  0.2415E+00
      1.795  0.3089E-01  0.2441E+00
      1.880  0.3169E-01  0.2468E+00
      1.966  0.3805E-01  0.2501E+00
      2.051  0.5210E-01  0.2546E+00
      2.137  0.6614E-01  0.2602E+00
      2.222  0.6973E-01  0.2662E+00
      2.308  0.6213E-01  0.2715E+00
      2.393  0.5337E-01  0.2761E+00
      2.479  0.5247E-01  0.2805E+00
      2.564  0.5845E-01  0.2855E+00
      2.650  0.6375E-01  0.2910E+00
      2.735  0.6348E-01  0.2964E+00
      2.821  0.6062E-01  0.3016E+00
      2.907  0.6083E-01  0.3068E+00
      2.992  0.6272E-01  0.3122E+00
      3.078  0.5946E-01  0.3173E+00
      3.163  0.4952E-01  0.3215E+00
      3.249  0.3876E-01  0.3248E+00
      3.334  0.3313E-01  0.3276E+00
      3.420  0.3404E-01  0.3306E+00
      3.505  0.3987E-01  0.3340E+00
      3.591  0.5077E-01  0.3383E+00
      3.676  0.6909E-01  0.3442E+00
      3.762  0.9110E-01  0.3520E+00
      3.847  0.1038E+00  0.3609E+00
      3.933  0.9851E-01  0.3693E+00
      4.018  0.8220E-01  0.3763E+00
      4.104  0.6742E-01  0.3821E+00
      4.189  0.5895E-01  0.3871E+00
      4.275  0.5422E-01  0.3918E+00
      4.361  0.5125E-01  0.3962E+00
      4.446  0.5155E-01  0.4006E+00
      4.532  0.5523E-01  0.4053E+00
      4.617  0.5841E-01  0.4103E+00
      4.703  0.5922E-01  0.4154E+00
      4.788  0.6224E-01  0.4207E+00
      4.874  0.7315E-01  0.4269E+00
      4.959  0.9105E-01  0.4347E+00
      5.045  0.1080E+00  0.4440E+00
      5.130  0.1162E+00  0.4539E+00
      5.216  0.1145E+00  0.4637E+00
      5.301  0.1056E+00  0.4727E+00
      5.387  0.9245E-01  0.4806E+00
      5.472  0.7711E-01  0.4872E+00
      5.558  0.6196E-01  0.4925E+00
      5.643  0.5010E-01  0.4968E+00
      5.729  0.4489E-01  0.5007E+00
      5.815  0.4674E-01  0.5047E+00
      5.900  0.5172E-01  0.5091E+00
      5.986  0.5422E-01  0.5137E+00
      6.071  0.5147E-01  0.5181E+00
      6.157  0.4739E-01  0.5222E+00
      6.242  0.4964E-01  0.5264E+00
      6.328  0.5928E-01  0.5315E+00
      6.413  0.6729E-01  0.5372E+00
      6.499  0.6592E-01  0.5429E+00
      6.584  0.5898E-01  0.5479E+00
      6.670  0.5559E-01  0.5527E+00
      6.755  0.5739E-01  0.5576E+00
      6.841  0.5751E-01  0.5625E+00
      6.926  0.5130E-01  0.5669E+00
      7.012  0.4237E-01  0.5705E+00
      7.097  0.3722E-01  0.5737E+00
      7.183  0.3863E-01  0.5770E+00
      7.269  0.4511E-01  0.5809E+00
      7.354  0.5427E-01  0.5855E+00
      7.440  0.6497E-01  0.5911E+00
      7.525  0.7520E-01  0.5975E+00
      7.611  0.8074E-01  0.6044E+00
      7.696  0.7807E-01  0.6111E+00
      7.782  0.6788E-01  0.6169E+00
      7.867  0.5611E-01  0.6217E+00
      7.953  0.5143E-01  0.6261E+00
      8.038  0.5772E-01  0.6310E+00
      8.124  0.6881E-01  0.6369E+00
      8.209  0.7444E-01  0.6433E+00
      8.295  0.7079E-01  0.6493E+00
      8.380  0.6287E-01  0.6547E+00
      8.466  0.5867E-01  0.6597E+00
      8.551  0.6319E-01  0.6651E+00
      8.637  0.7648E-01  0.6717E+00
      8.723  0.9266E-01  0.6796E+00
      8.808  0.1004E+00  0.6882E+00
      8.894  0.9180E-01  0.6960E+00
      8.979  0.7299E-01  0.7023E+00
      9.065  0.5854E-01  0.7073E+00
      9.150  0.5672E-01  0.7121E+00
      9.236  0.6418E-01  0.7176E+00
      9.321  0.7261E-01  0.7238E+00
      9.407  0.7552E-01  0.7303E+00
      9.492  0.7099E-01  0.7364E+00
      9.578  0.6320E-01  0.7418E+00
      9.663  0.5948E-01  0.7468E+00
      9.749  0.6351E-01  0.7523E+00
      9.834  0.7236E-01  0.7585E+00
      9.920  0.8043E-01  0.7653E+00
     10.005  0.8509E-01  0.7726E+00
     10.091  0.8695E-01  0.7801E+00
     10.177  0.8683E-01  0.7875E+00
     10.262  0.8623E-01  0.7949E+00
     10.348  0.8647E-01  0.8023E+00
     10.433  0.8575E-01  0.8096E+00
     10.519  0.8261E-01  0.8167E+00
     10.604  0.8102E-01  0.8236E+00
     10.690  0.8601E-01  0.8309E+00
     10.775  0.9704E-01  0.8392E+00
     10.861  0.1099E+00  0.8486E+00
     10.946  0.1205E+00  0.8589E+00
     11.032  0.1247E+00  0.8696E+00
     11.117  0.1192E+00  0.8798E+00
     11.203  0.1049E+00  0.8888E+00
     11.288  0.8789E-01  0.8963E+00
     11.374  0.7527E-01  0.9027E+00
     11.459  0.7098E-01  0.9088E+00
     11.545  0.7348E-01  0.9151E+00
     11.631  0.7709E-01  0.9217E+00
     11.716  0.7774E-01  0.9283E+00
     11.802  0.7748E-01  0.9350E+00
     11.887  0.7945E-01  0.9418E+00
     11.973  0.8176E-01  0.9488E+00
     12.058  0.8025E-01  0.9556E+00
     12.144  0.7404E-01  0.9620E+00
     12.229  0.6663E-01  0.9677E+00
     12.315  0.6189E-01  0.9729E+00
     12.400  0.6045E-01  0.9781E+00
     12.486  0.6071E-01  0.9833E+00
     12.571  0.6118E-01  0.9885E+00
     12.657  0.6154E-01  0.9938E+00
     12.742  0.6305E-01  0.9992E+00
     12.828  0.6599E-01  0.1005E+01
     12.913  0.6621E-01  0.1011E+01
     12.999  0.5925E-01  0.1016E+01
     13.085  0.4788E-01  0.1020E+01
     13.170  0.3900E-01  0.1023E+01
     13.256  0.3480E-01  0.1026E+01
     13.341  0.3263E-01  0.1029E+01
     13.427  0.3043E-01  0.1031E+01
     13.512  0.2734E-01  0.1034E+01
     13.598  0.2257E-01  0.1036E+01
     13.683  0.1710E-01  0.1037E+01
     13.769  0.1399E-01  0.1038E+01
     13.854  0.1545E-01  0.1040E+01
     13.940  0.2110E-01  0.1041E+01
     14.025  0.2804E-01  0.1044E+01
     14.111  0.3197E-01  0.1047E+01
     14.196  0.3016E-01  0.1049E+01
     14.282  0.2380E-01  0.1051E+01
     14.367  0.1631E-01  0.1053E+01
     14.453  0.1000E-01  0.1053E+01
     14.539  0.5404E-02  0.1054E+01
     14.624  0.2646E-02  0.1054E+01
     14.710  0.2089E-02  0.1054E+01
     14.795  0.4063E-02  0.1055E+01
     14.881  0.8173E-02  0.1055E+01
     14.966  0.1250E-01  0.1056E+01
     15.052  0.1478E-01  0.1058E+01
     15.137  0.1471E-01  0.1059E+01
     15.223  0.1356E-01  0.1060E+01
     15.308  0.1211E-01  0.1061E+01
     15.394  0.1040E-01  0.1062E+01
     15.479  0.8284E-02  0.1063E+01
     15.565  0.5938E-02  0.1063E+01
     15.650  0.4357E-02  0.1064E+01
     15.736  0.4427E-02  0.1064E+01
     15.821  0.5467E-02  0.1064E+01
     15.907  0.5735E-02  0.1065E+01
     15.993  0.4527E-02  0.1065E+01
     16.078  0.2917E-02  0.1066E+01
     16.164  0.2240E-02  0.1066E+01
     16.249  0.2576E-02  0.1066E+01
     16.335  0.2937E-02  0.1066E+01
     16.420  0.2527E-02  0.1066E+01
     16.506  0.1543E-02  0.1067E+01
     16.591  0.6619E-03  0.1067E+01
     16.677  0.1991E-03  0.1067E+01
     16.762  0.4196E-04  0.1067E+01
     16.848  0.6192E-05  0.1067E+01
     16.933  0.6396E-06  0.1067E+01
     17.019  0.4621E-07  0.1067E+01
     17.104  0.2333E-08  0.1067E+01
     17.190  0.8231E-10  0.1067E+01
     17.275  0.2027E-11  0.1067E+01
     17.361  0.3484E-13  0.1067E+01
     17.447  0.4192E-15  0.1067E+01
     17.532  0.2704E-17  0.1067E+01
     17.618  0.0000E+00  0.1067E+01
     17.703  0.0000E+00  0.1067E+01
     17.789  0.0000E+00  0.1067E+01
     17.874  0.0000E+00  0.1067E+01
     17.960  0.0000E+00  0.1067E+01
     18.045  0.0000E+00  0.1067E+01
     18.131  0.0000E+00  0.1067E+01
     18.216  0.0000E+00  0.1067E+01
     18.302  0.0000E+00  0.1067E+01
