    2    2   15    1
  0.1942969E+02  0.3923090E-09  0.3923090E-09  0.3923090E-09  0.5000000E-15
  1.000000000000000E-004
  CAR 
 unknown system                          
      8     56      8
 
  0.6250000E-01  0.6250000E-01  0.6250000E-01  0.1562500E-01
    1       -5.019672   1.000000
    2        2.490298   1.000000
    3        4.841664   1.000000
    4        5.858048   0.999784
    5        9.957229   0.000000
    6       10.313454   0.000000
    7       10.748639   0.000000
    8       12.682258   0.000000
 
  0.1875000E+00  0.6250000E-01  0.6250000E-01  0.3125000E-01
    1       -4.017461   1.000000
    2        2.194636   1.000000
    3        4.971556   1.000000
    4        6.772285   0.001613
    5        7.594641   0.000000
    6        8.169290   0.000000
    7       10.978262   0.000000
    8       11.361219   0.000000
 
  0.3125000E+00  0.6250000E-01  0.6250000E-01  0.3125000E-01
    1       -2.399091   1.000000
    2        2.073412   1.000000
    3        3.747035   1.000000
    4        5.202236   1.000000
    5        6.076480   0.975853
    6        9.420206   0.000000
    7        9.687268   0.000000
    8       10.760922   0.000000
 
  0.4375000E+00  0.6250000E-01  0.6250000E-01  0.1562500E-01
    1       -0.783503   1.000000
    2        0.683731   1.000000
    3        3.496458   1.000000
    4        4.410463   1.000000
    5        5.946616   0.998092
    6        8.628894   0.000000
    7        9.907326   0.000000
    8       11.072693   0.000000
 
 -0.6250000E-01  0.6250000E-01  0.6250000E-01  0.7812500E-02
    1       -5.357017   1.000000
    2        2.934220   1.000000
    3        4.220370   1.000000
    4        5.566658   1.000000
    5        9.371735   0.000000
    6       11.707537   0.000000
    7       12.950970   0.000000
    8       13.421682   0.000000
 
  0.1875000E+00  0.1875000E+00  0.6250000E-01  0.1562500E-01
    1       -2.554233   1.000000
    2        2.201622   1.000000
    3        4.208997   1.000000
    4        4.659195   1.000000
    5        7.212213   0.000000
    6        8.310524   0.000000
    7       10.361007   0.000000
    8       10.504477   0.000000
 
  0.3125000E+00  0.1875000E+00  0.6250000E-01  0.3125000E-01
    1       -0.738529   1.000000
    2        1.075952   1.000000
    3        2.467641   1.000000
    4        4.013388   1.000000
    5        7.242459   0.000000
    6        8.823889   0.000000
    7       10.075427   0.000000
    8       11.605748   0.000000
 
  0.4375000E+00  0.1875000E+00  0.6250000E-01  0.3125000E-01
    1       -1.618743   1.000000
    2        0.738181   1.000000
    3        3.053407   1.000000
    4        5.081526   1.000000
    5        6.734092   0.003734
    6        9.149216   0.000000
    7       10.901075   0.000000
    8       11.118416   0.000000
 
 -0.4375000E+00  0.1875000E+00  0.6250000E-01  0.3125000E-01
    1       -3.362296   1.000000
    2        0.440762   1.000000
    3        5.296515   1.000000
    4        6.433054   0.292332
    5        7.548956   0.000000
    6        8.799844   0.000000
    7       10.036444   0.000000
    8       11.836578   0.000000
 
 -0.3125000E+00  0.1875000E+00  0.6250000E-01  0.1562500E-01
    1       -4.521958   1.000000
    2        0.597143   1.000000
    3        5.279689   1.000000
    4        6.819999   0.000514
    5        9.176447   0.000000
    6       10.365436   0.000000
    7       11.570755   0.000000
    8       11.649098   0.000000
 
 -0.1875000E+00  0.1875000E+00  0.6250000E-01  0.1562500E-01
    1       -5.024127   1.000000
    2        1.293140   1.000000
    3        4.274301   1.000000
    4        6.750698   0.002614
    5       10.102317   0.000000
    6       10.937260   0.000000
    7       12.575386   0.000000
    8       12.737966   0.000000
 
 -0.6250000E-01  0.1875000E+00  0.6250000E-01  0.1562500E-01
    1       -4.853841   1.000000
    2        2.125833   1.000000
    3        3.806181   1.000000
    4        7.176002   0.000000
    5        9.510247   0.000000
    6       10.651658   0.000000
    7       10.674361   0.000000
    8       11.865659   0.000000
 
  0.3125000E+00  0.3125000E+00  0.6250000E-01  0.1562500E-01
    1       -0.651233   1.000000
    2       -0.449703   1.000000
    3        2.844784   1.000000
    4        4.997260   1.000000
    5        7.562995   0.000000
    6        8.060103   0.000000
    7       11.624262   0.000000
    8       12.128601   0.000000
 
  0.4375000E+00  0.3125000E+00  0.6250000E-01  0.3125000E-01
    1       -2.388890   1.000000
    2       -1.111220   1.000000
    3        5.490382   1.000000
    4        6.335322   0.557440
    5        7.716041   0.000000
    6        8.740027   0.000000
    7        9.773888   0.000000
    8       10.945365   0.000000
 
 -0.4375000E+00  0.3125000E+00  0.6250000E-01  0.1562500E-01
    1       -3.697555   1.000000
    2       -1.112633   1.000000
    3        5.993662   0.994772
    4        7.775295   0.000000
    5        8.057733   0.000000
    6       10.129281   0.000000
    7       10.254814   0.000000
    8       10.661260   0.000000
 
 -0.3125000E+00  0.3125000E+00  0.6250000E-01  0.1562500E-01
    1       -4.361347   1.000000
    2       -0.499806   1.000000
    3        4.861045   1.000000
    4        7.687117   0.000000
    5        8.446249   0.000000
    6       11.274136   0.000000
    7       12.483833   0.000000
    8       12.897200   0.000000
 
 -0.1875000E+00  0.3125000E+00  0.6250000E-01  0.3125000E-01
    1       -4.358012   1.000000
    2        0.658341   1.000000
    3        3.817627   1.000000
    4        8.066214   0.000000
    5        8.516194   0.000000
    6        9.886392   0.000000
    7       11.436097   0.000000
    8       12.551941   0.000000
 
 -0.6250000E-01  0.3125000E+00  0.6250000E-01  0.1562500E-01
    1       -3.691061   1.000000
    2        1.878674   1.000000
    3        3.768986   1.000000
    4        5.981809   0.995906
    5        8.313850   0.000000
    6        9.577888   0.000000
    7       10.109546   0.000000
    8       10.900786   0.000000
 
  0.4375000E+00  0.4375000E+00  0.6250000E-01  0.7812500E-02
    1       -2.555509   1.000000
    2       -2.555509   1.000000
    3        6.947534   0.000014
    4        6.947535   0.000014
    5        8.913868   0.000000
    6        8.913869   0.000000
    7       10.203343   0.000000
    8       10.203343   0.000000
 
 -0.4375000E+00  0.4375000E+00  0.6250000E-01  0.1562500E-01
    1       -3.375478   1.000000
    2       -2.079469   1.000000
    3        5.774087   0.999980
    4        6.980098   0.000005
    5        8.711836   0.000000
    6        9.922281   0.000000
    7       12.397604   0.000000
    8       12.524885   0.000000
 
 -0.3125000E+00  0.4375000E+00  0.6250000E-01  0.3125000E-01
    1       -3.537565   1.000000
    2       -0.981025   1.000000
    3        4.503311   1.000000
    4        6.820571   0.000507
    5        8.759872   0.000000
    6        9.837836   0.000000
    7       11.165287   0.000000
    8       12.341917   0.000000
 
 -0.1875000E+00  0.4375000E+00  0.6250000E-01  0.3125000E-01
    1       -3.042734   1.000000
    2        0.613562   1.000000
    3        3.789464   1.000000
    4        5.412102   1.000000
    5        7.506212   0.000000
    6        9.227646   0.000000
    7       10.988543   0.000000
    8       11.973730   0.000000
 
 -0.6250000E-01  0.4375000E+00  0.6250000E-01  0.1562500E-01
    1       -1.939870   1.000000
    2        1.601771   1.000000
    3        3.548611   1.000000
    4        4.181220   1.000000
    5        6.528217   0.111329
    6        9.061549   0.000000
    7        9.258222   0.000000
    8       11.572583   0.000000
 
 -0.4375000E+00 -0.4375000E+00  0.6250000E-01  0.1562500E-01
    1       -2.413900   1.000000
    2       -2.393491   1.000000
    3        5.464730   1.000000
    4        5.606507   1.000000
    5        8.721334   0.000000
    6       10.263528   0.000000
    7       11.123859   0.000000
    8       11.590160   0.000000
 
 -0.3125000E+00 -0.4375000E+00  0.6250000E-01  0.3125000E-01
    1       -2.084301   1.000000
    2       -0.836225   1.000000
    3        4.294719   1.000000
    4        5.223937   1.000000
    5        6.357381   0.495414
    6        8.922019   0.000000
    7       12.070197   0.000000
    8       12.905914   0.000000
 
 -0.1875000E+00 -0.4375000E+00  0.6250000E-01  0.3125000E-01
    1       -1.204207   1.000000
    2        0.842091   1.000000
    3        2.635830   1.000000
    4        4.558123   1.000000
    5        6.399151   0.379476
    6        7.820251   0.000000
    7       10.407462   0.000000
    8       12.839454   0.000000
 
 -0.6250000E-01 -0.4375000E+00  0.6250000E-01  0.1562500E-01
    1       -1.028882   1.000000
    2        0.959188   1.000000
    3        4.030547   1.000000
    4        4.824986   1.000000
    5        5.244120   1.000000
    6        8.309620   0.000000
    7        8.707292   0.000000
    8       12.075518   0.000000
 
 -0.3125000E+00 -0.3125000E+00  0.6250000E-01  0.1562500E-01
    1       -0.448367   1.000000
    2        0.047294   1.000000
    3        2.274704   1.000000
    4        5.266786   1.000000
    5        5.726536   0.999996
    6        7.419853   0.000000
    7       12.010862   0.000000
    8       12.314872   0.000000
 
 -0.1875000E+00 -0.3125000E+00  0.6250000E-01  0.3125000E-01
    1       -1.236320   1.000000
    2        1.712653   1.000000
    3        3.006362   1.000000
    4        5.108647   1.000000
    5        5.906715   0.999251
    6        7.354780   0.000000
    7        9.379781   0.000000
    8       11.208916   0.000000
 
 -0.6250000E-01 -0.3125000E+00  0.6250000E-01  0.1562500E-01
    1       -2.874804   1.000000
    2        3.185228   1.000000
    3        4.963496   1.000000
    4        5.081488   1.000000
    5        5.764986   0.999985
    6        8.286415   0.000000
    7        8.842084   0.000000
    8       10.808304   0.000000
 
 -0.1875000E+00 -0.1875000E+00  0.6250000E-01  0.1562500E-01
    1       -3.034412   1.000000
    2        3.786540   1.000000
    3        4.793680   1.000000
    4        5.465213   1.000000
    5        6.361386   0.484118
    6        7.031218   0.000001
    7        9.498978   0.000000
    8        9.622687   0.000000
 
 -0.6250000E-01 -0.1875000E+00  0.6250000E-01  0.1562500E-01
    1       -4.346715   1.000000
    2        3.807157   1.000000
    3        4.951269   1.000000
    4        6.261394   0.747689
    5        7.699445   0.000000
    6        8.167873   0.000000
    7       10.139577   0.000000
    8       11.179986   0.000000
 
 -0.6250000E-01 -0.6250000E-01  0.6250000E-01  0.3906250E-02
    1       -5.186059   1.000000
    2        4.103077   1.000000
    3        4.694319   1.000000
    4        4.694320   1.000000
    5        9.192007   0.000000
    6       10.726998   0.000000
    7       10.973269   0.000000
    8       12.908481   0.000000
 
  0.1875000E+00  0.1875000E+00  0.1875000E+00  0.1562500E-01
    1       -1.762826   1.000000
    2        0.668154   1.000000
    3        3.866703   1.000000
    4        4.073926   1.000000
    5        8.189150   0.000000
    6        9.406868   0.000000
    7       10.781143   0.000000
    8       11.095598   0.000000
 
  0.3125000E+00  0.1875000E+00  0.1875000E+00  0.1562500E-01
    1       -0.188669   1.000000
    2        0.676898   1.000000
    3        2.230278   1.000000
    4        2.990117   1.000000
    5        8.757701   0.000000
    6       10.510982   0.000000
    7       10.601482   0.000000
    8       11.037511   0.000000
 
 -0.1875000E+00  0.1875000E+00  0.1875000E+00  0.7812500E-02
    1       -4.693618   1.000000
    2        0.996449   1.000000
    3        2.902550   1.000000
    4        8.310438   0.000000
    5        8.569881   0.000000
    6       11.923634   0.000000
    7       12.403203   0.000000
    8       12.453745   0.000000
 
  0.3125000E+00  0.3125000E+00  0.1875000E+00  0.7812500E-02
    1       -0.677220   1.000000
    2       -0.677220   1.000000
    3        3.812848   1.000000
    4        3.812850   1.000000
    5        9.354531   0.000000
    6        9.354533   0.000000
    7       10.505605   0.000000
    8       10.505607   0.000000
 
 -0.3125000E+00  0.3125000E+00  0.1875000E+00  0.1562500E-01
    1       -4.036523   1.000000
    2       -0.307434   1.000000
    3        2.978993   1.000000
    4        6.549586   0.085251
    5        9.834738   0.000000
    6       11.828687   0.000000
    7       12.196024   0.000000
    8       13.810517   0.000000
 
 -0.1875000E+00  0.3125000E+00  0.1875000E+00  0.1562500E-01
    1       -3.868594   1.000000
    2        0.487240   1.000000
    3        2.508184   1.000000
    4        6.583309   0.053802
    5        8.589469   0.000000
    6       10.754669   0.000000
    7       12.227913   0.000000
    8       13.282312   0.000000
 
 -0.4375000E+00  0.4375000E+00  0.1875000E+00  0.1562500E-01
    1       -3.062623   1.000000
    2       -1.794991   1.000000
    3        3.813716   1.000000
    4        5.029783   1.000000
    5       10.718449   0.000000
    6       11.326465   0.000000
    7       12.265932   0.000000
    8       12.886293   0.000000
 
 -0.3125000E+00  0.4375000E+00  0.1875000E+00  0.3125000E-01
    1       -3.062381   1.000000
    2       -0.642274   1.000000
    3        2.692952   1.000000
    4        4.997466   1.000000
    5        8.149703   0.000000
    6       11.819257   0.000000
    7       12.666109   0.000000
    8       14.143927   0.000000
 
 -0.1875000E+00  0.4375000E+00  0.1875000E+00  0.1562500E-01
    1       -2.411925   1.000000
    2        0.564784   1.000000
    3        2.692134   1.000000
    4        4.635989   1.000000
    5        6.045365   0.985911
    6       10.133444   0.000000
    7       12.077857   0.000000
    8       12.944914   0.000000
 
 -0.4375000E+00 -0.4375000E+00  0.1875000E+00  0.1562500E-01
    1       -1.983740   1.000000
    2       -1.939357   1.000000
    3        3.612017   1.000000
    4        3.705629   1.000000
    5        7.995688   0.000000
    6       11.995524   0.000000
    7       13.533615   0.000000
    8       13.551691   0.000000
 
 -0.3125000E+00 -0.4375000E+00  0.1875000E+00  0.3125000E-01
    1       -1.496955   1.000000
    2       -0.358153   1.000000
    3        2.934033   1.000000
    4        3.880906   1.000000
    5        5.077304   1.000000
    6       10.394488   0.000000
    7       13.254004   0.000000
    8       14.020734   0.000000
 
 -0.1875000E+00 -0.4375000E+00  0.1875000E+00  0.1562500E-01
    1       -0.611483   1.000000
    2        0.807254   1.000000
    3        2.665050   1.000000
    4        3.440686   1.000000
    5        5.308048   1.000000
    6        8.509478   0.000000
    7       10.472146   0.000000
    8       13.119050   0.000000
 
 -0.3125000E+00 -0.3125000E+00  0.1875000E+00  0.1562500E-01
    1       -0.236708   1.000000
    2        0.761316   1.000000
    3        2.264309   1.000000
    4        3.955340   1.000000
    5        4.167429   1.000000
    6        8.814064   0.000000
    7       11.596617   0.000000
    8       11.935064   0.000000
 
 -0.1875000E+00 -0.3125000E+00  0.1875000E+00  0.1562500E-01
    1       -1.507698   1.000000
    2        2.547380   1.000000
    3        3.477701   1.000000
    4        4.604746   1.000000
    5        5.285650   1.000000
    6        7.418320   0.000000
    7        9.363527   0.000000
    8       10.327490   0.000000
 
 -0.1875000E+00 -0.1875000E+00  0.1875000E+00  0.3906250E-02
    1       -3.195271   1.000000
    2        5.056232   1.000000
    3        5.480218   1.000000
    4        5.480219   1.000000
    5        5.611822   1.000000
    6        6.350086   0.515987
    7        9.267879   0.000000
    8        9.267881   0.000000
 
 -0.3125000E+00  0.3125000E+00  0.3125000E+00  0.7812500E-02
    1       -3.393884   1.000000
    2       -0.329011   1.000000
    3        1.767871   1.000000
    4        4.744089   1.000000
    5       10.953577   0.000000
    6       11.390263   0.000000
    7       12.794435   0.000000
    8       15.158580   0.000000
 
 -0.4375000E+00  0.4375000E+00  0.3125000E+00  0.1562500E-01
    1       -2.454720   1.000000
    2       -1.295242   1.000000
    3        2.091709   1.000000
    4        3.222332   1.000000
    5       10.993797   0.000000
    6       11.086524   0.000000
    7       14.006209   0.000000
    8       14.965939   0.000000
 
 -0.3125000E+00  0.4375000E+00  0.3125000E+00  0.1562500E-01
    1       -2.292467   1.000000
    2       -0.510660   1.000000
    3        1.631742   1.000000
    4        3.362005   1.000000
    5        7.688281   0.000000
    6       12.931320   0.000000
    7       14.374513   0.000000
    8       14.967513   0.000000
 
 -0.4375000E+00 -0.4375000E+00  0.3125000E+00  0.1562500E-01
    1       -1.342739   1.000000
    2       -1.264146   1.000000
    3        2.073550   1.000000
    4        2.115483   1.000000
    5        7.532165   0.000000
    6       13.133878   0.000000
    7       15.221880   0.000000
    8       15.427783   0.000000
 
 -0.3125000E+00 -0.4375000E+00  0.3125000E+00  0.1562500E-01
    1       -0.724663   1.000000
    2       -0.065144   1.000000
    3        2.112027   1.000000
    4        2.663688   1.000000
    5        4.531977   1.000000
    6       11.649712   0.000000
    7       13.449481   0.000000
    8       14.196192   0.000000
 
 -0.3125000E+00 -0.3125000E+00  0.3125000E+00  0.3906250E-02
    1       -0.162779   1.000000
    2        1.277533   1.000000
    3        2.728252   1.000000
    4        3.172224   1.000000
    5        3.172224   1.000000
    6        9.868521   0.000000
    7       11.443882   0.000000
    8       11.443888   0.000000
 
 -0.4375000E+00  0.4375000E+00  0.4375000E+00  0.7812500E-02
    1       -1.627560   1.000000
    2       -0.998728   1.000000
    3        1.167630   1.000000
    4        1.787042   1.000000
    5       10.817213   0.000000
    6       10.838377   0.000000
    7       15.819391   0.000000
    8       16.301795   0.000000
 
 -0.4375000E+00 -0.4375000E+00  0.4375000E+00  0.3906250E-02
    1       -0.903362   1.000000
    2       -0.788421   1.000000
    3        1.330542   1.000000
    4        1.330542   1.000000
    5        7.375952   0.000000
    6       13.445760   0.000000
    7       15.867721   0.000000
    8       15.867726   0.000000
