       N       E                     dE             d eps       ncg     rms          rms(c)
DAV:   1     0.102644286144E+01    0.10264E+01   -0.26210E+03   896   0.563E+02
DAV:   2    -0.970018632166E+01   -0.10727E+02   -0.10352E+02  1408   0.623E+01
DAV:   3    -0.983751883157E+01   -0.13733E+00   -0.13669E+00  1120   0.858E+00
DAV:   4    -0.983798819552E+01   -0.46936E-03   -0.46935E-03  1392   0.529E-01
DAV:   5    -0.983798902567E+01   -0.83015E-06   -0.83024E-06  1128   0.150E-02    0.137E+00
DAV:   6    -0.983098500396E+01    0.70040E-02   -0.73567E-03  1176   0.518E-01    0.846E-01
DAV:   7    -0.982719190428E+01    0.37931E-02   -0.17118E-02  1088   0.797E-01    0.610E-02
DAV:   8    -0.982714878316E+01    0.43121E-04   -0.50816E-04   776   0.166E-01
   1 F= -.98271488E+01 E0= -.98171092E+01  d E =-.982715E+01
