<?xml version="1.0" encoding="ISO-8859-1"?>
<modeling>
 <generator>
  <i name="program" type="string">vasp </i>
  <i name="version" type="string">5.4.4.18Apr17-6-g9f103f2a35  </i>
  <i name="subversion" type="string">(build Dec 09 2018 21:25:21) complex            parallel </i>
  <i name="platform" type="string">IFC18.0.1.163_CrayMPICH7.7.0_MKL18.0.1.163 </i>
  <i name="date" type="string">2019 04 01 </i>
  <i name="time" type="string">15:55:07 </i>
 </generator>
 <incar>
  <i type="string" name="PREC">normal</i>
  <i type="int" name="IBRION">     2</i>
  <i name="EDIFF">      0.00040000</i>
  <i name="EDIFFG">     -0.01000000</i>
  <i type="int" name="NSW">    15</i>
  <i type="int" name="ISIF">     2</i>
  <i name="ENCUT">    350.00000000</i>
  <i type="int" name="NBANDS">     8</i>
  <i type="logical" name="LREAL"> F  </i>
  <i type="int" name="ISMEAR">     0</i>
  <i name="SIGMA">      0.20000000</i>
  <v type="int" name="KPOINT_BSE">    -1     0     0     0</v>
 </incar>
 <structure name="primitive_cell" >
  <crystal>
   <varray name="basis" >
    <v>      -2.57251500       2.57251500       1.46798000 </v>
    <v>       2.57251500      -2.57251500       1.46798000 </v>
    <v>       2.57251500       2.57251500      -1.46798000 </v>
   </varray>
   <i name="volume">     38.85938845 </i>
   <varray name="rec_basis" >
    <v>       0.00000000       0.19436233       0.34060410 </v>
    <v>       0.19436233       0.00000000       0.34060410 </v>
    <v>       0.19436233       0.19436233       0.00000000 </v>
   </varray>
  </crystal>
  <varray name="positions" >
   <v>       0.00000000       0.00000000       0.00000000 </v>
   <v>       0.25000000      -0.25000000      -0.50000000 </v>
  </varray>
 </structure>
 <varray name="primitive_index" >
  <v type="int" >        1 </v>
  <v type="int" >        2 </v>
 </varray>
 <kpoints>
  <generation param="Monkhorst-Pack">
   <v type="int" name="divisions">       8        8        8 </v>
   <v name="usershift">      0.00000000       0.00000000       0.00000000 </v>
   <v name="genvec1">      0.12500000      -0.00000000       0.00000000 </v>
   <v name="genvec2">     -0.00000000       0.12500000       0.00000000 </v>
   <v name="genvec3">      0.00000000       0.00000000       0.12500000 </v>
   <v name="shift">      0.50000000       0.50000000       0.50000000 </v>
  </generation>
  <varray name="kpointlist" >
   <v>       0.06250000       0.06250000       0.06250000 </v>
   <v>       0.18750000       0.06250000       0.06250000 </v>
   <v>       0.31250000       0.06250000       0.06250000 </v>
   <v>       0.43750000       0.06250000       0.06250000 </v>
   <v>      -0.06250000       0.06250000       0.06250000 </v>
   <v>       0.18750000       0.18750000       0.06250000 </v>
   <v>       0.31250000       0.18750000       0.06250000 </v>
   <v>       0.43750000       0.18750000       0.06250000 </v>
   <v>      -0.43750000       0.18750000       0.06250000 </v>
   <v>      -0.31250000       0.18750000       0.06250000 </v>
   <v>      -0.18750000       0.18750000       0.06250000 </v>
   <v>      -0.06250000       0.18750000       0.06250000 </v>
   <v>       0.31250000       0.31250000       0.06250000 </v>
   <v>       0.43750000       0.31250000       0.06250000 </v>
   <v>      -0.43750000       0.31250000       0.06250000 </v>
   <v>      -0.31250000       0.31250000       0.06250000 </v>
   <v>      -0.18750000       0.31250000       0.06250000 </v>
   <v>      -0.06250000       0.31250000       0.06250000 </v>
   <v>       0.43750000       0.43750000       0.06250000 </v>
   <v>      -0.43750000       0.43750000       0.06250000 </v>
   <v>      -0.31250000       0.43750000       0.06250000 </v>
   <v>      -0.18750000       0.43750000       0.06250000 </v>
   <v>      -0.06250000       0.43750000       0.06250000 </v>
   <v>      -0.43750000      -0.43750000       0.06250000 </v>
   <v>      -0.31250000      -0.43750000       0.06250000 </v>
   <v>      -0.18750000      -0.43750000       0.06250000 </v>
   <v>      -0.06250000      -0.43750000       0.06250000 </v>
   <v>      -0.31250000      -0.31250000       0.06250000 </v>
   <v>      -0.18750000      -0.31250000       0.06250000 </v>
   <v>      -0.06250000      -0.31250000       0.06250000 </v>
   <v>      -0.18750000      -0.18750000       0.06250000 </v>
   <v>      -0.06250000      -0.18750000       0.06250000 </v>
   <v>      -0.06250000      -0.06250000       0.06250000 </v>
   <v>       0.18750000       0.18750000       0.18750000 </v>
   <v>       0.31250000       0.18750000       0.18750000 </v>
   <v>      -0.18750000       0.18750000       0.18750000 </v>
   <v>       0.31250000       0.31250000       0.18750000 </v>
   <v>      -0.31250000       0.31250000       0.18750000 </v>
   <v>      -0.18750000       0.31250000       0.18750000 </v>
   <v>      -0.43750000       0.43750000       0.18750000 </v>
   <v>      -0.31250000       0.43750000       0.18750000 </v>
   <v>      -0.18750000       0.43750000       0.18750000 </v>
   <v>      -0.43750000      -0.43750000       0.18750000 </v>
   <v>      -0.31250000      -0.43750000       0.18750000 </v>
   <v>      -0.18750000      -0.43750000       0.18750000 </v>
   <v>      -0.31250000      -0.31250000       0.18750000 </v>
   <v>      -0.18750000      -0.31250000       0.18750000 </v>
   <v>      -0.18750000      -0.18750000       0.18750000 </v>
   <v>      -0.31250000       0.31250000       0.31250000 </v>
   <v>      -0.43750000       0.43750000       0.31250000 </v>
   <v>      -0.31250000       0.43750000       0.31250000 </v>
   <v>      -0.43750000      -0.43750000       0.31250000 </v>
   <v>      -0.31250000      -0.43750000       0.31250000 </v>
   <v>      -0.31250000      -0.31250000       0.31250000 </v>
   <v>      -0.43750000       0.43750000       0.43750000 </v>
   <v>      -0.43750000      -0.43750000       0.43750000 </v>
  </varray>
  <varray name="weights" >
   <v>       0.01562500 </v>
   <v>       0.03125000 </v>
   <v>       0.03125000 </v>
   <v>       0.01562500 </v>
   <v>       0.00781250 </v>
   <v>       0.01562500 </v>
   <v>       0.03125000 </v>
   <v>       0.03125000 </v>
   <v>       0.03125000 </v>
   <v>       0.01562500 </v>
   <v>       0.01562500 </v>
   <v>       0.01562500 </v>
   <v>       0.01562500 </v>
   <v>       0.03125000 </v>
   <v>       0.01562500 </v>
   <v>       0.01562500 </v>
   <v>       0.03125000 </v>
   <v>       0.01562500 </v>
   <v>       0.00781250 </v>
   <v>       0.01562500 </v>
   <v>       0.03125000 </v>
   <v>       0.03125000 </v>
   <v>       0.01562500 </v>
   <v>       0.01562500 </v>
   <v>       0.03125000 </v>
   <v>       0.03125000 </v>
   <v>       0.01562500 </v>
   <v>       0.01562500 </v>
   <v>       0.03125000 </v>
   <v>       0.01562500 </v>
   <v>       0.01562500 </v>
   <v>       0.01562500 </v>
   <v>       0.00390625 </v>
   <v>       0.01562500 </v>
   <v>       0.01562500 </v>
   <v>       0.00781250 </v>
   <v>       0.00781250 </v>
   <v>       0.01562500 </v>
   <v>       0.01562500 </v>
   <v>       0.01562500 </v>
   <v>       0.03125000 </v>
   <v>       0.01562500 </v>
   <v>       0.01562500 </v>
   <v>       0.03125000 </v>
   <v>       0.01562500 </v>
   <v>       0.01562500 </v>
   <v>       0.01562500 </v>
   <v>       0.00390625 </v>
   <v>       0.00781250 </v>
   <v>       0.01562500 </v>
   <v>       0.01562500 </v>
   <v>       0.01562500 </v>
   <v>       0.01562500 </v>
   <v>       0.00390625 </v>
   <v>       0.00781250 </v>
   <v>       0.00390625 </v>
  </varray>
 </kpoints>
 <parameters>
  <separator name="general" >
   <i type="string" name="SYSTEM">unknown system</i>
   <i type="logical" name="LCOMPAT"> F  </i>
  </separator>
  <separator name="electronic" >
   <i type="string" name="PREC">normal</i>
   <i name="ENMAX">    350.00000000</i>
   <i name="ENAUG">    322.06900000</i>
   <i name="EDIFF">      0.00040000</i>
   <i type="int" name="IALGO">    38</i>
   <i type="int" name="IWAVPR">    11</i>
   <i type="int" name="NBANDS">     8</i>
   <i name="NELECT">      8.00000000</i>
   <i type="int" name="TURBO">     0</i>
   <i type="int" name="IRESTART">     0</i>
   <i type="int" name="NREBOOT">     0</i>
   <i type="int" name="NMIN">     0</i>
   <i name="EREF">      0.00000000</i>
   <separator name="electronic smearing" >
    <i type="int" name="ISMEAR">     0</i>
    <i name="SIGMA">      0.20000000</i>
    <i name="KSPACING">      0.50000000</i>
    <i type="logical" name="KGAMMA"> T  </i>
   </separator>
   <separator name="electronic projectors" >
    <i type="logical" name="LREAL"> F  </i>
    <v name="ROPT">      0.00000000</v>
    <i type="int" name="LMAXPAW">  -100</i>
    <i type="int" name="LMAXMIX">     2</i>
    <i type="logical" name="NLSPLINE"> F  </i>
   </separator>
   <separator name="electronic startup" >
    <i type="int" name="ISTART">     0</i>
    <i type="int" name="ICHARG">     2</i>
    <i type="int" name="INIWAV">     1</i>
   </separator>
   <separator name="electronic spin" >
    <i type="int" name="ISPIN">     1</i>
    <i type="logical" name="LNONCOLLINEAR"> F  </i>
    <v name="MAGMOM">      1.00000000      1.00000000</v>
    <i name="NUPDOWN">     -1.00000000</i>
    <i type="logical" name="LSORBIT"> F  </i>
    <v name="SAXIS">      0.00000000      0.00000000      1.00000000</v>
    <i type="logical" name="LSPIRAL"> F  </i>
    <v name="QSPIRAL">      0.00000000      0.00000000      0.00000000</v>
    <i type="logical" name="LZEROZ"> F  </i>
   </separator>
   <separator name="electronic exchange-correlation" >
    <i type="logical" name="LASPH"> F  </i>
    <i type="logical" name="LMETAGGA"> F  </i>
   </separator>
   <separator name="electronic convergence" >
    <i type="int" name="NELM">    60</i>
    <i type="int" name="NELMDL">    -5</i>
    <i type="int" name="NELMIN">     2</i>
    <i name="ENINI">    350.00000000</i>
    <separator name="electronic convergence detail" >
     <i type="logical" name="LDIAG"> T  </i>
     <i type="logical" name="LSUBROT"> F  </i>
     <i name="WEIMIN">      0.00100000</i>
     <i name="EBREAK">      0.00001250</i>
     <i name="DEPER">      0.30000000</i>
     <i type="int" name="NRMM">     4</i>
     <i name="TIME">      0.40000000</i>
    </separator>
   </separator>
   <separator name="electronic mixer" >
    <i name="AMIX">      0.40000000</i>
    <i name="BMIX">      1.00000000</i>
    <i name="AMIN">      0.10000000</i>
    <i name="AMIX_MAG">      1.60000000</i>
    <i name="BMIX_MAG">      1.00000000</i>
    <separator name="electronic mixer details" >
     <i type="int" name="IMIX">     4</i>
     <i type="logical" name="MIXFIRST"> F  </i>
     <i type="int" name="MAXMIX">   -45</i>
     <i name="WC">    100.00000000</i>
     <i type="int" name="INIMIX">     1</i>
     <i type="int" name="MIXPRE">     1</i>
     <i type="int" name="MREMOVE">     5</i>
    </separator>
   </separator>
   <separator name="electronic dipolcorrection" >
    <i type="logical" name="LDIPOL"> F  </i>
    <i type="logical" name="LMONO"> F  </i>
    <i type="int" name="IDIPOL">     0</i>
    <i name="EPSILON">      1.00000000</i>
    <v name="DIPOL">   -100.00000000   -100.00000000   -100.00000000</v>
    <i name="EFIELD">      0.00000000</i>
   </separator>
  </separator>
  <separator name="grids" >
   <i type="int" name="NGX">    18</i>
   <i type="int" name="NGY">    18</i>
   <i type="int" name="NGZ">    18</i>
   <i type="int" name="NGXF">    36</i>
   <i type="int" name="NGYF">    36</i>
   <i type="int" name="NGZF">    36</i>
   <i type="logical" name="ADDGRID"> F  </i>
  </separator>
  <separator name="ionic" >
   <i type="int" name="NSW">    15</i>
   <i type="int" name="IBRION">     2</i>
   <i type="int" name="MDALGO">     0</i>
   <i type="int" name="ISIF">     2</i>
   <i name="PSTRESS">      0.00000000</i>
   <i name="EDIFFG">     -0.01000000</i>
   <i type="int" name="NFREE">     1</i>
   <i name="POTIM">      0.50000000</i>
   <i name="SMASS">     -3.00000000</i>
   <i name="SCALEE">      1.00000000</i>
  </separator>
  <separator name="ionic md" >
   <i name="TEBEG">      0.00010000</i>
   <i name="TEEND">      0.00010000</i>
   <i type="int" name="NBLOCK">     1</i>
   <i type="int" name="KBLOCK">    15</i>
   <i type="int" name="NPACO">   256</i>
   <i name="APACO">     16.00000000</i>
  </separator>
  <separator name="symmetry" >
   <i type="int" name="ISYM">     2</i>
   <i name="SYMPREC">      0.00001000</i>
  </separator>
  <separator name="dos" >
   <i type="int" name="LORBIT">     0</i>
   <v name="RWIGS">     -1.00000000</v>
   <i type="int" name="NEDOS">   301</i>
   <i name="EMIN">     10.00000000</i>
   <i name="EMAX">    -10.00000000</i>
   <i name="EFERMI">      0.00000000</i>
  </separator>
  <separator name="writing" >
   <i type="int" name="NWRITE">     2</i>
   <i type="logical" name="LWAVE"> T  </i>
   <i type="logical" name="LDOWNSAMPLE"> F  </i>
   <i type="logical" name="LCHARG"> T  </i>
   <i type="logical" name="LPARD"> F  </i>
   <i type="logical" name="LVTOT"> F  </i>
   <i type="logical" name="LVHAR"> F  </i>
   <i type="logical" name="LELF"> F  </i>
   <i type="logical" name="LOPTICS"> F  </i>
   <v name="STM">      0.00000000      0.00000000      0.00000000      0.00000000      0.00000000      0.00000000      0.00000000</v>
  </separator>
  <separator name="performance" >
   <i type="int" name="NPAR">     8</i>
   <i type="int" name="NSIM">     4</i>
   <i type="int" name="NBLK">    -1</i>
   <i type="logical" name="LPLANE"> T  </i>
   <i type="logical" name="LSCALAPACK"> T  </i>
   <i type="logical" name="LSCAAWARE"> F  </i>
   <i type="logical" name="LSCALU"> F  </i>
   <i type="logical" name="LASYNC"> F  </i>
   <i type="logical" name="LORBITALREAL"> F  </i>
  </separator>
  <separator name="miscellaneous" >
   <i type="int" name="IDIOT">     3</i>
   <i type="int" name="ISPECIAL">     0</i>
   <i type="logical" name="LMUSIC"> F  </i>
   <v name="POMASS">     28.08500000</v>
   <v name="DARWINR">      0.00000000</v>
   <v name="DARWINV">      1.00000000</v>
   <i type="logical" name="LCORR"> T  </i>
  </separator>
  <i type="logical" name="GGA_COMPAT"> T  </i>
  <i type="logical" name="LBERRY"> F  </i>
  <i type="int" name="ICORELEVEL">     0</i>
  <i type="logical" name="LDAU"> F  </i>
  <i type="int" name="I_CONSTRAINED_M">     0</i>
  <separator name="electronic exchange-correlation" >
   <i type="string" name="GGA">--</i>
   <i type="int" name="VOSKOWN">     0</i>
   <i type="logical" name="LHFCALC"> F  </i>
   <i type="string" name="PRECFOCK"></i>
   <i type="logical" name="LSYMGRAD"> F  </i>
   <i type="logical" name="LHFONE"> F  </i>
   <i type="logical" name="LRHFCALC"> F  </i>
   <i type="logical" name="LTHOMAS"> F  </i>
   <i type="logical" name="LMODELHF"> F  </i>
   <i name="ENCUT4O">     -1.00000000</i>
   <i type="int" name="EXXOEP">     0</i>
   <i type="int" name="FOURORBIT">     0</i>
   <i name="AEXX">      0.00000000</i>
   <i name="HFALPHA">      0.00000000</i>
   <i name="MCALPHA">      0.00000000</i>
   <i name="ALDAX">      1.00000000</i>
   <i name="AGGAX">      1.00000000</i>
   <i name="ALDAC">      1.00000000</i>
   <i name="AGGAC">      1.00000000</i>
   <i type="int" name="NKREDX">     1</i>
   <i type="int" name="NKREDY">     1</i>
   <i type="int" name="NKREDZ">     1</i>
   <i type="logical" name="SHIFTRED"> F  </i>
   <i type="logical" name="ODDONLY"> F  </i>
   <i type="logical" name="EVENONLY"> F  </i>
   <i type="int" name="LMAXFOCK">     0</i>
   <i type="int" name="NMAXFOCKAE">     0</i>
   <i type="logical" name="LFOCKAEDFT"> F  </i>
   <i name="HFSCREEN">      0.00000000</i>
   <i name="HFSCREENC">      0.00000000</i>
   <i type="int" name="NBANDSGWLOW">     0</i>
  </separator>
  <separator name="vdW DFT" >
   <i type="logical" name="LUSE_VDW"> F  </i>
   <i name="Zab_VDW">     -0.84910000</i>
   <i name="PARAM1">      0.12340000</i>
   <i name="PARAM2">      1.00000000</i>
   <i name="PARAM3">      0.00000000</i>
  </separator>
  <separator name="model GW" >
   <i type="int" name="MODEL_GW">     0</i>
   <i name="MODEL_EPS0">     11.65781653</i>
   <i name="MODEL_ALPHA">      1.00000000</i>
  </separator>
  <separator name="linear response parameters" >
   <i type="logical" name="LEPSILON"> F  </i>
   <i type="logical" name="LRPA"> F  </i>
   <i type="logical" name="LNABLA"> F  </i>
   <i type="logical" name="LVEL"> F  </i>
   <i type="int" name="KINTER">     0</i>
   <i name="CSHIFT">      0.10000000</i>
   <i name="OMEGAMAX">     -1.00000000</i>
   <i name="DEG_THRESHOLD">      0.00200000</i>
   <i name="RTIME">     -0.10000000</i>
   <i name="WPLASMAI">      0.00000000</i>
   <v name="DFIELD">      0.00000000      0.00000000      0.00000000</v>
   <v name="WPLASMA">      0.00000000      0.00000000      0.00000000      0.00000000      0.00000000      0.00000000      0.00000000      0.00000000      0.00000000</v>
  </separator>
  <separator name="orbital magnetization" >
   <i type="logical" name="NUCIND"> F  </i>
   <v name="MAGPOS">      0.00000000      0.00000000      0.00000000</v>
   <i type="logical" name="LNICSALL"> T  </i>
   <i type="logical" name="ORBITALMAG"> F  </i>
   <i type="logical" name="LMAGBLOCH"> F  </i>
   <i type="logical" name="LCHIMAG"> F  </i>
   <i type="logical" name="LGAUGE"> T  </i>
   <i type="int" name="MAGATOM">     0</i>
   <v name="MAGDIPOL">      0.00000000      0.00000000      0.00000000</v>
   <v name="AVECCONST">      0.00000000      0.00000000      0.00000000</v>
  </separator>
  <separator name="response functions" >
   <i type="logical" name="LADDER"> F  </i>
   <i type="logical" name="LRPAFORCE"> F  </i>
   <i type="logical" name="LFXC"> F  </i>
   <i type="logical" name="LHARTREE"> T  </i>
   <i type="int" name="IBSE">     0</i>
   <v type="int" name="KPOINT">    -1     0     0     0</v>
   <i type="logical" name="LTCTE"> F  </i>
   <i type="logical" name="LTETE"> F  </i>
   <i type="logical" name="LTRIPLET"> F  </i>
   <i type="logical" name="LFXCEPS"> F  </i>
   <i type="logical" name="LFXHEG"> F  </i>
   <i type="int" name="NATURALO">     2</i>
   <i type="logical" name="L2ORDER"> F  </i>
   <i type="logical" name="LMP2LT"> F  </i>
   <i type="logical" name="LUSEW"> F  </i>
   <i name="ENCUTGW">     -2.00000000</i>
   <i name="ENCUTGWSOFT">     -2.00000000</i>
   <i name="ENCUTLF">     -1.00000000</i>
   <i type="int" name="LMAXMP2">    -1</i>
   <i name="SCISSOR">      0.00000000</i>
   <i type="int" name="NOMEGA">     0</i>
   <i type="int" name="NOMEGAR">     0</i>
   <i type="int" name="NBANDSGW">    -1</i>
   <i type="int" name="NBANDSO">    -1</i>
   <i type="int" name="NBANDSV">    -1</i>
   <i type="int" name="NELM">     1</i>
   <i type="int" name="NELMHF">     1</i>
   <i type="int" name="DIM">     3</i>
   <i type="int" name="ANTIRES">     0</i>
   <i name="OMEGAMAX">    -30.00000000</i>
   <i name="OMEGAMIN">    -30.00000000</i>
   <i name="OMEGATL">   -200.00000000</i>
   <i type="int" name="OMEGAGRID">   140</i>
   <i name="CSHIFT">     -0.10000000</i>
   <i type="logical" name="SELFENERGY"> F  </i>
   <i type="logical" name="LSPECTRAL"> F  </i>
   <i type="logical" name="LSPECTRALGW"> F  </i>
   <i type="logical" name="LSINGLES"> F  </i>
   <i type="logical" name="LFERMIGW"> F  </i>
   <i type="logical" name="ODDONLYGW"> F  </i>
   <i type="logical" name="EVENONLYGW"> F  </i>
   <i type="int" name="NKREDLFX">     1</i>
   <i type="int" name="NKREDLFY">     1</i>
   <i type="int" name="NKREDLFZ">     1</i>
   <i type="int" name="MAXMEM">  2800</i>
   <i type="int" name="TELESCOPE">     0</i>
   <i type="int" name="TAUPAR">     1</i>
   <i type="int" name="OMEGAPAR">    -1</i>
   <i name="LAMBDA">      1.00000000</i>
  </separator>
  <separator name="External order field" >
   <i name="OFIELD_KAPPA">      0.00000000</i>
   <v name="OFIELD_K">      0.00000000      0.00000000      0.00000000</v>
   <i name="OFIELD_Q6_NEAR">      0.00000000</i>
   <i name="OFIELD_Q6_FAR">      0.00000000</i>
   <i name="OFIELD_A">      0.00000000</i>
  </separator>
 </parameters>
 <atominfo>
  <atoms>       2 </atoms>
  <types>       1 </types>
  <array name="atoms" >
   <dimension dim="1">ion</dimension>
   <field type="string">element</field>
   <field type="int">atomtype</field>
   <set>
    <rc><c>Si</c><c>   1</c></rc>
    <rc><c>Si</c><c>   1</c></rc>
   </set>
  </array>
  <array name="atomtypes" >
   <dimension dim="1">type</dimension>
   <field type="int">atomspertype</field>
   <field type="string">element</field>
   <field>mass</field>
   <field>valence</field>
   <field type="string">pseudopotential</field>
   <set>
    <rc><c>   2</c><c>Si</c><c>     28.08500000</c><c>      4.00000000</c><c> PAW_PBE Si 05Jan2001                   </c></rc>
   </set>
  </array>
 </atominfo>
 <structure name="initialpos" >
  <crystal>
   <varray name="basis" >
    <v>      -2.57251500       2.57251500       1.46798000 </v>
    <v>       2.57251500      -2.57251500       1.46798000 </v>
    <v>       2.57251500       2.57251500      -1.46798000 </v>
   </varray>
   <i name="volume">     38.85938845 </i>
   <varray name="rec_basis" >
    <v>       0.00000000       0.19436233       0.34060410 </v>
    <v>       0.19436233       0.00000000       0.34060410 </v>
    <v>       0.19436233       0.19436233       0.00000000 </v>
   </varray>
  </crystal>
  <varray name="positions" >
   <v>       0.00000000       0.00000000       0.00000000 </v>
   <v>       0.25000000       0.75000000       0.50000000 </v>
  </varray>
 </structure>
 <calculation>
  <scstep>
   <time name="dav">    0.74    0.74</time>
   <time name="total">    0.79    0.80</time>
   <energy>
    <i name="alphaZ">      3.46511664 </i>
    <i name="ewald">   -244.85232375 </i>
    <i name="hartreedc">     -4.14428617 </i>
    <i name="XCdc">    -18.92536339 </i>
    <i name="pawpsdc">     65.95520812 </i>
    <i name="pawaedc">    -30.76852678 </i>
    <i name="eentropy">     -0.00850209 </i>
    <i name="bandstr">     24.17386614 </i>
    <i name="atom">    206.13125414 </i>
    <i name="e_fr_energy">      1.02644286 </i>
    <i name="e_wo_entrp">      1.03494495 </i>
    <i name="e_0_energy">      1.03069390 </i>
   </energy>
  </scstep>
  <scstep>
   <time name="dav">    1.13    1.14</time>
   <time name="total">    1.14    1.15</time>
   <energy>
    <i name="e_fr_energy">     -9.70018632 </i>
    <i name="e_wo_entrp">     -9.68057319 </i>
    <i name="e_0_energy">     -9.69037976 </i>
   </energy>
  </scstep>
  <scstep>
   <time name="dav">    0.91    0.92</time>
   <time name="total">    0.91    0.92</time>
   <energy>
    <i name="e_fr_energy">     -9.83751883 </i>
    <i name="e_wo_entrp">     -9.81733398 </i>
    <i name="e_0_energy">     -9.82742641 </i>
   </energy>
  </scstep>
  <scstep>
   <time name="dav">    1.12    1.13</time>
   <time name="total">    1.13    1.13</time>
   <energy>
    <i name="e_fr_energy">     -9.83798820 </i>
    <i name="e_wo_entrp">     -9.81780269 </i>
    <i name="e_0_energy">     -9.82789544 </i>
   </energy>
  </scstep>
  <scstep>
   <time name="dav">    0.92    0.92</time>
   <time name="total">    0.98    0.99</time>
   <energy>
    <i name="e_fr_energy">     -9.83798903 </i>
    <i name="e_wo_entrp">     -9.81780353 </i>
    <i name="e_0_energy">     -9.82789628 </i>
   </energy>
  </scstep>
  <scstep>
   <time name="dav">    0.95    0.95</time>
   <time name="total">    1.05    1.05</time>
   <energy>
    <i name="e_fr_energy">     -9.83098500 </i>
    <i name="e_wo_entrp">     -9.81084064 </i>
    <i name="e_0_energy">     -9.82091282 </i>
   </energy>
  </scstep>
  <scstep>
   <time name="dav">    0.88    0.89</time>
   <time name="total">    0.98    0.99</time>
   <energy>
    <i name="e_fr_energy">     -9.82719190 </i>
    <i name="e_wo_entrp">     -9.80711993 </i>
    <i name="e_0_energy">     -9.81715592 </i>
   </energy>
  </scstep>
  <scstep>
   <time name="dav">    0.67    0.67</time>
   <time name="total">    0.71    0.72</time>
   <energy>
    <i name="alphaZ">      3.46511664 </i>
    <i name="ewald">   -244.85232375 </i>
    <i name="hartreedc">     -4.01434568 </i>
    <i name="XCdc">    -18.81512106 </i>
    <i name="pawpsdc">     66.33124614 </i>
    <i name="pawaedc">    -31.13626800 </i>
    <i name="eentropy">     -0.02007925 </i>
    <i name="bandstr">     13.08337202 </i>
    <i name="atom">    206.13125414 </i>
    <i name="e_fr_energy">     -9.82714878 </i>
    <i name="e_wo_entrp">     -9.80706954 </i>
    <i name="e_0_energy">     -9.81710916 </i>
   </energy>
  </scstep>
  <structure>
   <crystal>
    <varray name="basis" >
     <v>      -2.57251500       2.57251500       1.46798000 </v>
     <v>       2.57251500      -2.57251500       1.46798000 </v>
     <v>       2.57251500       2.57251500      -1.46798000 </v>
    </varray>
    <i name="volume">     38.85938845 </i>
    <varray name="rec_basis" >
     <v>       0.00000000       0.19436233       0.34060410 </v>
     <v>       0.19436233       0.00000000       0.34060410 </v>
     <v>       0.19436233       0.19436233       0.00000000 </v>
    </varray>
   </crystal>
   <varray name="positions" >
    <v>       0.00000000       0.00000000       0.00000000 </v>
    <v>       0.25000000       0.75000000       0.50000000 </v>
   </varray>
  </structure>
  <varray name="forces" >
   <v>       0.00000000      -0.00000000       0.00000000 </v>
   <v>      -0.00000000       0.00000000      -0.00000000 </v>
  </varray>
  <varray name="stress" >
   <v>    -149.01415937       0.00000000       0.00000000 </v>
   <v>       0.00000000    -149.01415937      -0.00000000 </v>
   <v>      -0.00000000      -0.00000000    -127.75852611 </v>
  </varray>
  <energy>
   <i name="e_fr_energy">     -9.82714878 </i>
   <i name="e_wo_entrp">     -9.81710916 </i>
   <i name="e_0_energy">     -0.02007925 </i>
  </energy>
  <time name="totalsc">    9.32    9.91</time>
  <eigenvalues>
   <array>
    <dimension dim="1">band</dimension>
    <dimension dim="2">kpoint</dimension>
    <dimension dim="3">spin</dimension>
    <field>eigene</field>
    <field>occ</field>
    <set>
     <set comment="spin 1">
      <set comment="kpoint 1">
       <r>   -5.0197    1.0000 </r>
       <r>    2.4903    1.0000 </r>
       <r>    4.8417    1.0000 </r>
       <r>    5.8580    0.9998 </r>
       <r>    9.9572    0.0000 </r>
       <r>   10.3135    0.0000 </r>
       <r>   10.7486    0.0000 </r>
       <r>   12.6823    0.0000 </r>
      </set>
      <set comment="kpoint 2">
       <r>   -4.0175    1.0000 </r>
       <r>    2.1946    1.0000 </r>
       <r>    4.9716    1.0000 </r>
       <r>    6.7723    0.0016 </r>
       <r>    7.5946    0.0000 </r>
       <r>    8.1693    0.0000 </r>
       <r>   10.9783    0.0000 </r>
       <r>   11.3612    0.0000 </r>
      </set>
      <set comment="kpoint 3">
       <r>   -2.3991    1.0000 </r>
       <r>    2.0734    1.0000 </r>
       <r>    3.7470    1.0000 </r>
       <r>    5.2022    1.0000 </r>
       <r>    6.0765    0.9759 </r>
       <r>    9.4202    0.0000 </r>
       <r>    9.6873    0.0000 </r>
       <r>   10.7609    0.0000 </r>
      </set>
      <set comment="kpoint 4">
       <r>   -0.7835    1.0000 </r>
       <r>    0.6837    1.0000 </r>
       <r>    3.4965    1.0000 </r>
       <r>    4.4105    1.0000 </r>
       <r>    5.9466    0.9981 </r>
       <r>    8.6289    0.0000 </r>
       <r>    9.9073    0.0000 </r>
       <r>   11.0727    0.0000 </r>
      </set>
      <set comment="kpoint 5">
       <r>   -5.3570    1.0000 </r>
       <r>    2.9342    1.0000 </r>
       <r>    4.2204    1.0000 </r>
       <r>    5.5667    1.0000 </r>
       <r>    9.3717    0.0000 </r>
       <r>   11.7075    0.0000 </r>
       <r>   12.9510    0.0000 </r>
       <r>   13.4217    0.0000 </r>
      </set>
      <set comment="kpoint 6">
       <r>   -2.5542    1.0000 </r>
       <r>    2.2016    1.0000 </r>
       <r>    4.2090    1.0000 </r>
       <r>    4.6592    1.0000 </r>
       <r>    7.2122    0.0000 </r>
       <r>    8.3105    0.0000 </r>
       <r>   10.3610    0.0000 </r>
       <r>   10.5045    0.0000 </r>
      </set>
      <set comment="kpoint 7">
       <r>   -0.7385    1.0000 </r>
       <r>    1.0760    1.0000 </r>
       <r>    2.4676    1.0000 </r>
       <r>    4.0134    1.0000 </r>
       <r>    7.2425    0.0000 </r>
       <r>    8.8239    0.0000 </r>
       <r>   10.0754    0.0000 </r>
       <r>   11.6057    0.0000 </r>
      </set>
      <set comment="kpoint 8">
       <r>   -1.6187    1.0000 </r>
       <r>    0.7382    1.0000 </r>
       <r>    3.0534    1.0000 </r>
       <r>    5.0815    1.0000 </r>
       <r>    6.7341    0.0037 </r>
       <r>    9.1492    0.0000 </r>
       <r>   10.9011    0.0000 </r>
       <r>   11.1184    0.0000 </r>
      </set>
      <set comment="kpoint 9">
       <r>   -3.3623    1.0000 </r>
       <r>    0.4408    1.0000 </r>
       <r>    5.2965    1.0000 </r>
       <r>    6.4331    0.2923 </r>
       <r>    7.5490    0.0000 </r>
       <r>    8.7998    0.0000 </r>
       <r>   10.0364    0.0000 </r>
       <r>   11.8366    0.0000 </r>
      </set>
      <set comment="kpoint 10">
       <r>   -4.5220    1.0000 </r>
       <r>    0.5971    1.0000 </r>
       <r>    5.2797    1.0000 </r>
       <r>    6.8200    0.0005 </r>
       <r>    9.1764    0.0000 </r>
       <r>   10.3654    0.0000 </r>
       <r>   11.5708    0.0000 </r>
       <r>   11.6491    0.0000 </r>
      </set>
      <set comment="kpoint 11">
       <r>   -5.0241    1.0000 </r>
       <r>    1.2931    1.0000 </r>
       <r>    4.2743    1.0000 </r>
       <r>    6.7507    0.0026 </r>
       <r>   10.1023    0.0000 </r>
       <r>   10.9373    0.0000 </r>
       <r>   12.5754    0.0000 </r>
       <r>   12.7380    0.0000 </r>
      </set>
      <set comment="kpoint 12">
       <r>   -4.8538    1.0000 </r>
       <r>    2.1258    1.0000 </r>
       <r>    3.8062    1.0000 </r>
       <r>    7.1760    0.0000 </r>
       <r>    9.5102    0.0000 </r>
       <r>   10.6517    0.0000 </r>
       <r>   10.6744    0.0000 </r>
       <r>   11.8657    0.0000 </r>
      </set>
      <set comment="kpoint 13">
       <r>   -0.6512    1.0000 </r>
       <r>   -0.4497    1.0000 </r>
       <r>    2.8448    1.0000 </r>
       <r>    4.9973    1.0000 </r>
       <r>    7.5630    0.0000 </r>
       <r>    8.0601    0.0000 </r>
       <r>   11.6243    0.0000 </r>
       <r>   12.1286    0.0000 </r>
      </set>
      <set comment="kpoint 14">
       <r>   -2.3889    1.0000 </r>
       <r>   -1.1112    1.0000 </r>
       <r>    5.4904    1.0000 </r>
       <r>    6.3353    0.5574 </r>
       <r>    7.7160    0.0000 </r>
       <r>    8.7400    0.0000 </r>
       <r>    9.7739    0.0000 </r>
       <r>   10.9454    0.0000 </r>
      </set>
      <set comment="kpoint 15">
       <r>   -3.6976    1.0000 </r>
       <r>   -1.1126    1.0000 </r>
       <r>    5.9937    0.9948 </r>
       <r>    7.7753    0.0000 </r>
       <r>    8.0577    0.0000 </r>
       <r>   10.1293    0.0000 </r>
       <r>   10.2548    0.0000 </r>
       <r>   10.6613    0.0000 </r>
      </set>
      <set comment="kpoint 16">
       <r>   -4.3613    1.0000 </r>
       <r>   -0.4998    1.0000 </r>
       <r>    4.8610    1.0000 </r>
       <r>    7.6871    0.0000 </r>
       <r>    8.4462    0.0000 </r>
       <r>   11.2741    0.0000 </r>
       <r>   12.4838    0.0000 </r>
       <r>   12.8972    0.0000 </r>
      </set>
      <set comment="kpoint 17">
       <r>   -4.3580    1.0000 </r>
       <r>    0.6583    1.0000 </r>
       <r>    3.8176    1.0000 </r>
       <r>    8.0662    0.0000 </r>
       <r>    8.5162    0.0000 </r>
       <r>    9.8864    0.0000 </r>
       <r>   11.4361    0.0000 </r>
       <r>   12.5519    0.0000 </r>
      </set>
      <set comment="kpoint 18">
       <r>   -3.6911    1.0000 </r>
       <r>    1.8787    1.0000 </r>
       <r>    3.7690    1.0000 </r>
       <r>    5.9818    0.9959 </r>
       <r>    8.3138    0.0000 </r>
       <r>    9.5779    0.0000 </r>
       <r>   10.1095    0.0000 </r>
       <r>   10.9008    0.0000 </r>
      </set>
      <set comment="kpoint 19">
       <r>   -2.5555    1.0000 </r>
       <r>   -2.5555    1.0000 </r>
       <r>    6.9475    0.0000 </r>
       <r>    6.9475    0.0000 </r>
       <r>    8.9139    0.0000 </r>
       <r>    8.9139    0.0000 </r>
       <r>   10.2033    0.0000 </r>
       <r>   10.2033    0.0000 </r>
      </set>
      <set comment="kpoint 20">
       <r>   -3.3755    1.0000 </r>
       <r>   -2.0795    1.0000 </r>
       <r>    5.7741    1.0000 </r>
       <r>    6.9801    0.0000 </r>
       <r>    8.7118    0.0000 </r>
       <r>    9.9223    0.0000 </r>
       <r>   12.3976    0.0000 </r>
       <r>   12.5249    0.0000 </r>
      </set>
      <set comment="kpoint 21">
       <r>   -3.5376    1.0000 </r>
       <r>   -0.9810    1.0000 </r>
       <r>    4.5033    1.0000 </r>
       <r>    6.8206    0.0005 </r>
       <r>    8.7599    0.0000 </r>
       <r>    9.8378    0.0000 </r>
       <r>   11.1653    0.0000 </r>
       <r>   12.3419    0.0000 </r>
      </set>
      <set comment="kpoint 22">
       <r>   -3.0427    1.0000 </r>
       <r>    0.6136    1.0000 </r>
       <r>    3.7895    1.0000 </r>
       <r>    5.4121    1.0000 </r>
       <r>    7.5062    0.0000 </r>
       <r>    9.2276    0.0000 </r>
       <r>   10.9885    0.0000 </r>
       <r>   11.9737    0.0000 </r>
      </set>
      <set comment="kpoint 23">
       <r>   -1.9399    1.0000 </r>
       <r>    1.6018    1.0000 </r>
       <r>    3.5486    1.0000 </r>
       <r>    4.1812    1.0000 </r>
       <r>    6.5282    0.1113 </r>
       <r>    9.0615    0.0000 </r>
       <r>    9.2582    0.0000 </r>
       <r>   11.5726    0.0000 </r>
      </set>
      <set comment="kpoint 24">
       <r>   -2.4139    1.0000 </r>
       <r>   -2.3935    1.0000 </r>
       <r>    5.4647    1.0000 </r>
       <r>    5.6065    1.0000 </r>
       <r>    8.7213    0.0000 </r>
       <r>   10.2635    0.0000 </r>
       <r>   11.1239    0.0000 </r>
       <r>   11.5902    0.0000 </r>
      </set>
      <set comment="kpoint 25">
       <r>   -2.0843    1.0000 </r>
       <r>   -0.8362    1.0000 </r>
       <r>    4.2947    1.0000 </r>
       <r>    5.2239    1.0000 </r>
       <r>    6.3574    0.4954 </r>
       <r>    8.9220    0.0000 </r>
       <r>   12.0702    0.0000 </r>
       <r>   12.9059    0.0000 </r>
      </set>
      <set comment="kpoint 26">
       <r>   -1.2042    1.0000 </r>
       <r>    0.8421    1.0000 </r>
       <r>    2.6358    1.0000 </r>
       <r>    4.5581    1.0000 </r>
       <r>    6.3992    0.3795 </r>
       <r>    7.8203    0.0000 </r>
       <r>   10.4075    0.0000 </r>
       <r>   12.8395    0.0000 </r>
      </set>
      <set comment="kpoint 27">
       <r>   -1.0289    1.0000 </r>
       <r>    0.9592    1.0000 </r>
       <r>    4.0305    1.0000 </r>
       <r>    4.8250    1.0000 </r>
       <r>    5.2441    1.0000 </r>
       <r>    8.3096    0.0000 </r>
       <r>    8.7073    0.0000 </r>
       <r>   12.0755    0.0000 </r>
      </set>
      <set comment="kpoint 28">
       <r>   -0.4484    1.0000 </r>
       <r>    0.0473    1.0000 </r>
       <r>    2.2747    1.0000 </r>
       <r>    5.2668    1.0000 </r>
       <r>    5.7265    1.0000 </r>
       <r>    7.4199    0.0000 </r>
       <r>   12.0109    0.0000 </r>
       <r>   12.3149    0.0000 </r>
      </set>
      <set comment="kpoint 29">
       <r>   -1.2363    1.0000 </r>
       <r>    1.7127    1.0000 </r>
       <r>    3.0064    1.0000 </r>
       <r>    5.1086    1.0000 </r>
       <r>    5.9067    0.9993 </r>
       <r>    7.3548    0.0000 </r>
       <r>    9.3798    0.0000 </r>
       <r>   11.2089    0.0000 </r>
      </set>
      <set comment="kpoint 30">
       <r>   -2.8748    1.0000 </r>
       <r>    3.1852    1.0000 </r>
       <r>    4.9635    1.0000 </r>
       <r>    5.0815    1.0000 </r>
       <r>    5.7650    1.0000 </r>
       <r>    8.2864    0.0000 </r>
       <r>    8.8421    0.0000 </r>
       <r>   10.8083    0.0000 </r>
      </set>
      <set comment="kpoint 31">
       <r>   -3.0344    1.0000 </r>
       <r>    3.7865    1.0000 </r>
       <r>    4.7937    1.0000 </r>
       <r>    5.4652    1.0000 </r>
       <r>    6.3614    0.4841 </r>
       <r>    7.0312    0.0000 </r>
       <r>    9.4990    0.0000 </r>
       <r>    9.6227    0.0000 </r>
      </set>
      <set comment="kpoint 32">
       <r>   -4.3467    1.0000 </r>
       <r>    3.8072    1.0000 </r>
       <r>    4.9513    1.0000 </r>
       <r>    6.2614    0.7477 </r>
       <r>    7.6994    0.0000 </r>
       <r>    8.1679    0.0000 </r>
       <r>   10.1396    0.0000 </r>
       <r>   11.1800    0.0000 </r>
      </set>
      <set comment="kpoint 33">
       <r>   -5.1861    1.0000 </r>
       <r>    4.1031    1.0000 </r>
       <r>    4.6943    1.0000 </r>
       <r>    4.6943    1.0000 </r>
       <r>    9.1920    0.0000 </r>
       <r>   10.7270    0.0000 </r>
       <r>   10.9733    0.0000 </r>
       <r>   12.9085    0.0000 </r>
      </set>
      <set comment="kpoint 34">
       <r>   -1.7628    1.0000 </r>
       <r>    0.6682    1.0000 </r>
       <r>    3.8667    1.0000 </r>
       <r>    4.0739    1.0000 </r>
       <r>    8.1892    0.0000 </r>
       <r>    9.4069    0.0000 </r>
       <r>   10.7811    0.0000 </r>
       <r>   11.0956    0.0000 </r>
      </set>
      <set comment="kpoint 35">
       <r>   -0.1887    1.0000 </r>
       <r>    0.6769    1.0000 </r>
       <r>    2.2303    1.0000 </r>
       <r>    2.9901    1.0000 </r>
       <r>    8.7577    0.0000 </r>
       <r>   10.5110    0.0000 </r>
       <r>   10.6015    0.0000 </r>
       <r>   11.0375    0.0000 </r>
      </set>
      <set comment="kpoint 36">
       <r>   -4.6936    1.0000 </r>
       <r>    0.9964    1.0000 </r>
       <r>    2.9025    1.0000 </r>
       <r>    8.3104    0.0000 </r>
       <r>    8.5699    0.0000 </r>
       <r>   11.9236    0.0000 </r>
       <r>   12.4032    0.0000 </r>
       <r>   12.4537    0.0000 </r>
      </set>
      <set comment="kpoint 37">
       <r>   -0.6772    1.0000 </r>
       <r>   -0.6772    1.0000 </r>
       <r>    3.8128    1.0000 </r>
       <r>    3.8128    1.0000 </r>
       <r>    9.3545    0.0000 </r>
       <r>    9.3545    0.0000 </r>
       <r>   10.5056    0.0000 </r>
       <r>   10.5056    0.0000 </r>
      </set>
      <set comment="kpoint 38">
       <r>   -4.0365    1.0000 </r>
       <r>   -0.3074    1.0000 </r>
       <r>    2.9790    1.0000 </r>
       <r>    6.5496    0.0853 </r>
       <r>    9.8347    0.0000 </r>
       <r>   11.8287    0.0000 </r>
       <r>   12.1960    0.0000 </r>
       <r>   13.8105    0.0000 </r>
      </set>
      <set comment="kpoint 39">
       <r>   -3.8686    1.0000 </r>
       <r>    0.4872    1.0000 </r>
       <r>    2.5082    1.0000 </r>
       <r>    6.5833    0.0538 </r>
       <r>    8.5895    0.0000 </r>
       <r>   10.7547    0.0000 </r>
       <r>   12.2279    0.0000 </r>
       <r>   13.2823    0.0000 </r>
      </set>
      <set comment="kpoint 40">
       <r>   -3.0626    1.0000 </r>
       <r>   -1.7950    1.0000 </r>
       <r>    3.8137    1.0000 </r>
       <r>    5.0298    1.0000 </r>
       <r>   10.7184    0.0000 </r>
       <r>   11.3265    0.0000 </r>
       <r>   12.2659    0.0000 </r>
       <r>   12.8863    0.0000 </r>
      </set>
      <set comment="kpoint 41">
       <r>   -3.0624    1.0000 </r>
       <r>   -0.6423    1.0000 </r>
       <r>    2.6930    1.0000 </r>
       <r>    4.9975    1.0000 </r>
       <r>    8.1497    0.0000 </r>
       <r>   11.8193    0.0000 </r>
       <r>   12.6661    0.0000 </r>
       <r>   14.1439    0.0000 </r>
      </set>
      <set comment="kpoint 42">
       <r>   -2.4119    1.0000 </r>
       <r>    0.5648    1.0000 </r>
       <r>    2.6921    1.0000 </r>
       <r>    4.6360    1.0000 </r>
       <r>    6.0454    0.9859 </r>
       <r>   10.1334    0.0000 </r>
       <r>   12.0779    0.0000 </r>
       <r>   12.9449    0.0000 </r>
      </set>
      <set comment="kpoint 43">
       <r>   -1.9837    1.0000 </r>
       <r>   -1.9394    1.0000 </r>
       <r>    3.6120    1.0000 </r>
       <r>    3.7056    1.0000 </r>
       <r>    7.9957    0.0000 </r>
       <r>   11.9955    0.0000 </r>
       <r>   13.5336    0.0000 </r>
       <r>   13.5517    0.0000 </r>
      </set>
      <set comment="kpoint 44">
       <r>   -1.4970    1.0000 </r>
       <r>   -0.3582    1.0000 </r>
       <r>    2.9340    1.0000 </r>
       <r>    3.8809    1.0000 </r>
       <r>    5.0773    1.0000 </r>
       <r>   10.3945    0.0000 </r>
       <r>   13.2540    0.0000 </r>
       <r>   14.0207    0.0000 </r>
      </set>
      <set comment="kpoint 45">
       <r>   -0.6115    1.0000 </r>
       <r>    0.8073    1.0000 </r>
       <r>    2.6650    1.0000 </r>
       <r>    3.4407    1.0000 </r>
       <r>    5.3080    1.0000 </r>
       <r>    8.5095    0.0000 </r>
       <r>   10.4721    0.0000 </r>
       <r>   13.1190    0.0000 </r>
      </set>
      <set comment="kpoint 46">
       <r>   -0.2367    1.0000 </r>
       <r>    0.7613    1.0000 </r>
       <r>    2.2643    1.0000 </r>
       <r>    3.9553    1.0000 </r>
       <r>    4.1674    1.0000 </r>
       <r>    8.8141    0.0000 </r>
       <r>   11.5966    0.0000 </r>
       <r>   11.9351    0.0000 </r>
      </set>
      <set comment="kpoint 47">
       <r>   -1.5077    1.0000 </r>
       <r>    2.5474    1.0000 </r>
       <r>    3.4777    1.0000 </r>
       <r>    4.6047    1.0000 </r>
       <r>    5.2857    1.0000 </r>
       <r>    7.4183    0.0000 </r>
       <r>    9.3635    0.0000 </r>
       <r>   10.3275    0.0000 </r>
      </set>
      <set comment="kpoint 48">
       <r>   -3.1953    1.0000 </r>
       <r>    5.0562    1.0000 </r>
       <r>    5.4802    1.0000 </r>
       <r>    5.4802    1.0000 </r>
       <r>    5.6118    1.0000 </r>
       <r>    6.3501    0.5160 </r>
       <r>    9.2679    0.0000 </r>
       <r>    9.2679    0.0000 </r>
      </set>
      <set comment="kpoint 49">
       <r>   -3.3939    1.0000 </r>
       <r>   -0.3290    1.0000 </r>
       <r>    1.7679    1.0000 </r>
       <r>    4.7441    1.0000 </r>
       <r>   10.9536    0.0000 </r>
       <r>   11.3903    0.0000 </r>
       <r>   12.7944    0.0000 </r>
       <r>   15.1586    0.0000 </r>
      </set>
      <set comment="kpoint 50">
       <r>   -2.4547    1.0000 </r>
       <r>   -1.2952    1.0000 </r>
       <r>    2.0917    1.0000 </r>
       <r>    3.2223    1.0000 </r>
       <r>   10.9938    0.0000 </r>
       <r>   11.0865    0.0000 </r>
       <r>   14.0062    0.0000 </r>
       <r>   14.9659    0.0000 </r>
      </set>
      <set comment="kpoint 51">
       <r>   -2.2925    1.0000 </r>
       <r>   -0.5107    1.0000 </r>
       <r>    1.6317    1.0000 </r>
       <r>    3.3620    1.0000 </r>
       <r>    7.6883    0.0000 </r>
       <r>   12.9313    0.0000 </r>
       <r>   14.3745    0.0000 </r>
       <r>   14.9675    0.0000 </r>
      </set>
      <set comment="kpoint 52">
       <r>   -1.3427    1.0000 </r>
       <r>   -1.2641    1.0000 </r>
       <r>    2.0736    1.0000 </r>
       <r>    2.1155    1.0000 </r>
       <r>    7.5322    0.0000 </r>
       <r>   13.1339    0.0000 </r>
       <r>   15.2219    0.0000 </r>
       <r>   15.4278    0.0000 </r>
      </set>
      <set comment="kpoint 53">
       <r>   -0.7247    1.0000 </r>
       <r>   -0.0651    1.0000 </r>
       <r>    2.1120    1.0000 </r>
       <r>    2.6637    1.0000 </r>
       <r>    4.5320    1.0000 </r>
       <r>   11.6497    0.0000 </r>
       <r>   13.4495    0.0000 </r>
       <r>   14.1962    0.0000 </r>
      </set>
      <set comment="kpoint 54">
       <r>   -0.1628    1.0000 </r>
       <r>    1.2775    1.0000 </r>
       <r>    2.7283    1.0000 </r>
       <r>    3.1722    1.0000 </r>
       <r>    3.1722    1.0000 </r>
       <r>    9.8685    0.0000 </r>
       <r>   11.4439    0.0000 </r>
       <r>   11.4439    0.0000 </r>
      </set>
      <set comment="kpoint 55">
       <r>   -1.6276    1.0000 </r>
       <r>   -0.9987    1.0000 </r>
       <r>    1.1676    1.0000 </r>
       <r>    1.7870    1.0000 </r>
       <r>   10.8172    0.0000 </r>
       <r>   10.8384    0.0000 </r>
       <r>   15.8194    0.0000 </r>
       <r>   16.3018    0.0000 </r>
      </set>
      <set comment="kpoint 56">
       <r>   -0.9034    1.0000 </r>
       <r>   -0.7884    1.0000 </r>
       <r>    1.3305    1.0000 </r>
       <r>    1.3305    1.0000 </r>
       <r>    7.3760    0.0000 </r>
       <r>   13.4458    0.0000 </r>
       <r>   15.8677    0.0000 </r>
       <r>   15.8677    0.0000 </r>
      </set>
     </set>
    </set>
   </array>
  </eigenvalues>
  <separator name="orbital magnetization" >
   <v name="MAGDIPOLOUT">      0.00000000      0.00000000      0.00000000</v>
  </separator>
  <dos>
   <i name="efermi">      6.35575490 </i>
   <total>
    <array>
     <dimension dim="1">gridpoints</dimension>
     <dimension dim="2">spin</dimension>
     <field>energy</field>
     <field>total</field>
     <field>integrated</field>
     <set>
      <set comment="spin 1">
       <r>    -7.3570     0.0000     0.0000 </r>
       <r>    -7.2715     0.0000     0.0000 </r>
       <r>    -7.1860     0.0000     0.0000 </r>
       <r>    -7.1004     0.0000     0.0000 </r>
       <r>    -7.0149     0.0000     0.0000 </r>
       <r>    -6.9294     0.0000     0.0000 </r>
       <r>    -6.8438     0.0000     0.0000 </r>
       <r>    -6.7583     0.0000     0.0000 </r>
       <r>    -6.6728     0.0000     0.0000 </r>
       <r>    -6.5873     0.0000     0.0000 </r>
       <r>    -6.5017     0.0000     0.0000 </r>
       <r>    -6.4162     0.0000     0.0000 </r>
       <r>    -6.3307     0.0000     0.0000 </r>
       <r>    -6.2451     0.0000     0.0000 </r>
       <r>    -6.1596     0.0000     0.0000 </r>
       <r>    -6.0741     0.0000     0.0000 </r>
       <r>    -5.9885     0.0000     0.0000 </r>
       <r>    -5.9030     0.0000     0.0000 </r>
       <r>    -5.8175     0.0001     0.0000 </r>
       <r>    -5.7320     0.0006     0.0001 </r>
       <r>    -5.6464     0.0030     0.0003 </r>
       <r>    -5.5609     0.0103     0.0012 </r>
       <r>    -5.4754     0.0251     0.0033 </r>
       <r>    -5.3898     0.0457     0.0073 </r>
       <r>    -5.3043     0.0685     0.0131 </r>
       <r>    -5.2188     0.0984     0.0215 </r>
       <r>    -5.1333     0.1460     0.0340 </r>
       <r>    -5.0477     0.2034     0.0514 </r>
       <r>    -4.9622     0.2387     0.0718 </r>
       <r>    -4.8767     0.2318     0.0917 </r>
       <r>    -4.7911     0.1973     0.1085 </r>
       <r>    -4.7056     0.1686     0.1230 </r>
       <r>    -4.6201     0.1751     0.1379 </r>
       <r>    -4.5345     0.2331     0.1579 </r>
       <r>    -4.4490     0.3283     0.1859 </r>
       <r>    -4.3635     0.4035     0.2205 </r>
       <r>    -4.2780     0.4024     0.2549 </r>
       <r>    -4.1924     0.3476     0.2846 </r>
       <r>    -4.1069     0.3181     0.3118 </r>
       <r>    -4.0214     0.3354     0.3405 </r>
       <r>    -3.9358     0.3493     0.3704 </r>
       <r>    -3.8503     0.3347     0.3990 </r>
       <r>    -3.7648     0.3235     0.4267 </r>
       <r>    -3.6793     0.3423     0.4559 </r>
       <r>    -3.5937     0.3829     0.4887 </r>
       <r>    -3.5082     0.4276     0.5253 </r>
       <r>    -3.4227     0.4596     0.5646 </r>
       <r>    -3.3371     0.4616     0.6041 </r>
       <r>    -3.2516     0.4517     0.6427 </r>
       <r>    -3.1661     0.4873     0.6844 </r>
       <r>    -3.0805     0.5690     0.7330 </r>
       <r>    -2.9950     0.5965     0.7840 </r>
       <r>    -2.9095     0.4992     0.8267 </r>
       <r>    -2.8240     0.3386     0.8557 </r>
       <r>    -2.7384     0.2351     0.8758 </r>
       <r>    -2.6529     0.2677     0.8987 </r>
       <r>    -2.5674     0.4454     0.9368 </r>
       <r>    -2.4818     0.6931     0.9961 </r>
       <r>    -2.3963     0.8610     1.0697 </r>
       <r>    -2.3108     0.8386     1.1415 </r>
       <r>    -2.2253     0.6852     1.2001 </r>
       <r>    -2.1397     0.5630     1.2482 </r>
       <r>    -2.0542     0.5403     1.2944 </r>
       <r>    -1.9687     0.5515     1.3416 </r>
       <r>    -1.8831     0.5313     1.3870 </r>
       <r>    -1.7976     0.4943     1.4293 </r>
       <r>    -1.7121     0.4868     1.4709 </r>
       <r>    -1.6265     0.5203     1.5155 </r>
       <r>    -1.5410     0.5658     1.5638 </r>
       <r>    -1.4555     0.6046     1.6155 </r>
       <r>    -1.3700     0.6656     1.6725 </r>
       <r>    -1.2844     0.7744     1.7387 </r>
       <r>    -1.1989     0.8857     1.8145 </r>
       <r>    -1.1134     0.9263     1.8937 </r>
       <r>    -1.0278     0.8888     1.9697 </r>
       <r>    -0.9423     0.8396     2.0415 </r>
       <r>    -0.8568     0.8524     2.1144 </r>
       <r>    -0.7713     0.9356     2.1945 </r>
       <r>    -0.6857     1.0152     2.2813 </r>
       <r>    -0.6002     1.0158     2.3682 </r>
       <r>    -0.5147     0.9443     2.4489 </r>
       <r>    -0.4291     0.8560     2.5221 </r>
       <r>    -0.3436     0.7703     2.5880 </r>
       <r>    -0.2581     0.6673     2.6451 </r>
       <r>    -0.1725     0.5410     2.6914 </r>
       <r>    -0.0870     0.4131     2.7267 </r>
       <r>    -0.0015     0.3031     2.7526 </r>
       <r>     0.0840     0.2130     2.7708 </r>
       <r>     0.1696     0.1477     2.7835 </r>
       <r>     0.2551     0.1377     2.7953 </r>
       <r>     0.3406     0.2239     2.8144 </r>
       <r>     0.4262     0.4228     2.8506 </r>
       <r>     0.5117     0.7072     2.9111 </r>
       <r>     0.5972     1.0009     2.9967 </r>
       <r>     0.6827     1.1873     3.0982 </r>
       <r>     0.7683     1.1756     3.1988 </r>
       <r>     0.8538     0.9903     3.2835 </r>
       <r>     0.9393     0.7539     3.3480 </r>
       <r>     1.0249     0.5694     3.3966 </r>
       <r>     1.1104     0.4520     3.4353 </r>
       <r>     1.1959     0.3704     3.4670 </r>
       <r>     1.2814     0.3025     3.4929 </r>
       <r>     1.3670     0.2464     3.5139 </r>
       <r>     1.4525     0.2217     3.5329 </r>
       <r>     1.5380     0.2591     3.5551 </r>
       <r>     1.6236     0.3512     3.5851 </r>
       <r>     1.7091     0.4355     3.6224 </r>
       <r>     1.7946     0.4634     3.6620 </r>
       <r>     1.8802     0.4753     3.7026 </r>
       <r>     1.9657     0.5707     3.7515 </r>
       <r>     2.0512     0.7815     3.8183 </r>
       <r>     2.1367     0.9921     3.9031 </r>
       <r>     2.2223     1.0460     3.9926 </r>
       <r>     2.3078     0.9319     4.0723 </r>
       <r>     2.3933     0.8006     4.1408 </r>
       <r>     2.4789     0.7871     4.2081 </r>
       <r>     2.5644     0.8768     4.2831 </r>
       <r>     2.6499     0.9562     4.3649 </r>
       <r>     2.7354     0.9522     4.4463 </r>
       <r>     2.8210     0.9094     4.5241 </r>
       <r>     2.9065     0.9125     4.6021 </r>
       <r>     2.9920     0.9409     4.6826 </r>
       <r>     3.0776     0.8920     4.7589 </r>
       <r>     3.1631     0.7429     4.8224 </r>
       <r>     3.2486     0.5813     4.8722 </r>
       <r>     3.3342     0.4969     4.9147 </r>
       <r>     3.4197     0.5105     4.9583 </r>
       <r>     3.5052     0.5981     5.0095 </r>
       <r>     3.5907     0.7616     5.0746 </r>
       <r>     3.6763     1.0363     5.1633 </r>
       <r>     3.7618     1.3665     5.2801 </r>
       <r>     3.8473     1.5566     5.4133 </r>
       <r>     3.9329     1.4777     5.5397 </r>
       <r>     4.0184     1.2330     5.6451 </r>
       <r>     4.1039     1.0113     5.7316 </r>
       <r>     4.1894     0.8843     5.8072 </r>
       <r>     4.2750     0.8133     5.8768 </r>
       <r>     4.3605     0.7688     5.9426 </r>
       <r>     4.4460     0.7732     6.0087 </r>
       <r>     4.5316     0.8285     6.0796 </r>
       <r>     4.6171     0.8762     6.1545 </r>
       <r>     4.7026     0.8883     6.2305 </r>
       <r>     4.7882     0.9336     6.3103 </r>
       <r>     4.8737     1.0972     6.4042 </r>
       <r>     4.9592     1.3658     6.5210 </r>
       <r>     5.0447     1.6197     6.6595 </r>
       <r>     5.1303     1.7429     6.8086 </r>
       <r>     5.2158     1.7168     6.9554 </r>
       <r>     5.3013     1.5847     7.0910 </r>
       <r>     5.3869     1.3868     7.2096 </r>
       <r>     5.4724     1.1566     7.3085 </r>
       <r>     5.5579     0.9294     7.3880 </r>
       <r>     5.6434     0.7516     7.4523 </r>
       <r>     5.7290     0.6734     7.5098 </r>
       <r>     5.8145     0.7011     7.5698 </r>
       <r>     5.9000     0.7758     7.6362 </r>
       <r>     5.9856     0.8133     7.7057 </r>
       <r>     6.0711     0.7720     7.7718 </r>
       <r>     6.1566     0.7109     7.8326 </r>
       <r>     6.2422     0.7445     7.8962 </r>
       <r>     6.3277     0.8892     7.9723 </r>
       <r>     6.4132     1.0094     8.0586 </r>
       <r>     6.4987     0.9888     8.1432 </r>
       <r>     6.5843     0.8847     8.2189 </r>
       <r>     6.6698     0.8338     8.2902 </r>
       <r>     6.7553     0.8609     8.3638 </r>
       <r>     6.8409     0.8627     8.4376 </r>
       <r>     6.9264     0.7695     8.5034 </r>
       <r>     7.0119     0.6355     8.5578 </r>
       <r>     7.0974     0.5582     8.6055 </r>
       <r>     7.1830     0.5794     8.6551 </r>
       <r>     7.2685     0.6766     8.7129 </r>
       <r>     7.3540     0.8141     8.7826 </r>
       <r>     7.4396     0.9745     8.8659 </r>
       <r>     7.5251     1.1280     8.9624 </r>
       <r>     7.6106     1.2111     9.0660 </r>
       <r>     7.6962     1.1710     9.1661 </r>
       <r>     7.7817     1.0182     9.2532 </r>
       <r>     7.8672     0.8417     9.3252 </r>
       <r>     7.9527     0.7715     9.3912 </r>
       <r>     8.0383     0.8658     9.4653 </r>
       <r>     8.1238     1.0322     9.5535 </r>
       <r>     8.2093     1.1167     9.6490 </r>
       <r>     8.2949     1.0618     9.7399 </r>
       <r>     8.3804     0.9431     9.8205 </r>
       <r>     8.4659     0.8801     9.8958 </r>
       <r>     8.5514     0.9478     9.9769 </r>
       <r>     8.6370     1.1472    10.0750 </r>
       <r>     8.7225     1.3899    10.1939 </r>
       <r>     8.8080     1.5053    10.3226 </r>
       <r>     8.8936     1.3769    10.4404 </r>
       <r>     8.9791     1.0949    10.5340 </r>
       <r>     9.0646     0.8781    10.6091 </r>
       <r>     9.1502     0.8508    10.6819 </r>
       <r>     9.2357     0.9626    10.7642 </r>
       <r>     9.3212     1.0892    10.8574 </r>
       <r>     9.4067     1.1328    10.9543 </r>
       <r>     9.4923     1.0649    11.0453 </r>
       <r>     9.5778     0.9480    11.1264 </r>
       <r>     9.6633     0.8922    11.2027 </r>
       <r>     9.7489     0.9527    11.2842 </r>
       <r>     9.8344     1.0854    11.3771 </r>
       <r>     9.9199     1.2064    11.4802 </r>
       <r>    10.0054     1.2764    11.5894 </r>
       <r>    10.0910     1.3042    11.7010 </r>
       <r>    10.1765     1.3025    11.8124 </r>
       <r>    10.2620     1.2934    11.9230 </r>
       <r>    10.3476     1.2970    12.0339 </r>
       <r>    10.4331     1.2862    12.1439 </r>
       <r>    10.5186     1.2391    12.2499 </r>
       <r>    10.6042     1.2152    12.3538 </r>
       <r>    10.6897     1.2902    12.4642 </r>
       <r>    10.7752     1.4557    12.5887 </r>
       <r>    10.8607     1.6478    12.7296 </r>
       <r>    10.9463     1.8073    12.8842 </r>
       <r>    11.0318     1.8712    13.0443 </r>
       <r>    11.1173     1.7882    13.1972 </r>
       <r>    11.2029     1.5740    13.3318 </r>
       <r>    11.2884     1.3184    13.4446 </r>
       <r>    11.3739     1.1291    13.5412 </r>
       <r>    11.4594     1.0647    13.6322 </r>
       <r>    11.5450     1.1022    13.7265 </r>
       <r>    11.6305     1.1564    13.8254 </r>
       <r>    11.7160     1.1661    13.9251 </r>
       <r>    11.8016     1.1622    14.0245 </r>
       <r>    11.8871     1.1918    14.1265 </r>
       <r>    11.9726     1.2264    14.2314 </r>
       <r>    12.0582     1.2037    14.3343 </r>
       <r>    12.1437     1.1106    14.4293 </r>
       <r>    12.2292     0.9995    14.5148 </r>
       <r>    12.3147     0.9283    14.5942 </r>
       <r>    12.4003     0.9068    14.6718 </r>
       <r>    12.4858     0.9107    14.7496 </r>
       <r>    12.5713     0.9177    14.8281 </r>
       <r>    12.6569     0.9230    14.9071 </r>
       <r>    12.7424     0.9457    14.9880 </r>
       <r>    12.8279     0.9898    15.0726 </r>
       <r>    12.9134     0.9931    15.1576 </r>
       <r>    12.9990     0.8888    15.2336 </r>
       <r>    13.0845     0.7182    15.2950 </r>
       <r>    13.1700     0.5851    15.3451 </r>
       <r>    13.2556     0.5220    15.3897 </r>
       <r>    13.3411     0.4895    15.4316 </r>
       <r>    13.4266     0.4565    15.4706 </r>
       <r>    13.5122     0.4101    15.5057 </r>
       <r>    13.5977     0.3386    15.5346 </r>
       <r>    13.6832     0.2565    15.5566 </r>
       <r>    13.7687     0.2099    15.5745 </r>
       <r>    13.8543     0.2318    15.5944 </r>
       <r>    13.9398     0.3165    15.6214 </r>
       <r>    14.0253     0.4205    15.6574 </r>
       <r>    14.1109     0.4795    15.6984 </r>
       <r>    14.1964     0.4524    15.7371 </r>
       <r>    14.2819     0.3570    15.7676 </r>
       <r>    14.3674     0.2446    15.7885 </r>
       <r>    14.4530     0.1500    15.8014 </r>
       <r>    14.5385     0.0811    15.8083 </r>
       <r>    14.6240     0.0397    15.8117 </r>
       <r>    14.7096     0.0313    15.8144 </r>
       <r>    14.7951     0.0610    15.8196 </r>
       <r>    14.8806     0.1226    15.8301 </r>
       <r>    14.9661     0.1875    15.8461 </r>
       <r>    15.0517     0.2217    15.8651 </r>
       <r>    15.1372     0.2206    15.8840 </r>
       <r>    15.2227     0.2034    15.9013 </r>
       <r>    15.3083     0.1816    15.9169 </r>
       <r>    15.3938     0.1560    15.9302 </r>
       <r>    15.4793     0.1243    15.9409 </r>
       <r>    15.5649     0.0891    15.9485 </r>
       <r>    15.6504     0.0654    15.9541 </r>
       <r>    15.7359     0.0664    15.9597 </r>
       <r>    15.8214     0.0820    15.9668 </r>
       <r>    15.9070     0.0860    15.9741 </r>
       <r>    15.9925     0.0679    15.9799 </r>
       <r>    16.0780     0.0438    15.9837 </r>
       <r>    16.1636     0.0336    15.9865 </r>
       <r>    16.2491     0.0386    15.9898 </r>
       <r>    16.3346     0.0441    15.9936 </r>
       <r>    16.4201     0.0379    15.9969 </r>
       <r>    16.5057     0.0231    15.9988 </r>
       <r>    16.5912     0.0099    15.9997 </r>
       <r>    16.6767     0.0030    15.9999 </r>
       <r>    16.7623     0.0006    16.0000 </r>
       <r>    16.8478     0.0001    16.0000 </r>
       <r>    16.9333     0.0000    16.0000 </r>
       <r>    17.0189     0.0000    16.0000 </r>
       <r>    17.1044     0.0000    16.0000 </r>
       <r>    17.1899     0.0000    16.0000 </r>
       <r>    17.2754     0.0000    16.0000 </r>
       <r>    17.3610     0.0000    16.0000 </r>
       <r>    17.4465     0.0000    16.0000 </r>
       <r>    17.5320     0.0000    16.0000 </r>
       <r>    17.6176     0.0000    16.0000 </r>
       <r>    17.7031     0.0000    16.0000 </r>
       <r>    17.7886     0.0000    16.0000 </r>
       <r>    17.8741     0.0000    16.0000 </r>
       <r>    17.9597     0.0000    16.0000 </r>
       <r>    18.0452     0.0000    16.0000 </r>
       <r>    18.1307     0.0000    16.0000 </r>
       <r>    18.2163     0.0000    16.0000 </r>
       <r>    18.3018     0.0000    16.0000 </r>
      </set>
     </set>
    </array>
   </total>
  </dos>
 </calculation>
 <structure name="finalpos" >
  <crystal>
   <varray name="basis" >
    <v>      -2.57251500       2.57251500       1.46798000 </v>
    <v>       2.57251500      -2.57251500       1.46798000 </v>
    <v>       2.57251500       2.57251500      -1.46798000 </v>
   </varray>
   <i name="volume">     38.85938845 </i>
   <varray name="rec_basis" >
    <v>       0.00000000       0.19436233       0.34060410 </v>
    <v>       0.19436233       0.00000000       0.34060410 </v>
    <v>       0.19436233       0.19436233       0.00000000 </v>
   </varray>
  </crystal>
  <varray name="positions" >
   <v>       0.00000000       0.00000000       0.00000000 </v>
   <v>       0.25000000       0.75000000       0.50000000 </v>
  </varray>
 </structure>
</modeling>
