   2   2   0   0
  0.2001288E+02  0.3839590E-09  0.3839590E-09  0.3839590E-09  0.5000000E-15
  1.000000000000000E-004
  CAR 
 unknown system                          
     16.73627877     -8.19650006  301      5.90568351      1.00000000
     -8.197  0.0000E+00  0.0000E+00
     -8.113  0.0000E+00  0.0000E+00
     -8.030  0.0000E+00  0.0000E+00
     -7.947  0.0000E+00  0.0000E+00
     -7.864  0.0000E+00  0.0000E+00
     -7.781  0.0000E+00  0.0000E+00
     -7.698  0.0000E+00  0.0000E+00
     -7.615  0.0000E+00  0.0000E+00
     -7.532  0.0000E+00  0.0000E+00
     -7.449  0.0000E+00  0.0000E+00
     -7.365  0.2596E-18  0.2158E-19
     -7.282  0.3765E-16  0.3150E-17
     -7.199  0.3097E-14  0.2605E-15
     -7.116  0.1817E-12  0.1536E-13
     -7.033  0.7589E-11  0.6461E-12
     -6.950  0.2257E-09  0.1940E-10
     -6.867  0.4780E-08  0.4167E-09
     -6.784  0.7219E-07  0.6417E-08
     -6.701  0.7780E-06  0.7107E-07
     -6.617  0.5993E-05  0.5691E-06
     -6.534  0.3313E-04  0.3323E-05
     -6.451  0.1329E-03  0.1437E-04
     -6.368  0.3977E-03  0.4742E-04
     -6.285  0.9499E-03  0.1264E-03
     -6.202  0.2026E-02  0.2947E-03
     -6.119  0.4166E-02  0.6409E-03
     -6.036  0.7852E-02  0.1293E-02
     -5.953  0.1221E-01  0.2309E-02
     -5.869  0.1479E-01  0.3538E-02
     -5.786  0.1408E-01  0.4707E-02
     -5.703  0.1198E-01  0.5703E-02
     -5.620  0.1193E-01  0.6694E-02
     -5.537  0.1506E-01  0.7946E-02
     -5.454  0.2019E-01  0.9624E-02
     -5.371  0.2669E-01  0.1184E-01
     -5.288  0.3353E-01  0.1463E-01
     -5.205  0.3634E-01  0.1765E-01
     -5.121  0.3118E-01  0.2024E-01
     -5.038  0.2095E-01  0.2198E-01
     -4.955  0.1301E-01  0.2306E-01
     -4.872  0.1207E-01  0.2407E-01
     -4.789  0.1853E-01  0.2561E-01
     -4.706  0.3058E-01  0.2815E-01
     -4.623  0.4394E-01  0.3180E-01
     -4.540  0.5201E-01  0.3612E-01
     -4.457  0.5147E-01  0.4040E-01
     -4.373  0.4657E-01  0.4427E-01
     -4.290  0.4312E-01  0.4785E-01
     -4.207  0.4101E-01  0.5126E-01
     -4.124  0.3775E-01  0.5440E-01
     -4.041  0.3528E-01  0.5733E-01
     -3.958  0.3706E-01  0.6041E-01
     -3.875  0.4274E-01  0.6396E-01
     -3.792  0.5029E-01  0.6814E-01
     -3.709  0.5877E-01  0.7303E-01
     -3.625  0.6692E-01  0.7859E-01
     -3.542  0.7143E-01  0.8453E-01
     -3.459  0.6739E-01  0.9013E-01
     -3.376  0.5326E-01  0.9455E-01
     -3.293  0.3671E-01  0.9760E-01
     -3.210  0.2955E-01  0.1001E+00
     -3.127  0.3597E-01  0.1030E+00
     -3.044  0.4839E-01  0.1071E+00
     -2.961  0.5401E-01  0.1116E+00
     -2.878  0.4637E-01  0.1154E+00
     -2.794  0.3158E-01  0.1180E+00
     -2.711  0.2138E-01  0.1198E+00
     -2.628  0.2109E-01  0.1216E+00
     -2.545  0.2585E-01  0.1237E+00
     -2.462  0.2764E-01  0.1260E+00
     -2.379  0.2439E-01  0.1280E+00
     -2.296  0.2017E-01  0.1297E+00
     -2.213  0.1782E-01  0.1312E+00
     -2.130  0.1657E-01  0.1326E+00
     -2.046  0.1584E-01  0.1339E+00
     -1.963  0.1560E-01  0.1352E+00
     -1.880  0.1444E-01  0.1364E+00
     -1.797  0.1153E-01  0.1373E+00
     -1.714  0.9480E-02  0.1381E+00
     -1.631  0.1208E-01  0.1391E+00
     -1.548  0.1958E-01  0.1408E+00
     -1.465  0.2766E-01  0.1431E+00
     -1.382  0.3345E-01  0.1458E+00
     -1.298  0.4162E-01  0.1493E+00
     -1.215  0.5822E-01  0.1541E+00
     -1.132  0.7786E-01  0.1606E+00
     -1.049  0.8664E-01  0.1678E+00
     -0.966  0.8086E-01  0.1745E+00
     -0.883  0.7195E-01  0.1805E+00
     -0.800  0.6845E-01  0.1862E+00
     -0.717  0.6448E-01  0.1916E+00
     -0.634  0.5258E-01  0.1959E+00
     -0.550  0.3750E-01  0.1990E+00
     -0.467  0.2932E-01  0.2015E+00
     -0.384  0.3049E-01  0.2040E+00
     -0.301  0.3549E-01  0.2070E+00
     -0.218  0.3846E-01  0.2102E+00
     -0.135  0.3820E-01  0.2133E+00
     -0.052  0.3627E-01  0.2164E+00
      0.031  0.3226E-01  0.2190E+00
      0.114  0.2534E-01  0.2211E+00
      0.198  0.1909E-01  0.2227E+00
      0.281  0.1874E-01  0.2243E+00
      0.364  0.2376E-01  0.2263E+00
      0.447  0.2781E-01  0.2286E+00
      0.530  0.2724E-01  0.2308E+00
      0.613  0.2568E-01  0.2330E+00
      0.696  0.2691E-01  0.2352E+00
      0.779  0.2799E-01  0.2375E+00
      0.862  0.2430E-01  0.2395E+00
      0.946  0.1741E-01  0.2410E+00
      1.029  0.1241E-01  0.2420E+00
      1.112  0.1100E-01  0.2429E+00
      1.195  0.1185E-01  0.2439E+00
      1.278  0.1600E-01  0.2453E+00
      1.361  0.2693E-01  0.2475E+00
      1.444  0.4419E-01  0.2512E+00
      1.527  0.5991E-01  0.2561E+00
      1.610  0.6544E-01  0.2616E+00
      1.694  0.6142E-01  0.2667E+00
      1.777  0.5914E-01  0.2716E+00
      1.860  0.6970E-01  0.2774E+00
      1.943  0.9052E-01  0.2849E+00
      2.026  0.1047E+00  0.2936E+00
      2.109  0.9729E-01  0.3017E+00
      2.192  0.7173E-01  0.3077E+00
      2.275  0.4850E-01  0.3117E+00
      2.358  0.4743E-01  0.3156E+00
      2.441  0.7168E-01  0.3216E+00
      2.525  0.1029E+00  0.3301E+00
      2.608  0.1141E+00  0.3396E+00
      2.691  0.9712E-01  0.3477E+00
      2.774  0.7188E-01  0.3537E+00
      2.857  0.6293E-01  0.3589E+00
      2.940  0.7227E-01  0.3649E+00
      3.023  0.8288E-01  0.3718E+00
      3.106  0.8490E-01  0.3789E+00
      3.189  0.8851E-01  0.3862E+00
      3.273  0.1053E+00  0.3950E+00
      3.356  0.1260E+00  0.4054E+00
      3.439  0.1295E+00  0.4162E+00
      3.522  0.1094E+00  0.4253E+00
      3.605  0.8107E-01  0.4320E+00
      3.688  0.6348E-01  0.4373E+00
      3.771  0.6383E-01  0.4426E+00
      3.854  0.7852E-01  0.4491E+00
      3.937  0.9896E-01  0.4574E+00
      4.021  0.1149E+00  0.4669E+00
      4.104  0.1169E+00  0.4766E+00
      4.187  0.1005E+00  0.4850E+00
      4.270  0.7171E-01  0.4909E+00
      4.353  0.4642E-01  0.4948E+00
      4.436  0.3674E-01  0.4978E+00
      4.519  0.4219E-01  0.5013E+00
      4.602  0.5353E-01  0.5058E+00
      4.685  0.5994E-01  0.5108E+00
      4.769  0.5449E-01  0.5153E+00
      4.852  0.3901E-01  0.5185E+00
      4.935  0.2256E-01  0.5204E+00
      5.018  0.1373E-01  0.5216E+00
      5.101  0.1526E-01  0.5228E+00
      5.184  0.2330E-01  0.5248E+00
      5.267  0.2967E-01  0.5272E+00
      5.350  0.2796E-01  0.5296E+00
      5.433  0.1958E-01  0.5312E+00
      5.517  0.1102E-01  0.5321E+00
      5.600  0.6131E-02  0.5326E+00
      5.683  0.4001E-02  0.5329E+00
      5.766  0.2631E-02  0.5332E+00
      5.849  0.1467E-02  0.5333E+00
      5.932  0.9266E-03  0.5334E+00
      6.015  0.1450E-02  0.5335E+00
      6.098  0.3183E-02  0.5337E+00
      6.181  0.5668E-02  0.5342E+00
      6.265  0.8072E-02  0.5349E+00
      6.348  0.1059E-01  0.5358E+00
      6.431  0.1462E-01  0.5370E+00
      6.514  0.2016E-01  0.5387E+00
      6.597  0.2510E-01  0.5407E+00
      6.680  0.2879E-01  0.5431E+00
      6.763  0.3304E-01  0.5459E+00
      6.846  0.3804E-01  0.5490E+00
      6.929  0.4184E-01  0.5525E+00
      7.012  0.4387E-01  0.5562E+00
      7.096  0.4369E-01  0.5598E+00
      7.179  0.3874E-01  0.5630E+00
      7.262  0.2947E-01  0.5655E+00
      7.345  0.2219E-01  0.5673E+00
      7.428  0.2319E-01  0.5692E+00
      7.511  0.3504E-01  0.5721E+00
      7.594  0.5874E-01  0.5770E+00
      7.677  0.9090E-01  0.5846E+00
      7.760  0.1177E+00  0.5944E+00
      7.844  0.1226E+00  0.6046E+00
      7.927  0.1050E+00  0.6133E+00
      8.010  0.8524E-01  0.6204E+00
      8.093  0.8558E-01  0.6275E+00
      8.176  0.1068E+00  0.6364E+00
      8.259  0.1271E+00  0.6469E+00
      8.342  0.1255E+00  0.6574E+00
      8.425  0.1043E+00  0.6660E+00
      8.508  0.8497E-01  0.6731E+00
      8.592  0.8287E-01  0.6800E+00
      8.675  0.9051E-01  0.6875E+00
      8.758  0.9051E-01  0.6950E+00
      8.841  0.8151E-01  0.7018E+00
      8.924  0.7895E-01  0.7084E+00
      9.007  0.9138E-01  0.7160E+00
      9.090  0.1086E+00  0.7250E+00
      9.173  0.1174E+00  0.7347E+00
      9.256  0.1214E+00  0.7448E+00
      9.340  0.1340E+00  0.7560E+00
      9.423  0.1537E+00  0.7687E+00
      9.506  0.1620E+00  0.7822E+00
      9.589  0.1478E+00  0.7945E+00
      9.672  0.1203E+00  0.8045E+00
      9.755  0.9263E-01  0.8122E+00
      9.838  0.6864E-01  0.8179E+00
      9.921  0.5025E-01  0.8221E+00
     10.004  0.4375E-01  0.8257E+00
     10.088  0.5152E-01  0.8300E+00
     10.171  0.6590E-01  0.8355E+00
     10.254  0.7702E-01  0.8419E+00
     10.337  0.8257E-01  0.8487E+00
     10.420  0.8433E-01  0.8557E+00
     10.503  0.7974E-01  0.8624E+00
     10.586  0.6480E-01  0.8677E+00
     10.669  0.4310E-01  0.8713E+00
     10.752  0.2583E-01  0.8735E+00
     10.836  0.2364E-01  0.8754E+00
     10.919  0.4013E-01  0.8788E+00
     11.002  0.6866E-01  0.8845E+00
     11.085  0.9460E-01  0.8923E+00
     11.168  0.1072E+00  0.9012E+00
     11.251  0.1079E+00  0.9102E+00
     11.334  0.1017E+00  0.9187E+00
     11.417  0.8876E-01  0.9260E+00
     11.500  0.7205E-01  0.9320E+00
     11.584  0.6368E-01  0.9373E+00
     11.667  0.7165E-01  0.9433E+00
     11.750  0.8869E-01  0.9507E+00
     11.833  0.1016E+00  0.9591E+00
     11.916  0.1067E+00  0.9680E+00
     11.999  0.1122E+00  0.9773E+00
     12.082  0.1257E+00  0.9877E+00
     12.165  0.1380E+00  0.9992E+00
     12.248  0.1306E+00  0.1010E+01
     12.331  0.1003E+00  0.1018E+01
     12.415  0.6241E-01  0.1024E+01
     12.498  0.3187E-01  0.1026E+01
     12.581  0.1342E-01  0.1027E+01
     12.664  0.5189E-02  0.1028E+01
     12.747  0.3605E-02  0.1028E+01
     12.830  0.5500E-02  0.1029E+01
     12.913  0.7992E-02  0.1029E+01
     12.996  0.8634E-02  0.1030E+01
     13.079  0.7038E-02  0.1031E+01
     13.163  0.5274E-02  0.1031E+01
     13.246  0.5512E-02  0.1031E+01
     13.329  0.7695E-02  0.1032E+01
     13.412  0.1014E-01  0.1033E+01
     13.495  0.1250E-01  0.1034E+01
     13.578  0.1670E-01  0.1035E+01
     13.661  0.2292E-01  0.1037E+01
     13.744  0.2664E-01  0.1039E+01
     13.827  0.2379E-01  0.1041E+01
     13.911  0.1729E-01  0.1043E+01
     13.994  0.1458E-01  0.1044E+01
     14.077  0.1957E-01  0.1046E+01
     14.160  0.2884E-01  0.1048E+01
     14.243  0.3511E-01  0.1051E+01
     14.326  0.3452E-01  0.1054E+01
     14.409  0.2963E-01  0.1056E+01
     14.492  0.2534E-01  0.1058E+01
     14.575  0.2357E-01  0.1060E+01
     14.659  0.2278E-01  0.1062E+01
     14.742  0.2055E-01  0.1064E+01
     14.825  0.1584E-01  0.1065E+01
     14.908  0.9750E-02  0.1066E+01
     14.991  0.4570E-02  0.1066E+01
     15.074  0.1583E-02  0.1067E+01
     15.157  0.3980E-03  0.1067E+01
     15.240  0.7207E-04  0.1067E+01
     15.323  0.9350E-05  0.1067E+01
     15.407  0.8671E-06  0.1067E+01
     15.490  0.5739E-07  0.1067E+01
     15.573  0.2709E-08  0.1067E+01
     15.656  0.9108E-10  0.1067E+01
     15.739  0.2181E-11  0.1067E+01
     15.822  0.3716E-13  0.1067E+01
     15.905  0.4549E-15  0.1067E+01
     15.988  0.0000E+00  0.1067E+01
     16.071  0.0000E+00  0.1067E+01
     16.155  0.0000E+00  0.1067E+01
     16.238  0.0000E+00  0.1067E+01
     16.321  0.0000E+00  0.1067E+01
     16.404  0.0000E+00  0.1067E+01
     16.487  0.0000E+00  0.1067E+01
     16.570  0.0000E+00  0.1067E+01
     16.653  0.0000E+00  0.1067E+01
     16.736  0.0000E+00  0.1067E+01
