 running on    8 total cores
 distrk:  each k-point on    8 cores,    1 groups
 distr:  one band on    1 cores,    8 groups
 using from now: INCAR     
 vasp.5.4.4.18Apr17-6-g9f103f2a35 (build Dec 09 2018 21:25:21) complex          
  
 POSCAR found type information on POSCAR  Si
 POSCAR found :  1 types and       2 ions
 scaLAPACK will be used

 ----------------------------------------------------------------------------- 
|                                                                             |
|           W    W    AA    RRRRR   N    N  II  N    N   GGGG   !!!           |
|           W    W   A  A   R    R  NN   N  II  NN   N  G    G  !!!           |
|           W    W  A    A  R    R  N N  N  II  N N  N  G       !!!           |
|           W WW W  AAAAAA  RRRRR   N  N N  II  N  N N  G  GGG   !            |
|           WW  WW  A    A  R   R   N   NN  II  N   NN  G    G                |
|           W    W  A    A  R    R  N    N  II  N    N   GGGG   !!!           |
|                                                                             |
|      For optimal performance we recommend to set                            |
|        NCORE= 4 - approx SQRT( number of cores)                             |
|      NCORE specifies how many cores store one orbital (NPAR=cpu/NCORE).     |
|      This setting can  greatly improve the performance of VASP for DFT.     |
|      The default,   NCORE=1            might be grossly inefficient         |
|      on modern multi-core architectures or massively parallel machines.     |
|      Do your own testing !!!!                                               |
|      Unfortunately you need to use the default for GW and RPA calculations. |
|      (for HF NCORE is supported but not extensively tested yet)             |
|                                                                             |
 ----------------------------------------------------------------------------- 

 LDA part: xc-table for Pade appr. of Perdew
 POSCAR, INCAR and KPOINTS ok, starting setup
 FFT: planning ...
 WAVECAR not read
 entering main loop
       N       E                     dE             d eps       ncg     rms          rms(c)
DAV:   1     0.574570286115E+01    0.57457E+01   -0.27304E+03   320   0.587E+02
DAV:   2    -0.108166124864E+02   -0.16562E+02   -0.15919E+02   504   0.731E+01
DAV:   3    -0.110143949311E+02   -0.19778E+00   -0.19778E+00   408   0.110E+01
DAV:   4    -0.110150860658E+02   -0.69113E-03   -0.69114E-03   536   0.674E-01
DAV:   5    -0.110150864093E+02   -0.34354E-06   -0.34384E-06   408   0.138E-02    0.302E+00
DAV:   6    -0.108891146318E+02    0.12597E+00   -0.83076E-02   416   0.150E+00    0.179E+00
DAV:   7    -0.108316586813E+02    0.57456E-01   -0.15273E-01   408   0.217E+00    0.155E-01
DAV:   8    -0.108330118006E+02   -0.13531E-02   -0.42062E-03   360   0.483E-01    0.251E-02
DAV:   9    -0.108331051363E+02   -0.93336E-04   -0.10084E-04   288   0.826E-02
   1 F= -.10833105E+02 E0= -.10832925E+02  d E =-.108331E+02
 curvature:   0.00 expect dE= 0.000E+00 dE for cont linesearch  0.000E+00
 trial: gam= 0.00000 g(F)=  0.427E-45 g(S)=  0.176E-01 ort = 0.000E+00 (trialstep = 0.100E+01)
 search vector abs. value=  0.176E-01
 bond charge predicted
       N       E                     dE             d eps       ncg     rms          rms(c)
DAV:   1    -0.108426393188E+02   -0.96275E-02   -0.26776E-01   376   0.289E+00    0.328E-01
DAV:   2    -0.108381106974E+02    0.45286E-02   -0.38453E-03   424   0.418E-01    0.188E-01
DAV:   3    -0.108357228714E+02    0.23878E-02   -0.48198E-03   408   0.350E-01    0.235E-02
DAV:   4    -0.108357123033E+02    0.10568E-04   -0.50610E-05   216   0.647E-02
   2 F= -.10835712E+02 E0= -.10835602E+02  d E =-.260717E-02
 trial-energy change:   -0.002607  1 .order   -0.002989   -0.017627    0.011649
 step:   0.6021(harm=  0.6021)  dis= 0.00000  next Energy=   -10.838412 (dE=-0.531E-02)
 bond charge predicted
       N       E                     dE             d eps       ncg     rms          rms(c)
DAV:   1    -0.108392399219E+02   -0.35171E-02   -0.43390E-02   360   0.118E+00    0.133E-01
DAV:   2    -0.108385147936E+02    0.72513E-03   -0.61444E-04   384   0.167E-01    0.761E-02
DAV:   3    -0.108381396316E+02    0.37516E-03   -0.76074E-04   264   0.141E-01
   3 F= -.10838140E+02 E0= -.10838007E+02  d E =-.503450E-02
 curvature:  -0.30 expect dE=-0.449E-05 dE for cont linesearch -0.449E-05
 trial: gam= 0.00000 g(F)=  0.287E-45 g(S)=  0.149E-04 ort =-0.513E-03 (trialstep = 0.920E+00)
 search vector abs. value=  0.149E-04
 reached required accuracy - stopping structural energy minimisation
 writing wavefunctions
