unknown system                          
   1.00000000000000     
     0.000000    2.715000    2.715000
     2.715000    0.000000    2.715000
     2.715000    2.715000    0.000000
   Si
     2
Direct
  0.500000  0.500000  0.500000
  0.750000  0.750000  0.750000
 
   28   28   28
 0.80974     0.83769     0.92353      1.0737      1.2996      1.6172      2.0429      2.5868      3.2451      3.9922    
  4.7784      5.5306      6.1607      6.5824      6.7309      6.5824      6.1607      5.5306      4.7785      3.9922    
  3.2450      2.5868      2.0429      1.6172      1.2996      1.0737     0.92354     0.83769     0.83769     0.88514    
 0.98288      1.1373      1.3586      1.6593      2.0501      2.5337      3.0985      3.7142      4.3310      4.8845    
  5.3050      5.5326      5.5326      5.3050      4.8845      4.3310      3.7141      3.0984      2.5337      2.0501    
  1.6593      1.3586      1.1373     0.98288     0.88514     0.83769     0.92353     0.98288      1.0855      1.2377    
  1.4479      1.7250      2.0743      2.4923      2.9625      3.4530      3.9184      4.3053      4.5626      4.6529    
  4.5626      4.3053      3.9184      3.4530      2.9625      2.4923      2.0743      1.7251      1.4479      1.2377    
  1.0855     0.98288     0.92354     0.90410      1.0737      1.1373      1.2377      1.3806      1.5728      1.8194    
  2.1210      2.4698      2.8471      3.2228      3.5578      3.8111      3.9479      3.9479      3.8111      3.5578    
  3.2227      2.8471      2.4698      2.1210      1.8194      1.5728      1.3806      1.2377      1.1373      1.0737    
  1.0428      1.0428      1.2996      1.3586      1.4479      1.5728      1.7380      1.9456      2.1928      2.4698    
  2.7579      3.0307      3.2573      3.4078      3.4606      3.4078      3.2573      3.0307      2.7579      2.4698    
  2.1929      1.9456      1.7380      1.5728      1.4479      1.3586      1.2996      1.2662      1.2555      1.2662    
  1.6172      1.6593      1.7250      1.8194      1.9456      2.1037      2.2894      2.4923      2.6960      2.8790    
  3.0181      3.0935      3.0935      3.0181      2.8790      2.6960      2.4923      2.2894      2.1037      1.9456    
  1.8194      1.7251      1.6593      1.6172      1.5932      1.5825      1.5825      1.5932      2.0429      2.0501    
  2.0743      2.1210      2.1928      2.2894      2.4060      2.5337      2.6590      2.7658      2.8380      2.8635    
  2.8380      2.7658      2.6590      2.5337      2.4060      2.2894      2.1929      2.1210      2.0743      2.0501    
  2.0429      2.0455      2.0508      2.0533      2.0508      2.0455      2.5868      2.5337      2.4923      2.4698    
  2.4698      2.4923      2.5337      2.5869      2.6418      2.6873      2.7131      2.7131      2.6873      2.6418    
  2.5868      2.5337      2.4923      2.4698      2.4698      2.4923      2.5337      2.5868      2.6418      2.6873    
  2.7131      2.7131      2.6873      2.6418      3.2451      3.0985      2.9625      2.8471      2.7579      2.6960    
  2.6590      2.6418      2.6375      2.6387      2.6399      2.6387      2.6375      2.6418      2.6590      2.6960    
  2.7579      2.8472      2.9625      3.0984      3.2450      3.3876      3.5085      3.5900      3.6188      3.5900    
  3.5085      3.3876      3.9922      3.7142      3.4530      3.2228      3.0307      2.8790      2.7658      2.6873    
  2.6387      2.6158      2.6158      2.6387      2.6873      2.7658      2.8790      3.0308      3.2228      3.4530    
  3.7141      3.9922      4.2663      4.5096      4.6933      4.7925      4.7925      4.6933      4.5096      4.2663    
  4.7784      4.3310      3.9184      3.5578      3.2573      3.0181      2.8380      2.7131      2.6399      2.6158    
  2.6398      2.7130      2.8379      3.0181      3.2573      3.5579      3.9184      4.3310      4.7784      5.2324    
  5.6549      6.0017      6.2305      6.3106      6.2305      6.0017      5.6549      5.2325      5.5306      4.8845    
  4.3053      3.8111      3.4078      3.0935      2.8635      2.7131      2.6387      2.6387      2.7130      2.8635    
  3.0935      3.4078      3.8112      4.3053      4.8844      5.5305      6.2096      6.8713      7.4528      7.8883    
  8.1221      8.1221      7.8883      7.4528      6.8713      6.2096      6.1607      5.3050      4.5626      3.9479    
  3.4606      3.0935      2.8380      2.6873      2.6375      2.6873      2.8379      3.0935      3.4606      3.9479    
  4.5626      5.3049      6.1606      7.0947      8.0473      8.9368      9.6685      10.152      10.321      10.152    
  9.6684      8.9367      8.0473      7.0947      6.5824      5.5326      4.6529      3.9479      3.4078      3.0181    
  2.7658      2.6418      2.6418      2.7658      3.0181      3.4078      3.9479      4.6530      5.5326      6.5822    
  7.7729      9.0432      10.297      11.413      12.255      12.711      12.710      12.255      11.412      10.297    
  9.0432      7.7730      6.7309      5.5326      4.5626      3.8111      3.2573      2.8790      2.6590      2.5868    
  2.6590      2.8790      3.2573      3.8112      4.5626      5.5326      6.7308      8.1423      9.7151      11.352    
  12.909      14.212      15.084      15.390      15.084      14.212      12.909      11.352      9.7151      8.1424    
  6.5824      5.3050      4.3053      3.5578      3.0307      2.6960      2.5337      2.5337      2.6960      3.0308    
  3.5579      4.3053      5.3049      6.5822      8.1423      9.9530      11.930      13.929      15.746      17.131    
  17.876      17.876      17.131      15.746      13.929      11.930      9.9529      8.1424      6.1607      4.8845    
  3.9184      3.2227      2.7579      2.4923      2.4060      2.4923      2.7579      3.2228      3.9184      4.8844    
  6.1606      7.7729      9.7151      11.930      14.293      16.592      18.516      19.786      20.229      19.786    
  18.516      16.592      14.293      11.930      9.7151      7.7730      5.5306      4.3310      3.4530      2.8471    
  2.4698      2.2894      2.2894      2.4698      2.8472      3.4530      4.3310      5.5305      7.0947      9.0432    
  11.352      13.929      16.592      19.006      20.823      21.794      21.794      20.823      19.006      16.592    
  13.929      11.352      9.0431      7.0947      4.7785      3.7141      2.9625      2.4698      2.1929      2.1037    
  2.1929      2.4698      2.9625      3.7141      4.7784      6.2096      8.0473      10.297      12.909      15.746    
  18.516      20.823      22.343      22.874      22.343      20.823      18.516      15.746      12.909      10.297    
  8.0473      6.2096      3.9922      3.0984      2.4923      2.1210      1.9456      1.9456      2.1210      2.4923    
  3.0984      3.9922      5.2324      6.8713      8.9368      11.413      14.212      17.131      19.786      21.794    
  22.874      22.874      21.795      19.786      17.131      14.212      11.412      8.9367      6.8713      5.2325    
  3.2450      2.5337      2.0743      1.8194      1.7380      1.8194      2.0743      2.5337      3.2450      4.2663    
  5.6549      7.4528      9.6685      12.255      15.084      17.876      20.229      21.794      22.343      21.795    
  20.229      17.876      15.084      12.255      9.6684      7.4528      5.6549      4.2663      2.5868      2.0501    
  1.7251      1.5728      1.5728      1.7251      2.0501      2.5868      3.3876      4.5096      6.0017      7.8883    
  10.152      12.711      15.390      17.876      19.786      20.823      20.823      19.786      17.876      15.390    
  12.710      10.152      7.8884      6.0017      4.5096      3.3876      2.0429      1.6593      1.4479      1.3806    
  1.4479      1.6593      2.0429      2.6418      3.5085      4.6933      6.2305      8.1221      10.321      12.710    
  15.084      17.131      18.516      19.006      18.516      17.131      15.084      12.710      10.321      8.1222    
  6.2306      4.6933      3.5085      2.6418      1.6172      1.3586      1.2377      1.2377      1.3586      1.6172    
  2.0455      2.6873      3.5900      4.7925      6.3106      8.1221      10.152      12.255      14.212      15.746    
  16.592      16.592      15.746      14.212      12.255      10.152      8.1222      6.3106      4.7925      3.5900    
  2.6873      2.0455      1.2996      1.1373      1.0855      1.1373      1.2996      1.5932      2.0508      2.7131    
  3.6188      4.7925      6.2305      7.8883      9.6684      11.412      12.909      13.929      14.293      13.929    
  12.909      11.412      9.6684      7.8884      6.2306      4.7925      3.6188      2.7131      2.0508      1.5931    
  1.0737     0.98288     0.98288      1.0737      1.2662      1.5825      2.0533      2.7131      3.5900      4.6933    
  6.0017      7.4528      8.9367      10.297      11.352      11.930      11.930      11.352      10.297      8.9367    
  7.4528      6.0017      4.6933      3.5900      2.7131      2.0533      1.5825      1.2663     0.92354     0.88514    
 0.92354      1.0428      1.2555      1.5825      2.0508      2.6873      3.5085      4.5096      5.6549      6.8713    
  8.0473      9.0432      9.7151      9.9529      9.7151      9.0431      8.0473      6.8713      5.6549      4.5096    
  3.5085      2.6873      2.0508      1.5825      1.2555      1.0428     0.83769     0.83769     0.90410      1.0428    
  1.2662      1.5932      2.0455      2.6418      3.3876      4.2663      5.2325      6.2096      7.0947      7.7730    
  8.1424      8.1424      7.7730      7.0947      6.2096      5.2325      4.2663      3.3876      2.6418      2.0455    
  1.5931      1.2663      1.0428     0.90410     0.83769     0.88514     0.98288      1.1373      1.3586      1.6593    
  2.0501      2.5337      3.0985      3.7142      4.3310      4.8845      5.3050      5.5326      5.5326      5.3050    
  4.8845      4.3311      3.7141      3.0984      2.5337      2.0501      1.6593      1.3586      1.1373     0.98288    
 0.88514     0.83770     0.88514     0.94303      1.0429      1.1904      1.3940      1.6624      2.0008      2.4060    
  2.8620      3.3376      3.7885      4.1633      4.4123      4.4997      4.4123      4.1633      3.7885      3.3376    
  2.8619      2.4060      2.0008      1.6624      1.3941      1.1904      1.0429     0.94303     0.88515     0.86615    
 0.98288      1.0429      1.1369      1.2703      1.4495      1.6798      1.9621      2.2894      2.6436      2.9960    
  3.3100      3.5470      3.6748      3.6748      3.5470      3.3100      2.9960      2.6436      2.2894      1.9621    
  1.6798      1.4495      1.2703      1.1369      1.0429     0.98288     0.95364     0.95363      1.1373      1.1904    
  1.2703      1.3818      1.5299      1.7170      1.9410      2.1928      2.4550      2.7029      2.9083      3.0444    
  3.0921      3.0444      2.9083      2.7029      2.4550      2.1929      1.9410      1.7170      1.5299      1.3818    
  1.2703      1.1904      1.1373      1.1070      1.0971      1.1070      1.3586      1.3940      1.4495      1.5299    
  1.6389      1.7772      1.9410      2.1210      2.3017      2.4636      2.5864      2.6526      2.6526      2.5864    
  2.4636      2.3017      2.1210      1.9410      1.7772      1.6388      1.5298      1.4495      1.3940      1.3586    
  1.3383      1.3291      1.3291      1.3383      1.6593      1.6624      1.6798      1.7170      1.7772      1.8603    
  1.9621      2.0743      2.1844      2.2779      2.3408      2.3630      2.3408      2.2779      2.1844      2.0743    
  1.9621      1.8603      1.7772      1.7170      1.6798      1.6624      1.6593      1.6639      1.6697      1.6722    
  1.6697      1.6639      2.0501      2.0008      1.9621      1.9410      1.9410      1.9621      2.0008      2.0501    
  2.1006      2.1421      2.1654      2.1654      2.1421      2.1006      2.0501      2.0008      1.9621      1.9410    
  1.9410      1.9621      2.0008      2.0501      2.1006      2.1421      2.1654      2.1654      2.1421      2.1006    
  2.5337      2.4060      2.2894      2.1928      2.1210      2.0743      2.0501      2.0429      2.0455      2.0508    
  2.0533      2.0508      2.0455      2.0429      2.0501      2.0743      2.1210      2.1929      2.2894      2.4060    
  2.5337      2.6590      2.7658      2.8380      2.8635      2.8380      2.7658      2.6590      3.0985      2.8620    
  2.6436      2.4550      2.3017      2.1844      2.1006      2.0455      2.0133      1.9988      1.9988      2.0133    
  2.0455      2.1006      2.1844      2.3017      2.4550      2.6436      2.8619      3.0985      3.3349      3.5471    
  3.7086      3.7962      3.7962      3.7086      3.5471      3.3349      3.7142      3.3376      2.9960      2.7029    
  2.4636      2.2779      2.1421      2.0508      1.9988      1.9820      1.9988      2.0508      2.1421      2.2779    
  2.4637      2.7030      2.9960      3.3375      3.7141      4.1025      4.4691      4.7737      4.9764      5.0477    
  4.9764      4.7737      4.4691      4.1025      4.3310      3.7885      3.3100      2.9083      2.5864      2.3408    
  2.1654      2.0533      1.9988      1.9988      2.0533      2.1654      2.3409      2.5864      2.9083      3.3099    
  3.7885      4.3310      4.9106      5.4846      5.9965      6.3844      6.5943      6.5943      6.3844      5.9964    
  5.4845      4.9106      4.8845      4.1633      3.5470      3.0444      2.6526      2.3630      2.1654      2.0508    
  2.0133      2.0508      2.1654      2.3631      2.6527      3.0444      3.5469      4.1632      4.8844      5.6841    
  6.5132      7.2994      7.9551      8.3926      8.5466      8.3926      7.9551      7.2994      6.5131      5.6841    
  5.3050      4.4123      3.6748      3.0921      2.6526      2.3408      2.1421      2.0455      2.0455      2.1421    
  2.3409      2.6527      3.0921      3.6747      4.4122      5.3049      6.3326      7.4462      8.5629      9.5695    
  10.339      10.757      10.757      10.339      9.5695      8.5628      7.4461      6.3326      5.5326      4.4997    
  3.6748      3.0444      2.5864      2.2779      2.1006      2.0429      2.1006      2.2779      2.5864      3.0444    
  3.6747      4.4996      5.5326      6.7666      8.1619      9.6350      11.056      12.257      13.067      13.354    
  13.068      12.257      11.056      9.6349      8.1618      6.7666      5.5326      4.4123      3.5470      2.9083    
  2.4636      2.1844      2.0501      2.0501      2.1844      2.4637      2.9083      3.5469      4.4122      5.5326    
  6.9195      8.5520      10.359      12.210      13.910      15.230      15.955      15.955      15.230      13.910    
  12.210      10.359      8.5518      6.9195      5.3050      4.1633      3.3100      2.7029      2.3017      2.0743    
  2.0008      2.0743      2.3017      2.7030      3.3099      4.1632      5.3049      6.7666      8.5520      10.616    
  12.845      15.041      16.933      18.227      18.689      18.227      16.933      15.041      12.845      10.616    
  8.5518      6.7666      4.8845      3.7885      2.9960      2.4550      2.1210      1.9621      1.9621      2.1210    
  2.4550      2.9960      3.7885      4.8844      6.3326      8.1619      10.359      12.845      15.444      17.878    
  19.796      20.856      20.856      19.796      17.878      15.444      12.845      10.359      8.1618      6.3326    
  4.3311      3.3376      2.6436      2.1929      1.9410      1.8603      1.9410      2.1929      2.6436      3.3375    
  4.3310      5.6841      7.4462      9.6350      12.210      15.041      17.878      20.357      22.058      22.663    
  22.058      20.357      17.878      15.041      12.210      9.6349      7.4461      5.6841      3.7141      2.8619    
  2.2894      1.9410      1.7772      1.7772      1.9410      2.2894      2.8619      3.7141      4.9106      6.5132    
  8.5629      11.056      13.910      16.933      19.796      22.058      23.308      23.308      22.058      19.796    
  16.933      13.910      11.056      8.5628      6.5131      4.9106      3.0984      2.4060      1.9621      1.7170    
  1.6388      1.7170      1.9621      2.4060      3.0985      4.1025      5.4846      7.2994      9.5695      12.257    
  15.230      18.227      20.856      22.663      23.308      22.663      20.856      18.227      15.230      12.257    
  9.5695      7.2994      5.4845      4.1025      2.5337      2.0008      1.6798      1.5299      1.5298      1.6798    
  2.0008      2.5337      3.3349      4.4691      5.9965      7.9551      10.339      13.067      15.955      18.689    
  20.856      22.058      22.058      20.856      18.688      15.955      13.068      10.339      7.9551      5.9964    
  4.4691      3.3349      2.0501      1.6624      1.4495      1.3818      1.4495      1.6624      2.0501      2.6590    
  3.5471      4.7737      6.3844      8.3926      10.757      13.354      15.955      18.227      19.796      20.357    
  19.796      18.227      15.955      13.354      10.757      8.3927      6.3844      4.7737      3.5471      2.6590    
  1.6593      1.3941      1.2703      1.2703      1.3940      1.6593      2.1006      2.7658      3.7086      4.9764    
  6.5943      8.5466      10.757      13.068      15.230      16.933      17.878      17.878      16.933      15.230    
  13.068      10.757      8.5467      6.5943      4.9764      3.7086      2.7658      2.1006      1.3586      1.1904    
  1.1369      1.1904      1.3586      1.6639      2.1421      2.8380      3.7962      5.0477      6.5943      8.3926    
  10.339      12.257      13.910      15.041      15.444      15.041      13.910      12.257      10.339      8.3927    
  6.5943      5.0476      3.7961      2.8379      2.1421      1.6639      1.1373      1.0429      1.0429      1.1373    
  1.3383      1.6697      2.1654      2.8635      3.7962      4.9764      6.3844      7.9551      9.5695      11.056    
  12.210      12.845      12.845      12.210      11.056      9.5695      7.9551      6.3844      4.9764      3.7961    
  2.8635      2.1654      1.6697      1.3383     0.98288     0.94303     0.98288      1.1070      1.3291      1.6722    
  2.1654      2.8380      3.7086      4.7737      5.9964      7.2994      8.5628      9.6349      10.359      10.616    
  10.359      9.6349      8.5628      7.2994      5.9964      4.7737      3.7086      2.8379      2.1654      1.6722    
  1.3292      1.1070     0.88514     0.88515     0.95364      1.0971      1.3291      1.6697      2.1421      2.7658    
  3.5471      4.4691      5.4845      6.5131      7.4461      8.1618      8.5518      8.5518      8.1618      7.4461    
  6.5131      5.4845      4.4691      3.5471      2.7658      2.1421      1.6697      1.3292      1.0971     0.95363    
 0.83770     0.86615     0.95363      1.1070      1.3383      1.6639      2.1006      2.6590      3.3349      4.1025    
  4.9106      5.6841      6.3326      6.7666      6.9195      6.7666      6.3326      5.6841      4.9106      4.1025    
  3.3349      2.6590      2.1006      1.6639      1.3383      1.1070     0.95363     0.86614     0.92354     0.98288    
  1.0855      1.2377      1.4479      1.7250      2.0743      2.4923      2.9625      3.4530      3.9184      4.3053    
  4.5626      4.6529      4.5626      4.3053      3.9184      3.4530      2.9625      2.4923      2.0743      1.7251    
  1.4479      1.2377      1.0855     0.98288     0.92354     0.90410     0.98288      1.0429      1.1369      1.2703    
  1.4495      1.6798      1.9621      2.2894      2.6436      2.9960      3.3100      3.5470      3.6748      3.6748    
  3.5470      3.3100      2.9960      2.6436      2.2894      1.9621      1.6798      1.4495      1.2703      1.1369    
  1.0429     0.98289     0.95364     0.95364      1.0855      1.1369      1.2138      1.3211      1.4635      1.6439    
  1.8603      2.1037      2.3573      2.5969      2.7952      2.9264      2.9724      2.9264      2.7951      2.5969    
  2.3573      2.1037      1.8603      1.6439      1.4635      1.3211      1.2138      1.1369      1.0855      1.0561    
  1.0465      1.0561      1.2377      1.2703      1.3211      1.3949      1.4955      1.6241      1.7772      1.9456    
  2.1147      2.2659      2.3802      2.4418      2.4418      2.3802      2.2659      2.1147      1.9456      1.7772    
  1.6241      1.4955      1.3949      1.3211      1.2703      1.2377      1.2187      1.2101      1.2101      1.2187    
  1.4479      1.4495      1.4635      1.4955      1.5490      1.6241      1.7170      1.8194      1.9197      2.0044    
  2.0612      2.0811      2.0612      2.0044      1.9197      1.8194      1.7170      1.6241      1.5490      1.4955    
  1.4635      1.4495      1.4479      1.4526      1.4580      1.4602      1.4580      1.4526      1.7250      1.6798    
  1.6439      1.6241      1.6241      1.6439      1.6798      1.7250      1.7708      1.8079      1.8287      1.8287    
  1.8079      1.7708      1.7250      1.6798      1.6439      1.6241      1.6241      1.6439      1.6798      1.7250    
  1.7708      1.8079      1.8287      1.8287      1.8079      1.7708      2.0743      1.9621      1.8603      1.7772    
  1.7170      1.6798      1.6624      1.6593      1.6639      1.6697      1.6722      1.6697      1.6639      1.6593    
  1.6624      1.6798      1.7170      1.7772      1.8603      1.9621      2.0743      2.1844      2.2779      2.3408    
  2.3630      2.3408      2.2779      2.1844      2.4923      2.2894      2.1037      1.9456      1.8194      1.7250    
  1.6593      1.6172      1.5932      1.5825      1.5825      1.5931      1.6172      1.6593      1.7251      1.8194    
  1.9456      2.1037      2.2894      2.4923      2.6960      2.8790      3.0181      3.0935      3.0935      3.0181    
  2.8790      2.6960      2.9625      2.6436      2.3573      2.1147      1.9197      1.7708      1.6639      1.5932    
  1.5533      1.5405      1.5533      1.5932      1.6639      1.7709      1.9197      2.1147      2.3572      2.6436    
  2.9625      3.2934      3.6069      3.8678      4.0416      4.1027      4.0416      3.8678      3.6069      3.2934    
  3.4530      2.9960      2.5969      2.2659      2.0044      1.8079      1.6697      1.5825      1.5405      1.5405    
  1.5825      1.6697      1.8080      2.0044      2.2659      2.5968      2.9960      3.4530      3.9449      4.4345    
  4.8727      5.2053      5.3855      5.3855      5.2054      4.8727      4.4345      3.9449      3.9184      3.3100    
  2.7952      2.3802      2.0612      1.8287      1.6722      1.5825      1.5533      1.5825      1.6722      1.8287    
  2.0612      2.3802      2.7951      3.3099      3.9184      4.5982      5.3071      5.9822      6.5467      6.9241    
  7.0570      6.9241      6.5467      5.9822      5.3071      4.5982      4.3053      3.5470      2.9264      2.4418    
  2.0811      1.8287      1.6697      1.5931      1.5932      1.6697      1.8287      2.0811      2.4418      2.9264    
  3.5469      4.3053      5.1850      6.1438      7.1092      7.9819      8.6500      9.0137      9.0138      8.6501    
  7.9820      7.1092      6.1437      5.1850      4.5626      3.6748      2.9724      2.4418      2.0612      1.8079    
  1.6639      1.6172      1.6639      1.8080      2.0612      2.4418      2.9723      3.6747      4.5626      5.6313    
  6.8463      8.1340      9.3789      10.433      11.145      11.396      11.145      10.433      9.3790      8.1340    
  6.8462      5.6312      4.6529      3.6748      2.9264      2.3802      2.0044      1.7708      1.6593      1.6593    
  1.7709      2.0044      2.3802      2.9264      3.6747      4.6530      5.8731      7.3170      8.9217      10.568    
  12.082      13.256      13.901      13.901      13.256      12.082      10.568      8.9217      7.3169      5.8730    
  4.5626      3.5470      2.7951      2.2659      1.9197      1.7250      1.6624      1.7251      1.9197      2.2659    
  2.7951      3.5469      4.5626      5.8731      7.4830      9.3515      11.373      13.366      15.083      16.255    
  16.673      16.255      15.083      13.366      11.373      9.3515      7.4829      5.8730      4.3053      3.3100    
  2.5969      2.1147      1.8194      1.6798      1.6798      1.8194      2.1147      2.5968      3.3099      4.3053    
  5.6313      7.3170      9.3515      11.659      14.074      16.334      18.114      19.100      19.100      18.114    
  16.334      14.074      11.659      9.3515      7.3169      5.6312      3.9184      2.9960      2.3573      1.9456    
  1.7170      1.6439      1.7170      1.9456      2.3572      2.9960      3.9184      5.1850      6.8463      8.9217    
  11.373      14.074      16.781      19.146      20.779      21.364      20.779      19.146      16.781      14.074    
  11.373      8.9217      6.8462      5.1850      3.4530      2.6436      2.1037      1.7772      1.6241      1.6241    
  1.7772      2.1037      2.6436      3.4530      4.5982      6.1438      8.1340      10.568      13.366      16.334    
  19.146      21.381      22.627      22.627      21.381      19.146      16.334      13.366      10.568      8.1340    
  6.1437      4.5982      2.9625      2.2894      1.8603      1.6241      1.5490      1.6241      1.8603      2.2894    
  2.9625      3.9449      5.3071      7.1092      9.3789      12.082      15.083      18.114      20.779      22.627    
  23.290      22.627      20.779      18.114      15.083      12.082      9.3790      7.1092      5.3070      3.9449    
  2.4923      1.9621      1.6439      1.4955      1.4955      1.6439      1.9621      2.4923      3.2934      4.4345    
  5.9822      7.9819      10.433      13.256      16.255      19.100      21.364      22.627      22.627      21.363    
  19.100      16.255      13.256      10.433      7.9820      5.9821      4.4345      3.2934      2.0743      1.6798    
  1.4635      1.3949      1.4635      1.6798      2.0743      2.6960      3.6069      4.8727      6.5467      8.6500    
  11.145      13.901      16.673      19.100      20.779      21.381      20.779      19.100      16.673      13.901    
  11.145      8.6501      6.5467      4.8726      3.6069      2.6960      1.7251      1.4495      1.3211      1.3211    
  1.4495      1.7250      2.1844      2.8790      3.8678      5.2053      6.9241      9.0137      11.396      13.901    
  16.255      18.114      19.146      19.146      18.114      16.255      13.901      11.397      9.0138      6.9240    
  5.2053      3.8678      2.8790      2.1844      1.4479      1.2703      1.2138      1.2703      1.4479      1.7708    
  2.2779      3.0181      4.0416      5.3855      7.0570      9.0138      11.145      13.256      15.083      16.334    
  16.781      16.334      15.083      13.256      11.145      9.0138      7.0569      5.3854      4.0416      3.0181    
  2.2779      1.7709      1.2377      1.1369      1.1369      1.2377      1.4526      1.8079      2.3408      3.0935    
  4.1027      5.3855      6.9241      8.6501      10.433      12.082      13.366      14.074      14.074      13.366    
  12.082      10.433      8.6501      6.9240      5.3854      4.1026      3.0935      2.3409      1.8080      1.4526    
  1.0855      1.0429      1.0855      1.2187      1.4580      1.8287      2.3630      3.0935      4.0416      5.2054    
  6.5467      7.9820      9.3790      10.568      11.373      11.659      11.373      10.568      9.3790      7.9820    
  6.5467      5.2053      4.0416      3.0935      2.3631      1.8287      1.4580      1.2187     0.98288     0.98289    
  1.0561      1.2101      1.4602      1.8287      2.3408      3.0181      3.8678      4.8727      5.9822      7.1092    
  8.1340      8.9217      9.3515      9.3515      8.9217      8.1340      7.1092      5.9821      4.8726      3.8678    
  3.0181      2.3409      1.8287      1.4603      1.2101      1.0561     0.92354     0.95364      1.0465      1.2101    
  1.4580      1.8079      2.2779      2.8790      3.6069      4.4345      5.3071      6.1437      6.8462      7.3169    
  7.4829      7.3169      6.8462      6.1437      5.3070      4.4345      3.6069      2.8790      2.2779      1.8080    
  1.4580      1.2101      1.0465     0.95363     0.90410     0.95364      1.0561      1.2187      1.4526      1.7708    
  2.1844      2.6960      3.2934      3.9449      4.5982      5.1850      5.6312      5.8730      5.8730      5.6312    
  5.1850      4.5982      3.9449      3.2934      2.6960      2.1844      1.7709      1.4526      1.2187      1.0561    
 0.95363     0.90410      1.0737      1.1373      1.2377      1.3806      1.5728      1.8194      2.1210      2.4698    
  2.8471      3.2228      3.5578      3.8111      3.9479      3.9479      3.8111      3.5578      3.2228      2.8471    
  2.4698      2.1210      1.8194      1.5728      1.3806      1.2377      1.1373      1.0737      1.0428      1.0428    
  1.1373      1.1904      1.2703      1.3818      1.5299      1.7170      1.9410      2.1928      2.4550      2.7029    
  2.9083      3.0444      3.0921      3.0444      2.9083      2.7029      2.4550      2.1929      1.9410      1.7170    
  1.5298      1.3818      1.2703      1.1904      1.1373      1.1070      1.0971      1.1070      1.2377      1.2703    
  1.3211      1.3949      1.4955      1.6241      1.7772      1.9456      2.1147      2.2659      2.3802      2.4418    
  2.4418      2.3802      2.2659      2.1147      1.9456      1.7772      1.6241      1.4955      1.3949      1.3211    
  1.2703      1.2377      1.2187      1.2101      1.2101      1.2187      1.3806      1.3818      1.3949      1.4253    
  1.4766      1.5490      1.6389      1.7380      1.8349      1.9167      1.9713      1.9905      1.9713      1.9167    