unknown system                          
   1.00000000000000     
     0.000000    2.737329    2.737329
     2.737329   -0.000000    2.737329
     2.737329    2.737329    0.000000
   Si
     2
Direct
  0.500000  0.500000  0.500000
  0.750000  0.750000  0.750000
 
   28   28   28
 0.78362592923E+00 0.81093153794E+00 0.89483949975E+00 0.10417900871E+01 0.12633449787E+01
 0.15754260826E+01 0.19946343479E+01 0.25315579079E+01 0.31827009514E+01 0.39234899582E+01
 0.47045453758E+01 0.54530501477E+01 0.60810659497E+01 0.65016305612E+01 0.66498623409E+01
 0.65016294325E+01 0.60810741456E+01 0.54530729853E+01 0.47045692614E+01 0.39234906087E+01
 0.31826701530E+01 0.25315172047E+01 0.19946147518E+01 0.15754366831E+01 0.12633684796E+01
 0.10418061648E+01 0.89484332047E+00 0.81093012363E+00 0.81093153794E+00 0.85720305422E+00
 0.95262872725E+00 0.11036335262E+01 0.13204742299E+01 0.16157368767E+01 0.20002777963E+01
 0.24771475233E+01 0.30352239594E+01 0.36447139006E+01 0.42563875571E+01 0.48058948477E+01
 0.52237944923E+01 0.54502161136E+01 0.54502145698E+01 0.52237938764E+01 0.48058990105E+01
 0.42563883920E+01 0.36446972242E+01 0.30351908838E+01 0.24771220046E+01 0.20002833692E+01
 0.16157690270E+01 0.13205060768E+01 0.11036474653E+01 0.95263052039E+00 0.85720420177E+00
 0.81093284227E+00 0.89483949975E+00 0.95262872725E+00 0.10527392959E+01 0.12014052672E+01
 0.14072578022E+01 0.16792632287E+01 0.20228279057E+01 0.24348318660E+01 0.28991294968E+01
 0.33843170561E+01 0.38452213384E+01 0.42288053674E+01 0.44840501904E+01 0.45736973645E+01
 0.44840456113E+01 0.42287972982E+01 0.38452089142E+01 0.33842989502E+01 0.28991112090E+01
 0.24348271303E+01 0.20228455388E+01 0.16792927173E+01 0.14072761262E+01 0.12014016020E+01
 0.10527259623E+01 0.95262277832E+00 0.89484148499E+00 0.87593102271E+00 0.10417900871E+01
 0.11036335262E+01 0.12014052672E+01 0.13409951570E+01 0.15291272851E+01 0.17711709173E+01
 0.20678937167E+01 0.24118376702E+01 0.27845515198E+01 0.31561017220E+01 0.34878965301E+01
 0.37389573032E+01 0.38745163469E+01 0.38745153426E+01 0.37389534832E+01 0.34878898216E+01
 0.31560963681E+01 0.27845545872E+01 0.24118517116E+01 0.20679113417E+01 0.17711792350E+01
 0.15291193650E+01 0.13409764825E+01 0.12013881608E+01 0.11036259304E+01 0.10417903108E+01
 0.10118512676E+01 0.10118500056E+01 0.12633449787E+01 0.13204742299E+01 0.14072578022E+01
 0.15291272851E+01 0.16908890229E+01 0.18948338377E+01 0.21383974778E+01 0.24118365760E+01
 0.26968298165E+01 0.29670942195E+01 0.31917308216E+01 0.33410576711E+01 0.33934753252E+01
 0.33410617810E+01 0.31917364300E+01 0.29671010742E+01 0.26968408810E+01 0.24118508359E+01
 0.21384050522E+01 0.18948248908E+01 0.16908681821E+01 0.15291120882E+01 0.14072591140E+01
 0.13204843840E+01 0.12633504584E+01 0.12311590097E+01 0.12207923163E+01 0.12311597959E+01
 0.15754260826E+01 0.16157368767E+01 0.16792632287E+01 0.17711709173E+01 0.18948338377E+01
 0.20504982046E+01 0.22338662522E+01 0.24348304838E+01 0.26370077264E+01 0.28189312988E+01
 0.29573890842E+01 0.30324212701E+01 0.30324261557E+01 0.29573999330E+01 0.28189408449E+01
 0.26370116966E+01 0.24348278681E+01 0.22338560247E+01 0.20504813503E+01 0.18948190034E+01
 0.17711712395E+01 0.16792821670E+01 0.16157606569E+01 0.15754369249E+01 0.15526749839E+01
 0.15426817698E+01 0.15426861064E+01 0.15526788465E+01 0.19946343479E+01 0.20002777963E+01
 0.20228279057E+01 0.20678937167E+01 0.21383974778E+01 0.22338662522E+01 0.23497944720E+01
 0.24771480300E+01 0.26025029179E+01 0.27094964668E+01 0.27818754445E+01 0.28075096226E+01
 0.27818853765E+01 0.27095038837E+01 0.26024976628E+01 0.24771314471E+01 0.23497748842E+01
 0.22338522722E+01 0.21383957406E+01 0.20679053716E+01 0.20228449171E+01 0.20002882486E+01
 0.19946336566E+01 0.19986069377E+01 0.20047890959E+01 0.20075544607E+01 0.20047940211E+01
 0.19986134142E+01 0.25315579079E+01 0.24771475233E+01 0.24348318660E+01 0.24118376702E+01
 0.24118365760E+01 0.24348304838E+01 0.24771480300E+01 0.25315591208E+01 0.25878682362E+01
 0.26344562259E+01 0.26608839045E+01 0.26608898863E+01 0.26344625876E+01 0.25878584050E+01
 0.25315368929E+01 0.24771321927E+01 0.24348318017E+01 0.24118504961E+01 0.24118525467E+01
 0.24348357129E+01 0.24771349475E+01 0.25315387561E+01 0.25878600980E+01 0.26344622009E+01
 0.26608863097E+01 0.26608799154E+01 0.26344545325E+01 0.25878676479E+01 0.31827009514E+01
 0.30352239594E+01 0.28991294968E+01 0.27845515198E+01 0.26968298165E+01 0.26370077264E+01
 0.26025029179E+01 0.25878682362E+01 0.25857895361E+01 0.25885906248E+01 0.25902892854E+01
 0.25885939439E+01 0.25857771086E+01 0.25878397933E+01 0.26024862252E+01 0.26370217903E+01
 0.26968600871E+01 0.27845702158E+01 0.28991245523E+01 0.30352025261E+01 0.31826796751E+01
 0.33267250501E+01 0.34492115736E+01 0.35319478597E+01 0.35612241292E+01 0.35319270758E+01
 0.34491938075E+01 0.33267288413E+01 0.39234899582E+01 0.36447139006E+01 0.33843170561E+01
 0.31561017220E+01 0.29670942195E+01 0.28189312988E+01 0.27094964668E+01 0.26344562259E+01
 0.25885906248E+01 0.25671181160E+01 0.25671152435E+01 0.25885728368E+01 0.26344199320E+01
 0.27094689565E+01 0.28189427473E+01 0.29671347289E+01 0.31561316469E+01 0.33843152343E+01
 0.36446949909E+01 0.39234776482E+01 0.41995042407E+01 0.44454538608E+01 0.46316539476E+01
 0.47323135739E+01 0.47323082516E+01 0.46316414071E+01 0.44454419411E+01 0.41995017571E+01
 0.47045453758E+01 0.42563875571E+01 0.38452213384E+01 0.34878965301E+01 0.31917308216E+01
 0.29573890842E+01 0.27818754445E+01 0.26608839045E+01 0.25902892854E+01 0.25671152435E+01
 0.25902645115E+01 0.26608400143E+01 0.27818390141E+01 0.29573936950E+01 0.31917767009E+01
 0.34879436088E+01 0.38452340054E+01 0.42563716309E+01 0.47045305186E+01 0.51615453762E+01
 0.55885344662E+01 0.59401523709E+01 0.61726798437E+01 0.62541178507E+01 0.61726857475E+01
 0.59401549010E+01 0.55885301831E+01 0.51615454893E+01 0.54530501477E+01 0.48058948477E+01
 0.42288053674E+01 0.37389573032E+01 0.33410576711E+01 0.30324212701E+01 0.28075096226E+01
 0.26608898863E+01 0.25885939439E+01 0.25885728368E+01 0.26608400143E+01 0.28074670528E+01
 0.30324237003E+01 0.33411102059E+01 0.37390215467E+01 0.42288343888E+01 0.48058781460E+01
 0.54530168535E+01 0.61366539800E+01 0.68057972305E+01 0.73960187241E+01 0.78391764965E+01
 0.80774407930E+01 0.80774357089E+01 0.78391623162E+01 0.73960015572E+01 0.68057909584E+01
 0.61366712937E+01 0.60810659497E+01 0.52237944923E+01 0.44840501904E+01 0.38745163469E+01
 0.33934753252E+01 0.30324261557E+01 0.27818853765E+01 0.26344625876E+01 0.25857771086E+01
 0.26344199320E+01 0.27818390141E+01 0.30324237003E+01 0.33935305181E+01 0.38745915441E+01
 0.44840879160E+01 0.52237705968E+01 0.60810092318E+01 0.70215286546E+01 0.79853558700E+01
 0.88887297262E+01 0.96339928805E+01 0.10127289135E+02 0.10300098661E+02 0.10127241864E+02
 0.96339226787E+01 0.88886733309E+01 0.79853441437E+01 0.70215667979E+01 0.65016305612E+01
 0.54502161136E+01 0.45736973645E+01 0.38745153426E+01 0.33410617810E+01 0.29573999330E+01
 0.27095038837E+01 0.25878584050E+01 0.25878397933E+01 0.27094689565E+01 0.29573936950E+01
 0.33411102059E+01 0.38745915441E+01 0.45737382613E+01 0.54501839951E+01 0.65015552854E+01
 0.77004625771E+01 0.89858017851E+01 0.10260098058E+02 0.11396371322E+02 0.12256873503E+02
 0.12722125386E+02 0.12722102493E+02 0.12256807160E+02 0.11396277129E+02 0.10260015286E+02
 0.89857777072E+01 0.77005106429E+01 0.66498623409E+01 0.54502145698E+01 0.44840456113E+01
 0.37389534832E+01 0.31917364300E+01 0.28189408449E+01 0.26024976628E+01 0.25315368929E+01
 0.26024862252E+01 0.28189427473E+01 0.31917767009E+01 0.37390215467E+01 0.44840879160E+01
 0.54501839951E+01 0.66497812620E+01 0.80705623250E+01 0.96615804685E+01 0.11323969696E+02
 0.12910737421E+02 0.14241012655E+02 0.15132355390E+02 0.15446356074E+02 0.15132382612E+02
 0.14241003604E+02 0.12910652657E+02 0.11323857168E+02 0.96615310795E+01 0.80706087354E+01
 0.65016294325E+01 0.52237938764E+01 0.42287972982E+01 0.34878898216E+01 0.29671010742E+01
 0.26370116966E+01 0.24771314471E+01 0.24771321927E+01 0.26370217903E+01 0.29671347289E+01
 0.34879436088E+01 0.42288343888E+01 0.52237705968E+01 0.65015552854E+01 0.80705623250E+01
 0.99009098206E+01 0.11908346830E+02 0.13944346962E+02 0.15798982737E+02 0.17217630017E+02
 0.17982771129E+02 0.17982845704E+02 0.17217767763E+02 0.15799025072E+02 0.13944240860E+02
 0.11908193331E+02 0.99008410229E+01 0.80706050188E+01 0.60810741456E+01 0.48058990105E+01
 0.38452089142E+01 0.31560963681E+01 0.26968408810E+01 0.24348278681E+01 0.23497748842E+01
 0.24348318017E+01 0.26968600871E+01 0.31561316469E+01 0.38452340054E+01 0.48058781460E+01
 0.60810092318E+01 0.77004625771E+01 0.96615804685E+01 0.11908346830E+02 0.14312515440E+02
 0.16659114550E+02 0.18632053380E+02 0.19937083410E+02 0.20392351828E+02 0.19937271651E+02
 0.18632243147E+02 0.16659131189E+02 0.14312364317E+02 0.11908176816E+02 0.96615169012E+01
 0.77005051114E+01 0.54530729853E+01 0.42563883920E+01 0.33842989502E+01 0.27845545872E+01
 0.24118508359E+01 0.22338560247E+01 0.22338522722E+01 0.24118504961E+01 0.27845702158E+01
 0.33843152343E+01 0.42563716309E+01 0.54530168535E+01 0.70215286546E+01 0.89858017851E+01
 0.11323969696E+02 0.13944346962E+02 0.16659114550E+02 0.19132401804E+02 0.20998676646E+02
 0.21997829542E+02 0.21997946878E+02 0.20998921468E+02 0.19132561898E+02 0.16659076599E+02
 0.13944178013E+02 0.11323819610E+02 0.89857598203E+01 0.70215736867E+01 0.47045692614E+01
 0.36446972242E+01 0.28991112090E+01 0.24118517116E+01 0.21384050522E+01 0.20504813503E+01
 0.21383957406E+01 0.24118525467E+01 0.28991245523E+01 0.36446949909E+01 0.47045305186E+01
 0.61366539800E+01 0.79853558700E+01 0.10260098058E+02 0.12910737421E+02 0.15798982737E+02
 0.18632053380E+02 0.20998676646E+02 0.22560721948E+02 0.23105556939E+02 0.22560923814E+02
 0.20998914184E+02 0.18632151113E+02 0.15798902591E+02 0.12910579844E+02 0.10259988800E+02
 0.79853442061E+01 0.61367007633E+01 0.39234906087E+01 0.30351908838E+01 0.24348271303E+01
 0.20679113417E+01 0.18948248908E+01 0.18948190034E+01 0.20679053716E+01 0.24348357129E+01
 0.30352025261E+01 0.39234776482E+01 0.51615453762E+01 0.68057972305E+01 0.88887297262E+01
 0.11396371322E+02 0.14241012655E+02 0.17217630017E+02 0.19937083410E+02 0.21997829542E+02
 0.23105556939E+02 0.23105653230E+02 0.21998038111E+02 0.19937241211E+02 0.17217639440E+02
 0.14240908500E+02 0.11396260703E+02 0.88886888562E+01 0.68058232872E+01 0.51615856764E+01
 0.31826701530E+01 0.24771220046E+01 0.20228455388E+01 0.17711792350E+01 0.16908681821E+01
 0.17711712395E+01 0.20228449171E+01 0.24771349475E+01 0.31826796751E+01 0.41995042407E+01
 0.55885344662E+01 0.73960187241E+01 0.96339928805E+01 0.12256873503E+02 0.15132355390E+02
 0.17982771129E+02 0.20392351828E+02 0.21997946878E+02 0.22560923814E+02 0.21998038111E+02
 0.20392446630E+02 0.17982789660E+02 0.15132302128E+02 0.12256815678E+02 0.96339839866E+01
 0.73960558980E+01 0.55885778651E+01 0.41995212398E+01 0.25315172047E+01 0.20002833692E+01
 0.16792927173E+01 0.15291193650E+01 0.15291120882E+01 0.16792821670E+01 0.20002882486E+01
 0.25315387561E+01 0.33267250501E+01 0.44454538608E+01 0.59401523709E+01 0.78391764965E+01
 0.10127289135E+02 0.12722125386E+02 0.15446356074E+02 0.17982845704E+02 0.19937271651E+02
 0.20998921468E+02 0.20998914184E+02 0.19937241211E+02 0.17982789660E+02 0.15446306038E+02
 0.12722124988E+02 0.10127346628E+02 0.78392555830E+01 0.59402082044E+01 0.44454673781E+01
 0.33267076784E+01 0.19946147518E+01 0.16157690270E+01 0.14072761262E+01 0.13409764825E+01
 0.14072591140E+01 0.16157606569E+01 0.19946336566E+01 0.25878600980E+01 0.34492115736E+01
 0.46316539476E+01 0.61726798437E+01 0.80774407930E+01 0.10300098661E+02 0.12722102493E+02
 0.15132382612E+02 0.17217767763E+02 0.18632243147E+02 0.19132561898E+02 0.18632151113E+02
 0.17217639440E+02 0.15132302128E+02 0.12722124988E+02 0.10300204797E+02 0.80775571811E+01
 0.61727456993E+01 0.46316588465E+01 0.34491794004E+01 0.25878217840E+01 0.15754366831E+01
 0.13205060768E+01 0.12014016020E+01 0.12013881608E+01 0.13204843840E+01 0.15754369249E+01
 0.19986069377E+01 0.26344622009E+01 0.35319478597E+01 0.47323135739E+01 0.62541178507E+01
 0.80774357089E+01 0.10127241864E+02 0.12256807160E+02 0.14241003604E+02 0.15799025072E+02
 0.16659131189E+02 0.16659076599E+02 0.15798902591E+02 0.14240908500E+02 0.12256815678E+02
 0.10127346628E+02 0.80775571811E+01 0.62541837203E+01 0.47323136126E+01 0.35319127216E+01
 0.26344206164E+01 0.19985786059E+01 0.12633684796E+01 0.11036474653E+01 0.10527259623E+01
 0.11036259304E+01 0.12633504584E+01 0.15526749839E+01 0.20047890959E+01 0.26608863097E+01
 0.35612241292E+01 0.47323082516E+01 0.61726857475E+01 0.78391623162E+01 0.96339226787E+01
 0.11396277129E+02 0.12910652657E+02 0.13944240860E+02 0.14312364317E+02 0.13944178013E+02
 0.12910579844E+02 0.11396260703E+02 0.96339839866E+01 0.78392555830E+01 0.61727456993E+01
 0.47323136126E+01 0.35612002778E+01 0.26608606866E+01 0.20047716940E+01 0.15526731838E+01
 0.10418061648E+01 0.95263052039E+00 0.95262277832E+00 0.10417903108E+01 0.12311590097E+01
 0.15426817698E+01 0.20075544607E+01 0.26608799154E+01 0.35319270758E+01 0.46316414071E+01
 0.59401549010E+01 0.73960015572E+01 0.88886733309E+01 0.10260015286E+02 0.11323857168E+02
 0.11908193331E+02 0.11908176816E+02 0.11323819610E+02 0.10259988800E+02 0.88886888562E+01
 0.73960558980E+01 0.59402082044E+01 0.46316588465E+01 0.35319127216E+01 0.26608606866E+01
 0.20075462863E+01 0.15426848476E+01 0.12311710078E+01 0.89484332047E+00 0.85720420177E+00
 0.89484148499E+00 0.10118512676E+01 0.12207923163E+01 0.15426861064E+01 0.20047940211E+01
 0.26344545325E+01 0.34491938075E+01 0.44454419411E+01 0.55885301831E+01 0.68057909584E+01
 0.79853441437E+01 0.89857777072E+01 0.96615310795E+01 0.99008410229E+01 0.96615169012E+01
 0.89857598203E+01 0.79853442061E+01 0.68058232872E+01 0.55885778651E+01 0.44454673781E+01
 0.34491794004E+01 0.26344206164E+01 0.20047716940E+01 0.15426848476E+01 0.12208006167E+01
 0.10118573527E+01 0.81093012363E+00 0.81093284227E+00 0.87593102271E+00 0.10118500056E+01
 0.12311597959E+01 0.15526788465E+01 0.19986134142E+01 0.25878676479E+01 0.33267288413E+01
 0.41995017571E+01 0.51615454893E+01 0.61366712937E+01 0.70215667979E+01 0.77005106429E+01
 0.80706087354E+01 0.80706050188E+01 0.77005051114E+01 0.70215736867E+01 0.61367007633E+01
 0.51615856764E+01 0.41995212398E+01 0.33267076784E+01 0.25878217840E+01 0.19985786059E+01
 0.15526731838E+01 0.12311710078E+01 0.10118573527E+01 0.87592894528E+00 0.81093454693E+00
 0.85720553316E+00 0.95262954168E+00 0.11036340544E+01 0.13204756184E+01 0.16157381449E+01
 0.20002782758E+01 0.24771484324E+01 0.30352257388E+01 0.36447146168E+01 0.42563858105E+01
 0.48058918347E+01 0.52237916025E+01 0.54502131430E+01 0.54502119479E+01 0.52237938064E+01
 0.48059023667E+01 0.42563928927E+01 0.36447004134E+01 0.30351925219E+01 0.24771221070E+01
 0.20002808193E+01 0.16157640569E+01 0.13205014689E+01 0.11036453126E+01 0.95263008531E+00
 0.85720446419E+00 0.81093444927E+00 0.85720553316E+00 0.91358842965E+00 0.10109540984E+01
 0.11551341649E+01 0.13544606808E+01 0.16177748064E+01 0.19505263936E+01 0.23497949533E+01
 0.27998503359E+01 0.32700645453E+01 0.37165225652E+01 0.40878643555E+01 0.43348398675E+01
 0.44215573102E+01 0.43348346767E+01 0.40878611830E+01 0.37165198699E+01 0.32700499404E+01
 0.27998214246E+01 0.23497721571E+01 0.19505331130E+01 0.16178081226E+01 0.13544933316E+01
 0.11551462542E+01 0.10109518511E+01 0.91358784472E+00 0.85720916066E+00 0.83871883467E+00
 0.95262954168E+00 0.10109540984E+01 0.11025529997E+01 0.12327631407E+01 0.14080758332E+01
 0.16339636347E+01 0.19115362250E+01 0.22338678867E+01 0.25833643386E+01 0.29315517343E+01
 0.32420650337E+01 0.34766792556E+01 0.36032201893E+01 0.36032166357E+01 0.34766711691E+01
 0.32420557286E+01 0.29315405643E+01 0.25833516375E+01 0.22338614200E+01 0.19115450397E+01
 0.16339846022E+01 0.14080930159E+01 0.12327643406E+01 0.11025428232E+01 0.10109463062E+01
 0.95262965673E+00 0.92422296120E+00 0.92422123706E+00 0.11036340544E+01 0.11551341649E+01
 0.12327631407E+01 0.13415435817E+01 0.14863491908E+01 0.16699014763E+01 0.18902468524E+01
 0.21383991259E+01 0.23971824811E+01 0.26422175180E+01 0.28453672880E+01 0.29800840657E+01
 0.30273033035E+01 0.29800810443E+01 0.28453609473E+01 0.26422103663E+01 0.23971807349E+01
 0.21384072257E+01 0.18902604302E+01 0.16699092789E+01 0.14863445575E+01 0.13415315055E+01
 0.12327532934E+01 0.11551299314E+01 0.11036322980E+01 0.10743145116E+01 0.10648011122E+01
 0.10743158880E+01 0.13204756184E+01 0.13544606808E+01 0.14080758332E+01 0.14863491908E+01
 0.15929905999E+01 0.17288359905E+01 0.18902464793E+01 0.20678938888E+01 0.22466261962E+01
 0.24070144900E+01 0.25286292060E+01 0.25943352184E+01 0.25943363563E+01 0.25286298934E+01
 0.24070117855E+01 0.22466238578E+01 0.20678980698E+01 0.18902545633E+01 0.17288365928E+01
 0.15929787143E+01 0.14863357135E+01 0.14080749347E+01 0.13544710184E+01 0.13204830563E+01
 0.13011211883E+01 0.12924967080E+01 0.12924996104E+01 0.13011230808E+01 0.16157381449E+01
 0.16177748064E+01 0.16339636347E+01 0.16699014763E+01 0.17288359905E+01 0.18107310818E+01
 0.19115359704E+01 0.20228279979E+01 0.21322739777E+01 0.22253098865E+01 0.22879598955E+01
 0.23100821927E+01 0.22879628442E+01 0.22253102703E+01 0.21322695121E+01 0.20228223561E+01
 0.19115313846E+01 0.18107243804E+01 0.17288258120E+01 0.16698946004E+01 0.16339680995E+01
 0.16177882753E+01 0.16157489489E+01 0.16211047182E+01 0.16274296954E+01 0.16301017961E+01
 0.16274338425E+01 0.16211039145E+01 0.20002782758E+01 0.19505263936E+01 0.19115362250E+01
 0.18902468524E+01 0.18902464793E+01 0.19115359704E+01 0.19505273184E+01 0.20002800072E+01
 0.20512884599E+01 0.20931035884E+01 0.21166603816E+01 0.21166606785E+01 0.20931017422E+01
 0.20512819710E+01 0.20002723920E+01 0.19505224549E+01 0.19115321087E+01 0.18902413648E+01
 0.18902431457E+01 0.19115361567E+01 0.19505266186E+01 0.20002757645E+01 0.20512840822E+01
 0.20931014923E+01 0.21166578229E+01 0.21166566622E+01 0.20931007674E+01 0.20512864627E+01
 0.24771484324E+01 0.23497949533E+01 0.22338678867E+01 0.21383991259E+01 0.20678938888E+01
 0.20228279979E+01 0.20002800072E+01 0.19946380181E+01 0.19986166163E+01 0.20047968382E+01
 0.20075573340E+01 0.20047899363E+01 0.19986035718E+01 0.19946276138E+01 0.20002828719E+01
 0.20228414125E+01 0.20679037524E+01 0.21383974053E+01 0.22338578918E+01 0.23497814508E+01
 0.24771350270E+01 0.26024977132E+01 0.27095019431E+01 0.27818816007E+01 0.28075040221E+01
 0.27818704860E+01 0.27094946751E+01 0.26025033685E+01 0.30352257388E+01 0.27998503359E+01
 0.25833643386E+01 0.23971824811E+01 0.22466261962E+01 0.21322739777E+01 0.20512884599E+01
 0.19986166163E+01 0.19682443228E+01 0.19547037487E+01 0.19546966178E+01 0.19682257983E+01
 0.19985994107E+01 0.20512916214E+01 0.21323012557E+01 0.22466553099E+01 0.23971881055E+01
 0.25833460439E+01 0.27998282372E+01 0.30352158678E+01 0.32712120747E+01 0.34835344420E+01
 0.36453720018E+01 0.37332109799E+01 0.37332044090E+01 0.36453572055E+01 0.34835210062E+01
 0.32712077465E+01 0.36447146168E+01 0.32700645453E+01 0.29315517343E+01 0.26422175180E+01
 0.24070144900E+01 0.22253098865E+01 0.20931035884E+01 0.20047968382E+01 0.19547037487E+01
 0.19385351021E+01 0.19546871755E+01 0.20047787191E+01 0.20931063612E+01 0.22253424487E+01
 0.24070556917E+01 0.26422324796E+01 0.29315302460E+01 0.32700338995E+01 0.36447081189E+01
 0.40323160512E+01 0.43992146119E+01 0.47046601955E+01 0.49082486980E+01 0.49798461607E+01
 0.49082509670E+01 0.47046513055E+01 0.43991902570E+01 0.40322951553E+01 0.42563858105E+01
 0.37165225652E+01 0.32420650337E+01 0.28453672880E+01 0.25286292060E+01 0.22879598955E+01
 0.21166603816E+01 0.20075573340E+01 0.19546966178E+01 0.19546871755E+01 0.20075428921E+01
 0.21166680500E+01 0.22879999739E+01 0.25286792588E+01 0.28453894636E+01 0.32420436605E+01
 0.37164836527E+01 0.42563729622E+01 0.48351956395E+01 0.54101194140E+01 0.59241393654E+01
 0.63143576603E+01 0.65256868728E+01 0.65256980492E+01 0.63143716120E+01 0.59241248673E+01
 0.54100788957E+01 0.48351672369E+01 0.48058918347E+01 0.40878643555E+01 0.34766792556E+01
 0.29800840657E+01 0.25943352184E+01 0.23100821927E+01 0.21166606785E+01 0.20047899363E+01
 0.19682257983E+01 0.20047787191E+01 0.21166680500E+01 0.23101263335E+01 0.25943934882E+01
 0.29801124908E+01 0.34766576531E+01 0.40878183017E+01 0.48058701079E+01 0.56050261928E+01
 0.64363011095E+01 0.72269012649E+01 0.78875498345E+01 0.83290456251E+01 0.84845265416E+01
 0.83290684506E+01 0.78875565580E+01 0.72268653223E+01 0.64362446649E+01 0.56049975423E+01
 0.52237916025E+01 0.43348398675E+01 0.36032201893E+01 0.30273033035E+01 0.25943363563E+01
 0.22879628442E+01 0.20931017422E+01 0.19986035718E+01 0.19985994107E+01 0.20931063612E+01
 0.22879999739E+01 0.25943934882E+01 0.30273355277E+01 0.36031988445E+01 0.43347873850E+01
 0.52237634373E+01 0.62512472989E+01 0.73687284676E+01 0.84927910091E+01 0.95085216960E+01
 0.10285979218E+02 0.10709244279E+02 0.10709269661E+02 0.10286023007E+02 0.95085244690E+01
 0.84927340377E+01 0.73686540894E+01 0.62512147282E+01 0.54502131430E+01 0.44215573102E+01
 0.36032166357E+01 0.29800810443E+01 0.25286298934E+01 0.22253102703E+01 0.20512819710E+01
 0.19946276138E+01 0.20512916214E+01 0.22253424487E+01 0.25286792588E+01 0.29801124908E+01
 0.36031988445E+01 0.44215042220E+01 0.54501819952E+01 0.66841583293E+01 0.80848406977E+01
 0.95687367471E+01 0.11003547466E+02 0.12219380751E+02 0.13040291008E+02 0.13330996697E+02
 0.13040391388E+02 0.12219484817E+02 0.11003560646E+02 0.95686548039E+01 0.80847407310E+01
 0.66841177535E+01 0.54502119479E+01 0.43348346767E+01 0.34766711691E+01 0.28453609473E+01
 0.24070117855E+01 0.21322695121E+01 0.20002723920E+01 0.20002828719E+01 0.21323012557E+01
 0.24070556917E+01 0.28453894636E+01 0.34766576531E+01 0.43347873850E+01 0.54501819952E+01
 0.68367716651E+01 0.84754375294E+01 0.10296535480E+02 0.12166501994E+02 0.13888015814E+02
 0.15225713279E+02 0.15961233943E+02 0.15961334153E+02 0.15225928037E+02 0.13888172289E+02
 0.12166500020E+02 0.10296416244E+02 0.84753159123E+01 0.68367274329E+01 0.52237938064E+01
 0.40878611830E+01 0.32420557286E+01 0.26422103663E+01 0.22466238578E+01 0.20228223561E+01
 0.19505224549E+01 0.20228414125E+01 0.22466553099E+01 0.26422324796E+01 0.32420436605E+01
 0.40878183017E+01 0.52237634373E+01 0.66841583293E+01 0.84754375294E+01 0.10554466248E+02
 0.12806300501E+02 0.15029989190E+02 0.16949044196E+02 0.18262409360E+02 0.18730881161E+02
 0.18262623316E+02 0.16949305276E+02 0.15030119861E+02 0.12806254229E+02 0.10554327271E+02
 0.84753204802E+01 0.66841222384E+01 0.48059023667E+01 0.37165198699E+01 0.29315405643E+01
 0.23971807349E+01 0.20678980698E+01 0.19115313846E+01 0.19115321087E+01 0.20679037524E+01
 0.23971881055E+01 0.29315302460E+01 0.37164836527E+01 0.48058701079E+01 0.62512472989E+01
 0.80848406977E+01 0.10296535480E+02 0.12806300501E+02 0.15437262185E+02 0.17905671881E+02
 0.19852719213E+02 0.20930937794E+02 0.20931035845E+02 0.19852940985E+02 0.17905867617E+02
 0.15437329772E+02 0.12806242442E+02 0.10296424363E+02 0.80847558379E+01 0.62512286986E+01
 0.42563928927E+01 0.32700499404E+01 0.25833516375E+01 0.21384072257E+01 0.18902545633E+01
 0.18107243804E+01 0.18902413648E+01 0.21383974053E+01 0.25833460439E+01 0.32700338995E+01
 0.42563729622E+01 0.56050261928E+01 0.73687284676E+01 0.95687367471E+01 0.12166501994E+02
 0.15029989190E+02 0.17905671881E+02 0.20421995191E+02 0.22152467308E+02 0.22769380940E+02
 0.22152555705E+02 0.20422124883E+02 0.17905783848E+02 0.15030043094E+02 0.12166487853E+02
 0.95686802968E+01 0.73686795369E+01 0.56050179960E+01 0.36447004134E+01 0.27998214246E+01
 0.22338614200E+01 0.18902604302E+01 0.17288365928E+01 0.17288258120E+01 0.18902431457E+01
 0.22338578918E+01 0.27998282372E+01 0.36447081189E+01 0.48351956395E+01 0.64363011095E+01
 0.84927910091E+01 0.11003547466E+02 0.13888015814E+02 0.16949044196E+02 0.19852719213E+02
 0.22152467308E+02 0.23425434596E+02 0.23425426701E+02 0.22152463044E+02 0.19852755149E+02
 0.16949128108E+02 0.13888105985E+02 0.11003590565E+02 0.84927787286E+01 0.64362711717E+01
 0.48351786490E+01 0.30351925219E+01 0.23497721571E+01 0.19115450397E+01 0.16699092789E+01
 0.15929787143E+01 0.16698946004E+01 0.19115361567E+01 0.23497814508E+01 0.30352158678E+01
 0.40323160512E+01 0.54101194140E+01 0.72269012649E+01 0.95085216960E+01 0.12219380751E+02
 0.15225713279E+02 0.18262409360E+02 0.20930937794E+02 0.22769380940E+02 0.23425426701E+02
 0.22769281518E+02 0.20930832591E+02 0.18262399484E+02 0.15225814464E+02 0.12219515681E+02
 0.95086030254E+01 0.72269085285E+01 0.54100893985E+01 0.40322839418E+01 0.24771221070E+01
 0.19505331130E+01 0.16339846022E+01 0.14863445575E+01 0.14863357135E+01 0.16339680995E+01
 0.19505266186E+01 0.24771350270E+01 0.32712120747E+01 0.43992146119E+01 0.59241393654E+01
 0.78875498345E+01 0.10285979218E+02 0.13040291008E+02 0.15961233943E+02 0.18730881161E+02
 0.20931035845E+02 0.22152555705E+02 0.22152463044E+02 0.20930832591E+02 0.18730728757E+02
 0.15961244872E+02 0.13040440228E+02 0.10286144601E+02 0.78876326242E+01 0.59241342018E+01
 0.43991740428E+01 0.32711788013E+01 0.20002808193E+01 0.16178081226E+01 0.14080930159E+01
 0.13415315055E+01 0.14080749347E+01 0.16177882753E+01 0.20002757645E+01 0.26024977132E+01
 0.34835344420E+01 0.47046601955E+01 0.63143576603E+01 0.83290456251E+01 0.10709244279E+02
 0.13330996697E+02 0.15961334153E+02 0.18262623316E+02 0.19852940985E+02 0.20422124883E+02
 0.19852755149E+02 0.18262399484E+02 0.15961244872E+02 0.13331095894E+02 0.10709434270E+02
 0.83291836572E+01 0.63143839503E+01 0.47046167466E+01 0.34834875275E+01 0.26024773663E+01
 0.16157640569E+01 0.13544933316E+01 0.12327643406E+01 0.12327532934E+01 0.13544710184E+01
 0.16157489489E+01 0.20512840822E+01 0.27095019431E+01 0.36453720018E+01 0.49082486980E+01
 0.65256868728E+01 0.84845265416E+01 0.10709269661E+02 0.13040391388E+02 0.15225928037E+02
 0.16949305276E+02 0.17905867617E+02 0.17905783848E+02 0.16949128108E+02 0.15225814464E+02
 0.13040440228E+02 0.10709434270E+02 0.84846704176E+01 0.65257209103E+01 0.49081963938E+01
 0.36453083012E+01 0.27094687971E+01 0.20512804187E+01 0.13205014689E+01 0.11551462542E+01
 0.11025428232E+01 0.11551299314E+01 0.13204830563E+01 0.16211047182E+01 0.20931014923E+01
 0.27818816007E+01 0.37332109799E+01 0.49798461607E+01 0.65256980492E+01 0.83290684506E+01
 0.10286023007E+02 0.12219484817E+02 0.13888172289E+02 0.15030119861E+02 0.15437329772E+02
 0.15030043094E+02 0.13888105985E+02 0.12219515681E+02 0.10286144601E+02 0.83291836572E+01
 0.65257209103E+01 0.49797856138E+01 0.37331402140E+01 0.27818486927E+01 0.20931005344E+01
 0.16211166495E+01 0.11036453126E+01 0.10109518511E+01 0.10109463062E+01 0.11036322980E+01
 0.13011211883E+01 0.16274296954E+01 0.21166578229E+01 0.28075040221E+01 0.37332044090E+01
 0.49082509670E+01 0.63143716120E+01 0.78875565580E+01 0.95085244690E+01 0.11003560646E+02
 0.12166500020E+02 0.12806254229E+02 0.12806242442E+02 0.12166487853E+02 0.11003590565E+02
 0.95086030254E+01 0.78876326242E+01 0.63143839503E+01 0.49081963938E+01 0.37331402140E+01
 0.28074809761E+01 0.21166735757E+01 0.16274541078E+01 0.13011393645E+01 0.95263008531E+00
 0.91358784472E+00 0.95262965673E+00 0.10743145116E+01 0.12924967080E+01 0.16301017961E+01
 0.21166566622E+01 0.27818704860E+01 0.36453572055E+01 0.47046513055E+01 0.59241248673E+01
 0.72268653223E+01 0.84927340377E+01 0.95686548039E+01 0.10296416244E+02 0.10554327271E+02
 0.10296424363E+02 0.95686802968E+01 0.84927787286E+01 0.72269085285E+01 0.59241342018E+01
 0.47046167466E+01 0.36453083012E+01 0.27818486927E+01 0.21166735757E+01 0.16301344773E+01
 0.12925195218E+01 0.10743220756E+01 0.85720446419E+00 0.85720916066E+00 0.92422296120E+00
 0.10648011122E+01 0.12924996104E+01 0.16274338425E+01 0.20931007674E+01 0.27094946751E+01
 0.34835210062E+01 0.43991902570E+01 0.54100788957E+01 0.64362446649E+01 0.73686540894E+01
 0.80847407310E+01 0.84753159123E+01 0.84753204802E+01 0.80847558379E+01 0.73686795369E+01
 0.64362711717E+01 0.54100893985E+01 0.43991740428E+01 0.34834875275E+01 0.27094687971E+01
 0.20931005344E+01 0.16274541078E+01 0.12925195218E+01 0.10648059324E+01 0.92421615396E+00
 0.81093444927E+00 0.83871883467E+00 0.92422123706E+00 0.10743158880E+01 0.13011230808E+01
 0.16211039145E+01 0.20512864627E+01 0.26025033685E+01 0.32712077465E+01 0.40322951553E+01
 0.48351672369E+01 0.56049975423E+01 0.62512147282E+01 0.66841177535E+01 0.68367274329E+01
 0.66841222384E+01 0.62512286986E+01 0.56050179960E+01 0.48351786490E+01 0.40322839418E+01
 0.32711788013E+01 0.26024773663E+01 0.20512804187E+01 0.16211166495E+01 0.13011393645E+01
 0.10743220756E+01 0.92421615396E+00 0.83871173583E+00 0.89484385012E+00 0.95263114171E+00
 0.10527390608E+01 0.12014052357E+01 0.14072594249E+01 0.16792644310E+01 0.20228276197E+01
 0.24348319078E+01 0.28991300790E+01 0.33843152721E+01 0.38452162484E+01 0.42288001119E+01
 0.44840471818E+01 0.45736958715E+01 0.44840456871E+01 0.42288010661E+01 0.38452158082E+01
 0.33843043817E+01 0.28991121936E+01 0.24348250635E+01 0.20228419217E+01 0.16792869956E+01
 0.14072695602E+01 0.12013982284E+01 0.10527273259E+01 0.95262601219E+00 0.89484441472E+00
 0.87593465695E+00 0.95263114171E+00 0.10109543183E+01 0.11025521439E+01 0.12327626593E+01
 0.14080760750E+01 0.16339634905E+01 0.19115352506E+01 0.22338667350E+01 0.25833628979E+01
 0.29315490662E+01 0.32420615709E+01 0.34766769797E+01 0.36032201898E+01 0.36032183480E+01
 0.34766741103E+01 0.32420597841E+01 0.29315443110E+01 0.25833527135E+01 0.22338592078E+01
 0.19115411897E+01 0.16339806889E+01 0.14080896264E+01 0.12327624861E+01 0.11025438227E+01
 0.10109497183E+01 0.95263335905E+00 0.92422573262E+00 0.92422343224E+00 0.10527390608E+01
 0.11025521439E+01 0.11773265139E+01 0.12819150300E+01 0.14212012762E+01 0.15980542942E+01