   2   2   0   0
  0.2001288E+02  0.3839590E-09  0.3839590E-09  0.3839590E-09  0.5000000E-15
  1.000000000000000E-004
  CAR 
 unknown system                          
     14.80738202     -7.30201923  301      6.03746347      1.00000000
     -7.302  0.0000E+00  0.0000E+00
     -7.228  0.0000E+00  0.0000E+00
     -7.155  0.0000E+00  0.0000E+00
     -7.081  0.0000E+00  0.0000E+00
     -7.007  0.0000E+00  0.0000E+00
     -6.934  0.0000E+00  0.0000E+00
     -6.860  0.0000E+00  0.0000E+00
     -6.786  0.0000E+00  0.0000E+00
     -6.712  0.0000E+00  0.0000E+00
     -6.639  0.0000E+00  0.0000E+00
     -6.565  0.0000E+00  0.0000E+00
     -6.491  0.0000E+00  0.0000E+00
     -6.418  0.7030E-15  0.5181E-16
     -6.344  0.3862E-13  0.2898E-14
     -6.270  0.1673E-11  0.1262E-12
     -6.197  0.5545E-10  0.4213E-11
     -6.123  0.1406E-08  0.1078E-09
     -6.049  0.2727E-07  0.2118E-08
     -5.975  0.4049E-06  0.3196E-07
     -5.902  0.4603E-05  0.3712E-06
     -5.828  0.4008E-04  0.3325E-05
     -5.754  0.2673E-03  0.2302E-04
     -5.681  0.1365E-02  0.1237E-03
     -5.607  0.5346E-02  0.5177E-03
     -5.533  0.1605E-01  0.1700E-02
     -5.460  0.3692E-01  0.4421E-02
     -5.386  0.6512E-01  0.9221E-02
     -5.312  0.8809E-01  0.1571E-01
     -5.238  0.9137E-01  0.2245E-01
     -5.165  0.7268E-01  0.2780E-01
     -5.091  0.4433E-01  0.3107E-01
     -5.017  0.2073E-01  0.3260E-01
     -4.944  0.7432E-02  0.3315E-01
     -4.870  0.2042E-02  0.3330E-01
     -4.796  0.4302E-03  0.3333E-01
     -4.723  0.6942E-04  0.3333E-01
     -4.649  0.8583E-05  0.3333E-01
     -4.575  0.8126E-06  0.3333E-01
     -4.501  0.5891E-07  0.3333E-01
     -4.428  0.3269E-08  0.3333E-01
     -4.354  0.1426E-09  0.3333E-01
     -4.280  0.1336E-09  0.3333E-01
     -4.207  0.3339E-08  0.3333E-01
     -4.133  0.6609E-07  0.3333E-01
     -4.059  0.1001E-05  0.3333E-01
     -3.986  0.1161E-04  0.3333E-01
     -3.912  0.1031E-03  0.3334E-01
     -3.838  0.7017E-03  0.3339E-01
     -3.765  0.3658E-02  0.3366E-01
     -3.691  0.1461E-01  0.3474E-01
     -3.617  0.4473E-01  0.3804E-01
     -3.543  0.1050E+00  0.4578E-01
     -3.470  0.1890E+00  0.5970E-01
     -3.396  0.2607E+00  0.7892E-01
     -3.322  0.2759E+00  0.9925E-01
     -3.249  0.2239E+00  0.1157E+00
     -3.175  0.1393E+00  0.1260E+00
     -3.101  0.6645E-01  0.1309E+00
     -3.028  0.2431E-01  0.1327E+00
     -2.954  0.6814E-02  0.1332E+00
     -2.880  0.1464E-02  0.1333E+00
     -2.806  0.2411E-03  0.1333E+00
     -2.733  0.3041E-04  0.1333E+00
     -2.659  0.2937E-05  0.1333E+00
     -2.585  0.2172E-06  0.1333E+00
     -2.512  0.1230E-07  0.1333E+00
     -2.438  0.5328E-09  0.1333E+00
     -2.364  0.1766E-10  0.1333E+00
     -2.291  0.4480E-12  0.1333E+00
     -2.217  0.8587E-14  0.1333E+00
     -2.143  0.1506E-15  0.1333E+00
     -2.069  0.0000E+00  0.1333E+00
     -1.996  0.0000E+00  0.1333E+00
     -1.922  0.0000E+00  0.1333E+00
     -1.848  0.0000E+00  0.1333E+00
     -1.775  0.0000E+00  0.1333E+00
     -1.701  0.7532E-16  0.1333E+00
     -1.627  0.2862E-14  0.1333E+00
     -1.554  0.1605E-12  0.1333E+00
     -1.480  0.6801E-11  0.1333E+00
     -1.406  0.2204E-09  0.1333E+00
     -1.332  0.5463E-08  0.1333E+00
     -1.259  0.1036E-06  0.1333E+00
     -1.185  0.1505E-05  0.1333E+00
     -1.111  0.1673E-04  0.1333E+00
     -1.038  0.1424E-03  0.1333E+00
     -0.964  0.9286E-03  0.1334E+00
     -0.890  0.4640E-02  0.1338E+00
     -0.817  0.1777E-01  0.1351E+00
     -0.743  0.5215E-01  0.1389E+00
     -0.669  0.1173E+00  0.1476E+00
     -0.596  0.2024E+00  0.1625E+00
     -0.522  0.2678E+00  0.1822E+00
     -0.448  0.2717E+00  0.2022E+00
     -0.374  0.2113E+00  0.2178E+00
     -0.301  0.1261E+00  0.2271E+00
     -0.227  0.5765E-01  0.2313E+00
     -0.153  0.2021E-01  0.2328E+00
     -0.080  0.5433E-02  0.2332E+00
     -0.006  0.1119E-02  0.2333E+00
      0.068  0.1766E-03  0.2333E+00
      0.141  0.2135E-04  0.2333E+00
      0.215  0.1977E-05  0.2333E+00
      0.289  0.1401E-06  0.2333E+00
      0.363  0.7603E-08  0.2333E+00
      0.436  0.3157E-09  0.2333E+00
      0.510  0.1003E-10  0.2333E+00
      0.584  0.2437E-12  0.2333E+00
      0.657  0.4519E-14  0.2333E+00
      0.731  0.0000E+00  0.2333E+00
      0.805  0.2260E-15  0.2333E+00
      0.878  0.1328E-13  0.2333E+00
      0.952  0.6190E-12  0.2333E+00
      1.026  0.2206E-10  0.2333E+00
      1.100  0.6013E-09  0.2333E+00
      1.173  0.1254E-07  0.2333E+00
      1.247  0.2002E-06  0.2333E+00
      1.321  0.2447E-05  0.2333E+00
      1.394  0.2290E-04  0.2333E+00
      1.468  0.1641E-03  0.2333E+00
      1.542  0.9012E-03  0.2334E+00
      1.615  0.3793E-02  0.2337E+00
      1.689  0.1223E-01  0.2346E+00
      1.763  0.3028E-01  0.2368E+00
      1.837  0.5762E-01  0.2411E+00
      1.910  0.8506E-01  0.2473E+00
      1.984  0.1007E+00  0.2548E+00
      2.058  0.1066E+00  0.2626E+00
      2.131  0.1245E+00  0.2718E+00
      2.205  0.1740E+00  0.2846E+00
      2.279  0.2415E+00  0.3024E+00
      2.352  0.2806E+00  0.3231E+00
      2.426  0.2561E+00  0.3420E+00
      2.500  0.1804E+00  0.3553E+00
      2.574  0.9753E-01  0.3625E+00
      2.647  0.4045E-01  0.3654E+00
      2.721  0.1286E-01  0.3664E+00
      2.795  0.3135E-02  0.3666E+00
      2.868  0.5855E-03  0.3667E+00
      2.942  0.8400E-04  0.3667E+00
      3.016  0.1214E-04  0.3667E+00
      3.089  0.3136E-04  0.3667E+00
      3.163  0.2424E-03  0.3667E+00
      3.237  0.1471E-02  0.3668E+00
      3.310  0.6841E-02  0.3673E+00
      3.384  0.2438E-01  0.3691E+00
      3.458  0.6661E-01  0.3740E+00
      3.532  0.1395E+00  0.3843E+00
      3.605  0.2241E+00  0.4008E+00
      3.679  0.2760E+00  0.4211E+00
      3.753  0.2606E+00  0.4403E+00
      3.826  0.1887E+00  0.4543E+00
      3.900  0.1048E+00  0.4620E+00
      3.974  0.4461E-01  0.4653E+00
      4.047  0.1456E-01  0.4663E+00
      4.121  0.3643E-02  0.4666E+00
      4.195  0.6983E-03  0.4667E+00
      4.269  0.1026E-03  0.4667E+00
      4.342  0.1156E-04  0.4667E+00
      4.416  0.1279E-05  0.4667E+00
      4.490  0.3663E-05  0.4667E+00
      4.563  0.3485E-04  0.4667E+00
      4.637  0.2585E-03  0.4667E+00
      4.711  0.1469E-02  0.4668E+00
      4.784  0.6397E-02  0.4673E+00
      4.858  0.2135E-01  0.4688E+00
      4.932  0.5463E-01  0.4729E+00
      5.006  0.1072E+00  0.4808E+00
      5.079  0.1612E+00  0.4926E+00
      5.153  0.1859E+00  0.5063E+00
      5.227  0.1644E+00  0.5185E+00
      5.300  0.1115E+00  0.5267E+00
      5.374  0.5800E-01  0.5310E+00
      5.448  0.2312E-01  0.5327E+00
      5.521  0.7068E-02  0.5332E+00
      5.595  0.1656E-02  0.5333E+00
      5.669  0.2972E-03  0.5333E+00
      5.743  0.4087E-04  0.5333E+00
      5.816  0.4305E-05  0.5333E+00
      5.890  0.3473E-06  0.5333E+00
      5.964  0.2144E-07  0.5333E+00
      6.037  0.1013E-08  0.5333E+00
      6.111  0.3664E-10  0.5333E+00
      6.185  0.1014E-11  0.5333E+00
      6.258  0.2169E-13  0.5333E+00
      6.332  0.1788E-13  0.5333E+00
      6.406  0.8612E-12  0.5333E+00
      6.480  0.3243E-10  0.5333E+00
      6.553  0.9340E-09  0.5333E+00
      6.627  0.2058E-07  0.5333E+00
      6.701  0.3472E-06  0.5333E+00
      6.774  0.4482E-05  0.5333E+00
      6.848  0.4431E-04  0.5333E+00
      6.922  0.3355E-03  0.5334E+00
      6.995  0.1946E-02  0.5335E+00
      7.069  0.8651E-02  0.5341E+00
      7.143  0.2947E-01  0.5363E+00
      7.216  0.7696E-01  0.5420E+00
      7.290  0.1541E+00  0.5533E+00
      7.364  0.2366E+00  0.5708E+00
      7.438  0.2786E+00  0.5913E+00
      7.511  0.2522E+00  0.6099E+00
      7.585  0.1774E+00  0.6230E+00
      7.659  0.1037E+00  0.6306E+00
      7.732  0.6621E-01  0.6355E+00
      7.806  0.6701E-01  0.6404E+00
      7.880  0.8468E-01  0.6467E+00
      7.953  0.9349E-01  0.6536E+00
      8.027  0.8103E-01  0.6595E+00
      8.101  0.5407E-01  0.6635E+00
      8.175  0.2768E-01  0.6656E+00
      8.248  0.1087E-01  0.6664E+00
      8.322  0.3270E-02  0.6666E+00
      8.396  0.7541E-03  0.6667E+00
      8.469  0.1333E-03  0.6667E+00
      8.543  0.1804E-04  0.6667E+00
      8.617  0.1884E-05  0.6667E+00
      8.690  0.3668E-06  0.6667E+00
      8.764  0.2844E-05  0.6667E+00
      8.838  0.2819E-04  0.6667E+00
      8.912  0.2147E-03  0.6667E+00
      8.985  0.1252E-02  0.6668E+00
      9.059  0.5599E-02  0.6672E+00
      9.133  0.1918E-01  0.6686E+00
      9.206  0.5039E-01  0.6723E+00
      9.280  0.1015E+00  0.6798E+00
      9.354  0.1567E+00  0.6913E+00
      9.427  0.1855E+00  0.7050E+00
      9.501  0.1684E+00  0.7174E+00
      9.575  0.1173E+00  0.7261E+00
      9.649  0.6260E-01  0.7307E+00
      9.722  0.2562E-01  0.7326E+00
      9.796  0.8077E-02  0.7332E+00
      9.870  0.2230E-02  0.7333E+00
      9.943  0.2107E-02  0.7335E+00
     10.017  0.7967E-02  0.7341E+00
     10.091  0.2744E-01  0.7361E+00
     10.164  0.7290E-01  0.7415E+00
     10.238  0.1485E+00  0.7524E+00
     10.312  0.2319E+00  0.7695E+00
     10.386  0.2777E+00  0.7900E+00
     10.459  0.2551E+00  0.8088E+00
     10.533  0.1796E+00  0.8220E+00
     10.607  0.9700E-01  0.8292E+00
     10.680  0.4016E-01  0.8321E+00
     10.754  0.1275E-01  0.8331E+00
     10.828  0.3101E-02  0.8333E+00
     10.901  0.5781E-03  0.8333E+00
     10.975  0.8350E-04  0.8333E+00
     11.049  0.2010E-04  0.8333E+00
     11.122  0.9974E-04  0.8333E+00
     11.196  0.6786E-03  0.8334E+00
     11.270  0.3571E-02  0.8337E+00
     11.344  0.1446E-01  0.8347E+00
     11.417  0.4521E-01  0.8381E+00
     11.491  0.1099E+00  0.8462E+00
     11.565  0.2106E+00  0.8617E+00
     11.638  0.3244E+00  0.8856E+00
     11.712  0.4131E+00  0.9160E+00
     11.786  0.4470E+00  0.9490E+00
     11.859  0.4163E+00  0.9797E+00
     11.933  0.3299E+00  0.1004E+01
     12.007  0.2164E+00  0.1020E+01
     12.081  0.1143E+00  0.1028E+01
     12.154  0.4760E-01  0.1032E+01
     12.228  0.1543E-01  0.1033E+01
     12.302  0.3931E-02  0.1033E+01
     12.375  0.1174E-02  0.1033E+01
     12.449  0.2152E-02  0.1034E+01
     12.523  0.7445E-02  0.1034E+01
     12.596  0.2073E-01  0.1036E+01
     12.670  0.4433E-01  0.1039E+01
     12.744  0.7268E-01  0.1044E+01
     12.818  0.9137E-01  0.1051E+01
     12.891  0.8809E-01  0.1057E+01
     12.965  0.6512E-01  0.1062E+01
     13.039  0.3692E-01  0.1065E+01
     13.112  0.1605E-01  0.1066E+01
     13.186  0.5346E-02  0.1067E+01
     13.260  0.1365E-02  0.1067E+01
     13.333  0.2673E-03  0.1067E+01
     13.407  0.4008E-04  0.1067E+01
     13.481  0.4603E-05  0.1067E+01
     13.555  0.4049E-06  0.1067E+01
     13.628  0.2727E-07  0.1067E+01
     13.702  0.1406E-08  0.1067E+01
     13.776  0.5545E-10  0.1067E+01
     13.849  0.1673E-11  0.1067E+01
     13.923  0.3862E-13  0.1067E+01
     13.997  0.7030E-15  0.1067E+01
     14.070  0.0000E+00  0.1067E+01
     14.144  0.0000E+00  0.1067E+01
     14.218  0.0000E+00  0.1067E+01
     14.291  0.0000E+00  0.1067E+01
     14.365  0.0000E+00  0.1067E+01
     14.439  0.0000E+00  0.1067E+01
     14.513  0.0000E+00  0.1067E+01
     14.586  0.0000E+00  0.1067E+01
     14.660  0.0000E+00  0.1067E+01
     14.734  0.0000E+00  0.1067E+01
     14.807  0.0000E+00  0.1067E+01
