       N       E                     dE             d eps       ncg     rms          rms(c)
DAV:   1    -0.106350314165E+02   -0.10635E+02   -0.34653E-05    16   0.473E-02    0.173E-03
DAV:   2    -0.106350316378E+02   -0.22127E-06   -0.14876E-06    16   0.104E-02
   1 F= -.10635032E+02 E0= -.10635032E+02  d E =-.106350E+02
