unknown system                          
   1.00000000000000     
    -2.431763    2.431763    1.339339
     2.431763   -2.431763    1.339339
     2.431763    2.431763   -1.339339
   Si
     2
Direct
  0.750000  0.250000  0.500000
  0.500000  0.500000  0.000000
 
   36   36   36
  9.7132      9.6436      9.4411      9.1230      8.7144      8.2427      7.7337      7.2087      6.6839      6.1720    
  5.6841      5.2312      4.8238      4.4710      4.1794      3.9526      3.7916      3.6956      3.6638      3.6956    
  3.7916      3.9526      4.1794      4.4710      4.8238      5.2312      5.6841      6.1720      6.6839      7.2087    
  7.7337      8.2427      8.7143      9.1230      9.4411      9.6436      9.6436      9.7986      9.8123      9.6878    
  9.4394      9.0893      8.6627      8.1833      7.6711      7.1422      6.6105      6.0895      5.5934      5.1361    
  4.7299      4.3840      4.1034      3.8903      3.7441      3.6637      3.6481      3.6974      3.8122      3.9932    
  4.2400      4.5502      4.9193      5.3411      5.8084      6.3135      6.8476      7.3991      7.9513      8.4812    
  8.9601      9.3571      9.4411      9.8123      10.049      10.138      10.081      9.8896      9.5847      9.1900    
  8.7279      8.2171      7.6736      7.1117      6.5472      5.9972      5.4796      5.0102      4.6013      4.2603    
  3.9904      3.7919      3.6633      3.6031      3.6107      3.6862      3.8301      4.0420      4.3208      4.6639    
  5.0678      5.5287      6.0417      6.6002      7.1931      7.8023      8.4021      8.9601      9.1230      9.6878    
  10.138      10.447      10.599      10.593      10.444      10.170      9.7957      9.3416      8.8248      8.2597    
  7.6605      7.0444      6.4318      5.8448      5.3037      4.8246      4.4181      4.0889      3.8377      3.6628    
  3.5621      3.5340      3.5777      3.6932      3.8806      4.1395      4.4694      4.8695      5.3391      5.8760    
  6.4747      7.1236      7.8023      8.4812      8.7143      9.4394      10.081      10.599      10.962      11.158    
  11.186      11.061      10.807      10.445      9.9945      9.4690      8.8796      8.2393      7.5661      6.8840    
  6.2202      5.6007      5.0466      4.5715      4.1823      3.8801      3.6626      3.5265      3.4691      3.4888    
  3.5851      3.7581      4.0087      4.3384      4.7494      5.2434      5.8203      6.4747      7.1931      7.9513    
  8.2427      9.0893      9.8896      10.593      11.158      11.552      11.761      11.790      11.668      11.425    
  11.083      10.650      10.123      9.5112      8.8289      8.0953      7.3389      6.5933      5.8911      5.2593    
  4.7153      4.2678      3.9179      3.6626      3.4972      3.4176      3.4212      3.5070      3.6758      3.9297    
  4.2726      4.7092      5.2434      5.8760      6.6002      7.3991      7.7337      8.6627      9.5847      10.444    
  11.186      11.761      12.127      12.282      12.263      12.122      11.901      11.612      11.237      10.748    
  10.132      9.4094      8.6141      7.7807      6.9505      6.1642      5.4550      4.8443      4.3423      3.9500    
  3.6629      3.4748      3.3803      3.3757      3.4600      3.6345      3.9034      4.2726      4.7494      5.3391    
  6.0417      6.8476      7.2087      8.1833      9.1900      10.170      11.061      11.790      12.282      12.518    
  12.544      12.438      12.282      12.118      11.937      11.683      11.289      10.711      9.9615      9.1046    
  8.1934      7.2786      6.4097      5.6264      4.9539      4.4034      3.9752      3.6633      3.4598      3.3578    
  3.3529      3.4442      3.6345      3.9297      4.3384      4.8695      5.5287      6.3135      6.6839      7.6711    
  8.7278      9.7957      10.807      11.668      12.263      12.544      12.548      12.380      12.173      12.030    
  11.987      11.993      11.940      11.706      11.213      10.465      9.5498      8.5621      7.5653      6.6183    
  5.7669      5.0399      4.4487      3.9926      3.6637      3.4523      3.3503      3.3529      3.4600      3.6758    
  4.0087      4.4694      5.0678      5.8084      6.1720      7.1422      8.2172      9.3416      10.445      11.425    
  12.122      12.438      12.380      12.061      11.663      11.370      11.303      11.468      11.758      11.990    
  11.980      11.617      10.899      9.9348      8.8734      7.7999      6.7820      5.8714      5.0991      4.4766    
  4.0015      3.6639      3.4523      3.3578      3.3757      3.5070      3.7581      4.1395      4.6639      5.3411    
  5.6841      6.6105      7.6736      8.8248      9.9945      11.083      11.901      12.282      12.173      11.663    
  10.959      10.328      10.003      10.103      10.584      11.257      11.851      12.120      11.918      11.247    
  10.247      9.1165      7.9737      6.8946      5.9357      5.1293      4.4861      4.0015      3.6637      3.4598    
  3.3803      3.4212      3.5851      3.8806      4.3208      4.9193      5.2312      6.0895      7.1117      8.2597    
  9.4690      10.650      11.612      12.118      12.030      11.370      10.328      9.2201      8.3973      8.1296    
  8.5103      9.4187      10.562      11.577      12.153      12.123      11.506      10.476      9.2831      8.0805    
  6.9520      5.9574      5.1293      4.4766      3.9926      3.6633      3.4748      3.4176      3.4888      3.6932    
  4.0420      4.5502      4.8238      5.5934      6.5472      7.6605      8.8796      10.123      11.237      11.937    
  11.987      11.303      10.003      8.3973      6.9172      5.9891      5.8963      6.6772      8.1084      9.7812    
  11.239      12.120      12.250      11.676      10.616      9.3677      8.1165      6.9520      5.9357      5.0991    
  4.4487      3.9752      3.6629      3.4972      3.4691      3.5777      3.8301      4.2400      4.4710      5.1361    
  5.9972      7.0444      8.2393      9.5112      10.748      11.683      11.993      11.468      10.103      8.1296    
  5.9891      4.2220      3.3113      3.5227      4.8092      6.8250      9.0419      10.921      12.066      12.317    
  11.759      10.663      9.3677      8.0805      6.8946      5.8714      5.0399      4.4034      3.9500      3.6626    
  3.5265      3.5340      3.6862      3.9932      4.1794      4.7299      5.4796      6.4318      7.5661      8.8289    
  10.132      11.289      11.940      11.758      10.584      8.5103      5.8963      3.3113      1.3895     0.63952    
  1.2749      3.1367      5.7467      8.4666      10.695      12.029      12.338      11.759      10.616      9.2831    
  7.9737      6.7820      5.7669      4.9539      4.3423      3.9179      3.6626      3.5621      3.6107      3.8122    
  3.9526      4.3840      5.0102      5.8448      6.8840      8.0953      9.4094      10.711      11.706      11.990    
  11.257      9.4187      6.6772      3.5227     0.63952     -1.2742     -1.7215     -.57474      1.8776      5.0290    
  8.1523      10.614      12.029      12.317      11.676      10.476      9.1165      7.7999      6.6183      5.6264    
  4.8443      4.2678      3.8801      3.6628      3.6031      3.6974      3.7916      4.1035      4.6013      5.3037    
  6.2202      7.3389      8.6142      9.9615      11.213      11.980      11.851      10.562      8.1084      4.8092    
  1.2749     -1.7215     -3.4563     -3.4845     -1.7911      1.2017      4.7773      8.1523      10.695      12.066    
  12.250      11.506      10.247      8.8734      7.5653      6.4097      5.4550      4.7153      4.1823      3.8377    
  3.6633      3.6481      3.6956      3.8903      4.2603      4.8246      5.6007      6.5933      7.7807      9.1046    
  10.465      11.617      12.120      11.577      9.7812      6.8249      3.1367     -.57476     -3.4845     -4.8876    
 -4.4267     -2.2152      1.2017      5.0290      8.4666      10.921      12.120      12.123      11.247      9.9348    
  8.5621      7.2786      6.1642      5.2593      4.5715      4.0889      3.7919      3.6637      3.6638      3.7441    
  3.9904      4.4181      5.0466      5.8911      6.9505      8.1934      9.5498      10.899      11.918      12.153    
  11.239      9.0419      5.7467      1.8776     -1.7911     -4.4267     -5.3860     -4.4267     -1.7911      1.8776    
  5.7467      9.0419      11.239      12.153      11.918      10.899      9.5498      8.1934      6.9505      5.8911    
  5.0466      4.4181      3.9904      3.7441      3.6956      3.6637      3.7919      4.0889      4.5715      5.2593    
  6.1642      7.2786      8.5621      9.9348      11.247      12.123      12.120      10.921      8.4666      5.0289    
  1.2016     -2.2152     -4.4267     -4.8876     -3.4845     -.57474      3.1367      6.8250      9.7812      11.577    
  12.120      11.617      10.465      9.1046      7.7807      6.5933      5.6007      4.8246      4.2603      3.8903    
  3.7916      3.6481      3.6633      3.8377      4.1824      4.7153      5.4550      6.4097      7.5653      8.8734    
  10.247      11.506      12.250      12.066      10.695      8.1523      4.7772      1.2016     -1.7911     -3.4845    
 -3.4563     -1.7215      1.2749      4.8092      8.1084      10.562      11.851      11.980      11.213      9.9615    
  8.6141      7.3389      6.2202      5.3037      4.6013      4.1034      3.9526      3.6974      3.6031      3.6629    
  3.8801      4.2678      4.8443      5.6264      6.6183      7.7999      9.1165      10.476      11.676      12.317    
  12.028      10.614      8.1523      5.0289      1.8776     -.57476     -1.7215     -1.2742     0.63952      3.5227    
  6.6772      9.4187      11.257      11.990      11.706      10.711      9.4094      8.0953      6.8840      5.8448    
  5.0102      4.3840      4.1794      3.8122      3.6108      3.5622      3.6626      3.9179      4.3424      4.9539    
  5.7669      6.7819      7.9737      9.2830      10.616      11.759      12.338      12.028      10.695      8.4666    
  5.7467      3.1367      1.2749     0.63952      1.3895      3.3113      5.8963      8.5103      10.584      11.758    
  11.940      11.289      10.132      8.8289      7.5661      6.4318      5.4796      4.7299      4.4710      3.9932    
  3.6863      3.5340      3.5265      3.6626      3.9500      4.4034      5.0399      5.8714      6.8946      8.0805    
  9.3677      10.662      11.759      12.317      12.066      10.921      9.0419      6.8249      4.8092      3.5227    
  3.3113      4.2220      5.9891      8.1296      10.103      11.468      11.993      11.683      10.748      9.5112    
  8.2393      7.0444      5.9972      5.1361      4.8238      4.2400      3.8301      3.5777      3.4691      3.4972    
  3.6629      3.9752      4.4487      5.0991      5.9356      6.9519      8.1165      9.3677      10.616      11.676    
  12.250      12.120      11.239      9.7812      8.1084      6.6772      5.8963      5.9891      6.9172      8.3973    
  10.003      11.303      11.987      11.937      11.237      10.123      8.8796      7.6605      6.5472      5.5934    
  5.2312      4.5501      4.0420      3.6932      3.4888      3.4176      3.4749      3.6633      3.9926      4.4766    
  5.1293      5.9574      6.9519      8.0805      9.2830      10.476      11.506      12.123      12.153      11.577    
  10.562      9.4187      8.5103      8.1296      8.3973      9.2201      10.328      11.370      12.030      12.118    
  11.612      10.650      9.4690      8.2597      7.1117      6.0895      5.6841      4.9193      4.3208      3.8806    
  3.5851      3.4212      3.3803      3.4599      3.6637      4.0015      4.4861      5.1293      5.9356      6.8946    
  7.9737      9.1165      10.247      11.247      11.918      12.120      11.851      11.257      10.584      10.103    
  10.003      10.328      10.959      11.663      12.173      12.282      11.901      11.083      9.9945      8.8248    
  7.6736      6.6105      6.1720      5.3411      4.6639      4.1395      3.7580      3.5070      3.3757      3.3578    
  3.4524      3.6639      4.0015      4.4766      5.0991      5.8714      6.7819      7.7999      8.8734      9.9348    
  10.899      11.617      11.980      11.990      11.758      11.468      11.303      11.370      11.663      12.061    
  12.380      12.438      12.122      11.425      10.445      9.3416      8.2171      7.1422      6.6839      5.8084    
  5.0678      4.4694      4.0087      3.6758      3.4600      3.3529      3.3503      3.4524      3.6637      3.9926    
  4.4487      5.0399      5.7669      6.6183      7.5653      8.5621      9.5498      10.465      11.213      11.706    
  11.940      11.993      11.987      12.030      12.173      12.380      12.548      12.544      12.263      11.668    
  10.807      9.7957      8.7279      7.6711      7.2087      6.3135      5.5286      4.8695      4.3384      3.9297    
  3.6345      3.4442      3.3529      3.3578      3.4599      3.6633      3.9752      4.4034      4.9539      5.6264    
  6.4097      7.2786      8.1934      9.1046      9.9615      10.711      11.289      11.683      11.937      12.118    
  12.282      12.438      12.544      12.518      12.282      11.790      11.061      10.170      9.1900      8.1833    
  7.7337      6.8476      6.0417      5.3391      4.7494      4.2726      3.9033      3.6345      3.4600      3.3757    
  3.3803      3.4749      3.6629      3.9500      4.3424      4.8443      5.4550      6.1642      6.9505      7.7807    
  8.6142      9.4094      10.132      10.748      11.237      11.612      11.901      12.122      12.263      12.282    
  12.127      11.761      11.186      10.444      9.5847      8.6627      8.2427      7.3991      6.6002      5.8760    
  5.2434      4.7092      4.2726      3.9297      3.6758      3.5070      3.4212      3.4176      3.4972      3.6626    
  3.9179      4.2678      4.7153      5.2593      5.8911      6.5933      7.3389      8.0953      8.8289      9.5112    
  10.123      10.650      11.083      11.425      11.668      11.790      11.761      11.552      11.158      10.593    
  9.8896      9.0893      8.7144      7.9513      7.1931      6.4747      5.8203      5.2434      4.7494      4.3384    
  4.0087      3.7580      3.5851      3.4888      3.4691      3.5265      3.6626      3.8801      4.1824      4.5715    
  5.0466      5.6007      6.2202      6.8840      7.5661      8.2393      8.8796      9.4690      9.9945      10.445    
  10.807      11.061      11.186      11.158      10.962      10.599      10.081      9.4394      9.1230      8.4812    
  7.8023      7.1236      6.4747      5.8760      5.3391      4.8695      4.4694      4.1395      3.8806      3.6932    
  3.5777      3.5340      3.5622      3.6629      3.8377      4.0889      4.4181      4.8246      5.3037      5.8448    
  6.4318      7.0444      7.6605      8.2597      8.8248      9.3416      9.7957      10.170      10.444      10.593    
  10.599      10.447      10.138      9.6878      9.4411      8.9601      8.4021      7.8023      7.1931      6.6002    
  6.0417      5.5286      5.0678      4.6639      4.3208      4.0420      3.8301      3.6863      3.6108      3.6031    
  3.6633      3.7919      3.9904      4.2603      4.6013      5.0102      5.4796      5.9972      6.5472      7.1117    
  7.6736      8.2172      8.7278      9.1900      9.5847      9.8896      10.081      10.138      10.049      9.8123    
  9.6436      9.3571      8.9601      8.4812      7.9513      7.3991      6.8476      6.3135      5.8084      5.3411    
  4.9193      4.5501      4.2400      3.9932      3.8122      3.6974      3.6481      3.6637      3.7441      3.8903    
  4.1035      4.3840      4.7299      5.1361      5.5934      6.0895      6.6105      7.1422      7.6711      8.1833    
  8.6627      9.0893      9.4394      9.6878      9.8123      9.7986      9.6436      9.5334      9.3035      8.9713    
  8.5612      8.0999      7.6119      7.1171      6.6299      6.1610      5.7193      5.3132      4.9512      4.6413    
  4.3892      4.1985      4.0705      4.0050      4.0015      4.0597      4.1803      4.3639      4.6105      4.9178    
  5.2807      5.6908      6.1372      6.6075      7.0899      7.5731      8.0453      8.4926      8.8966      9.2355    
  9.4857      9.6264      9.5334      9.6436      9.6264      9.4857      9.2355      8.8966      8.4926      8.0453    
  7.5731      7.0899      6.6075      6.1372      5.6909      5.2807      4.9178      4.6105      4.3639      4.1803    
  4.0597      4.0015      4.0050      4.0705      4.1985      4.3892      4.6413      4.9512      5.3131      5.7193    
  6.1610      6.6299      7.1171      7.6119      8.0999      8.5612      8.9713      9.3035      9.2873      9.6099    
  9.8123      9.8835      9.8240      9.6452      9.3653      9.0055      8.5857      8.1228      7.6304      7.1215    
  6.6096      6.1103      5.6397      5.2124      4.8399      4.5295      4.2846      4.1059      3.9926      3.9437    
  3.9590      4.0386      4.1825      4.3902      4.6593      4.9862      5.3660      5.7937      6.2639      6.7699    
  7.3018      7.8443      8.3751      8.8663      8.9246      9.4371      9.8501      10.138      10.288      10.297    
  10.177      9.9422      9.6141      9.2103      8.7459      8.2339      7.6878      7.1234      6.5599      6.0178    
  5.5162      5.0700      4.6896      4.3797      4.1419      3.9752      3.8780      3.8493      3.8885      3.9957    
  4.1702      4.4110      4.7165      5.0847      5.5138      6.0010      6.5415      7.1252      7.7351      8.3456    
  8.4724      9.1415      9.7421      10.237      10.599      10.811      10.874      10.796      10.594      10.287    
  9.8910      9.4180      8.8793      8.2882      7.6627      7.0258      6.4030      5.8188      5.2928      4.8383    
  4.4623      4.1666      3.9500      3.8100      3.7446      3.7524      3.8327      3.9854      4.2105      4.5085    
  4.8801      5.3264      5.8468      6.4372      7.0867      7.7750      7.9605      8.7471      9.5022      10.181    
  10.742      11.158      11.413      11.508      11.455      11.276      10.986      10.596      10.112      9.5431    
  8.9023      8.2093      7.4919      6.7817      6.1093      5.4998      4.9702      4.5292      4.1791      3.9179    
  3.7420      3.6478      3.6330      3.6966      3.8386      4.0605      4.3647      4.7548      5.2341      5.8035    
  6.4586      7.1858      7.4171      8.2812      9.1529      9.9823      10.720      11.324      11.761      12.016    
  12.101      12.050      11.891      11.636      11.276      10.797      10.201      9.5080      8.7437      7.9412    
  7.1394      6.3763      5.6829      5.0800      4.5780      4.1791      3.8801      3.6758      3.5612      3.5329    
  3.5895      3.7318      3.9626      4.2866      4.7099      5.2376      5.8708      6.6033      6.8654      7.7698    
  8.7198      9.6641      10.547      11.314      11.904      12.282      12.462      12.495      12.435      12.317    
  12.135      11.852      11.423      10.826      10.083      9.2461      8.3565      7.4622      6.6092      5.8349    
  5.1636      4.6070      4.1666      3.8377      3.6132      3.4867      3.4537      3.5130      3.6660      3.9176    
  4.2746      4.7453      5.3357      6.0458      6.3231      7.2348      8.2275      9.2513      10.246      11.147    
  11.862      12.326      12.544      12.582      12.534      12.479      12.446      12.400      12.260      11.937    
  11.381      10.608      9.6975      8.7216      7.7370      6.7986      5.9495      5.2175      4.6149      4.1419    
  3.7919      3.5559      3.4259      3.3969      3.4680      3.6420      3.9258      4.3286      4.8600      5.5258    
  5.8034      6.6940      7.6973      8.7679      9.8444      10.854      11.678      12.207      12.418      12.380    
  12.225      12.095      12.087      12.210      12.381      12.460      12.304      11.833      11.058      10.081    
  9.0223      7.9531      6.9368      6.0223      5.2399      4.6015      4.1059      3.7441      3.5052      3.3800    
  3.3634      3.4552      3.6601      3.9871      4.4475      5.0517      5.3169      6.1616      7.1468      8.2340    
  9.3640      10.462      11.393      11.995      12.194      12.032      11.663      11.293      11.112      11.222    
  11.592      12.072      12.446      12.515      12.167      11.413      10.383      9.2474      8.1022      7.0187    
  6.0507      5.2299      4.5674      4.0597      3.6956      3.4625      3.3503      3.3542      3.4753      3.7205    
  4.1011      4.6300      4.8734      5.6506      6.5912      7.6663      8.8227      9.9859      11.029      11.739    
  11.969      11.701      11.071      10.328      9.7593      9.5938      9.9167      10.636      11.513      12.248    
  12.583      12.382      11.665      10.594      9.3894      8.1791      7.0415      6.0338      5.1881      4.5138    
  4.0050      3.6481      3.4291      3.3376      3.3697      3.5284      3.8228      4.2665      4.4814      5.1736    
  6.0454      7.0802      8.2348      9.4394      10.587      11.449      11.792      11.509      10.668      9.5118    
  8.3973      7.6879      7.6328      8.2769      9.4417      10.786      11.923      12.540      12.489      11.812    
  10.707      9.4442      8.1819      7.0049      5.9726      5.1163      4.4429      3.9437      3.6031      3.4061    
  3.3427      3.4102      3.6140      3.9659      4.1481      4.7421      5.5246      6.4917      7.6142      8.8328    
  10.058      11.095      11.645      11.489      10.586      9.1096      7.4226      5.9891      5.2342      5.4026    
  6.4716      8.1557      10.004      11.545      12.429      12.509      11.858      10.722      9.4114      8.1113    
  6.9109      5.8698      5.0174      4.3573      3.8780      3.5622      3.3944      3.3656      3.4753      3.7313    
  3.8783      4.3661      5.0437      5.9186      6.9775      8.1770      9.4402      10.633      11.451      11.574    
  10.824      9.2448      7.1289      4.9644      3.3114      2.6323      3.1378      4.7113      6.9479      9.2887    
  11.195      12.295      12.462      11.813      10.640      9.2934      7.9710      6.7636      5.7298      4.8952    
  4.2601      3.8100      3.5265      3.3944      3.4062      3.5639      3.6743      4.0522      4.6153      5.3791    
  6.3450      7.4887      8.7511      10.036      11.119      11.624      11.241      9.8514      7.6021      4.9088    
  2.3766     0.63955     0.16604      1.1015      3.2167      5.9850      8.7543      10.940      12.173      12.364    
  11.681      10.466      9.0957      7.7666      6.5689      5.5578      4.7544      4.1547      3.7420      3.4972    
  3.4061      3.4635      3.5361      3.8039      4.2488      4.8897      5.7393      6.7917      8.0099      9.3191    
  10.588      11.488      11.617      10.697      8.6856      5.8385      2.6915     -.53740E-01 -1.7214     -1.8728    
 -.45418      2.1836      5.4032      8.4836      10.824      12.083      12.222      11.468      10.207      8.8259    
  7.5060      6.3343      5.3604      4.5998      4.0444      3.6758      3.4748      3.4291      3.4625      3.6219    
  3.9492      4.4629      5.1815      6.1137      7.2447      8.5246      9.8640      11.070      11.738      11.470    
  10.036      7.4818      4.1715     0.74363     -2.0347     -3.4845     -3.2306     -1.3295      1.7503      5.2840    
  8.5146      10.857      12.021      12.033      11.176      9.8710      8.4935      7.1989      6.0684      5.1446    
  4.4367      3.9328      3.6132      3.4598      3.4523      3.5052      3.7185      4.1063      4.6883      5.4818    
  6.4902      7.6892      9.0164      10.366      11.469      11.886      11.244      9.3743      6.4131      2.8214    
 -.68654     -3.3167     -4.4267     -3.7336     -1.4102      1.9742      5.6403      8.8330      11.015      11.967    
  11.787      10.807      9.4700      8.1103      6.8562      5.7809      4.9180      4.2705      3.8231      3.5559    
  3.5052      3.4523      3.5559      3.8231      4.2704      4.9180      5.7809      6.8562      8.1102      9.4700    
  10.807      11.787      11.967      11.015      8.8330      5.6403      1.9742     -1.4102     -3.7336     -4.4267    
 -3.3167     -.68654      2.8214      6.4131      9.3743      11.244      11.886      11.469      10.366      9.0164    
  7.6892      6.4902      5.4818      4.6883      4.1063      3.7185      3.6219      3.4625      3.4598      3.6132    
  3.9328      4.4367      5.1446      6.0684      7.1988      8.4935      9.8709      11.176      12.033      12.021    
  10.857      8.5146      5.2840      1.7503     -1.3296     -3.2307     -3.4845     -2.0347     0.74360      4.1715    
  7.4818      10.036      11.470      11.738      11.070      9.8640      8.5246      7.2447      6.1137      5.1815    
  4.4629      3.9492      3.8039      3.5361      3.4291      3.4748      3.6758      4.0445      4.5998      5.3604    
  6.3343      7.5060      8.8258      10.207      11.468      12.222      12.083      10.824      8.4836      5.4032    
  2.1835     -.45422     -1.8729     -1.7215     -.53793E-01  2.6915      5.8385      8.6856      10.697      11.617    
  11.488      10.588      9.3191      8.0099      6.7917      5.7393      4.8897      4.2487      4.0522      3.6743    
  3.4635      3.4061      3.4972      3.7420      4.1547      4.7544      5.5578      6.5689      7.7665      9.0957    
  10.466      11.681      12.364      12.173      10.940      8.7543      5.9850      3.2167      1.1015     0.16598    
 0.63948      2.3765      4.9087      7.6020      9.8514      11.241      11.624      11.119      10.036      8.7511    
  7.4887      6.3450      5.3791      4.6153      4.3661      3.8783      3.5639      3.4062      3.3944      3.5265    
  3.8100      4.2601      4.8952      5.7298      6.7636      7.9709      9.2934      10.640      11.813      12.462    
  12.295      11.195      9.2887      6.9478      4.7113      3.1377      2.6322      3.3113      4.9644      7.1289    
  9.2448      10.824      11.574      11.451      10.633      9.4403      8.1770      6.9775      5.9185      5.0437    
  4.7421      4.1481      3.7313      3.4753      3.3657      3.3944      3.5622      3.8780      4.3573      5.0174    
  5.8698      6.9108      8.1113      9.4113      10.722      11.858      12.509      12.429      11.545      10.004    
  8.1557      6.4716      5.4026      5.2341      5.9891      7.4226      9.1096      10.586      11.489      11.645    
  11.095      10.058      8.8328      7.6142      6.4917      5.5246      5.1735      4.4813      3.9659      3.6140    
  3.4102      3.3427      3.4062      3.6032      3.9438      4.4429      5.1163      5.9726      7.0048      8.1819    
  9.4442      10.707      11.812      12.489      12.540      11.923      10.786      9.4416      8.2769      7.6328    
  7.6879      8.3973      9.5118      10.668      11.509      11.792      11.449      10.587      9.4394      8.2348    
  7.0802      6.0454      5.6506      4.8734      4.2665      3.8227      3.5284      3.3698      3.3377      3.4291    
  3.6482      4.0051      4.5139      5.1881      6.0338      7.0415      8.1791      9.3894      10.594      11.665    
  12.382      12.583      12.248      11.513      10.636      9.9167      9.5938      9.7593      10.328      11.071    
  11.701      11.969      11.739      11.029      9.9860      8.8227      7.6663      6.5911      6.1616      5.3169    
  4.6300      4.1011      3.7205      3.4753      3.3542      3.3503      3.4625      3.6957      4.0597      4.5674    
  5.2299      6.0507      7.0187      8.1022      9.2475      10.383      11.413      12.167      12.515      12.446    
  12.072      11.592      11.222      11.112      11.293      11.663      12.032      12.194      11.995      11.393    
  10.462      9.3640      8.2340      7.1467      6.6940      5.8033      5.0517      4.4475      3.9871      3.6601    
  3.4553      3.3635      3.3800      3.5052      3.7441      4.1059      4.6015      5.2399      6.0223      6.9368    
  7.9531      9.0223      10.081      11.058      11.833      12.304      12.460      12.381      12.210      12.087    
  12.095      12.225      12.380      12.418      12.207      11.678      10.854      9.8444      8.7679      7.6973    
  7.2348      6.3230      5.5258      4.8600      4.3285      3.9257      3.6420      3.4680      3.3969      3.4259    
  3.5559      3.7919      4.1419      4.6149      5.2175      5.9495      6.7986      7.7371      8.7216      9.6976    
  10.608      11.381      11.937      12.260      12.400      12.446      12.479      12.534      12.582      12.544    
  12.326      11.862      11.147      10.246      9.2513      8.2275      7.7698      6.8654      6.0458      5.3357    
  4.7453      4.2746      3.9175      3.6660      3.5130      3.4537      3.4867      3.6132      3.8377      4.1666    
  4.6070      5.1636      5.8349      6.6092      7.4622      8.3566      9.2462      10.084      10.826      11.423    
  11.852      12.135      12.317      12.436      12.495      12.462      12.282      11.904      11.314      10.547    
  9.6641      8.7198      8.2812      7.4171      6.6033      5.8708      5.2375      4.7099      4.2866      3.9626    
  3.7318      3.5895      3.5329      3.5612      3.6758      3.8801      4.1791      4.5781      5.0800      5.6829    
  6.3764      7.1395      7.9412      8.7438      9.5081      10.201      10.797      11.276      11.636      11.891    
  12.050      12.101      12.016      11.761      11.324      10.720      9.9823      9.1529      8.7471      7.9605    