unknown system                          
   1.00000000000000     
    -2.431763    2.431763    1.339339
     2.431763   -2.431763    1.339339
     2.431763    2.431763   -1.339339
   Si
     2
Direct
  0.750000  0.250000  0.500000
  0.500000  0.500000  0.000000
 
   36   36   36
 0.97131951741E+01 0.96435953242E+01 0.94410613485E+01 0.91230099518E+01 0.87143507330E+01
 0.82426614407E+01 0.77337177071E+01 0.72087356368E+01 0.66839414775E+01 0.61720154151E+01
 0.56841242547E+01 0.52311862771E+01 0.48237622155E+01 0.44709747167E+01 0.41793919318E+01
 0.39525897452E+01 0.37915508513E+01 0.36956478437E+01 0.36638376551E+01 0.36956469733E+01
 0.37915507081E+01 0.39525923843E+01 0.41793972427E+01 0.44709793233E+01 0.48237635566E+01
 0.52311871020E+01 0.56841292173E+01 0.61720239930E+01 0.66839483205E+01 0.72087373445E+01
 0.77337156630E+01 0.82426585794E+01 0.87143490819E+01 0.91230111777E+01 0.94410657243E+01
 0.96435996342E+01 0.96435996342E+01 0.97985764018E+01 0.98122897029E+01 0.96877506109E+01
 0.94393731495E+01 0.90893137950E+01 0.86626941981E+01 0.81832985786E+01 0.76711154612E+01
 0.71422414904E+01 0.66105261834E+01 0.60895243138E+01 0.55933691087E+01 0.51360822544E+01
 0.47299351716E+01 0.43839706820E+01 0.41034422178E+01 0.38902570098E+01 0.37440795647E+01
 0.36636832951E+01 0.36481392581E+01 0.36974214427E+01 0.38122395803E+01 0.39932405185E+01
 0.42399865158E+01 0.45501527159E+01 0.49192612522E+01 0.53410730267E+01 0.58083730472E+01
 0.63134575444E+01 0.68475612401E+01 0.73990674875E+01 0.79512855489E+01 0.84811643966E+01
 0.89600960635E+01 0.93570913344E+01 0.94410657243E+01 0.98122926911E+01 0.10049004534E+02
 0.10138391983E+02 0.10081077380E+02 0.98896428800E+01 0.95847225065E+01 0.91899967266E+01
 0.87278500803E+01 0.82171494082E+01 0.76735844020E+01 0.71117346385E+01 0.65471925145E+01
 0.59972305728E+01 0.54795922401E+01 0.50102253231E+01 0.46012849369E+01 0.42602768711E+01
 0.39904301779E+01 0.37918953343E+01 0.36632887655E+01 0.36031355560E+01 0.36107388387E+01
 0.36862449293E+01 0.38300528820E+01 0.40420027579E+01 0.43207944869E+01 0.46638843632E+01
 0.50678249978E+01 0.55286577228E+01 0.60417041305E+01 0.66002241985E+01 0.71930703199E+01
 0.78022978841E+01 0.84021009861E+01 0.89600960635E+01 0.91230111777E+01 0.96877528173E+01
 0.10138393077E+02 0.10446953645E+02 0.10598692122E+02 0.10593445765E+02 0.10443714501E+02
 0.10170101434E+02 0.97957114177E+01 0.93415882271E+01 0.88248261191E+01 0.82596861273E+01
 0.76605201471E+01 0.70444187083E+01 0.64318281717E+01 0.58447563665E+01 0.53036549721E+01
 0.48246292777E+01 0.44180691917E+01 0.40888512628E+01 0.38376632380E+01 0.36628405692E+01
 0.35621492749E+01 0.35339792010E+01 0.35776801747E+01 0.36932139822E+01 0.38805863356E+01
 0.41394989686E+01 0.44693702732E+01 0.48695288616E+01 0.53390903744E+01 0.58759555833E+01
 0.64746690019E+01 0.71235622606E+01 0.78022978841E+01 0.84811643966E+01 0.87143490819E+01
 0.94393729758E+01 0.10081077591E+02 0.10598691603E+02 0.10962398694E+02 0.11157597707E+02
 0.11185763182E+02 0.11061393613E+02 0.10806801171E+02 0.10445030476E+02 0.99944784085E+01
 0.94689762841E+01 0.88796327030E+01 0.82392990284E+01 0.75661048039E+01 0.68840194980E+01
 0.62202170326E+01 0.56007363095E+01 0.50465588079E+01 0.45715232540E+01 0.41823247286E+01
 0.38800695383E+01 0.36625517871E+01 0.35264921305E+01 0.34691185249E+01 0.34888156517E+01
 0.35850503304E+01 0.37580567822E+01 0.40086845576E+01 0.43384446775E+01 0.47494102013E+01
 0.52434341399E+01 0.58202744016E+01 0.64746690019E+01 0.71930703199E+01 0.79512855489E+01
 0.82426585794E+01 0.90893119779E+01 0.98896424794E+01 0.10593444982E+02 0.11157596247E+02
 0.11552473681E+02 0.11761351845E+02 0.11790434663E+02 0.11667582368E+02 0.11424739821E+02
 0.11083251668E+02 0.10649538854E+02 0.10123079341E+02 0.95112057153E+01 0.88288530979E+01
 0.80953225494E+01 0.73389317062E+01 0.65932566277E+01 0.58911285341E+01 0.52592594761E+01
 0.47153147559E+01 0.42677752308E+01 0.39178875329E+01 0.36625589354E+01 0.34971677441E+01
 0.34175880289E+01 0.34211845436E+01 0.35070247454E+01 0.36757915081E+01 0.39297436706E+01
 0.42726441743E+01 0.47091921955E+01 0.52434341399E+01 0.58759555833E+01 0.66002241985E+01
 0.73990674875E+01 0.77337156630E+01 0.86626916337E+01 0.95847219389E+01 0.10443715078E+02
 0.11185762343E+02 0.11761350081E+02 0.12127045571E+02 0.12281741173E+02 0.12262737613E+02
 0.12122295128E+02 0.11901281861E+02 0.11611760212E+02 0.11236850527E+02 0.10748138206E+02
 0.10131997097E+02 0.94093643887E+01 0.86141410589E+01 0.77807073456E+01 0.69504807650E+01
 0.61642128813E+01 0.54549623239E+01 0.48443262000E+01 0.43423237962E+01 0.39499504555E+01
 0.36628589267E+01 0.34748348648E+01 0.33803092053E+01 0.33757123057E+01 0.34599562135E+01
 0.36345116453E+01 0.39033628299E+01 0.42726441743E+01 0.47494102013E+01 0.53390903744E+01
 0.60417041305E+01 0.68475612401E+01 0.72087373445E+01 0.81832970158E+01 0.91899954079E+01
 0.10170102916E+02 0.11061395674E+02 0.11790434364E+02 0.12281739770E+02 0.12518219284E+02
 0.12543665877E+02 0.12438334820E+02 0.12281799627E+02 0.12117843492E+02 0.11936713714E+02
 0.11683452577E+02 0.11289158937E+02 0.10710883649E+02 0.99615056895E+01 0.91046233685E+01
 0.81934319598E+01 0.72786228793E+01 0.64097125168E+01 0.56263529240E+01 0.49538656595E+01
 0.44033723195E+01 0.39751673600E+01 0.36633130254E+01 0.34598452859E+01 0.33577926695E+01
 0.33528803029E+01 0.34442302188E+01 0.36345116453E+01 0.39297436706E+01 0.43384446775E+01
 0.48695288616E+01 0.55286577228E+01 0.63134575444E+01 0.66839483205E+01 0.76711178981E+01
 0.87278490890E+01 0.97957117537E+01 0.10806804822E+02 0.11667585919E+02 0.12262738430E+02
 0.12543665742E+02 0.12547682102E+02 0.12380346763E+02 0.12173045616E+02 0.12030197734E+02
 0.11986513907E+02 0.11993110916E+02 0.11939972491E+02 0.11705699513E+02 0.11212867705E+02
 0.10465250990E+02 0.95498440194E+01 0.85620929852E+01 0.75653447664E+01 0.66182761833E+01
 0.57669423244E+01 0.50398721931E+01 0.44487108521E+01 0.39925869278E+01 0.36637113716E+01
 0.34523350409E+01 0.33502671201E+01 0.33528803029E+01 0.34599562135E+01 0.36757915081E+01
 0.40086845576E+01 0.44693702732E+01 0.50678249978E+01 0.58083730472E+01 0.61720239930E+01
 0.71422483898E+01 0.82171518032E+01 0.93415879113E+01 0.10445032933E+02 0.11424745671E+02
 0.12122300203E+02 0.12438337677E+02 0.12380349053E+02 0.12061488291E+02 0.11662968231E+02
 0.11370023589E+02 0.11302641031E+02 0.11468257648E+02 0.11757958594E+02 0.11989646815E+02
 0.11980285510E+02 0.11616904064E+02 0.10898534440E+02 0.99347696074E+01 0.88734195534E+01
 0.77999189052E+01 0.67819647820E+01 0.58713765413E+01 0.50991053861E+01 0.44766363476E+01
 0.40014918462E+01 0.36638685738E+01 0.34523350409E+01 0.33577926695E+01 0.33757123057E+01
 0.35070247454E+01 0.37580567822E+01 0.41394989686E+01 0.46638843632E+01 0.53410730267E+01
 0.56841292173E+01 0.66105329226E+01 0.76735906812E+01 0.88248282488E+01 0.99944796601E+01
 0.11083257156E+02 0.11901290028E+02 0.12281806434E+02 0.12173051685E+02 0.11662974040E+02
 0.10959433286E+02 0.10327875372E+02 0.10002738432E+02 0.10102692435E+02 0.10584392881E+02
 0.11256769415E+02 0.11851476410E+02 0.12119890246E+02 0.11917702659E+02 0.11247270977E+02
 0.10246865528E+02 0.91164899993E+01 0.79737206537E+01 0.68946001117E+01 0.59356735811E+01
 0.51293035234E+01 0.44860685564E+01 0.40014918462E+01 0.36637113716E+01 0.34598452859E+01
 0.33803092053E+01 0.34211845436E+01 0.35850503304E+01 0.38805863356E+01 0.43207944869E+01
 0.49192612522E+01 0.52311871020E+01 0.60895260458E+01 0.71117407210E+01 0.82596919218E+01
 0.94689788706E+01 0.10649543278E+02 0.11611769697E+02 0.12117853848E+02 0.12030206408E+02
 0.11370033677E+02 0.10327885109E+02 0.92201142856E+01 0.83973021199E+01 0.81296029136E+01
 0.85102541737E+01 0.94186667245E+01 0.10561741768E+02 0.11576729622E+02 0.12152530338E+02
 0.12123374720E+02 0.11506123924E+02 0.10476053837E+02 0.92830693512E+01 0.80805053879E+01
 0.69519788628E+01 0.59573818578E+01 0.51293035234E+01 0.44766363476E+01 0.39925869278E+01
 0.36633130254E+01 0.34748348648E+01 0.34175880289E+01 0.34888156517E+01 0.36932139822E+01
 0.40420027579E+01 0.45501527159E+01 0.48237635566E+01 0.55933671902E+01 0.65471946544E+01
 0.76605272065E+01 0.88796383178E+01 0.10123083451E+02 0.11236859553E+02 0.11936727389E+02
 0.11986525721E+02 0.11302651258E+02 0.10002752205E+02 0.83973148232E+01 0.69171762408E+01
 0.59891058192E+01 0.58962668819E+01 0.66771564073E+01 0.81083832639E+01 0.97812400598E+01
 0.11239175508E+02 0.12119652279E+02 0.12250389484E+02 0.11675752924E+02 0.10615663293E+02
 0.93677082257E+01 0.81165171647E+01 0.69519788628E+01 0.59356735811E+01 0.50991053861E+01
 0.44487108521E+01 0.39751673600E+01 0.36628589267E+01 0.34971677441E+01 0.34691185249E+01
 0.35776801747E+01 0.38300528820E+01 0.42399865158E+01 0.44709793233E+01 0.51360829582E+01
 0.59972301909E+01 0.70444244168E+01 0.82393075390E+01 0.95112109436E+01 0.10748144531E+02
 0.11683466527E+02 0.11993127596E+02 0.11468269498E+02 0.10102703154E+02 0.81296183174E+01
 0.59891188130E+01 0.42220358349E+01 0.33113358422E+01 0.35226872610E+01 0.48092454555E+01
 0.68249525489E+01 0.90419260970E+01 0.10920729468E+02 0.12065905788E+02 0.12317125752E+02
 0.11759315347E+02 0.10662501100E+02 0.93677082257E+01 0.80805053879E+01 0.68946001117E+01
 0.58713765413E+01 0.50398721931E+01 0.44033723195E+01 0.39499504555E+01 0.36625589354E+01
 0.35264921305E+01 0.35339792010E+01 0.36862449293E+01 0.39932405185E+01 0.41793972427E+01
 0.47299420634E+01 0.54795943628E+01 0.64318322343E+01 0.75661148995E+01 0.88288617538E+01
 0.10132001037E+02 0.11289167304E+02 0.11939989958E+02 0.11757975725E+02 0.10584402860E+02
 0.85102634584E+01 0.58962800507E+01 0.33113450980E+01 0.13894884020E+01 0.63951712091E+00
 0.12748823597E+01 0.31367076347E+01 0.57467068520E+01 0.84666435473E+01 0.10695290525E+02
 0.12028505004E+02 0.12337629504E+02 0.11759315347E+02 0.10615663293E+02 0.92830693512E+01
 0.79737206537E+01 0.67819647820E+01 0.57669423244E+01 0.49538656595E+01 0.43423237962E+01
 0.39178875329E+01 0.36625517871E+01 0.35621492749E+01 0.36107388387E+01 0.38122395803E+01
 0.39525923843E+01 0.43839813077E+01 0.50102333602E+01 0.58447608061E+01 0.68840288870E+01
 0.80953353730E+01 0.94093706178E+01 0.10710885005E+02 0.11705708603E+02 0.11989664615E+02
 0.11256783582E+02 0.94186727600E+01 0.66771615394E+01 0.35226931562E+01 0.63951835327E+00
 -.12741958018E+01 -.17214690514E+01 -.57473868596E+00 0.18775978291E+01 0.50289700621E+01
 0.81523258298E+01 0.10614050958E+02 0.12028505004E+02 0.12317125752E+02 0.11675752924E+02
 0.10476053837E+02 0.91164899993E+01 0.77999189052E+01 0.66182761833E+01 0.56263529240E+01
 0.48443262000E+01 0.42677752308E+01 0.38800695383E+01 0.36628405692E+01 0.36031355560E+01
 0.36974214427E+01 0.37915507081E+01 0.41034513493E+01 0.46012979913E+01 0.53036628551E+01
 0.62202242359E+01 0.73389450838E+01 0.86141529283E+01 0.99615065517E+01 0.11212865382E+02
 0.11980293109E+02 0.11851490268E+02 0.10561749329E+02 0.81083832501E+01 0.48092432575E+01
 0.12748763250E+01 -.17214787384E+01 -.34563393338E+01 -.34844632209E+01 -.17910628041E+01
 0.12016661776E+01 0.47772737416E+01 0.81523258298E+01 0.10695290525E+02 0.12065905788E+02
 0.12250389484E+02 0.11506123924E+02 0.10246865528E+02 0.88734195534E+01 0.75653447664E+01
 0.64097125168E+01 0.54549623239E+01 0.47153147559E+01 0.41823247286E+01 0.38376632380E+01
 0.36632887655E+01 0.36481392581E+01 0.36956469733E+01 0.38902609102E+01 0.42602905606E+01
 0.48246432161E+01 0.56007442864E+01 0.65932661015E+01 0.77807209169E+01 0.91046293941E+01
 0.10465244495E+02 0.11616897841E+02 0.12119893967E+02 0.11576735108E+02 0.97812376852E+01
 0.68249444275E+01 0.31366955213E+01 -.57475870497E+00 -.34844836066E+01 -.48875612013E+01
 -.44266993128E+01 -.22152019119E+01 0.12016661776E+01 0.50289700621E+01 0.84666435473E+01
 0.10920729468E+02 0.12119652279E+02 0.12123374720E+02 0.11247270977E+02 0.99347696074E+01
 0.85620929852E+01 0.72786228793E+01 0.61642128813E+01 0.52592594761E+01 0.45715232540E+01
 0.40888512628E+01 0.37918953343E+01 0.36636832951E+01 0.36638376551E+01 0.37440782796E+01
 0.39904388722E+01 0.44180874885E+01 0.50465736078E+01 0.58911364388E+01 0.69504896246E+01
 0.81934399116E+01 0.95498401517E+01 0.10898520884E+02 0.11917693535E+02 0.12152528071E+02
 0.11239169002E+02 0.90419115378E+01 0.57466895211E+01 0.18775755915E+01 -.17910943441E+01
 -.44267263730E+01 -.53860216470E+01 -.44266993128E+01 -.17910628041E+01 0.18775978291E+01
 0.57467068520E+01 0.90419260970E+01 0.11239175508E+02 0.12152530338E+02 0.11917702659E+02
 0.10898534440E+02 0.95498440194E+01 0.81934319598E+01 0.69504807650E+01 0.58911285341E+01
 0.50465588079E+01 0.44180691917E+01 0.39904301779E+01 0.37440795647E+01 0.36956478437E+01
 0.36636810497E+01 0.37918974883E+01 0.40888679189E+01 0.45715461664E+01 0.52592736381E+01
 0.61642180729E+01 0.72786258364E+01 0.85620898070E+01 0.99347546267E+01 0.11247253040E+02
 0.12123364149E+02 0.12119642524E+02 0.10920709498E+02 0.84666171676E+01 0.50289449825E+01
 0.12016373823E+01 -.22152379469E+01 -.44267263730E+01 -.48875612013E+01 -.34844632209E+01
 -.57473868596E+00 0.31367076347E+01 0.68249525489E+01 0.97812400598E+01 0.11576729622E+02
 0.12119890246E+02 0.11616904064E+02 0.10465250990E+02 0.91046233685E+01 0.77807073456E+01
 0.65932566277E+01 0.56007363095E+01 0.48246292777E+01 0.42602768711E+01 0.38902570098E+01
 0.37915508513E+01 0.36481411524E+01 0.36632901672E+01 0.38376751530E+01 0.41823504400E+01
 0.47153390565E+01 0.54549720156E+01 0.64097108270E+01 0.75653370714E+01 0.88734026484E+01
 0.10246841311E+02 0.11506104847E+02 0.12250378348E+02 0.12065888528E+02 0.10695259508E+02
 0.81522919315E+01 0.47772455840E+01 0.12016373823E+01 -.17910943441E+01 -.34844836066E+01
 -.34563393338E+01 -.17214690514E+01 0.12748823597E+01 0.48092454555E+01 0.81083832639E+01
 0.10561741768E+02 0.11851476410E+02 0.11980285510E+02 0.11212867705E+02 0.99615056895E+01
 0.86141410589E+01 0.73389317062E+01 0.62202170326E+01 0.53036549721E+01 0.46012849369E+01
 0.41034422178E+01 0.39525897452E+01 0.36974279569E+01 0.36031436809E+01 0.36628518579E+01
 0.38800926817E+01 0.42678053343E+01 0.48443455033E+01 0.56263537593E+01 0.66182648770E+01
 0.77998988830E+01 0.91164604711E+01 0.10476023612E+02 0.11675734610E+02 0.12317114222E+02
 0.12028482860E+02 0.10614015608E+02 0.81522919315E+01 0.50289449825E+01 0.18775755915E+01
 -.57475870497E+00 -.17214787384E+01 -.12741958018E+01 0.63951712091E+00 0.35226872610E+01
 0.66771564073E+01 0.94186667245E+01 0.11256769415E+02 0.11989646815E+02 0.11705699513E+02
 0.10710883649E+02 0.94093643887E+01 0.80953225494E+01 0.68840194980E+01 0.58447563665E+01
 0.50102253231E+01 0.43839706820E+01 0.41793919318E+01 0.38122455003E+01 0.36107536162E+01
 0.35621659545E+01 0.36625733382E+01 0.39179172628E+01 0.43423504275E+01 0.49538742513E+01
 0.57669325129E+01 0.67819439953E+01 0.79736899535E+01 0.92830306587E+01 0.10615629982E+02
 0.11759297899E+02 0.12337617773E+02 0.12028482860E+02 0.10695259508E+02 0.84666171676E+01
 0.57466895211E+01 0.31366955213E+01 0.12748763250E+01 0.63951835327E+00 0.13894884020E+01
 0.33113358422E+01 0.58962668819E+01 0.85102541737E+01 0.10584392881E+02 0.11757958594E+02
 0.11939972491E+02 0.11289158937E+02 0.10131997097E+02 0.88288530979E+01 0.75661048039E+01
 0.64318281717E+01 0.54795922401E+01 0.47299351716E+01 0.44709747167E+01 0.39932414207E+01
 0.36862583851E+01 0.35340001186E+01 0.35265152598E+01 0.36625867592E+01 0.39499800730E+01
 0.44033897950E+01 0.50398686624E+01 0.58713576986E+01 0.68945723017E+01 0.80804676737E+01
 0.93676647886E+01 0.10662466869E+02 0.11759297899E+02 0.12317114222E+02 0.12065888528E+02
 0.10920709498E+02 0.90419115378E+01 0.68249444275E+01 0.48092432575E+01 0.35226931562E+01
 0.33113450980E+01 0.42220358349E+01 0.59891058192E+01 0.81296029136E+01 0.10102692435E+02
 0.11468257648E+02 0.11993110916E+02 0.11683452577E+02 0.10748138206E+02 0.95112057153E+01
 0.82392990284E+01 0.70444187083E+01 0.59972305728E+01 0.51360822544E+01 0.48237622155E+01
 0.42399831874E+01 0.38300577819E+01 0.35776967945E+01 0.34691411211E+01 0.34971937124E+01
 0.36628887235E+01 0.39751927083E+01 0.44487181904E+01 0.50990923761E+01 0.59356491874E+01
 0.69519474617E+01 0.81164770185E+01 0.93676647886E+01 0.10615629982E+02 0.11675734610E+02
 0.12250378348E+02 0.12119642524E+02 0.11239169002E+02 0.97812376852E+01 0.81083832501E+01
 0.66771615394E+01 0.58962800507E+01 0.59891188130E+01 0.69171762408E+01 0.83973021199E+01
 0.10002738432E+02 0.11302641031E+02 0.11986513907E+02 0.11936713714E+02 0.11236850527E+02
 0.10123079341E+02 0.88796327030E+01 0.76605201471E+01 0.65471925145E+01 0.55933691087E+01
 0.52311862771E+01 0.45501476197E+01 0.40419982666E+01 0.36932191395E+01 0.34888309768E+01
 0.34176094035E+01 0.34748617109E+01 0.36633427163E+01 0.39926074554E+01 0.44766363698E+01
 0.51292855591E+01 0.59573556549E+01 0.69519474617E+01 0.80804676737E+01 0.92830306587E+01
 0.10476023612E+02 0.11506104847E+02 0.12123364149E+02 0.12152528071E+02 0.11576735108E+02
 0.10561749329E+02 0.94186727600E+01 0.85102634584E+01 0.81296183174E+01 0.83973148232E+01
 0.92201142856E+01 0.10327875372E+02 0.11370023589E+02 0.12030197734E+02 0.12117843492E+02
 0.11611760212E+02 0.10649538854E+02 0.94689762841E+01 0.82596861273E+01 0.71117346385E+01
 0.60895243138E+01 0.56841242547E+01 0.49192541621E+01 0.43207837413E+01 0.38805792571E+01
 0.35850535287E+01 0.34211970733E+01 0.33803291286E+01 0.34598726739E+01 0.36637406172E+01
 0.40015094500E+01 0.44860659729E+01 0.51292855591E+01 0.59356491874E+01 0.68945723017E+01
 0.79736899535E+01 0.91164604711E+01 0.10246841311E+02 0.11247253040E+02 0.11917693535E+02
 0.12119893967E+02 0.11851490268E+02 0.11256783582E+02 0.10584402860E+02 0.10102703154E+02
 0.10002752205E+02 0.10327885109E+02 0.10959433286E+02 0.11662968231E+02 0.12173045616E+02
 0.12281799627E+02 0.11901281861E+02 0.11083251668E+02 0.99944784085E+01 0.88248261191E+01
 0.76735844020E+01 0.66105261834E+01 0.61720154151E+01 0.53410629913E+01 0.46638702416E+01
 0.41394832388E+01 0.37580475338E+01 0.35070261004E+01 0.33757229153E+01 0.33578120207E+01
 0.34523628944E+01 0.36638976420E+01 0.40015094500E+01 0.44766363698E+01 0.50990923761E+01
 0.58713576986E+01 0.67819439953E+01 0.77998988830E+01 0.88734026484E+01 0.99347546267E+01
 0.10898520884E+02 0.11616897841E+02 0.11980293109E+02 0.11989664615E+02 0.11757975725E+02
 0.11468269498E+02 0.11302651258E+02 0.11370033677E+02 0.11662974040E+02 0.12061488291E+02
 0.12380346763E+02 0.12438334820E+02 0.12122295128E+02 0.11424739821E+02 0.10445030476E+02
 0.93415882271E+01 0.82171494082E+01 0.71422414904E+01 0.66839414775E+01 0.58083629804E+01
 0.50678105871E+01 0.44693510391E+01 0.40086660869E+01 0.36757813683E+01 0.34599567670E+01
 0.33528902031E+01 0.33502864066E+01 0.34523628944E+01 0.36637406172E+01 0.39926074554E+01
 0.44487181904E+01 0.50398686624E+01 0.57669325129E+01 0.66182648770E+01 0.75653370714E+01
 0.85620898070E+01 0.95498401517E+01 0.10465244495E+02 0.11212865382E+02 0.11705708603E+02
 0.11939989958E+02 0.11993127596E+02 0.11986525721E+02 0.12030206408E+02 0.12173051685E+02
 0.12380349053E+02 0.12547682102E+02 0.12543665877E+02 0.12262737613E+02 0.11667582368E+02
 0.10806801171E+02 0.97957114177E+01 0.87278500803E+01 0.76711154612E+01 0.72087356368E+01
 0.63134517828E+01 0.55286473196E+01 0.48695119342E+01 0.43384228925E+01 0.39297243345E+01
 0.36345014294E+01 0.34442306247E+01 0.33528902031E+01 0.33578120207E+01 0.34598726739E+01
 0.36633427163E+01 0.39751927083E+01 0.44033897950E+01 0.49538742513E+01 0.56263537593E+01
 0.64097108270E+01 0.72786258364E+01 0.81934399116E+01 0.91046293941E+01 0.99615065517E+01
 0.10710885005E+02 0.11289167304E+02 0.11683466527E+02 0.11936727389E+02 0.12117853848E+02
 0.12281806434E+02 0.12438337677E+02 0.12543665742E+02 0.12518219284E+02 0.12281741173E+02
 0.11790434663E+02 0.11061393613E+02 0.10170101434E+02 0.91899967266E+01 0.81832985786E+01
 0.77337177071E+01 0.68475605665E+01 0.60416998486E+01 0.53390803713E+01 0.47493922837E+01
 0.42726215407E+01 0.39033433796E+01 0.36345014294E+01 0.34599567670E+01 0.33757229153E+01
 0.33803291286E+01 0.34748617109E+01 0.36628887235E+01 0.39499800730E+01 0.43423504275E+01
 0.48443455033E+01 0.54549720156E+01 0.61642180729E+01 0.69504896246E+01 0.77807209169E+01
 0.86141529283E+01 0.94093706178E+01 0.10132001037E+02 0.10748144531E+02 0.11236859553E+02
 0.11611769697E+02 0.11901290028E+02 0.12122300203E+02 0.12262738430E+02 0.12281739770E+02
 0.12127045571E+02 0.11761351845E+02 0.11185763182E+02 0.10443714501E+02 0.95847225065E+01
 0.86626941981E+01 0.82426614407E+01 0.73990693398E+01 0.66002240501E+01 0.58759522998E+01
 0.52434245033E+01 0.47091740582E+01 0.42726215407E+01 0.39297243345E+01 0.36757813683E+01
 0.35070261004E+01 0.34211970733E+01 0.34176094035E+01 0.34971937124E+01 0.36625867592E+01
 0.39179172628E+01 0.42678053343E+01 0.47153390565E+01 0.52592736381E+01 0.58911364388E+01
 0.65932661015E+01 0.73389450838E+01 0.80953353730E+01 0.88288617538E+01 0.95112109436E+01
 0.10123083451E+02 0.10649543278E+02 0.11083257156E+02 0.11424745671E+02 0.11667585919E+02
 0.11790434364E+02 0.11761350081E+02 0.11552473681E+02 0.11157597707E+02 0.10593445765E+02
 0.98896428800E+01 0.90893137950E+01 0.87143507330E+01 0.79512875799E+01 0.71930713645E+01
 0.64746688666E+01 0.58202714203E+01 0.52434245033E+01 0.47493922837E+01 0.43384228925E+01
 0.40086660869E+01 0.37580475338E+01 0.35850535287E+01 0.34888309768E+01 0.34691411211E+01
 0.35265152598E+01 0.36625733382E+01 0.38800926817E+01 0.41823504400E+01 0.45715461664E+01
 0.50465736078E+01 0.56007442864E+01 0.62202242359E+01 0.68840288870E+01 0.75661148995E+01
 0.82393075390E+01 0.88796383178E+01 0.94689788706E+01 0.99944796601E+01 0.10445032933E+02
 0.10806804822E+02 0.11061395674E+02 0.11185762343E+02 0.11157596247E+02 0.10962398694E+02
 0.10598692122E+02 0.10081077380E+02 0.94393731495E+01 0.91230099518E+01 0.84811649524E+01
 0.78022988769E+01 0.71235628302E+01 0.64746688666E+01 0.58759522998E+01 0.53390803713E+01
 0.48695119342E+01 0.44693510391E+01 0.41394832388E+01 0.38805792571E+01 0.36932191395E+01
 0.35776967945E+01 0.35340001186E+01 0.35621659545E+01 0.36628518579E+01 0.38376751530E+01
 0.40888679189E+01 0.44180874885E+01 0.48246432161E+01 0.53036628551E+01 0.58447608061E+01
 0.64318322343E+01 0.70444244168E+01 0.76605272065E+01 0.82596919218E+01 0.88248282488E+01
 0.93415879113E+01 0.97957117537E+01 0.10170102916E+02 0.10443715078E+02 0.10593444982E+02
 0.10598691603E+02 0.10446953645E+02 0.10138391983E+02 0.96877506109E+01 0.94410613485E+01
 0.89600934793E+01 0.84021009219E+01 0.78022988769E+01 0.71930713645E+01 0.66002240501E+01
 0.60416998486E+01 0.55286473196E+01 0.50678105871E+01 0.46638702416E+01 0.43207837413E+01
 0.40419982666E+01 0.38300577819E+01 0.36862583851E+01 0.36107536162E+01 0.36031436809E+01
 0.36632901672E+01 0.37918974883E+01 0.39904388722E+01 0.42602905606E+01 0.46012979913E+01
 0.50102333602E+01 0.54795943628E+01 0.59972301909E+01 0.65471946544E+01 0.71117407210E+01
 0.76735906812E+01 0.82171518032E+01 0.87278490890E+01 0.91899954079E+01 0.95847219389E+01
 0.98896424794E+01 0.10081077591E+02 0.10138393077E+02 0.10049004534E+02 0.98122897029E+01
 0.96435953242E+01 0.93570859984E+01 0.89600934793E+01 0.84811649524E+01 0.79512875799E+01
 0.73990693398E+01 0.68475605665E+01 0.63134517828E+01 0.58083629804E+01 0.53410629913E+01
 0.49192541621E+01 0.45501476197E+01 0.42399831874E+01 0.39932414207E+01 0.38122455003E+01
 0.36974279569E+01 0.36481411524E+01 0.36636810497E+01 0.37440782796E+01 0.38902609102E+01
 0.41034513493E+01 0.43839813077E+01 0.47299420634E+01 0.51360829582E+01 0.55933671902E+01
 0.60895260458E+01 0.66105329226E+01 0.71422483898E+01 0.76711178981E+01 0.81832970158E+01
 0.86626916337E+01 0.90893119779E+01 0.94393729758E+01 0.96877528173E+01 0.98122926911E+01
 0.97985764018E+01 0.96435998782E+01 0.95334396241E+01 0.93034592757E+01 0.89712709618E+01
 0.85612190594E+01 0.80999004575E+01 0.76119035174E+01 0.71170611070E+01 0.66299074334E+01
 0.61610462799E+01 0.57192799831E+01 0.53131611751E+01 0.49512486086E+01 0.46413010987E+01
 0.43892309391E+01 0.41985436925E+01 0.40705249142E+01 0.40050209606E+01 0.40014675249E+01
 0.40597222434E+01 0.41803092282E+01 0.43639426228E+01 0.46104940373E+01 0.49177987858E+01
 0.52807172419E+01 0.56908475766E+01 0.61371762654E+01 0.66075076733E+01 0.70898989421E+01
 0.75730742830E+01 0.80453381455E+01 0.84925606845E+01 0.88965997241E+01 0.92354653798E+01
 0.94857033868E+01 0.96264134990E+01 0.95334429907E+01 0.96435994200E+01 0.96264096807E+01
 0.94856997999E+01 0.92354645152E+01 0.88966009385E+01 0.84925618982E+01 0.80453383237E+01
 0.75730739695E+01 0.70898999130E+01 0.66075130266E+01 0.61371890356E+01 0.56908667135E+01
 0.52807352506E+01 0.49178062302E+01 0.46104893316E+01 0.43639349609E+01 0.41803086154E+01
 0.40597285584E+01 0.40014730012E+01 0.40050219958E+01 0.40705255768E+01 0.41985470909E+01
 0.43892322512E+01 0.46412936570E+01 0.49512337589E+01 0.53131470023E+01 0.57192719936E+01
 0.61610436687E+01 0.66299070489E+01 0.71170611891E+01 0.76119031927E+01 0.80998990151E+01
 0.85612175283E+01 0.89712718517E+01 0.93034630346E+01 0.92873451779E+01 0.96098766012E+01
 0.98122924315E+01 0.98834573041E+01 0.98240109225E+01 0.96451531230E+01 0.93652599089E+01
 0.90054586495E+01 0.85857134645E+01 0.81227697180E+01 0.76304302126E+01 0.71214605186E+01
 0.66096082540E+01 0.61103142332E+01 0.56396784042E+01 0.52123991778E+01 0.48399033805E+01
 0.45294911243E+01 0.42846072701E+01 0.41058935684E+01 0.39925729833E+01 0.39437212830E+01
 0.39589842686E+01 0.40385520100E+01 0.41825436699E+01 0.43902019100E+01 0.46593218364E+01
 0.49861854000E+01 0.53660340648E+01 0.57937231511E+01 0.62638658665E+01 0.67698555939E+01
 0.73018017914E+01 0.78442585631E+01 0.83750589498E+01 0.88662609280E+01 0.89246417989E+01
 0.94370832630E+01 0.98501000463E+01 0.10138393540E+02 0.10287967771E+02 0.10297439425E+02
 0.10176529439E+02 0.99422469963E+01 0.96141281835E+01 0.92103181577E+01 0.87459229866E+01
 0.82339434948E+01 0.76877676387E+01 0.71234072649E+01 0.65599400348E+01 0.60178374713E+01
 0.55161553276E+01 0.50700483546E+01 0.46895503148E+01 0.43797425778E+01 0.41419108550E+01
 0.39751588458E+01 0.38779758187E+01 0.38492566779E+01 0.38885467165E+01 0.39956747042E+01
 0.41701901515E+01 0.44110152982E+01 0.47164951673E+01 0.50847342563E+01 0.55137752063E+01
 0.60010097091E+01 0.65414576235E+01 0.71252117896E+01 0.77350634340E+01 0.83455966886E+01
 0.84723927974E+01 0.91414635982E+01 0.97420546870E+01 0.10237160624E+02 0.10598694774E+02
 0.10811372510E+02 0.10873670306E+02 0.10795588847E+02 0.10593973246E+02 0.10287146187E+02
 0.98909956698E+01 0.94180193513E+01 0.88793483213E+01 0.82882252711E+01 0.76626886514E+01
 0.70257708365E+01 0.64030439080E+01 0.58188215182E+01 0.52928042799E+01 0.48383122030E+01
 0.44622819549E+01 0.41665778913E+01 0.39499517525E+01 0.38100060135E+01 0.37445882886E+01
 0.37523563197E+01 0.38326918080E+01 0.39853900455E+01 0.42105080852E+01 0.45084580150E+01
 0.48801027823E+01 0.53263563419E+01 0.58468044921E+01 0.64372465835E+01 0.70867032859E+01
 0.77750269337E+01 0.79604963652E+01 0.87471043444E+01 0.95022415990E+01 0.10180626487E+02
 0.10742061754E+02 0.11157603669E+02 0.11413124585E+02 0.11508012450E+02 0.11455322310E+02
 0.11275710408E+02 0.10986163434E+02 0.10595956450E+02 0.10111834887E+02 0.95431335349E+01
 0.89022751191E+01 0.82093150604E+01 0.74918898829E+01 0.67816829780E+01 0.61093065131E+01
 0.54997995040E+01 0.49701663193E+01 0.45292071176E+01 0.41791076888E+01 0.39179020492E+01
 0.37419518778E+01 0.36477860549E+01 0.36330269195E+01 0.36965983908E+01 0.38386436963E+01
 0.40604993843E+01 0.43647196039E+01 0.47547991851E+01 0.52340827250E+01 0.58035429808E+01
 0.64586037146E+01 0.71857931772E+01 0.74170585472E+01 0.82812173005E+01 0.91529262266E+01
 0.99822705051E+01 0.10719660679E+02 0.11323735918E+02 0.11761360247E+02 0.12015515760E+02
 0.12101113076E+02 0.12050186442E+02 0.11891390648E+02 0.11635724255E+02 0.11275501705E+02
 0.10797102896E+02 0.10200783062E+02 0.95080344424E+01 0.87437462217E+01 0.79412131342E+01
 0.71394354218E+01 0.63763432775E+01 0.56829259620E+01 0.50800145355E+01 0.45780461594E+01
 0.41791118319E+01 0.38800933250E+01 0.36757751806E+01 0.35611846977E+01 0.35328988036E+01
 0.35895277183E+01 0.37318028062E+01 0.39625749298E+01 0.42866343025E+01 0.47099084787E+01
 0.52375561009E+01 0.58708446506E+01 0.66032833372E+01 0.68653563212E+01 0.77697806081E+01
 0.87197644617E+01 0.96640793125E+01 0.10546565202E+02 0.11313551494E+02 0.11903925955E+02
 0.12281749209E+02 0.12462133694E+02 0.12494853213E+02 0.12435491443E+02 0.12317059018E+02
 0.12134853291E+02 0.11851939288E+02 0.11423081056E+02 0.10825859064E+02 0.10083488344E+02
 0.92461286593E+01 0.83565152342E+01 0.74621969875E+01 0.66092318645E+01 0.58348546467E+01
 0.51635588645E+01 0.46069760138E+01 0.41665855398E+01 0.38376863844E+01 0.36132287868E+01
 0.34866884299E+01 0.34537398118E+01 0.35129645578E+01 0.36660219714E+01 0.39175551282E+01
 0.42746493493E+01 0.47453314098E+01 0.53357012858E+01 0.60458484876E+01 0.63230551997E+01
 0.72348312475E+01 0.82274728848E+01 0.92513053940E+01 0.10246260755E+02 0.11147199604E+02
 0.11862134738E+02 0.12325802983E+02 0.12543671306E+02 0.12581802339E+02 0.12534073386E+02
 0.12479418018E+02 0.12446295866E+02 0.12400048936E+02 0.12259621390E+02 0.11936796818E+02
 0.11380642426E+02 0.10607575063E+02 0.96975237155E+01 0.87215743870E+01 0.77370436402E+01
 0.67985566412E+01 0.59494925423E+01 0.52175378533E+01 0.46149058610E+01 0.41419135663E+01
 0.37919103275E+01 0.35558831227E+01 0.34258596837E+01 0.33969013468E+01 0.34679539407E+01
 0.36420036479E+01 0.39257557031E+01 0.43285534687E+01 0.48599695032E+01 0.55258173302E+01
 0.58033581020E+01 0.66939628215E+01 0.76972923183E+01 0.87678805250E+01 0.98444466996E+01
 0.10854378516E+02 0.11678123348E+02 0.12206964892E+02 0.12418176326E+02 0.12380350825E+02