   2   2   0   0
  0.1584029E+02  0.3690633E-09  0.3690633E-09  0.3690633E-09  0.5000000E-15
  1.000000000000000E-004
  CAR 
 unknown system                          
     22.62611663     -6.64191586  301      8.65146476      1.00000000
     -6.642  0.0000E+00  0.0000E+00
     -6.544  0.0000E+00  0.0000E+00
     -6.447  0.0000E+00  0.0000E+00
     -6.349  0.0000E+00  0.0000E+00
     -6.252  0.0000E+00  0.0000E+00
     -6.154  0.0000E+00  0.0000E+00
     -6.057  0.0000E+00  0.0000E+00
     -5.959  0.0000E+00  0.0000E+00
     -5.861  0.0000E+00  0.0000E+00
     -5.764  0.1126E-16  0.1099E-17
     -5.666  0.2322E-14  0.2276E-15
     -5.569  0.2972E-12  0.2923E-13
     -5.471  0.2384E-10  0.2355E-11
     -5.374  0.1199E-08  0.1193E-09
     -5.276  0.3786E-07  0.3813E-08
     -5.179  0.7515E-06  0.7713E-07
     -5.081  0.9395E-05  0.9937E-06
     -4.983  0.7411E-04  0.8224E-05
     -4.886  0.3702E-03  0.4434E-04
     -4.788  0.1180E-02  0.1595E-03
     -4.691  0.2460E-02  0.3995E-03
     -4.593  0.3632E-02  0.7538E-03
     -4.496  0.4765E-02  0.1219E-02
     -4.398  0.7231E-02  0.1924E-02
     -4.300  0.1132E-01  0.3028E-02
     -4.203  0.1445E-01  0.4438E-02
     -4.105  0.1440E-01  0.5844E-02
     -4.008  0.1216E-01  0.7030E-02
     -3.910  0.9770E-02  0.7984E-02
     -3.813  0.8758E-02  0.8838E-02
     -3.715  0.1069E-01  0.9881E-02
     -3.618  0.1614E-01  0.1146E-01
     -3.520  0.2259E-01  0.1366E-01
     -3.422  0.2483E-01  0.1608E-01
     -3.325  0.2091E-01  0.1812E-01
     -3.227  0.1627E-01  0.1971E-01
     -3.130  0.1663E-01  0.2133E-01
     -3.032  0.2023E-01  0.2331E-01
     -2.935  0.2155E-01  0.2541E-01
     -2.837  0.1980E-01  0.2734E-01
     -2.740  0.1919E-01  0.2921E-01
     -2.642  0.2175E-01  0.3133E-01
     -2.544  0.2482E-01  0.3376E-01
     -2.447  0.2598E-01  0.3629E-01
     -2.349  0.2547E-01  0.3878E-01
     -2.252  0.2394E-01  0.4111E-01
     -2.154  0.2319E-01  0.4337E-01
     -2.057  0.2631E-01  0.4594E-01
     -1.959  0.3123E-01  0.4899E-01
     -1.861  0.3105E-01  0.5202E-01
     -1.764  0.2461E-01  0.5442E-01
     -1.666  0.1772E-01  0.5615E-01
     -1.569  0.1499E-01  0.5761E-01
     -1.471  0.1741E-01  0.5931E-01
     -1.374  0.2543E-01  0.6179E-01
     -1.276  0.3804E-01  0.6550E-01
     -1.179  0.4888E-01  0.7027E-01
     -1.081  0.5053E-01  0.7520E-01
     -0.983  0.4393E-01  0.7948E-01
     -0.886  0.3696E-01  0.8309E-01
     -0.788  0.3370E-01  0.8638E-01
     -0.691  0.3100E-01  0.8940E-01
     -0.593  0.2613E-01  0.9195E-01
     -0.496  0.2103E-01  0.9400E-01
     -0.398  0.1837E-01  0.9579E-01
     -0.301  0.1961E-01  0.9771E-01
     -0.203  0.2497E-01  0.1001E+00
     -0.105  0.3177E-01  0.1032E+00
     -0.008  0.3626E-01  0.1068E+00
      0.090  0.3876E-01  0.1106E+00
      0.187  0.4239E-01  0.1147E+00
      0.285  0.4726E-01  0.1193E+00
      0.382  0.4993E-01  0.1242E+00
      0.480  0.4817E-01  0.1289E+00
      0.578  0.4426E-01  0.1332E+00
      0.675  0.4134E-01  0.1372E+00
      0.773  0.4105E-01  0.1412E+00
      0.870  0.4340E-01  0.1455E+00
      0.968  0.4522E-01  0.1499E+00
      1.065  0.4707E-01  0.1545E+00
      1.163  0.5353E-01  0.1597E+00
      1.260  0.5916E-01  0.1655E+00
      1.358  0.5233E-01  0.1706E+00
      1.456  0.3512E-01  0.1740E+00
      1.553  0.2092E-01  0.1760E+00
      1.651  0.1572E-01  0.1776E+00
      1.748  0.1557E-01  0.1791E+00
      1.846  0.1637E-01  0.1807E+00
      1.943  0.1969E-01  0.1826E+00
      2.041  0.2866E-01  0.1854E+00
      2.138  0.4093E-01  0.1894E+00
      2.236  0.5059E-01  0.1943E+00
      2.334  0.5387E-01  0.1996E+00
      2.431  0.5121E-01  0.2046E+00
      2.529  0.4719E-01  0.2092E+00
      2.626  0.4583E-01  0.2137E+00
      2.724  0.4657E-01  0.2182E+00
      2.821  0.4785E-01  0.2229E+00
      2.919  0.4946E-01  0.2277E+00
      3.017  0.4794E-01  0.2324E+00
      3.114  0.3843E-01  0.2361E+00
      3.212  0.2546E-01  0.2386E+00
      3.309  0.2001E-01  0.2406E+00
      3.407  0.2495E-01  0.2430E+00
      3.504  0.3283E-01  0.2462E+00
      3.602  0.3634E-01  0.2497E+00
      3.699  0.3512E-01  0.2532E+00
      3.797  0.3313E-01  0.2564E+00
      3.895  0.3514E-01  0.2598E+00
      3.992  0.4524E-01  0.2642E+00
      4.090  0.6277E-01  0.2704E+00
      4.187  0.7791E-01  0.2780E+00
      4.285  0.8051E-01  0.2858E+00
      4.382  0.7360E-01  0.2930E+00
      4.480  0.6538E-01  0.2994E+00
      4.577  0.5647E-01  0.3049E+00
      4.675  0.4668E-01  0.3094E+00
      4.773  0.4069E-01  0.3134E+00
      4.870  0.4117E-01  0.3174E+00
      4.968  0.4341E-01  0.3217E+00
      5.065  0.4087E-01  0.3257E+00
      5.163  0.3546E-01  0.3291E+00
      5.260  0.3604E-01  0.3326E+00
      5.358  0.4592E-01  0.3371E+00
      5.456  0.5829E-01  0.3428E+00
      5.553  0.6442E-01  0.3491E+00
      5.651  0.6434E-01  0.3554E+00
      5.748  0.6590E-01  0.3618E+00
      5.846  0.6953E-01  0.3686E+00
      5.943  0.6719E-01  0.3751E+00
      6.041  0.5811E-01  0.3808E+00
      6.138  0.4947E-01  0.3856E+00
      6.236  0.4684E-01  0.3902E+00
      6.334  0.5147E-01  0.3952E+00
      6.431  0.5912E-01  0.4010E+00
      6.529  0.6254E-01  0.4071E+00
      6.626  0.5968E-01  0.4129E+00
      6.724  0.5596E-01  0.4184E+00
      6.821  0.5871E-01  0.4241E+00
      6.919  0.6887E-01  0.4308E+00
      7.016  0.7983E-01  0.4386E+00
      7.114  0.8751E-01  0.4471E+00
      7.212  0.9143E-01  0.4561E+00
      7.309  0.8863E-01  0.4647E+00
      7.407  0.7913E-01  0.4724E+00
      7.504  0.6742E-01  0.4790E+00
      7.602  0.5613E-01  0.4845E+00
      7.699  0.4748E-01  0.4891E+00
      7.797  0.4318E-01  0.4933E+00
      7.895  0.4124E-01  0.4973E+00
      7.992  0.4014E-01  0.5013E+00
      8.090  0.4086E-01  0.5052E+00
      8.187  0.4307E-01  0.5094E+00
      8.285  0.4412E-01  0.5137E+00
      8.382  0.4399E-01  0.5180E+00
      8.480  0.4803E-01  0.5227E+00
      8.577  0.5834E-01  0.5284E+00
      8.675  0.6672E-01  0.5349E+00
      8.773  0.6387E-01  0.5412E+00
      8.870  0.5423E-01  0.5464E+00
      8.968  0.5264E-01  0.5516E+00
      9.065  0.6128E-01  0.5576E+00
      9.163  0.6242E-01  0.5637E+00
      9.260  0.4585E-01  0.5681E+00
      9.358  0.2491E-01  0.5706E+00
      9.456  0.1551E-01  0.5721E+00
      9.553  0.1935E-01  0.5740E+00
      9.651  0.2896E-01  0.5768E+00
      9.748  0.3668E-01  0.5804E+00
      9.846  0.4063E-01  0.5843E+00
      9.943  0.4406E-01  0.5886E+00
     10.041  0.4787E-01  0.5933E+00
     10.138  0.4868E-01  0.5980E+00
     10.236  0.4683E-01  0.6026E+00
     10.334  0.4803E-01  0.6073E+00
     10.431  0.5572E-01  0.6127E+00
     10.529  0.6722E-01  0.6193E+00
     10.626  0.7515E-01  0.6266E+00
     10.724  0.7568E-01  0.6340E+00
     10.821  0.7389E-01  0.6412E+00
     10.919  0.7271E-01  0.6483E+00
     11.016  0.6787E-01  0.6549E+00
     11.114  0.5917E-01  0.6607E+00
     11.212  0.5605E-01  0.6662E+00
     11.309  0.6710E-01  0.6727E+00
     11.407  0.8741E-01  0.6812E+00
     11.504  0.1040E+00  0.6914E+00
     11.602  0.1092E+00  0.7020E+00
     11.699  0.1019E+00  0.7120E+00
     11.797  0.8434E-01  0.7202E+00
     11.895  0.6256E-01  0.7263E+00
     11.992  0.4509E-01  0.7307E+00
     12.090  0.3558E-01  0.7342E+00
     12.187  0.3037E-01  0.7371E+00
     12.285  0.2962E-01  0.7400E+00
     12.382  0.4020E-01  0.7440E+00
     12.480  0.6049E-01  0.7499E+00
     12.577  0.7635E-01  0.7573E+00
     12.675  0.7793E-01  0.7649E+00
     12.773  0.7134E-01  0.7719E+00
     12.870  0.6846E-01  0.7786E+00
     12.968  0.7048E-01  0.7854E+00
     13.065  0.6917E-01  0.7922E+00
     13.163  0.6036E-01  0.7981E+00
     13.260  0.4942E-01  0.8029E+00
     13.358  0.4529E-01  0.8073E+00
     13.455  0.5533E-01  0.8127E+00
     13.553  0.8028E-01  0.8205E+00
     13.651  0.1059E+00  0.8309E+00
     13.748  0.1143E+00  0.8420E+00
     13.846  0.1067E+00  0.8524E+00
     13.943  0.9582E-01  0.8618E+00
     14.041  0.8510E-01  0.8701E+00
     14.138  0.7209E-01  0.8771E+00
     14.236  0.5931E-01  0.8829E+00
     14.334  0.5309E-01  0.8881E+00
     14.431  0.5663E-01  0.8936E+00
     14.529  0.6595E-01  0.9000E+00
     14.626  0.7377E-01  0.9072E+00
     14.724  0.7536E-01  0.9146E+00
     14.821  0.6993E-01  0.9214E+00
     14.919  0.6168E-01  0.9274E+00
     15.016  0.5716E-01  0.9330E+00
     15.114  0.5803E-01  0.9387E+00
     15.212  0.6152E-01  0.9447E+00
     15.309  0.6375E-01  0.9509E+00
     15.407  0.6110E-01  0.9568E+00
     15.504  0.5500E-01  0.9622E+00
     15.602  0.4842E-01  0.9669E+00
     15.699  0.4064E-01  0.9709E+00
     15.797  0.3317E-01  0.9741E+00
     15.894  0.3009E-01  0.9771E+00
     15.992  0.3167E-01  0.9802E+00
     16.090  0.3499E-01  0.9836E+00
     16.187  0.3929E-01  0.9874E+00
     16.285  0.4730E-01  0.9920E+00
     16.382  0.5800E-01  0.9977E+00
     16.480  0.6522E-01  0.1004E+01
     16.577  0.6657E-01  0.1011E+01
     16.675  0.6289E-01  0.1017E+01
     16.773  0.5379E-01  0.1022E+01
     16.870  0.4104E-01  0.1026E+01
     16.968  0.2821E-01  0.1029E+01
     17.065  0.1830E-01  0.1030E+01
     17.163  0.1336E-01  0.1032E+01
     17.260  0.1270E-01  0.1033E+01
     17.358  0.1410E-01  0.1034E+01
     17.455  0.1698E-01  0.1036E+01
     17.553  0.2273E-01  0.1038E+01
     17.651  0.3135E-01  0.1041E+01
     17.748  0.3797E-01  0.1045E+01
     17.846  0.3678E-01  0.1049E+01
     17.943  0.2838E-01  0.1051E+01
     18.041  0.1838E-01  0.1053E+01
     18.138  0.1075E-01  0.1054E+01
     18.236  0.5864E-02  0.1055E+01
     18.333  0.2926E-02  0.1055E+01
     18.431  0.1698E-02  0.1055E+01
     18.529  0.2543E-02  0.1055E+01
     18.626  0.5572E-02  0.1056E+01
     18.724  0.9540E-02  0.1057E+01
     18.821  0.1228E-01  0.1058E+01
     18.919  0.1254E-01  0.1059E+01
     19.016  0.1035E-01  0.1060E+01
     19.114  0.6648E-02  0.1061E+01
     19.212  0.3247E-02  0.1061E+01
     19.309  0.1825E-02  0.1062E+01
     19.407  0.2762E-02  0.1062E+01
     19.504  0.4897E-02  0.1062E+01
     19.602  0.6039E-02  0.1063E+01
     19.699  0.5330E-02  0.1063E+01
     19.797  0.4241E-02  0.1064E+01
     19.894  0.3788E-02  0.1064E+01
     19.992  0.3578E-02  0.1065E+01
     20.090  0.3476E-02  0.1065E+01
     20.187  0.3330E-02  0.1065E+01
     20.285  0.2614E-02  0.1065E+01
     20.382  0.1701E-02  0.1066E+01
     20.480  0.1608E-02  0.1066E+01
     20.577  0.2391E-02  0.1066E+01
     20.675  0.2895E-02  0.1066E+01
     20.772  0.2293E-02  0.1067E+01
     20.870  0.1154E-02  0.1067E+01
     20.968  0.3674E-03  0.1067E+01
     21.065  0.7392E-04  0.1067E+01
     21.163  0.9386E-05  0.1067E+01
     21.260  0.7513E-06  0.1067E+01
     21.358  0.3785E-07  0.1067E+01
     21.455  0.1199E-08  0.1067E+01
     21.553  0.2384E-10  0.1067E+01
     21.651  0.2972E-12  0.1067E+01
     21.748  0.2321E-14  0.1067E+01
     21.846  0.1185E-16  0.1067E+01
     21.943  0.0000E+00  0.1067E+01
     22.041  0.0000E+00  0.1067E+01
     22.138  0.0000E+00  0.1067E+01
     22.236  0.0000E+00  0.1067E+01
     22.333  0.0000E+00  0.1067E+01
     22.431  0.0000E+00  0.1067E+01
     22.529  0.0000E+00  0.1067E+01
     22.626  0.0000E+00  0.1067E+01
