 running on    8 total cores
 distrk:  each k-point on    8 cores,    1 groups
 distr:  one band on    1 cores,    8 groups
 using from now: INCAR     
 vasp.5.4.4.18Apr17-6-g9f103f2a35 (build Dec 09 2018 21:25:21) complex          
  
 POSCAR found type information on POSCAR  Si
 POSCAR found :  1 types and       2 ions
 scaLAPACK will be used

 ----------------------------------------------------------------------------- 
|                                                                             |
|           W    W    AA    RRRRR   N    N  II  N    N   GGGG   !!!           |
|           W    W   A  A   R    R  NN   N  II  NN   N  G    G  !!!           |
|           W    W  A    A  R    R  N N  N  II  N N  N  G       !!!           |
|           W WW W  AAAAAA  RRRRR   N  N N  II  N  N N  G  GGG   !            |
|           WW  WW  A    A  R   R   N   NN  II  N   NN  G    G                |
|           W    W  A    A  R    R  N    N  II  N    N   GGGG   !!!           |
|                                                                             |
|      For optimal performance we recommend to set                            |
|        NCORE= 4 - approx SQRT( number of cores)                             |
|      NCORE specifies how many cores store one orbital (NPAR=cpu/NCORE).     |
|      This setting can  greatly improve the performance of VASP for DFT.     |
|      The default,   NCORE=1            might be grossly inefficient         |
|      on modern multi-core architectures or massively parallel machines.     |
|      Do your own testing !!!!                                               |
|      Unfortunately you need to use the default for GW and RPA calculations. |
|      (for HF NCORE is supported but not extensively tested yet)             |
|                                                                             |
 ----------------------------------------------------------------------------- 

 LDA part: xc-table for Pade appr. of Perdew
 POSCAR, INCAR and KPOINTS ok, starting setup
 FFT: planning ...
 WAVECAR not read
 entering main loop
       N       E                     dE             d eps       ncg     rms          rms(c)
DAV:   1     0.121281277307E+01    0.12128E+01   -0.27829E+03   904   0.604E+02
DAV:   2    -0.101527400768E+02   -0.11366E+02   -0.11225E+02  1336   0.640E+01
DAV:   3    -0.102663474975E+02   -0.11361E+00   -0.11340E+00  1168   0.790E+00
DAV:   4    -0.102667284875E+02   -0.38099E-03   -0.38097E-03  1432   0.429E-01
DAV:   5    -0.102667287684E+02   -0.28097E-06   -0.28092E-06  1176   0.785E-03    0.154E+00
DAV:   6    -0.102604684946E+02    0.62603E-02   -0.36497E-03  1192   0.403E-01    0.954E-01
DAV:   7    -0.102560608570E+02    0.44076E-02   -0.95048E-03  1056   0.676E-01    0.503E-02
DAV:   8    -0.102560104329E+02    0.50424E-04   -0.38465E-04   632   0.143E-01
   1 F= -.10256010E+02 E0= -.10245844E+02  d E =-.102560E+02
 curvature:   0.00 expect dE= 0.000E+00 dE for cont linesearch  0.000E+00
 trial: gam= 0.00000 g(F)=  0.404E-47 g(S)=  0.000E+00 ort = 0.000E+00 (trialstep = 0.100E+01)
 search vector abs. value=  0.100E-09
 reached required accuracy - stopping structural energy minimisation
 writing wavefunctions
