unknown system                          
           1
    -2.431763    2.431763    1.339339
     2.431763   -2.431763    1.339339
     2.431763    2.431763   -1.339339
   Si
   2
Direct configuration=     1
   0.75000000  0.25000000  0.50000000
   0.50000000  0.50000000  0.00000000
