unknown system                          
   1.00000000000000     
    -2.182379    2.182379    1.413163
     2.182379   -2.182379    1.413163
     2.182379    2.182379   -1.413163
   Si
     2
Direct
  0.250000  0.750000  0.500000
  0.000000  0.000000  0.000000
 
   32   32   32
 -5.2514     -4.0795     -.93424      3.2297      7.2569      10.206      11.621      11.573      10.529      9.1077    
  7.7157      6.4918      5.5016      4.7609      4.2563      3.9655      3.8707      3.9655      4.2563      4.7609    
  5.5016      6.4918      7.7157      9.1076      10.529      11.573      11.621      10.206      7.2569      3.2297    
 -.93426     -4.0796     -4.0796     -4.7090     -3.0657     0.33002      4.4560      8.1923      10.710      11.690    
  11.318      10.118      8.6876      7.3365      6.1761      5.2571      4.5856      4.1444      3.9114      3.8711    
  4.0192      4.3651      4.9284      5.7307      6.7807      8.0527      9.4674      10.854      11.736      11.513    
  9.7955      6.6240      2.5665     -1.3766     -.93426     -3.0657     -3.1559     -1.1777      2.2374      6.0627    
  9.2749      11.199      11.664      10.959      9.6369      8.2243      6.9310      5.8468      5.0072      4.4096    
  4.0341      3.8593      3.8717      4.0702      4.4663      5.0809      5.9342      7.0298      8.3326      9.7523    
  11.087      11.828      11.421      9.5655      6.4005      2.5665      3.2297     0.33000     -1.1778     -.80284    
  1.3287      4.5258      7.8184      10.330      11.564      11.496      10.495      9.1092      7.7361      6.5155    
  5.5171      4.7618      4.2398      3.9294      3.8107      3.8725      4.1161      4.5554      5.2116      6.1032    
  7.2281      8.5428      9.9495      11.226      11.868      11.386      9.5655      6.6240      7.2569      4.4561    
  2.2374      1.3287      2.0402      4.1274      6.8947      9.4832      11.197      11.723      11.169      9.9491    
  8.5567      7.2419      6.1063      5.1997      4.5301      4.0823      3.8341      3.7672      3.8728      4.1547    
  4.6284      5.3149      6.2299      7.3659      8.6732      10.050      11.272      11.868      11.421      9.7955    
  10.206      8.1923      6.0627      4.5258      4.1275      5.0167      6.8760      9.0572      10.852      11.759    
  11.636      10.695      9.3606      8.0011      6.7614      5.7191      4.9060      4.3201      3.9425      3.7512    
  3.7299      3.8724      4.1846      4.6825      5.3863      6.3084      7.4365      8.7175      10.050      11.226    
  11.828      11.513      11.621      10.710      9.2749      7.8184      6.8947      6.8760      7.7836      9.2734    
  10.787      11.786      11.960      11.313      10.122      8.7680      7.4651      6.3130      5.3679      4.6464    
  4.1389      3.8248      3.6833      3.7003      3.8717      4.2048      4.7157      5.4228      6.3350      7.4365    
  8.6732      9.9495      11.087      11.736      11.573      11.690      11.199      10.330      9.4832      9.0572    
  9.2734      10.065      11.105      11.950      12.236      11.818      10.813      9.5193      8.1985      6.9711    
  5.9140      5.0650      4.4291      3.9921      3.7331      3.6330      3.6796      3.8710      4.2150      4.7269    
  5.4228      6.3084      7.3659      8.5428      9.7523      10.854      10.529      11.318      11.664      11.564    
  11.197      10.852      10.787      11.105      11.693      12.271      12.522      12.240      11.415      10.232    
  8.9402      7.6791      6.5394      5.5787      4.8201      4.2607      3.8842      3.6703      3.6019      3.6690    
  3.8707      4.2150      4.7157      5.3863      6.2299      7.2281      8.3326      9.4674      9.1076      10.118    
  10.959      11.496      11.723      11.759      11.786      11.950      12.271      12.621      12.788      12.577    
  11.911      10.875      9.6634      8.4169      7.2338      6.1871      5.3184      4.6404      4.1460      3.8181    
  3.6383      3.5914      3.6690      3.8710      4.2048      4.6825      5.3149      6.1032      7.0298      8.0527    
  7.7157      8.6876      9.6369      10.495      11.169      11.636      11.960      12.236      12.522      12.788    
  12.921      12.777      12.267      11.410      10.332      9.1561      7.9786      6.8829      5.9270      5.1408    
  4.5308      4.0879      3.7960      3.6383      3.6019      3.6796      3.8717      4.1846      4.6284      5.2116    
  5.9342      6.7807      6.4918      7.3365      8.2243      9.1092      9.9491      10.695      11.313      11.818    
  12.240      12.577      12.777      12.753      12.427      11.787      10.901      9.8570      8.7441      7.6488    
  6.6411      5.7677      5.0509      4.4940      4.0879      3.8181      3.6703      3.6330      3.7003      3.8724    
  4.1547      4.5554      5.0809      5.7307      5.5016      6.1761      6.9310      7.7361      8.5567      9.3606    
  10.122      10.813      11.415      11.911      12.267      12.427      12.331      11.952      11.315      10.469    
  9.4879      8.4543      7.4443      6.5180      5.7141      5.0509      4.5308      4.1460      3.8842      3.7331    
  3.6833      3.7299      3.8728      4.1161      4.4663      4.9284      4.7609      5.2571      5.8468      6.5155    
  7.2419      8.0011      8.7680      9.5193      10.232      10.875      11.410      11.787      11.952      11.868    
  11.522      10.935      10.156      9.2545      8.3048      7.3751      6.5180      5.7677      5.1408      4.6404    
  4.2607      3.9921      3.8248      3.7512      3.7672      3.8725      4.0702      4.3651      4.2563      4.5856    
  5.0072      5.5171      6.1064      6.7614      7.4651      8.1985      8.9402      9.6634      10.332      10.901    
  11.315      11.522      11.489      11.205      10.690      9.9924      9.1747      8.3048      7.4443      6.6411    
  5.9270      5.3184      4.8201      4.4291      4.1389      3.9425      3.8341      3.8107      3.8717      4.0192    
  3.9655      4.1444      4.4096      4.7618      5.1997      5.7191      6.3130      6.9711      7.6790      8.4169    
  9.1561      9.8570      10.469      10.935      11.205      11.242      11.036      10.606      9.9924      9.2545    
  8.4543      7.6488      6.8829      6.1871      5.5787      5.0650      4.6464      4.3201      4.0823      3.9294    
  3.8593      3.8711      3.8707      3.9115      4.0341      4.2398      4.5301      4.9060      5.3679      5.9141    
  6.5394      7.2338      7.9786      8.7441      9.4879      10.156      10.690      11.036      11.156      11.036    
  10.690      10.156      9.4879      8.7441      7.9786      7.2338      6.5394      5.9140      5.3679      4.9060    
  4.5301      4.2398      4.0341      3.9114      3.9655      3.8711      3.8593      3.9295      4.0823      4.3201    
  4.6464      5.0650      5.5788      6.1871      6.8829      7.6488      8.4543      9.2545      9.9924      10.606    
  11.036      11.242      11.205      10.935      10.469      9.8570      9.1561      8.4169      7.6791      6.9711    
  6.3130      5.7191      5.1997      4.7618      4.4096      4.1444      4.2563      4.0192      3.8718      3.8107    
  3.8341      3.9425      4.1389      4.4291      4.8201      5.3184      5.9270      6.6411      7.4443      8.3048    
  9.1747      9.9924      10.690      11.205      11.489      11.522      11.315      10.901      10.332      9.6634    
  8.9402      8.1985      7.4651      6.7614      6.1063      5.5171      5.0072      4.5856      4.7609      4.3652    
  4.0702      3.8725      3.7672      3.7512      3.8248      3.9921      4.2607      4.6404      5.1408      5.7677    
  6.5180      7.3751      8.3048      9.2545      10.156      10.935      11.522      11.868      11.952      11.787    
  11.410      10.875      10.232      9.5193      8.7680      8.0011      7.2419      6.5155      5.8468      5.2571    
  5.5016      4.9284      4.4664      4.1161      3.8728      3.7299      3.6833      3.7331      3.8842      4.1460    
  4.5308      5.0509      5.7141      6.5180      7.4443      8.4543      9.4879      10.469      11.315      11.952    
  12.331      12.427      12.267      11.911      11.415      10.813      10.122      9.3606      8.5567      7.7361    
  6.9310      6.1761      6.4918      5.7307      5.0809      4.5554      4.1547      3.8724      3.7003      3.6330    
  3.6703      3.8182      4.0879      4.4940      5.0509      5.7677      6.6411      7.6488      8.7441      9.8570    
  10.901      11.787      12.427      12.753      12.777      12.577      12.240      11.818      11.313      10.695    
  9.9491      9.1092      8.2243      7.3365      7.7157      6.7806      5.9342      5.2116      4.6284      4.1846    
  3.8717      3.6796      3.6019      3.6383      3.7960      4.0879      4.5308      5.1408      5.9270      6.8829    
  7.9786      9.1561      10.332      11.410      12.267      12.777      12.921      12.788      12.522      12.236    
  11.960      11.636      11.169      10.495      9.6369      8.6876      9.1077      8.0527      7.0298      6.1032    
  5.3149      4.6825      4.2048      3.8709      3.6690      3.5914      3.6383      3.8182      4.1460      4.6404    
  5.3184      6.1871      7.2338      8.4169      9.6634      10.875      11.911      12.577      12.788      12.621    
  12.271      11.950      11.786      11.759      11.723      11.496      10.959      10.118      10.529      9.4675    
  8.3326      7.2281      6.2300      5.3863      4.7157      4.2150      3.8707      3.6690      3.6019      3.6703    
  3.8842      4.2607      4.8201      5.5788      6.5394      7.6790      8.9402      10.232      11.415      12.240    
  12.522      12.271      11.693      11.105      10.787      10.852      11.197      11.564      11.664      11.318    
  11.573      10.854      9.7523      8.5429      7.3659      6.3084      5.4228      4.7269      4.2150      3.8709    
  3.6796      3.6330      3.7331      3.9921      4.4291      5.0650      5.9141      6.9711      8.1985      9.5193    
  10.813      11.818      12.236      11.950      11.105      10.065      9.2734      9.0572      9.4832      10.330    
  11.199      11.690      11.621      11.736      11.087      9.9495      8.6732      7.4366      6.3350      5.4228    
  4.7157      4.2048      3.8717      3.7003      3.6833      3.8248      4.1389      4.6464      5.3679      6.3130    
  7.4651      8.7680      10.122      11.313      11.960      11.786      10.787      9.2734      7.7836      6.8760    
  6.8947      7.8184      9.2749      10.710      10.206      11.513      11.828      11.226      10.050      8.7175    
  7.4366      6.3084      5.3863      4.6825      4.1846      3.8724      3.7299      3.7512      3.9425      4.3201    
  4.9060      5.7191      6.7614      8.0011      9.3606      10.695      11.636      11.759      10.852      9.0572    
  6.8760      5.0167      4.1274      4.5258      6.0627      8.1923      7.2569      9.7955      11.421      11.868    
  11.272      10.050      8.6732      7.3659      6.2300      5.3149      4.6284      4.1547      3.8728      3.7672    
  3.8341      4.0823      4.5301      5.1997      6.1064      7.2419      8.5567      9.9491      11.169      11.723    
  11.197      9.4832      6.8947      4.1275      2.0402      1.3287      2.2374      4.4560      3.2297      6.6240    
  9.5656      11.386      11.868      11.226      9.9495      8.5429      7.2281      6.1032      5.2116      4.5554    
  4.1161      3.8725      3.8107      3.9295      4.2398      4.7618      5.5171      6.5155      7.7361      9.1092    
  10.495      11.496      11.564      10.330      7.8184      4.5258      1.3287     -.80284     -1.1777     0.33002    
 -.93424      2.5665      6.4005      9.5656      11.421      11.828      11.087      9.7523      8.3326      7.0298    
  5.9342      5.0809      4.4664      4.0702      3.8718      3.8593      4.0341      4.4096      5.0072      5.8468    
  6.9310      8.2243      9.6369      10.959      11.664      11.199      9.2749      6.0627      2.2374     -1.1778    
 -3.1559     -3.0657     -4.0795     -1.3766      2.5665      6.6240      9.7955      11.513      11.736      10.854    
  9.4675      8.0527      6.7806      5.7307      4.9284      4.3652      4.0192      3.8711      3.9115      4.1444    
  4.5856      5.2571      6.1761      7.3365      8.6876      10.118      11.318      11.690      10.710      8.1923    
  4.4561     0.33000     -3.0657     -4.7090     -4.0795     -3.2103     -.43164      3.4029      7.2061      10.055    
  11.464      11.456      10.451      9.0402      7.6426      6.4037      5.3937      4.6316      4.1048      3.7903    
  3.6690      3.7327      3.9866      4.4478      5.1392      6.0776      7.2537      8.6109      10.030      11.177    
  11.460      10.397      7.8600      4.2175     0.31460     -2.7643     -3.2104     -4.0796     -2.7644     0.31464    
  4.2176      7.8600      10.397      11.460      11.177      10.031      8.6108      7.2536      6.0777      5.1393    
  4.4478      3.9865      3.7327      3.6690      3.7903      4.1047      4.6315      5.3937      6.4037      7.6426    
  9.0401      10.451      11.456      11.463      10.055      7.2061      3.4029     -.43156     -.34966     -2.6757    
 -3.0657     -1.4011      1.7792      5.5034      8.7490      10.795      11.408      10.818      9.5503      8.1460    
  6.8450      5.7448      4.8867      4.2711      3.8784      3.6861      3.6796      3.8568      4.2285      4.8155    
  5.6402      6.7099      7.9964      9.4174      10.799      11.670      11.470      9.8576      6.9075      3.1885    
  3.6115     0.55095     -1.2342     -1.1779     0.68967      3.7519      7.0630      9.7156      11.145      11.260    
  10.376      9.0305      7.6625      6.4321      5.4175      4.6454      4.1080      3.7838      3.6520      3.7003    
  3.9295      4.3528      4.9922      5.8684      6.9833      8.2998      9.7266      11.066      11.834      11.519    
  9.8633      7.0232      7.5409      4.6112      2.1430     0.91607      1.3287      3.2250      5.9596      8.6669    
  10.595      11.354      10.982      9.8595      8.4915      7.1772      6.0299      5.1076      4.4234      3.9638    
  3.7061      3.6313      3.7299      4.0053      4.4727      5.1545      6.0685      7.2112      8.5385      9.9536    
  11.248      11.954      11.627      10.084      10.485      8.3784      6.0401      4.2049      3.4880      4.1274    
  5.8775      8.1138      10.095      11.249      11.357      10.571      9.2975      7.9517      6.7075      5.6524    
  4.8254      4.2283      3.8431      3.6474      3.6243      3.7671      4.0814      4.5836      5.2953      6.2312    
  7.3829      8.7006      10.086      11.338      12.029      11.783      11.954      10.991      9.4005      7.6909    
  6.4595      6.1541      6.8760      8.3317      9.9613      11.176      11.590      11.137      10.052      8.7283    
  7.4304      6.2701      5.3125      4.5802      4.0659      3.7493      3.6094      3.6313      3.8107      4.1550    
  4.6810      5.4086      6.3491      7.4893      8.7771      10.117      11.329      12.044      11.978      12.085    
  11.500      10.443      9.3330      8.6214      8.6022      9.2734      10.335      11.324      11.816      11.597    
  10.727      9.4847      8.1774      6.9478      5.8810      5.0218      4.3794      3.9410      3.6855      3.5933    
  3.6520      3.8593      4.2235      4.7610      5.4892      6.4159      7.5246      8.7633      10.043      11.215    
  10.991      11.808      12.121      11.906      11.346      10.754      10.445      10.585      11.105      11.734    
  12.123      12.007      11.317      10.201      8.9275      7.6693      6.5233      5.5539      4.7893      4.2292    
  3.8574      3.6535      3.5998      3.6861      3.9114      4.2845      4.8202      5.5333      6.4282      7.4866    
  8.6589      9.8650      9.5915      10.659      11.518      12.012      12.122      11.977      11.793      11.762    
  11.955      12.271      12.491      12.384      11.824      10.852      9.6568      8.4145      7.2276      6.1741    
  5.3004      4.6224      4.1338      3.8175      3.6545      3.6290      3.7327      3.9654      4.3355      4.8558    
  5.5384      6.3849      7.3767      8.4687      8.2015      9.2340      10.231      11.102      11.732      12.094    
  12.264      12.368      12.505      12.679      12.788      12.678      12.222      11.404      10.333      9.1565    
  7.9749      6.8734      5.9137      5.1286      4.5258      4.0960      3.8228      3.6887      3.6803      3.7903    
  4.0192      4.3741      4.8659      5.5040      6.2880      7.2002      6.9654      7.8697      8.8083      9.7282    
  10.577      11.285      11.816      12.196      12.483      12.705      12.832      12.777      12.450      11.810    
  10.911      9.8572      8.7360      7.6339      6.6231      5.7519      5.0440      4.5023      4.1172      3.8732    
  3.7554      3.7520      3.8569      4.0702      4.3982      4.8496      5.4313      6.1418      5.9533      6.6836    
  7.4888      8.3330      9.1756      9.9785      10.708      11.329      11.833      12.222      12.484      12.572    
  12.427      12.009      11.337      10.467      9.4693      8.4253      7.4112      6.4880      5.6947      5.0493    
  4.5530      4.1969      3.9678      3.8528      3.8417      3.9295      4.1161      4.4064      4.8072      5.3235    
  5.1858      5.7315      6.3677      7.0755      7.8287      8.5970      9.3513      10.066      10.718      11.281    
  11.726      12.015      12.103      11.952      11.554      10.928      10.121      9.2031      8.2466      7.3196    
  6.4746      5.7446      5.1450      4.6771      4.3337      4.1041      3.9778      3.9463      4.0054      4.1548    
  4.3982      4.7407      4.6533      5.0245      5.4862      6.0317      6.6479      7.3168      8.0175      8.7278    
  9.4254      10.085      10.677      11.161      11.490      11.621      11.522      11.186      10.633      9.9111    
  9.0821      8.2134      7.3654      6.5847      5.9011      5.3293      4.8718      4.5242      4.2784      4.1264    
  4.0619      4.0814      4.1846      4.3741      4.3355      4.5490      4.8469      5.2286      5.6900      6.2237    
  6.8189      7.4623      8.1374      8.8243      9.4968      10.120      10.649      11.034      11.230      11.205    
  10.951      10.488      9.8580      9.1185      8.3303      7.5485      6.8158      6.1606      5.5978      5.1326    
  4.7633      4.4854      4.2938      4.1845      4.1550      4.2049      4.2150      4.2845      4.4329      4.6610    
  4.9692      5.3564      5.8200      6.3553      6.9549      7.6073      8.2945      8.9894      9.6542      10.241    
  10.696      10.972      11.036      10.876      10.509      9.9700      9.3129      8.5933      7.8625      7.1608    
  6.5157      5.9434      5.4519      5.0437      4.7183      4.4742      4.3097      4.2235      4.2845      4.2150    
  4.2236      4.3097      4.4742      4.7183      5.0438      5.4520      5.9434      6.5156      7.1608      7.8625    
  8.5933      9.3129      9.9700      10.509      10.876      11.036      10.972      10.696      10.241      9.6542    
  8.9894      8.2945      7.6073      6.9549      6.3552      5.8199      5.3564      4.9692      4.6610      4.4328    
  4.5490      4.3355      4.2048      4.1550      4.1846      4.2939      4.4854      4.7632      5.1326      5.5979    
  6.1606      6.8158      7.5485      8.3303      9.1185      9.8580      10.488      10.951      11.205      11.230    
  11.034      10.649      10.120      9.4968      8.8243      8.1374      7.4623      6.8190      6.2236      5.6899    
  5.2286      4.8470      5.0245      4.6532      4.3740      4.1846      4.0814      4.0619      4.1264      4.2784    
  4.5242      4.8718      5.3293      5.9011      6.5847      7.3654      8.2134      9.0821      9.9111      10.633    
  11.186      11.522      11.621      11.490      11.161      10.677      10.085      9.4254      8.7279      8.0175    
  7.3168      6.6478      6.0317      5.4863      5.7314      5.1858      4.7408      4.3982      4.1547      4.0053    
  3.9463      3.9778      4.1041      4.3337      4.6771      5.1450      5.7446      6.4746      7.3196      8.2466    
  9.2031      10.121      10.928      11.554      11.952      12.103      12.015      11.726      11.281      10.718    
  10.066      9.3513      8.5970      7.8287      7.0755      6.3677      6.6836      5.9534      5.3236      4.8073    
  4.4064      4.1161      3.9295      3.8417      3.8528      3.9678      4.1969      4.5530      5.0493      5.6947    
  6.4880      7.4112      8.4253      9.4693      10.467      11.337      12.009      12.427      12.572      12.484    
  12.222      11.833      11.329      10.708      9.9785      9.1757      8.3331      7.4887      7.8698      6.9654    
  6.1418      5.4313      4.8496      4.3982      4.0702      3.8568      3.7520      3.7554      3.8733      4.1172    
  4.5023      5.0440      5.7520      6.6231      7.6339      8.7360      9.8572      10.911      11.810      12.450    
  12.777      12.832      12.705      12.483      12.196      11.816      11.285      10.577      9.7282      8.8084    
  9.2341      8.2015      7.2001      6.2880      5.5040      4.8659      4.3740      4.0191      3.7903      3.6803    
  3.6887      3.8228      4.0961      4.5258      5.1286      5.9137      6.8734      7.9749      9.1565      10.333    
  11.404      12.222      12.678      12.788      12.679      12.505      12.368      12.264      12.094      11.732    
  11.102      10.231      10.659      9.5915      8.4687      7.3767      6.3849      5.5384      4.8558      4.3355    
  3.9654      3.7327      3.6290      3.6545      3.8176      4.1338      4.6224      5.3004      6.1741      7.2276    
  8.4145      9.6568      10.852      11.824      12.384      12.491      12.271      11.955      11.762      11.793    
  11.977      12.122      12.012      11.518      11.808      10.991      9.8651      8.6590      7.4866      6.4281    
  5.5333      4.8202      4.2845      3.9114      3.6861      3.5998      3.6535      3.8574      4.2292      4.7893    
  5.5540      6.5233      7.6693      8.9276      10.201      11.317      12.007      12.123      11.734      11.105    
  10.585      10.445      10.754      11.346      11.906      12.121      12.085      11.978      11.215      10.043    
  8.7633      7.5246      6.4159      5.4892      4.7609      4.2235      3.8593      3.6520      3.5933      3.6855    
  3.9410      4.3794      5.0217      5.8810      6.9478      8.1774      9.4847      10.727      11.597      11.816    
  11.324      10.335      9.2734      8.6022      8.6215      9.3331      10.443      11.500      10.991      11.954    
  12.044      11.329      10.117      8.7772      7.4893      6.3490      5.4086      4.6810      4.1550      3.8107    
  3.6313      3.6094      3.7494      4.0659      4.5801      5.3125      6.2701      7.4304      8.7283      10.052    
  11.137      11.590      11.176      9.9612      8.3318      6.8761      6.1542      6.4595      7.6908      9.4006    
  8.3785      10.485      11.783      12.029      11.338      10.086      8.7006      7.3829      6.2313      5.2953    
  4.5836      4.0814      3.7672      3.6244      3.6474      3.8430      4.2283      4.8254      5.6524      6.7075    
  7.9517      9.2976      10.571      11.357      11.249      10.095      8.1139      5.8776      4.1275      3.4881    
  4.2050      6.0402      4.6112      7.5408      10.084      11.627      11.954      11.248      9.9536      8.5385    
  7.2113      6.0685      5.1545      4.4728      4.0053      3.7299      3.6313      3.7061      3.9638      4.4235    
  5.1076      6.0298      7.1772      8.4916      9.8594      10.982      11.354      10.595      8.6669      5.9596    
  3.2251      1.3289     0.91627      2.1430     0.55093      3.6115      7.0232      9.8633      11.519      11.834    
  11.066      9.7267      8.2997      6.9832      5.8684      4.9923      4.3528      3.9295      3.7003      3.6520    
  3.7839      4.1080      4.6453      5.4175      6.4321      7.6625      9.0305      10.376      11.260      11.145    
  9.7155      7.0630      3.7520     0.68985     -1.1777     -1.2342     -2.6756     -.34955      3.1884      6.9074    
  9.8575      11.470      11.670      10.799      9.4173      7.9964      6.7100      5.6402      4.8155      4.2285    
  3.8569      3.6797      3.6860      3.8783      4.2712      4.8867      5.7448      6.8450      8.1460      9.5503    
  10.818      11.408      10.795      8.7490      5.5035      1.7792     -1.4011     -3.0657     -.93416     -.34962    
  1.8843      5.0575      8.2289      10.580      11.668      11.501      10.449      9.0432      7.6556      6.4203    
  5.4061      4.6327      4.0889      3.7520      3.6019      3.6290      3.8369      4.2411      4.8641      5.7247    
  6.8206      8.1086      9.4912      10.741      11.352      10.851      9.0508      6.1975      2.9747     0.31466    
 -.43162     -1.3767     -.43162      2.0923      5.3942      8.5115      10.672      11.519      11.150      9.9939    
  8.5898      7.2444      6.0723      5.1303      4.4292      3.9535      3.6803      3.5914      3.6802      3.9535    
  4.4292      5.1303      6.0723      7.2444      8.5898      9.9939      11.150      11.519      10.672      8.5116    
  5.3942      2.0922      1.8843     -.34964     -.93421     0.31465      2.9747      6.1976      9.0508      10.851    
  11.352      10.741      9.4912      8.1085      6.8206      5.7247      4.8641      4.2411      3.8369      3.6290    
  3.6019      3.7519      4.0889      4.6327      5.4060      6.4202      7.6556      9.0432      10.449      11.501    
  11.668      10.580      8.2290      5.0575      5.2519      2.3874     0.55093     0.32997      1.7792      4.3949    
  7.3292      9.7299      11.038      11.129      10.271      8.9599      7.6162      6.3995      5.3898      4.6167    
  4.0746      3.7427      3.5998      3.6330      3.8417      4.2384      4.8444      5.6812      6.7552      8.0380    
  9.4507      10.840      11.800      11.831      10.632      8.2728      8.6523      5.9557      3.5314      2.1430    
  2.2374      3.7520      6.1394      8.6018      10.409      11.148      10.817      9.7473      8.4181      7.1288    
  5.9951      5.0786      4.3957      3.9347      3.6737      3.5933      3.6834      3.9463      4.3966      5.0563    
  5.9447      7.0629      8.3745      9.7940      11.156      12.049      12.022      10.847      11.205      9.3137    
  7.0655      5.1530      4.2050      4.5258      5.9596      7.9578      9.8156      10.954      11.114      10.403    
  9.1894      7.8816      6.6617      5.6201      4.8005      4.2077      3.8254      3.6317      3.6094      3.7512    
  4.0619      4.5577      5.2599      6.1852      7.3289      8.6487      10.055      11.382      12.239      12.236    
  12.442      11.646      10.152      8.4167      7.0247      6.4595      6.8947      8.1139      9.6075      10.796    
  11.265      10.902      9.9000      8.6290      7.3669      6.2296      5.2863      4.5638      4.0578      3.7494    
  3.6176      3.6475      3.8342      4.1846      4.7153      5.4466      6.3914      7.5400      8.8458      10.219    
  11.505      12.356      12.377      12.595      12.087      11.030      9.8119      8.8951      8.6214      9.0572    
  9.9612      10.896      11.426      11.297      10.523      9.3497      8.0883      6.8914      5.8467      5.0036    
  4.3750      3.9501      3.7088      3.6317      3.7062      3.9295      4.3097      4.8633      5.6081      6.5533    
  7.6848      8.9541      10.275      11.513      11.397      12.280      12.645      12.436      11.805      11.057    
  10.532      10.445      10.787      11.324      11.713      11.663      11.065      10.028      8.8058      7.5880    
  6.4723      5.5259      4.7809      4.2397      3.8876      3.7048      3.6738      3.7839      4.0341      4.4329    
  4.9954      5.7368      6.6624      7.7550      8.9666      10.218      10.047      11.155      12.047      12.547    
  12.611      12.353      11.994      11.758      11.762      11.950      12.123      12.040      11.546      10.644    
  9.4999      8.3005      7.1496      6.1257      5.2780      4.6248      4.1616      3.8722      3.7378      3.7428    
  3.8784      4.1444      4.5490      5.1056      5.8263      6.7128      7.7463      8.8815      8.7025      9.7718    
  10.795      11.673      12.276      12.559      12.596      12.527      12.482      12.505      12.522      12.384    
  11.952      11.178      10.145      9.0054      7.8607      6.7934      5.8654      5.1113      4.5401      4.1433    
  3.9047      3.8072      3.8370      3.9866      4.2563      4.6532      5.1887      5.8718      6.7014      7.6587    
  7.4963      8.4383      9.4038      10.335      11.171      11.829      12.265      12.509      12.636      12.702    
  12.705      12.577      12.222      11.587      10.701      9.6699      8.5795      7.5115      6.5362      5.7016    
  5.0318      4.5297      4.1858      3.9848      3.9114      3.9536      4.1048      4.3651      4.7407      5.2404    
  5.8707      6.6286      6.4979      7.2673      8.1018      8.9608      9.7986      10.571      11.239      11.759    
  12.132      12.376      12.503      12.484      12.267      11.810      11.117      10.248      9.2682      8.2522    