unknown system                          
   1.00000000000000     
    -2.336082    2.336082    1.333237
     2.336082   -2.336082    1.333237
     2.336082    2.336082   -1.333237
   Si
     2
Direct
  0.250000  0.750000  0.500000
  0.000000  0.000000  0.000000
 
   32   32   32
 -.50795237985E+01 -.40282582143E+01 -.11783399870E+01 0.26762349843E+01 0.65442871100E+01
 0.95676606850E+01 0.11257104247E+02 0.11569792909E+02 0.10836083595E+02 0.95853495313E+01
 0.82741004272E+01 0.70758031735E+01 0.60736957839E+01 0.53033466193E+01 0.47674354572E+01
 0.44541466352E+01 0.43513287052E+01 0.44541579360E+01 0.47674366773E+01 0.53033373006E+01
 0.60736961227E+01 0.70758126084E+01 0.82740992473E+01 0.95853395765E+01 0.10836084378E+02
 0.11569801019E+02 0.11257100573E+02 0.95676523461E+01 0.65442957675E+01 0.26762497903E+01
 -.11783480782E+01 -.40282803878E+01 -.40282803878E+01 -.45024941526E+01 -.29484719596E+01
 0.17986311836E+00 0.40166377333E+01 0.75980238430E+01 0.10171854378E+02 0.11387241456E+02
 0.11323425166E+02 0.10382147174E+02 0.90964172920E+01 0.78249304184E+01 0.66951163790E+01
 0.57740924976E+01 0.50858001766E+01 0.46273817833E+01 0.43862189513E+01 0.43518209519E+01
 0.45219543844E+01 0.49040413157E+01 0.55116576513E+01 0.63548832162E+01 0.74243311219E+01
 0.86727573906E+01 0.10002802891E+02 0.11182870489E+02 0.11704909939E+02 0.11077078161E+02
 0.90596862282E+01 0.58150609910E+01 0.19398221365E+01 -.16584097888E+01 -.11783480782E+01
 -.29484897580E+01 -.28663084868E+01 -.96714230118E+00 0.21877684614E+01 0.57259439731E+01
 0.87741932361E+01 0.10728069721E+02 0.11387791360E+02 0.10942035743E+02 0.98354220499E+01
 0.85563293512E+01 0.73447637470E+01 0.62986995937E+01 0.54687284541E+01 0.48681974701E+01
 0.44898254331E+01 0.43208577456E+01 0.43528661975E+01 0.45864112869E+01 0.50312799463E+01
 0.57016612875E+01 0.66049746695E+01 0.77248369191E+01 0.90033565895E+01 0.10330216259E+02
 0.11421736789E+02 0.11764635680E+02 0.10928443009E+02 0.87706927788E+01 0.55546640145E+01
 0.19398221365E+01 0.26762497903E+01 0.17985833555E+00 -.96715273455E+00 -.43563943312E+00
 0.15981305272E+01 0.45217519301E+01 0.75197734464E+01 0.98588453368E+01 0.11104468050E+02
 0.11202498246E+02 0.10425581150E+02 0.92266064107E+01 0.79871961699E+01 0.68535860160E+01
 0.59029794904E+01 0.51700467140E+01 0.46590340124E+01 0.43597053918E+01 0.42600619749E+01
 0.43539500386E+01 0.46444693071E+01 0.51432984432E+01 0.58646191855E+01 0.68125336486E+01
 0.79636133583E+01 0.92510148318E+01 0.10553905679E+02 0.11559618999E+02 0.11783993401E+02
 0.10871587289E+02 0.87706927788E+01 0.58150609910E+01 0.65442957675E+01 0.40166474540E+01
 0.21877678938E+01 0.15981281719E+01 0.24134264009E+01 0.43596022321E+01 0.68317416660E+01
 0.91238642801E+01 0.10671842556E+02 0.11212168892E+02 0.10814606325E+02 0.98021472031E+01
 0.85891015675E+01 0.74123872194E+01 0.63714740861E+01 0.55234737660E+01 0.48890506505E+01
 0.44656292917E+01 0.42414282827E+01 0.42056343737E+01 0.43543957758E+01 0.46932255207E+01
 0.52351562443E+01 0.59933849536E+01 0.69680179097E+01 0.81293177563E+01 0.94043048278E+01
 0.10667113310E+02 0.11604541854E+02 0.11783993401E+02 0.10928443009E+02 0.90596862282E+01
 0.95676523461E+01 0.75980255412E+01 0.57259479413E+01 0.45217550180E+01 0.43596063449E+01
 0.52719336757E+01 0.69374465000E+01 0.88103462064E+01 0.10327911285E+02 0.11102070621E+02
 0.11022829514E+02 0.10251615420E+02 0.91251185725E+01 0.79501069317E+01 0.68554226846E+01
 0.59170149158E+01 0.51738895508E+01 0.46354628049E+01 0.42944454574E+01 0.41386452006E+01
 0.41589659527E+01 0.43539153367E+01 0.47308600235E+01 0.53031852366E+01 0.60822663359E+01
 0.70641883567E+01 0.82142083941E+01 0.94562584942E+01 0.10667113310E+02 0.11559618999E+02
 0.11764635680E+02 0.11077078161E+02 0.11257100573E+02 0.10171848044E+02 0.87741888246E+01
 0.75197724207E+01 0.68317466509E+01 0.69374539974E+01 0.77772728544E+01 0.90305538257E+01
 0.10246850562E+02 0.11019211565E+02 0.11123086452E+02 0.10571642945E+02 0.95804030286E+01
 0.84466468300E+01 0.73367586188E+01 0.63383173653E+01 0.55068354403E+01 0.48661188212E+01
 0.44173374064E+01 0.41506527446E+01 0.40545369568E+01 0.41217848933E+01 0.43528463141E+01
 0.47562218070E+01 0.53448422475E+01 0.61276306091E+01 0.70967750257E+01 0.82142083941E+01
 0.94043048278E+01 0.10553905679E+02 0.11421736789E+02 0.11704909939E+02 0.11569801019E+02
 0.11387244482E+02 0.10728065986E+02 0.98588375313E+01 0.91238599402E+01 0.88103509297E+01
 0.90305615534E+01 0.96752576620E+01 0.10461818677E+02 0.11053403269E+02 0.11192308223E+02
 0.10790377652E+02 0.99462655578E+01 0.88879858472E+01 0.77997914779E+01 0.67750169795E+01
 0.58806919296E+01 0.51547409059E+01 0.46095280503E+01 0.42410898013E+01 0.40387083601E+01
 0.39920364722E+01 0.40957162400E+01 0.43517381887E+01 0.47689468762E+01 0.53588938603E+01
 0.61276306091E+01 0.70641883567E+01 0.81293177563E+01 0.92510148318E+01 0.10330216259E+02
 0.11182870489E+02 0.10836084378E+02 0.11323433199E+02 0.11387798671E+02 0.11104467382E+02
 0.10671834677E+02 0.10327905485E+02 0.10246853459E+02 0.10461824708E+02 0.10850794856E+02
 0.11192418580E+02 0.11264127734E+02 0.10936083181E+02 0.10221180997E+02 0.92641193961E+01
 0.82311248786E+01 0.72149260133E+01 0.62875910188E+01 0.54982885292E+01 0.48713285771E+01
 0.44113697731E+01 0.41117417628E+01 0.39620227242E+01 0.39534320116E+01 0.40822490741E+01
 0.43513027826E+01 0.47689468762E+01 0.53448422475E+01 0.60822663359E+01 0.69680179097E+01
 0.79636133583E+01 0.90033565895E+01 0.10002802891E+02 0.95853395765E+01 0.10382143380E+02
 0.10942041335E+02 0.11202506828E+02 0.11212171376E+02 0.11102065122E+02 0.11019205693E+02
 0.11053404045E+02 0.11192422756E+02 0.11327667625E+02 0.11307295717E+02 0.11009934137E+02
 0.10403705322E+02 0.95647163471E+01 0.86176941180E+01 0.76452165596E+01 0.67181744739E+01
 0.58924392143E+01 0.52028815783E+01 0.46642246335E+01 0.42766564751E+01 0.40327203860E+01
 0.39230438724E+01 0.39403902428E+01 0.40822490741E+01 0.43517381887E+01 0.47562218070E+01
 0.53031852366E+01 0.59933849536E+01 0.68125336486E+01 0.77248369191E+01 0.86727573906E+01
 0.82740992473E+01 0.90964085485E+01 0.98354151625E+01 0.10425582543E+02 0.10814613785E+02
 0.11022834588E+02 0.11123083970E+02 0.11192302915E+02 0.11264127316E+02 0.11307299168E+02
 0.11241076261E+02 0.10979240441E+02 0.10479782459E+02 0.97752251570E+01 0.89440346126E+01
 0.80507726913E+01 0.71602023498E+01 0.63299533717E+01 0.56024516742E+01 0.50022423767E+01
 0.45382068907E+01 0.42085483831E+01 0.40061631891E+01 0.39230438724E+01 0.39534320116E+01
 0.40957162400E+01 0.43528463141E+01 0.47308600235E+01 0.52351562443E+01 0.58646191855E+01
 0.66049746695E+01 0.74243311219E+01 0.70758126084E+01 0.78249340231E+01 0.85563243175E+01
 0.92265980433E+01 0.98021441696E+01 0.10251620704E+02 0.10571649361E+02 0.10790377086E+02
 0.10936078458E+02 0.11009933924E+02 0.10979244438E+02 0.10794997347E+02 0.10423958630E+02
 0.98763637080E+01 0.91907881586E+01 0.84126802662E+01 0.75971010061E+01 0.67989302466E+01
 0.60642933369E+01 0.54256418916E+01 0.49009118921E+01 0.44959408856E+01 0.42085483831E+01
 0.40327203860E+01 0.39620227242E+01 0.39920364722E+01 0.41217848933E+01 0.43539153367E+01
 0.46932255207E+01 0.51432984432E+01 0.57016612875E+01 0.63548832162E+01 0.60736961227E+01
 0.66951242448E+01 0.73447715219E+01 0.79871956874E+01 0.85890932346E+01 0.91251125906E+01
 0.95804063783E+01 0.99462717686E+01 0.10221180542E+02 0.10403700965E+02 0.10479783328E+02
 0.10423963531E+02 0.10214656096E+02 0.98480936279E+01 0.93361316979E+01 0.87082843175E+01
 0.80073573612E+01 0.72815632428E+01 0.65765729949E+01 0.59295733184E+01 0.53662872302E+01
 0.49009118921E+01 0.45382068907E+01 0.42766564751E+01 0.41117417628E+01 0.40387083601E+01
 0.40545369568E+01 0.41589659527E+01 0.43543957758E+01 0.46444693071E+01 0.50312799463E+01
 0.55116576513E+01 0.53033373006E+01 0.57740871790E+01 0.62987045551E+01 0.68535961290E+01
 0.74123903395E+01 0.79500999019E+01 0.84466403199E+01 0.88879881516E+01 0.92641242089E+01
 0.95647148191E+01 0.97752210687E+01 0.98763654470E+01 0.98480986195E+01 0.96764901285E+01
 0.93602218882E+01 0.89136879952E+01 0.83655983264E+01 0.77540358187E+01 0.71200214741E+01
 0.65015835229E+01 0.59295733184E+01 0.54256418916E+01 0.50022423767E+01 0.46642246335E+01
 0.44113697731E+01 0.42410898013E+01 0.41506527446E+01 0.41386452006E+01 0.42056343737E+01
 0.43539500386E+01 0.45864112869E+01 0.49040413157E+01 0.47674366773E+01 0.50857911033E+01
 0.54687191515E+01 0.59029812012E+01 0.63714839512E+01 0.68554274289E+01 0.73367537217E+01
 0.77997864917E+01 0.82311268732E+01 0.86176972481E+01 0.89440322027E+01 0.91907844834E+01
 0.93361332377E+01 0.93602256531E+01 0.92509089456E+01 0.90081807024E+01 0.86455383266E+01
 0.81880134261E+01 0.76679557741E+01 0.71200214741E+01 0.65765729949E+01 0.60642933369E+01
 0.56024516742E+01 0.52028815783E+01 0.48713285771E+01 0.46095280503E+01 0.44173374064E+01
 0.42944454574E+01 0.42414282827E+01 0.42600619749E+01 0.43528661975E+01 0.45219543844E+01
 0.44541579360E+01 0.46273873853E+01 0.48681905419E+01 0.51700363225E+01 0.55234726016E+01
 0.59170221999E+01 0.63383218902E+01 0.67750143963E+01 0.72149231708E+01 0.76452183611E+01
 0.80507748089E+01 0.84126782547E+01 0.87082812968E+01 0.89136882679E+01 0.90081824965E+01
 0.89789186518E+01 0.88241001788E+01 0.85537301765E+01 0.81880134261E+01 0.77540358187E+01
 0.72815632428E+01 0.67989302466E+01 0.63299533717E+01 0.58924392143E+01 0.54982885292E+01
 0.51547409059E+01 0.48661188212E+01 0.46354628049E+01 0.44656292917E+01 0.43597053918E+01
 0.43208577456E+01 0.43518209519E+01 0.43513287052E+01 0.43862295068E+01 0.44898335177E+01
 0.46590308108E+01 0.48890419793E+01 0.51738862593E+01 0.55068391000E+01 0.58806954249E+01
 0.62875902362E+01 0.67181728231E+01 0.71602035454E+01 0.75971032035E+01 0.80073570373E+01
 0.83655960405E+01 0.86455371118E+01 0.88241004949E+01 0.88854911800E+01 0.88241001788E+01
 0.86455383266E+01 0.83655983264E+01 0.80073573612E+01 0.75971010061E+01 0.71602023498E+01
 0.67181744739E+01 0.62875910188E+01 0.58806919296E+01 0.55068354403E+01 0.51738895508E+01
 0.48890506505E+01 0.46590340124E+01 0.44898254331E+01 0.43862189513E+01 0.44541466352E+01
 0.43518172183E+01 0.43208646694E+01 0.43597139014E+01 0.44656304324E+01 0.46354573604E+01
 0.48661142701E+01 0.51547416037E+01 0.54982913648E+01 0.58924392813E+01 0.63299512560E+01
 0.67989303908E+01 0.72815662637E+01 0.77540374151E+01 0.81880116333E+01 0.85537283093E+01
 0.88241004949E+01 0.89789186518E+01 0.90081807024E+01 0.89136879952E+01 0.87082843175E+01
 0.84126802662E+01 0.80507726913E+01 0.76452165596E+01 0.72149260133E+01 0.67750169795E+01
 0.63383173653E+01 0.59170149158E+01 0.55234737660E+01 0.51700467140E+01 0.48681974701E+01
 0.46273817833E+01 0.47674354572E+01 0.45219453050E+01 0.43528593258E+01 0.42600636889E+01
 0.42414357194E+01 0.42944502018E+01 0.44173349376E+01 0.46095230593E+01 0.48713281366E+01
 0.52028847079E+01 0.56024516978E+01 0.60642896636E+01 0.65765721036E+01 0.71200252385E+01
 0.76679582058E+01 0.81880116333E+01 0.86455371118E+01 0.90081824965E+01 0.92509089456E+01
 0.93602218882E+01 0.93361316979E+01 0.91907881586E+01 0.89440346126E+01 0.86176941180E+01
 0.82311248786E+01 0.77997914779E+01 0.73367586188E+01 0.68554226846E+01 0.63714740861E+01
 0.59029794904E+01 0.54687284541E+01 0.50858001766E+01 0.53033466193E+01 0.49040453161E+01
 0.45864063331E+01 0.43539412541E+01 0.42056312524E+01 0.41386509014E+01 0.41506592494E+01
 0.42410888188E+01 0.44113649624E+01 0.46642248428E+01 0.50022464711E+01 0.54256414811E+01
 0.59295683285E+01 0.65015821988E+01 0.71200252385E+01 0.77540374151E+01 0.83655960405E+01
 0.89136882679E+01 0.93602256531E+01 0.96764901285E+01 0.98480936279E+01 0.98763637080E+01
 0.97752251570E+01 0.95647163471E+01 0.92641193961E+01 0.88879858472E+01 0.84466468300E+01
 0.79501069317E+01 0.74123872194E+01 0.68535860160E+01 0.62986995937E+01 0.57740924976E+01
 0.60736957839E+01 0.55116654922E+01 0.50312883557E+01 0.46444688224E+01 0.43543867992E+01
 0.41589599760E+01 0.40545409576E+01 0.40387145731E+01 0.41117406657E+01 0.42766521285E+01
 0.45382084209E+01 0.49009168042E+01 0.53662865876E+01 0.59295683285E+01 0.65765721036E+01
 0.72815662637E+01 0.80073570373E+01 0.87082812968E+01 0.93361332377E+01 0.98480986195E+01
 0.10214656096E+02 0.10423958630E+02 0.10479782459E+02 0.10403705322E+02 0.10221180997E+02
 0.99462655578E+01 0.95804030286E+01 0.91251185725E+01 0.85891015675E+01 0.79871961699E+01
 0.73447637470E+01 0.66951163790E+01 0.70758031735E+01 0.63548774576E+01 0.57016663249E+01
 0.51433089709E+01 0.46932285581E+01 0.43539078988E+01 0.41217784774E+01 0.39920391951E+01
 0.39620274527E+01 0.40327184528E+01 0.42085443987E+01 0.44959430544E+01 0.49009168042E+01
 0.54256414811E+01 0.60642896636E+01 0.67989303908E+01 0.75971032035E+01 0.84126782547E+01
 0.91907844834E+01 0.98763654470E+01 0.10423963531E+02 0.10794997347E+02 0.10979240441E+02
 0.11009934137E+02 0.10936083181E+02 0.10790377652E+02 0.10571642945E+02 0.10251615420E+02
 0.98021472031E+01 0.92266064107E+01 0.85563293512E+01 0.78249304184E+01 0.82741004272E+01
 0.74243223536E+01 0.66049653794E+01 0.58646205764E+01 0.52351660986E+01 0.47308651013E+01
 0.43528414445E+01 0.40957109334E+01 0.39534339874E+01 0.39230473317E+01 0.40061608117E+01
 0.42085443987E+01 0.45382084209E+01 0.50022464711E+01 0.56024516978E+01 0.63299512560E+01
 0.71602035454E+01 0.80507748089E+01 0.89440322027E+01 0.97752210687E+01 0.10479783328E+02
 0.10979244438E+02 0.11241076261E+02 0.11307295717E+02 0.11264127734E+02 0.11192308223E+02
 0.11123086452E+02 0.11022829514E+02 0.10814606325E+02 0.10425581150E+02 0.98354220499E+01
 0.90964172920E+01 0.95853495313E+01 0.86727629152E+01 0.77248313243E+01 0.68125233333E+01
 0.59933824695E+01 0.53031924688E+01 0.47562276778E+01 0.43517356765E+01 0.40822448955E+01
 0.39403919772E+01 0.39230473317E+01 0.40327184528E+01 0.42766521285E+01 0.46642248428E+01
 0.52028847079E+01 0.58924392813E+01 0.67181728231E+01 0.76452183611E+01 0.86176972481E+01
 0.95647148191E+01 0.10403700965E+02 0.11009933924E+02 0.11307299168E+02 0.11327667625E+02
 0.11192418580E+02 0.11053403269E+02 0.11019211565E+02 0.11102070621E+02 0.11212168892E+02
 0.11202498246E+02 0.10942035743E+02 0.10382147174E+02 0.10836083595E+02 0.10002810918E+02
 0.90033654550E+01 0.79636126941E+01 0.69680084802E+01 0.60822605410E+01 0.53448467018E+01
 0.47689529032E+01 0.43513012203E+01 0.40822448955E+01 0.39534339874E+01 0.39620274527E+01
 0.41117406657E+01 0.44113649624E+01 0.48713281366E+01 0.54982913648E+01 0.62875902362E+01
 0.72149231708E+01 0.82311268732E+01 0.92641242089E+01 0.10221180542E+02 0.10936078458E+02
 0.11264127316E+02 0.11192422756E+02 0.10850794856E+02 0.10461818677E+02 0.10246850562E+02
 0.10327911285E+02 0.10671842556E+02 0.11104468050E+02 0.11387791360E+02 0.11323425166E+02
 0.11569792909E+02 0.11182864178E+02 0.10330219996E+02 0.92510259298E+01 0.81293221082E+01
 0.70641803601E+01 0.61276228879E+01 0.53588971449E+01 0.47689529032E+01 0.43517356765E+01
 0.40957109334E+01 0.39920391951E+01 0.40387145731E+01 0.42410888188E+01 0.46095230593E+01
 0.51547416037E+01 0.58806954249E+01 0.67750143963E+01 0.77997864917E+01 0.88879881516E+01
 0.99462717686E+01 0.10790377086E+02 0.11192302915E+02 0.11053404045E+02 0.10461824708E+02
 0.96752576620E+01 0.90305538257E+01 0.88103462064E+01 0.91238642801E+01 0.98588453368E+01
 0.10728069721E+02 0.11387241456E+02 0.11257104247E+02 0.11704903603E+02 0.11421725028E+02
 0.10553904658E+02 0.94043171718E+01 0.82142159030E+01 0.70967676860E+01 0.61276228879E+01
 0.53448467018E+01 0.47562276778E+01 0.43528414445E+01 0.41217784774E+01 0.40545409576E+01
 0.41506592494E+01 0.44173349376E+01 0.48661142701E+01 0.55068391000E+01 0.63383218902E+01
 0.73367537217E+01 0.84466403199E+01 0.95804063783E+01 0.10571649361E+02 0.11123083970E+02
 0.11019205693E+02 0.10246853459E+02 0.90305615534E+01 0.77772728544E+01 0.69374465000E+01
 0.68317416660E+01 0.75197734464E+01 0.87741932361E+01 0.10171854378E+02 0.95676606850E+01
 0.11077089191E+02 0.11764631715E+02 0.11559603192E+02 0.10667109209E+02 0.94562712351E+01
 0.82142159030E+01 0.70641803601E+01 0.60822605410E+01 0.53031924688E+01 0.47308651013E+01
 0.43539078988E+01 0.41589599760E+01 0.41386509014E+01 0.42944502018E+01 0.46354573604E+01
 0.51738862593E+01 0.59170221999E+01 0.68554274289E+01 0.79500999019E+01 0.91251125906E+01
 0.10251620704E+02 0.11022834588E+02 0.11102065122E+02 0.10327905485E+02 0.88103509297E+01
 0.69374539974E+01 0.52719336757E+01 0.43596022321E+01 0.45217519301E+01 0.57259439731E+01
 0.75980238430E+01 0.65442871100E+01 0.90596959478E+01 0.10928459754E+02 0.11783991046E+02
 0.11604524546E+02 0.10667109209E+02 0.94043171718E+01 0.81293221082E+01 0.69680084802E+01
 0.59933824695E+01 0.52351660986E+01 0.46932285581E+01 0.43543867992E+01 0.42056312524E+01
 0.42414357194E+01 0.44656304324E+01 0.48890419793E+01 0.55234726016E+01 0.63714839512E+01
 0.74123903395E+01 0.85890932346E+01 0.98021441696E+01 0.10814613785E+02 0.11212171376E+02
 0.10671834677E+02 0.91238599402E+01 0.68317466509E+01 0.43596063449E+01 0.24134264009E+01
 0.15981305272E+01 0.21877684614E+01 0.40166377333E+01 0.26762349843E+01 0.58150468758E+01
 0.87707032122E+01 0.10871606187E+02 0.11783991046E+02 0.11559603192E+02 0.10553904658E+02
 0.92510259298E+01 0.79636126941E+01 0.68125233333E+01 0.58646205764E+01 0.51433089709E+01
 0.46444688224E+01 0.43539412541E+01 0.42600636889E+01 0.43597139014E+01 0.46590308108E+01
 0.51700363225E+01 0.59029812012E+01 0.68535961290E+01 0.79871956874E+01 0.92265980433E+01
 0.10425582543E+02 0.11202506828E+02 0.11104467382E+02 0.98588375313E+01 0.75197724207E+01
 0.45217550180E+01 0.15981281719E+01 -.43563943312E+00 -.96714230118E+00 0.17986311836E+00
 -.11783399870E+01 0.19398043424E+01 0.55546478395E+01 0.87707032122E+01 0.10928459754E+02
 0.11764631715E+02 0.11421725028E+02 0.10330219996E+02 0.90033654550E+01 0.77248313243E+01
 0.66049653794E+01 0.57016663249E+01 0.50312883557E+01 0.45864063331E+01 0.43528593258E+01
 0.43208646694E+01 0.44898335177E+01 0.48681905419E+01 0.54687191515E+01 0.62987045551E+01
 0.73447715219E+01 0.85563243175E+01 0.98354151625E+01 0.10942041335E+02 0.11387798671E+02
 0.10728065986E+02 0.87741888246E+01 0.57259479413E+01 0.21877678938E+01 -.96715273455E+00
 -.28663084868E+01 -.29484719596E+01 -.40282582143E+01 -.16584004508E+01 0.19398043424E+01
 0.58150468758E+01 0.90596959478E+01 0.11077089191E+02 0.11704903603E+02 0.11182864178E+02
 0.10002810918E+02 0.86727629152E+01 0.74243223536E+01 0.63548774576E+01 0.55116654922E+01
 0.49040453161E+01 0.45219453050E+01 0.43518172183E+01 0.43862295068E+01 0.46273873853E+01
 0.50857911033E+01 0.57740871790E+01 0.66951242448E+01 0.78249340231E+01 0.90964085485E+01
 0.10382143380E+02 0.11323433199E+02 0.11387244482E+02 0.10171848044E+02 0.75980255412E+01
 0.40166474540E+01 0.17985833555E+00 -.29484897580E+01 -.45024941526E+01 -.40282513061E+01
 -.32860168514E+01 -.79397258124E+00 0.27476456527E+01 0.64100005182E+01 0.93496198644E+01
 0.11049279243E+02 0.11415664844E+02 0.10730301501E+02 0.94934014009E+01 0.81711954009E+01
 0.69521264703E+01 0.59240092515E+01 0.51259033359E+01 0.45616234214E+01 0.42184215142E+01
 0.40822576770E+01 0.41464963836E+01 0.44147730506E+01 0.48992103449E+01 0.56135772031E+01
 0.65600829581E+01 0.77112114459E+01 0.89938633879E+01 0.10267316500E+02 0.11142459870E+02
 0.11099383379E+02 0.97793017343E+01 0.71616048021E+01 0.36491705943E+01 0.14085916455E-01
 -.28087469294E+01 -.32860379175E+01 -.40283650278E+01 -.28088184174E+01 0.14131899041E-01
 0.36492266214E+01 0.71615571872E+01 0.97792237917E+01 0.11099411305E+02 0.11142558637E+02
 0.10267338009E+02 0.89937914192E+01 0.77111724765E+01 0.65601242478E+01 0.56136048222E+01
 0.48991688280E+01 0.44147333384E+01 0.41465193518E+01 0.40822959238E+01 0.42184145299E+01
 0.45615949887E+01 0.51259068662E+01 0.59240439350E+01 0.69521556746E+01 0.81712031739E+01
 0.94933975869E+01 0.10730297995E+02 0.11415661186E+02 0.11049260666E+02 0.93495833992E+01
 0.64099872966E+01 0.27476976330E+01 -.79390370248E+00 -.70164831706E+00 -.27099071693E+01
 -.29484852743E+01 -.13603422956E+01 0.15790066359E+01 0.50433842677E+01 0.81534162923E+01
 0.10256046381E+02 0.11085045676E+02 0.10771172335E+02 0.97278395478E+01 0.84540238697E+01
 0.72294177635E+01 0.61613613612E+01 0.53067810788E+01 0.46822651441E+01 0.42808697353E+01
 0.40886405917E+01 0.40957132282E+01 0.43016304502E+01 0.47159068460E+01 0.53537809472E+01
 0.62258902347E+01 0.73216771569E+01 0.85910407544E+01 0.99335015773E+01 0.11107515428E+02
 0.11617081922E+02 0.11009341652E+02 0.90916751218E+01 0.60600652299E+01 0.25093587388E+01
 0.29854606242E+01 0.27946534407E+00 -.11750186094E+01 -.96724247734E+00 0.81831383361E+00
 0.36343651794E+01 0.66797571384E+01 0.91843119304E+01 0.10645814634E+02 0.10939805438E+02
 0.10289903697E+02 0.91338935287E+01 0.78936005422E+01 0.67440896971E+01 0.57709717302E+01
 0.50149577121E+01 0.44828650847E+01 0.41644150289E+01 0.40464761160E+01 0.41217799695E+01
 0.43928144916E+01 0.48714643504E+01 0.55734889844E+01 0.65065811725E+01 0.76530143228E+01
 0.89528289591E+01 0.10294741759E+02 0.11397571574E+02 0.11775490923E+02 0.11040602016E+02
 0.90886649151E+01 0.61945481103E+01 0.67979419994E+01 0.40961404583E+01 0.19851494449E+01
 0.10679658612E+01 0.15981200423E+01 0.33808131592E+01 0.58496668910E+01 0.82833113258E+01
 0.10059106466E+02 0.10838145018E+02 0.10625755944E+02 0.97104829915E+01 0.85162622638E+01
 0.73326609297E+01 0.62730454018E+01 0.54028491538E+01 0.47478849774E+01 0.43072983928E+01
 0.40689404358E+01 0.40210265790E+01 0.41589606415E+01 0.44880567243E+01 0.50220004892E+01
 0.57759874320E+01 0.67538441178E+01 0.79309979013E+01 0.92399003523E+01 0.10561936976E+02
 0.11600851068E+02 0.11908906905E+02 0.11171292497E+02 0.93605621499E+01 0.98583337446E+01
 0.77591916241E+01 0.56485714927E+01 0.41358895594E+01 0.36680201288E+01 0.43596026318E+01
 0.59481812328E+01 0.78994889254E+01 0.96127623535E+01 0.10630857674E+02 0.10771472017E+02
 0.10144724716E+02 0.90704996963E+01 0.78990940427E+01 0.67915037164E+01 0.58327461559E+01
 0.50691597176E+01 0.45139857115E+01 0.41608141024E+01 0.39969232892E+01 0.40124777648E+01
 0.42055770039E+01 0.45837719587E+01 0.51615278705E+01 0.59525032035E+01 0.69562923881E+01
 0.81422995320E+01 0.94379662358E+01 0.10723313997E+02 0.11713790290E+02 0.12016634903E+02
 0.11388358154E+02 0.11639328938E+02 0.10475605742E+02 0.88985540931E+01 0.73811311752E+01
 0.63972912170E+01 0.62466630883E+01 0.69374302448E+01 0.81844867588E+01 0.95264002620E+01
 0.10505211865E+02 0.10827473927E+02 0.10445327749E+02 0.95401067158E+01 0.84215893304E+01
 0.73054079765E+01 0.62896775279E+01 0.54381791357E+01 0.47804271073E+01 0.43200108895E+01
 0.40473065041E+01 0.39502103528E+01 0.40210071687E+01 0.42600611436E+01 0.46764324135E+01
 0.52844556035E+01 0.60953639457E+01 0.71042817395E+01 0.82758868942E+01 0.95358200490E+01
 0.10769734846E+02 0.11727149619E+02 0.12077462908E+02 0.12055154892E+02 0.11846788233E+02
 0.11075324455E+02 0.10008440187E+02 0.90191731901E+01 0.84486147166E+01 0.84724796669E+01
 0.90305906253E+01 0.98545620125E+01 0.10581543607E+02 0.10899598266E+02 0.10660270280E+02
 0.99174161199E+01 0.88867772797E+01 0.77972255159E+01 0.67585920895E+01 0.58453397800E+01
 0.51020652158E+01 0.45449756699E+01 0.41712693144E+01 0.39699907799E+01 0.39302719482E+01
 0.40464792160E+01 0.43207989939E+01 0.47629158889E+01 0.53859323946E+01 0.61979724329E+01
 0.71901016415E+01 0.83241125450E+01 0.95269273914E+01 0.10694942380E+02 0.11626936360E+02
 0.11400037868E+02 0.11910197364E+02 0.11928794451E+02 0.11521850069E+02 0.10898698281E+02
 0.10330997936E+02 0.10042735552E+02 0.10116900782E+02 0.10461796660E+02 0.10854177121E+02
 0.11038650913E+02 0.10835963350E+02 0.10212692813E+02 0.92873805430E+01 0.82534846844E+01
 0.72254627527E+01 0.62804180159E+01 0.54737897083E+01 0.48345290150E+01 0.43693676816E+01
 0.40718638220E+01 0.39311385638E+01 0.39379914839E+01 0.40886056442E+01 0.43862026190E+01
 0.48401244631E+01 0.54615146056E+01 0.62552114309E+01 0.72089087407E+01 0.82833910786E+01
 0.94097672478E+01 0.10497331850E+02 0.10183133893E+02 0.11040693826E+02 0.11612568608E+02
 0.11820912669E+02 0.11712686497E+02 0.11435136038E+02 0.11168275227E+02 0.11043122885E+02
 0.11082446383E+02 0.11192434750E+02 0.11209731600E+02 0.10980577149E+02 0.10433918730E+02
 0.96159350643E+01 0.86624700658E+01 0.76769346213E+01 0.67323695783E+01 0.58893106962E+01
 0.51871178279E+01 0.46431257986E+01 0.42582045604E+01 0.40245498177E+01 0.39322532482E+01
 0.39737399777E+01 0.41465019740E+01 0.44541201037E+01 0.49049130873E+01 0.55075762058E+01
 0.62637447627E+01 0.71588142701E+01 0.81546166285E+01 0.91887559421E+01 0.88737850354E+01
 0.97669176164E+01 0.10556970373E+02 0.11154089611E+02 0.11493886854E+02 0.11599658777E+02
 0.11561635196E+02 0.11485208184E+02 0.11434831434E+02 0.11401073914E+02 0.11307285247E+02
 0.11052322723E+02 0.10567461437E+02 0.98591699719E+01 0.90101075301E+01 0.80983280480E+01
 0.71881938777E+01 0.63399111427E+01 0.55994066256E+01 0.49937716186E+01 0.45328091076E+01
 0.42144674240E+01 0.40309926777E+01 0.39738116654E+01 0.40368323460E+01 0.42184223648E+01
 0.45219246204E+01 0.49541492025E+01 0.55212927807E+01 0.62223561380E+01 0.70416268516E+01
 0.79435806001E+01 0.76602760077E+01 0.84797471407E+01 0.92680273830E+01 0.99746436246E+01
 0.10554511113E+02 0.10961667586E+02 0.11197170551E+02 0.11304743539E+02 0.11334724406E+02
 0.11309283424E+02 0.11207659280E+02 0.10979245357E+02 0.10577338023E+02 0.99952704087E+01
 0.92768960944E+01 0.84711393296E+01 0.76312163371E+01 0.68128564387E+01 0.60643755147E+01
 0.54201843838E+01 0.48990429634E+01 0.45065130513E+01 0.42396084948E+01 0.40914889574E+01
 0.40550739956E+01 0.41255144587E+01 0.43016809306E+01 0.45864221010E+01 0.49850108263E+01
 0.55013688594E+01 0.61324714657E+01 0.68626205671E+01 0.66304907598E+01 0.73186927780E+01
 0.80255493658E+01 0.87093978440E+01 0.93312763573E+01 0.98614773210E+01 0.10280120722E+02
 0.10576198064E+02 0.10759941797E+02 0.10845486074E+02 0.10831927719E+02 0.10699610513E+02
 0.10423960518E+02 0.99983306950E+01 0.94386621590E+01 0.87721596548E+01 0.80398782859E+01
 0.72900218025E+01 0.65693988230E+01 0.59164064642E+01 0.53572354975E+01 0.49056280869E+01
 0.45653098109E+01 0.43336156582E+01 0.42050240895E+01 0.41739645154E+01 0.42367825971E+01
 0.43928356149E+01 0.46444837492E+01 0.49955682607E+01 0.54481495772E+01 0.59980129352E+01
 0.58256466885E+01 0.63566859150E+01 0.69352315772E+01 0.75324530291E+01 0.81168168023E+01
 0.86590922965E+01 0.91365516090E+01 0.95348063427E+01 0.98463763482E+01 0.10066355809E+02
 0.10188312449E+02 0.10201162148E+02 0.10091117591E+02 0.98480963866E+01 0.94717188537E+01
 0.89757924233E+01 0.83883546098E+01 0.77475250853E+01 0.70949813723E+01 0.64694131364E+01
 0.59017506873E+01 0.54129387465E+01 0.50141381657E+01 0.47086908295E+01 0.44949351814E+01
 0.43690031150E+01 0.43270507490E+01 0.43667656142E+01 0.44881340516E+01 0.46932779775E+01
 0.49850137757E+01 0.53640700670E+01 0.52534013343E+01 0.56237367250E+01 0.60542582442E+01
 0.65278809312E+01 0.70231377793E+01 0.75171917116E+01 0.79890159384E+01 0.84215996638E+01
 0.88023213083E+01 0.91212570779E+01 0.93682150817E+01 0.95303052903E+01 0.95919900327E+01
 0.95383301616E+01 0.93602262640E+01 0.90592104180E+01 0.86495851498E+01 0.81570909513E+01
 0.76148057076E+01 0.70578349308E+01 0.65183716869E+01 0.60222050374E+01 0.55871328961E+01
 0.52231976666E+01 0.49342620164E+01 0.47202327139E+01 0.45792829217E+01 0.45096480646E+01
 0.45107867956E+01 0.45837862006E+01 0.47309013811E+01 0.49541869936E+01 0.49049356032E+01
 0.51216572326E+01 0.54020181608E+01 0.57372642646E+01 0.61148073554E+01 0.65197230581E+01
 0.69366298287E+01 0.73512184982E+01 0.77509036184E+01 0.81242999487E+01 0.84596050530E+01
 0.87426858020E+01 0.89563044187E+01 0.90816691921E+01 0.91022196559E+01 0.90081792906E+01
 0.87999763511E+01 0.84892798803E+01 0.80974574385E+01 0.76521004252E+01 0.71826925476E+01
 0.67165584603E+01 0.62759757459E+01 0.58768698678E+01 0.55290282154E+01 0.52374240266E+01
 0.50040762564E+01 0.48298641517E+01 0.47158458058E+01 0.46638653342E+01 0.46764724025E+01
 0.47562890244E+01 0.47689714100E+01 0.48401579962E+01 0.49753042203E+01 0.51704995493E+01
 0.54192565532E+01 0.57131699696E+01 0.60429063188E+01 0.63991062516E+01 0.67727371666E+01
 0.71546417628E+01 0.75343431530E+01 0.78985338670E+01 0.82300601647E+01 0.85083397332E+01
 0.87116852751E+01 0.88210713570E+01 0.88241043553E+01 0.87178566224E+01 0.85097391473E+01
 0.82162724081E+01 0.78601644514E+01 0.74664834731E+01 0.70589299176E+01 0.66571672072E+01
 0.62757651809E+01 0.59246705647E+01 0.56105902619E+01 0.53385432260E+01 0.51130613696E+01
 0.49388136067E+01 0.48206130870E+01 0.47629044379E+01 0.48401139832E+01 0.47690034026E+01
 0.47629674469E+01 0.48206294854E+01 0.49387810345E+01 0.51130445526E+01 0.53385734101E+01
 0.56106292959E+01 0.59246792094E+01 0.62757554976E+01 0.66571674120E+01 0.70589371636E+01
 0.74664797399E+01 0.78601534215E+01 0.82162710950E+01 0.85097466559E+01 0.87178571410E+01
 0.88240953771E+01 0.88210670987E+01 0.87116920156E+01 0.85083460487E+01 0.82300578071E+01
 0.78985342424E+01 0.75343591901E+01 0.71546592139E+01 0.67727246852E+01 0.63990625420E+01
 0.60428761911E+01 0.57131886611E+01 0.54192912057E+01 0.51704845373E+01 0.49752368691E+01
 0.51216876415E+01 0.49049066678E+01 0.47562336811E+01 0.46764546548E+01 0.46638978206E+01
 0.47158835750E+01 0.48298695547E+01 0.50040610506E+01 0.52374218582E+01 0.55290461841E+01
 0.58768846485E+01 0.62759715750E+01 0.67165486425E+01 0.71826952733E+01 0.76521096723E+01
 0.80974556390E+01 0.84892693861E+01 0.87999745568E+01 0.90081859674E+01 0.91022167142E+01
 0.90816561587E+01 0.89563042747E+01 0.87427053234E+01 0.84596199963E+01 0.81242966361E+01
 0.77509038294E+01 0.73512368700E+01 0.69366362334E+01 0.65196860843E+01 0.61147557791E+01