<?xml version="1.0" encoding="ISO-8859-1"?>
<modeling>
 <generator>
  <i name="program" type="string">vasp </i>
  <i name="version" type="string">5.4.4.18Apr17-6-g9f103f2a35  </i>
  <i name="subversion" type="string">(build Dec 09 2018 21:25:21) complex            parallel </i>
  <i name="platform" type="string">IFC18.0.1.163_CrayMPICH7.7.0_MKL18.0.1.163 </i>
  <i name="date" type="string">2019 03 20 </i>
  <i name="time" type="string">09:27:28 </i>
 </generator>
 <incar>
  <i type="string" name="PREC">normal</i>
  <i type="int" name="IBRION">     2</i>
  <i name="EDIFF">      0.00040000</i>
  <i name="EDIFFG">     -0.01000000</i>
  <i type="int" name="NSW">    15</i>
  <i type="int" name="ISIF">     3</i>
  <i name="ENCUT">    300.00000000</i>
  <i type="int" name="NBANDS">     8</i>
  <i type="logical" name="LREAL"> F  </i>
  <i type="int" name="ISMEAR">     0</i>
  <i name="SIGMA">      0.20000000</i>
  <v type="int" name="KPOINT_BSE">    -1     0     0     0</v>
 </incar>
 <structure name="primitive_cell" >
  <crystal>
   <varray name="basis" >
    <v>      -2.45000000       2.45000000       1.27400000 </v>
    <v>       2.45000000      -2.45000000       1.27400000 </v>
    <v>       2.45000000       2.45000000      -1.27400000 </v>
   </varray>
   <i name="volume">     30.58874000 </i>
   <varray name="rec_basis" >
    <v>       0.00000000       0.20408163       0.39246468 </v>
    <v>       0.20408163       0.00000000       0.39246468 </v>
    <v>       0.20408163       0.20408163      -0.00000000 </v>
   </varray>
  </crystal>
  <varray name="positions" >
   <v>       0.25000000      -0.25000000      -0.50000000 </v>
   <v>       0.00000000       0.00000000       0.00000000 </v>
  </varray>
 </structure>
 <varray name="primitive_index" >
  <v type="int" >        1 </v>
  <v type="int" >        2 </v>
 </varray>
 <kpoints>
  <generation param="Monkhorst-Pack">
   <v type="int" name="divisions">       2        2        2 </v>
   <v name="usershift">      0.00000000       0.00000000       0.00000000 </v>
   <v name="genvec1">      0.50000000       0.00000000      -0.00000000 </v>
   <v name="genvec2">      0.00000000       0.50000000      -0.00000000 </v>
   <v name="genvec3">      0.00000000      -0.00000000       0.50000000 </v>
   <v name="shift">      0.50000000       0.50000000       0.50000000 </v>
  </generation>
  <varray name="kpointlist" >
   <v>       0.25000000       0.25000000       0.25000000 </v>
   <v>      -0.25000000       0.25000000       0.25000000 </v>
   <v>      -0.25000000      -0.25000000       0.25000000 </v>
  </varray>
  <varray name="weights" >
   <v>       0.25000000 </v>
   <v>       0.50000000 </v>
   <v>       0.25000000 </v>
  </varray>
 </kpoints>
 <parameters>
  <separator name="general" >
   <i type="string" name="SYSTEM">unknown system</i>
   <i type="logical" name="LCOMPAT"> F  </i>
  </separator>
  <separator name="electronic" >
   <i type="string" name="PREC">normal</i>
   <i name="ENMAX">    300.00000000</i>
   <i name="ENAUG">    322.06900000</i>
   <i name="EDIFF">      0.00040000</i>
   <i type="int" name="IALGO">    38</i>
   <i type="int" name="IWAVPR">    11</i>
   <i type="int" name="NBANDS">     8</i>
   <i name="NELECT">      8.00000000</i>
   <i type="int" name="TURBO">     0</i>
   <i type="int" name="IRESTART">     0</i>
   <i type="int" name="NREBOOT">     0</i>
   <i type="int" name="NMIN">     0</i>
   <i name="EREF">      0.00000000</i>
   <separator name="electronic smearing" >
    <i type="int" name="ISMEAR">     0</i>
    <i name="SIGMA">      0.20000000</i>
    <i name="KSPACING">      0.50000000</i>
    <i type="logical" name="KGAMMA"> T  </i>
   </separator>
   <separator name="electronic projectors" >
    <i type="logical" name="LREAL"> F  </i>
    <v name="ROPT">      0.00000000</v>
    <i type="int" name="LMAXPAW">  -100</i>
    <i type="int" name="LMAXMIX">     2</i>
    <i type="logical" name="NLSPLINE"> F  </i>
   </separator>
   <separator name="electronic startup" >
    <i type="int" name="ISTART">     0</i>
    <i type="int" name="ICHARG">     2</i>
    <i type="int" name="INIWAV">     1</i>
   </separator>
   <separator name="electronic spin" >
    <i type="int" name="ISPIN">     1</i>
    <i type="logical" name="LNONCOLLINEAR"> F  </i>
    <v name="MAGMOM">      1.00000000      1.00000000</v>
    <i name="NUPDOWN">     -1.00000000</i>
    <i type="logical" name="LSORBIT"> F  </i>
    <v name="SAXIS">      0.00000000      0.00000000      1.00000000</v>
    <i type="logical" name="LSPIRAL"> F  </i>
    <v name="QSPIRAL">      0.00000000      0.00000000      0.00000000</v>
    <i type="logical" name="LZEROZ"> F  </i>
   </separator>
   <separator name="electronic exchange-correlation" >
    <i type="logical" name="LASPH"> F  </i>
    <i type="logical" name="LMETAGGA"> F  </i>
   </separator>
   <separator name="electronic convergence" >
    <i type="int" name="NELM">    60</i>
    <i type="int" name="NELMDL">    -5</i>
    <i type="int" name="NELMIN">     2</i>
    <i name="ENINI">    300.00000000</i>
    <separator name="electronic convergence detail" >
     <i type="logical" name="LDIAG"> T  </i>
     <i type="logical" name="LSUBROT"> F  </i>
     <i name="WEIMIN">      0.00100000</i>
     <i name="EBREAK">      0.00001250</i>
     <i name="DEPER">      0.30000000</i>
     <i type="int" name="NRMM">     4</i>
     <i name="TIME">      0.40000000</i>
    </separator>
   </separator>
   <separator name="electronic mixer" >
    <i name="AMIX">      0.40000000</i>
    <i name="BMIX">      1.00000000</i>
    <i name="AMIN">      0.10000000</i>
    <i name="AMIX_MAG">      1.60000000</i>
    <i name="BMIX_MAG">      1.00000000</i>
    <separator name="electronic mixer details" >
     <i type="int" name="IMIX">     4</i>
     <i type="logical" name="MIXFIRST"> F  </i>
     <i type="int" name="MAXMIX">   -45</i>
     <i name="WC">    100.00000000</i>
     <i type="int" name="INIMIX">     1</i>
     <i type="int" name="MIXPRE">     1</i>
     <i type="int" name="MREMOVE">     5</i>
    </separator>
   </separator>
   <separator name="electronic dipolcorrection" >
    <i type="logical" name="LDIPOL"> F  </i>
    <i type="logical" name="LMONO"> F  </i>
    <i type="int" name="IDIPOL">     0</i>
    <i name="EPSILON">      1.00000000</i>
    <v name="DIPOL">   -100.00000000   -100.00000000   -100.00000000</v>
    <i name="EFIELD">      0.00000000</i>
   </separator>
  </separator>
  <separator name="grids" >
   <i type="int" name="NGX">    16</i>
   <i type="int" name="NGY">    16</i>
   <i type="int" name="NGZ">    16</i>
   <i type="int" name="NGXF">    32</i>
   <i type="int" name="NGYF">    32</i>
   <i type="int" name="NGZF">    32</i>
   <i type="logical" name="ADDGRID"> F  </i>
  </separator>
  <separator name="ionic" >
   <i type="int" name="NSW">    15</i>
   <i type="int" name="IBRION">     2</i>
   <i type="int" name="MDALGO">     0</i>
   <i type="int" name="ISIF">     3</i>
   <i name="PSTRESS">      0.00000000</i>
   <i name="EDIFFG">     -0.01000000</i>
   <i type="int" name="NFREE">     1</i>
   <i name="POTIM">      0.50000000</i>
   <i name="SMASS">     -3.00000000</i>
   <i name="SCALEE">      1.00000000</i>
  </separator>
  <separator name="ionic md" >
   <i name="TEBEG">      0.00010000</i>
   <i name="TEEND">      0.00010000</i>
   <i type="int" name="NBLOCK">     1</i>
   <i type="int" name="KBLOCK">    15</i>
   <i type="int" name="NPACO">   256</i>
   <i name="APACO">     16.00000000</i>
  </separator>
  <separator name="symmetry" >
   <i type="int" name="ISYM">     2</i>
   <i name="SYMPREC">      0.00001000</i>
  </separator>
  <separator name="dos" >
   <i type="int" name="LORBIT">     0</i>
   <v name="RWIGS">     -1.00000000</v>
   <i type="int" name="NEDOS">   301</i>
   <i name="EMIN">     10.00000000</i>
   <i name="EMAX">    -10.00000000</i>
   <i name="EFERMI">      0.00000000</i>
  </separator>
  <separator name="writing" >
   <i type="int" name="NWRITE">     2</i>
   <i type="logical" name="LWAVE"> T  </i>
   <i type="logical" name="LDOWNSAMPLE"> F  </i>
   <i type="logical" name="LCHARG"> T  </i>
   <i type="logical" name="LPARD"> F  </i>
   <i type="logical" name="LVTOT"> F  </i>
   <i type="logical" name="LVHAR"> F  </i>
   <i type="logical" name="LELF"> F  </i>
   <i type="logical" name="LOPTICS"> F  </i>
   <v name="STM">      0.00000000      0.00000000      0.00000000      0.00000000      0.00000000      0.00000000      0.00000000</v>
  </separator>
  <separator name="performance" >
   <i type="int" name="NPAR">     8</i>
   <i type="int" name="NSIM">     4</i>
   <i type="int" name="NBLK">    -1</i>
   <i type="logical" name="LPLANE"> T  </i>
   <i type="logical" name="LSCALAPACK"> T  </i>
   <i type="logical" name="LSCAAWARE"> F  </i>
   <i type="logical" name="LSCALU"> F  </i>
   <i type="logical" name="LASYNC"> F  </i>
   <i type="logical" name="LORBITALREAL"> F  </i>
  </separator>
  <separator name="miscellaneous" >
   <i type="int" name="IDIOT">     3</i>
   <i type="int" name="ISPECIAL">     0</i>
   <i type="logical" name="LMUSIC"> F  </i>
   <v name="POMASS">     28.08500000</v>
   <v name="DARWINR">      0.00000000</v>
   <v name="DARWINV">      1.00000000</v>
   <i type="logical" name="LCORR"> T  </i>
  </separator>
  <i type="logical" name="GGA_COMPAT"> T  </i>
  <i type="logical" name="LBERRY"> F  </i>
  <i type="int" name="ICORELEVEL">     0</i>
  <i type="logical" name="LDAU"> F  </i>
  <i type="int" name="I_CONSTRAINED_M">     0</i>
  <separator name="electronic exchange-correlation" >
   <i type="string" name="GGA">--</i>
   <i type="int" name="VOSKOWN">     0</i>
   <i type="logical" name="LHFCALC"> F  </i>
   <i type="string" name="PRECFOCK"></i>
   <i type="logical" name="LSYMGRAD"> F  </i>
   <i type="logical" name="LHFONE"> F  </i>
   <i type="logical" name="LRHFCALC"> F  </i>
   <i type="logical" name="LTHOMAS"> F  </i>
   <i type="logical" name="LMODELHF"> F  </i>
   <i name="ENCUT4O">     -1.00000000</i>
   <i type="int" name="EXXOEP">     0</i>
   <i type="int" name="FOURORBIT">     0</i>
   <i name="AEXX">      0.00000000</i>
   <i name="HFALPHA">      0.00000000</i>
   <i name="MCALPHA">      0.00000000</i>
   <i name="ALDAX">      1.00000000</i>
   <i name="AGGAX">      1.00000000</i>
   <i name="ALDAC">      1.00000000</i>
   <i name="AGGAC">      1.00000000</i>
   <i type="int" name="NKREDX">     1</i>
   <i type="int" name="NKREDY">     1</i>
   <i type="int" name="NKREDZ">     1</i>
   <i type="logical" name="SHIFTRED"> F  </i>
   <i type="logical" name="ODDONLY"> F  </i>
   <i type="logical" name="EVENONLY"> F  </i>
   <i type="int" name="LMAXFOCK">     0</i>
   <i type="int" name="NMAXFOCKAE">     0</i>
   <i type="logical" name="LFOCKAEDFT"> F  </i>
   <i name="HFSCREEN">      0.00000000</i>
   <i name="HFSCREENC">      0.00000000</i>
   <i type="int" name="NBANDSGWLOW">     0</i>
  </separator>
  <separator name="vdW DFT" >
   <i type="logical" name="LUSE_VDW"> F  </i>
   <i name="Zab_VDW">     -0.84910000</i>
   <i name="PARAM1">      0.12340000</i>
   <i name="PARAM2">      1.00000000</i>
   <i name="PARAM3">      0.00000000</i>
  </separator>
  <separator name="model GW" >
   <i type="int" name="MODEL_GW">     0</i>
   <i name="MODEL_EPS0">      9.17662200</i>
   <i name="MODEL_ALPHA">      1.00000000</i>
  </separator>
  <separator name="linear response parameters" >
   <i type="logical" name="LEPSILON"> F  </i>
   <i type="logical" name="LRPA"> F  </i>
   <i type="logical" name="LNABLA"> F  </i>
   <i type="logical" name="LVEL"> F  </i>
   <i type="int" name="KINTER">     0</i>
   <i name="CSHIFT">      0.10000000</i>
   <i name="OMEGAMAX">     -1.00000000</i>
   <i name="DEG_THRESHOLD">      0.00200000</i>
   <i name="RTIME">     -0.10000000</i>
   <i name="WPLASMAI">      0.00000000</i>
   <v name="DFIELD">      0.00000000      0.00000000      0.00000000</v>
   <v name="WPLASMA">      0.00000000      0.00000000      0.00000000      0.00000000      0.00000000      0.00000000      0.00000000      0.00000000      0.00000000</v>
  </separator>
  <separator name="orbital magnetization" >
   <i type="logical" name="NUCIND"> F  </i>
   <v name="MAGPOS">      0.00000000      0.00000000      0.00000000</v>
   <i type="logical" name="LNICSALL"> T  </i>
   <i type="logical" name="ORBITALMAG"> F  </i>
   <i type="logical" name="LMAGBLOCH"> F  </i>
   <i type="logical" name="LCHIMAG"> F  </i>
   <i type="logical" name="LGAUGE"> T  </i>
   <i type="int" name="MAGATOM">     0</i>
   <v name="MAGDIPOL">      0.00000000      0.00000000      0.00000000</v>
   <v name="AVECCONST">      0.00000000      0.00000000      0.00000000</v>
  </separator>
  <separator name="response functions" >
   <i type="logical" name="LADDER"> F  </i>
   <i type="logical" name="LRPAFORCE"> F  </i>
   <i type="logical" name="LFXC"> F  </i>
   <i type="logical" name="LHARTREE"> T  </i>
   <i type="int" name="IBSE">     0</i>
   <v type="int" name="KPOINT">    -1     0     0     0</v>
   <i type="logical" name="LTCTE"> F  </i>
   <i type="logical" name="LTETE"> F  </i>
   <i type="logical" name="LTRIPLET"> F  </i>
   <i type="logical" name="LFXCEPS"> F  </i>
   <i type="logical" name="LFXHEG"> F  </i>
   <i type="int" name="NATURALO">     2</i>
   <i type="logical" name="L2ORDER"> F  </i>
   <i type="logical" name="LMP2LT"> F  </i>
   <i type="logical" name="LUSEW"> F  </i>
   <i name="ENCUTGW">     -2.00000000</i>
   <i name="ENCUTGWSOFT">     -2.00000000</i>
   <i name="ENCUTLF">     -1.00000000</i>
   <i type="int" name="LMAXMP2">    -1</i>
   <i name="SCISSOR">      0.00000000</i>
   <i type="int" name="NOMEGA">     0</i>
   <i type="int" name="NOMEGAR">     0</i>
   <i type="int" name="NBANDSGW">    -1</i>
   <i type="int" name="NBANDSO">    -1</i>
   <i type="int" name="NBANDSV">    -1</i>
   <i type="int" name="NELM">     1</i>
   <i type="int" name="NELMHF">     1</i>
   <i type="int" name="DIM">     3</i>
   <i type="int" name="ANTIRES">     0</i>
   <i name="OMEGAMAX">    -30.00000000</i>
   <i name="OMEGAMIN">    -30.00000000</i>
   <i name="OMEGATL">   -200.00000000</i>
   <i type="int" name="OMEGAGRID">   140</i>
   <i name="CSHIFT">     -0.10000000</i>
   <i type="logical" name="SELFENERGY"> F  </i>
   <i type="logical" name="LSPECTRAL"> F  </i>
   <i type="logical" name="LSPECTRALGW"> F  </i>
   <i type="logical" name="LSINGLES"> F  </i>
   <i type="logical" name="LFERMIGW"> F  </i>
   <i type="logical" name="ODDONLYGW"> F  </i>
   <i type="logical" name="EVENONLYGW"> F  </i>
   <i type="int" name="NKREDLFX">     1</i>
   <i type="int" name="NKREDLFY">     1</i>
   <i type="int" name="NKREDLFZ">     1</i>
   <i type="int" name="MAXMEM">  2800</i>
   <i type="int" name="TELESCOPE">     0</i>
   <i type="int" name="TAUPAR">     1</i>
   <i type="int" name="OMEGAPAR">    -1</i>
   <i name="LAMBDA">      1.00000000</i>
  </separator>
  <separator name="External order field" >
   <i name="OFIELD_KAPPA">      0.00000000</i>
   <v name="OFIELD_K">      0.00000000      0.00000000      0.00000000</v>
   <i name="OFIELD_Q6_NEAR">      0.00000000</i>
   <i name="OFIELD_Q6_FAR">      0.00000000</i>
   <i name="OFIELD_A">      0.00000000</i>
  </separator>
 </parameters>
 <atominfo>
  <atoms>       2 </atoms>
  <types>       1 </types>
  <array name="atoms" >
   <dimension dim="1">ion</dimension>
   <field type="string">element</field>
   <field type="int">atomtype</field>
   <set>
    <rc><c>Si</c><c>   1</c></rc>
    <rc><c>Si</c><c>   1</c></rc>
   </set>
  </array>
  <array name="atomtypes" >
   <dimension dim="1">type</dimension>
   <field type="int">atomspertype</field>
   <field type="string">element</field>
   <field>mass</field>
   <field>valence</field>
   <field type="string">pseudopotential</field>
   <set>
    <rc><c>   2</c><c>Si</c><c>     28.08500000</c><c>      4.00000000</c><c> PAW_PBE Si 05Jan2001                   </c></rc>
   </set>
  </array>
 </atominfo>
 <structure name="initialpos" >
  <crystal>
   <varray name="basis" >
    <v>      -2.45000000       2.45000000       1.27400000 </v>
    <v>       2.45000000      -2.45000000       1.27400000 </v>
    <v>       2.45000000       2.45000000      -1.27400000 </v>
   </varray>
   <i name="volume">     30.58874000 </i>
   <varray name="rec_basis" >
    <v>       0.00000000       0.20408163       0.39246468 </v>
    <v>       0.20408163       0.00000000       0.39246468 </v>
    <v>       0.20408163       0.20408163      -0.00000000 </v>
   </varray>
  </crystal>
  <varray name="positions" >
   <v>       0.25000000       0.75000000       0.50000000 </v>
   <v>       0.00000000       0.00000000       0.00000000 </v>
  </varray>
 </structure>
 <calculation>
  <scstep>
   <time name="dav">    0.03    0.03</time>
   <time name="total">    0.07    0.12</time>
   <energy>
    <i name="alphaZ">      4.40202223 </i>
    <i name="ewald">   -265.18101312 </i>
    <i name="hartreedc">     -2.30415367 </i>
    <i name="XCdc">    -17.81548033 </i>
    <i name="pawpsdc">     65.95520812 </i>
    <i name="pawaedc">    -30.76852678 </i>
    <i name="eentropy">     -0.00357647 </i>
    <i name="bandstr">     36.65811746 </i>
    <i name="atom">    206.12968587 </i>
    <i name="e_fr_energy">     -2.92771669 </i>
    <i name="e_wo_entrp">     -2.92414022 </i>
    <i name="e_0_energy">     -2.92592846 </i>
   </energy>
  </scstep>
  <scstep>
   <time name="dav">    0.04    0.07</time>
   <time name="total">    0.04    0.07</time>
   <energy>
    <i name="e_fr_energy">    -11.97081912 </i>
    <i name="e_wo_entrp">    -11.91440017 </i>
    <i name="e_0_energy">    -11.94260965 </i>
   </energy>
  </scstep>
  <scstep>
   <time name="dav">    0.04    0.06</time>
   <time name="total">    0.05    0.06</time>
   <energy>
    <i name="e_fr_energy">    -12.04830292 </i>
    <i name="e_wo_entrp">    -11.99188396 </i>
    <i name="e_0_energy">    -12.02009344 </i>
   </energy>
  </scstep>
  <scstep>
   <time name="dav">    0.04    0.05</time>
   <time name="total">    0.04    0.05</time>
   <energy>
    <i name="e_fr_energy">    -12.04841316 </i>
    <i name="e_wo_entrp">    -11.99199420 </i>
    <i name="e_0_energy">    -12.02020368 </i>
   </energy>
  </scstep>
  <scstep>
   <time name="dav">    0.04    0.05</time>
   <time name="total">    0.05    0.06</time>
   <energy>
    <i name="e_fr_energy">    -12.04841318 </i>
    <i name="e_wo_entrp">    -11.99199422 </i>
    <i name="e_0_energy">    -12.02020370 </i>
   </energy>
  </scstep>
  <scstep>
   <time name="dav">    0.04    0.03</time>
   <time name="total">    0.08    0.09</time>
   <energy>
    <i name="e_fr_energy">    -12.03715612 </i>
    <i name="e_wo_entrp">    -11.98073716 </i>
    <i name="e_0_energy">    -12.00894664 </i>
   </energy>
  </scstep>
  <scstep>
   <time name="dav">    0.03    0.03</time>
   <time name="total">    0.07    0.09</time>
   <energy>
    <i name="e_fr_energy">    -12.02982056 </i>
    <i name="e_wo_entrp">    -11.97340160 </i>
    <i name="e_0_energy">    -12.00161108 </i>
   </energy>
  </scstep>
  <scstep>
   <time name="dav">    0.03    0.03</time>
   <time name="total">    0.06    0.07</time>
   <energy>
    <i name="alphaZ">      4.40202223 </i>
    <i name="ewald">   -265.18101312 </i>
    <i name="hartreedc">     -2.24629164 </i>
    <i name="XCdc">    -17.62105381 </i>
    <i name="pawpsdc">     69.83574652 </i>
    <i name="pawaedc">    -34.72580108 </i>
    <i name="eentropy">     -0.05641896 </i>
    <i name="bandstr">     27.43334388 </i>
    <i name="atom">    206.12968587 </i>
    <i name="e_fr_energy">    -12.02978009 </i>
    <i name="e_wo_entrp">    -11.97336113 </i>
    <i name="e_0_energy">    -12.00157061 </i>
   </energy>
  </scstep>
  <structure>
   <crystal>
    <varray name="basis" >
     <v>      -2.45000000       2.45000000       1.27400000 </v>
     <v>       2.45000000      -2.45000000       1.27400000 </v>
     <v>       2.45000000       2.45000000      -1.27400000 </v>
    </varray>
    <i name="volume">     30.58874000 </i>
    <varray name="rec_basis" >
     <v>       0.00000000       0.20408163       0.39246468 </v>
     <v>       0.20408163       0.00000000       0.39246468 </v>
     <v>       0.20408163       0.20408163      -0.00000000 </v>
    </varray>
   </crystal>
   <varray name="positions" >
    <v>       0.25000000       0.75000000       0.50000000 </v>
    <v>       0.00000000       0.00000000       0.00000000 </v>
   </varray>
  </structure>
  <varray name="forces" >
   <v>      -0.00000000      -0.00000000      -0.00000000 </v>
   <v>       0.00000000       0.00000000       0.00000000 </v>
  </varray>
  <varray name="stress" >
   <v>    -237.19280709       0.00000000       0.00000000 </v>
   <v>       0.00000000    -237.19280709      -0.00000000 </v>
   <v>       0.00000000      -0.00000000     237.19260948 </v>
  </varray>
  <energy>
   <i name="e_fr_energy">    -12.02978009 </i>
   <i name="e_wo_entrp">    -12.00157061 </i>
   <i name="e_0_energy">     -0.05641896 </i>
  </energy>
  <time name="totalsc">    1.29    1.96</time>
 </calculation>
 <calculation>
  <scstep>
   <time name="dav">    0.03    0.02</time>
   <time name="total">    0.06    0.07</time>
   <energy>
    <i name="alphaZ">      5.00151097 </i>
    <i name="ewald">   -275.36212350 </i>
    <i name="hartreedc">     -2.24761332 </i>
    <i name="XCdc">    -16.99905052 </i>
    <i name="pawpsdc">     69.83768667 </i>
    <i name="pawaedc">    -34.72820987 </i>
    <i name="eentropy">     -0.05641896 </i>
    <i name="bandstr">     36.26943484 </i>
    <i name="atom">    206.12968587 </i>
    <i name="e_fr_energy">    -12.15509782 </i>
    <i name="e_wo_entrp">    -12.09867887 </i>
    <i name="e_0_energy">    -12.12688835 </i>
   </energy>
  </scstep>
  <scstep>
   <time name="dav">    0.04    0.04</time>
   <time name="total">    0.08    0.09</time>
   <energy>
    <i name="e_fr_energy">    -11.88545523 </i>
    <i name="e_wo_entrp">    -11.82903627 </i>
    <i name="e_0_energy">    -11.85724575 </i>
   </energy>
  </scstep>
  <scstep>
   <time name="dav">    0.03    0.03</time>
   <time name="total">    0.07    0.08</time>
   <energy>
    <i name="e_fr_energy">    -11.74519511 </i>
    <i name="e_wo_entrp">    -11.68877615 </i>
    <i name="e_0_energy">    -11.71698563 </i>
   </energy>
  </scstep>
  <scstep>
   <time name="dav">    0.02    0.03</time>
   <time name="total">    0.06    0.08</time>
   <energy>
    <i name="e_fr_energy">    -11.74598670 </i>
    <i name="e_wo_entrp">    -11.68956774 </i>
    <i name="e_0_energy">    -11.71777722 </i>
   </energy>
  </scstep>
  <scstep>
   <time name="dav">    0.03    0.03</time>
   <time name="total">    0.06    0.09</time>
   <energy>
    <i name="alphaZ">      5.00151097 </i>
    <i name="ewald">   -275.36212350 </i>
    <i name="hartreedc">     -2.56774219 </i>
    <i name="XCdc">    -16.79738450 </i>
    <i name="pawpsdc">     75.97317558 </i>
    <i name="pawaedc">    -41.02319733 </i>
    <i name="eentropy">     -0.05641896 </i>
    <i name="bandstr">     36.95667838 </i>
    <i name="atom">    206.12968587 </i>
    <i name="e_fr_energy">    -11.74581567 </i>
    <i name="e_wo_entrp">    -11.68939671 </i>
    <i name="e_0_energy">    -11.71760619 </i>
   </energy>
  </scstep>
  <structure>
   <crystal>
    <varray name="basis" >
     <v>      -2.18237924       2.18237924       1.41316268 </v>
     <v>       2.18237924      -2.18237924       1.41316268 </v>
     <v>       2.18237924       2.18237924      -1.41316268 </v>
    </varray>
    <i name="volume">     26.92232694 </i>
    <varray name="rec_basis" >
     <v>       0.00000000       0.22910775       0.35381631 </v>
     <v>       0.22910775       0.00000000       0.35381631 </v>
     <v>       0.22910775       0.22910775       0.00000000 </v>
    </varray>
   </crystal>
   <varray name="positions" >
    <v>       0.25000000       0.75000000       0.50000000 </v>
    <v>       0.00000000       0.00000000       0.00000000 </v>
   </varray>
  </structure>
  <varray name="forces" >
   <v>       0.00000000      -0.00000000      -0.00000000 </v>
   <v>      -0.00000000       0.00000000       0.00000000 </v>
  </varray>
  <varray name="stress" >
   <v>     415.92741528       0.00000000      -0.00000000 </v>
   <v>       0.00000000     415.92741528      -0.00000000 </v>
   <v>      -0.00000000      -0.00000000    -232.19757257 </v>
  </varray>
  <energy>
   <i name="e_fr_energy">    -11.74581567 </i>
   <i name="e_wo_entrp">    -11.71760619 </i>
   <i name="e_0_energy">     -0.05641896 </i>
  </energy>
  <time name="totalsc">    0.42    0.62</time>
 </calculation>
 <calculation>
  <scstep>
   <time name="dav">    0.01    0.01</time>
   <time name="total">    0.03    0.03</time>
   <energy>
    <i name="alphaZ">      4.61817775 </i>
    <i name="ewald">   -269.47089064 </i>
    <i name="hartreedc">     -2.31178705 </i>
    <i name="XCdc">    -17.22875334 </i>
    <i name="pawpsdc">     75.92547057 </i>
    <i name="pawaedc">    -40.97508970 </i>
    <i name="eentropy">     -0.05641896 </i>
    <i name="bandstr">     30.89302765 </i>
    <i name="atom">    206.12968587 </i>
    <i name="e_fr_energy">    -12.47657785 </i>
    <i name="e_wo_entrp">    -12.42015889 </i>
    <i name="e_0_energy">    -12.44836837 </i>
   </energy>
  </scstep>
  <scstep>
   <time name="dav">    0.01    0.01</time>
   <time name="total">    0.03    0.05</time>
   <energy>
    <i name="e_fr_energy">    -12.39446237 </i>
    <i name="e_wo_entrp">    -12.33804341 </i>
    <i name="e_0_energy">    -12.36625289 </i>
   </energy>
  </scstep>
  <scstep>
   <time name="dav">    0.01    0.01</time>
   <time name="total">    0.03    0.04</time>
   <energy>
    <i name="e_fr_energy">    -12.34981098 </i>
    <i name="e_wo_entrp">    -12.29339202 </i>
    <i name="e_0_energy">    -12.32160150 </i>
   </energy>
  </scstep>
  <scstep>
   <time name="dav">    0.01    0.01</time>
   <time name="total">    0.02    0.04</time>
   <energy>
    <i name="alphaZ">      4.61817775 </i>
    <i name="ewald">   -269.47089064 </i>
    <i name="hartreedc">     -2.03580373 </i>
    <i name="XCdc">    -17.34252991 </i>
    <i name="pawpsdc">     71.36966107 </i>
    <i name="pawaedc">    -36.30161020 </i>
    <i name="eentropy">     -0.05641896 </i>
    <i name="bandstr">     30.73975160 </i>
    <i name="atom">    206.12968587 </i>
    <i name="e_fr_energy">    -12.34997714 </i>
    <i name="e_wo_entrp">    -12.29355819 </i>
    <i name="e_0_energy">    -12.32176766 </i>
   </energy>
  </scstep>
  <structure>
   <crystal>
    <varray name="basis" >
     <v>      -2.34004056       2.34004056       1.33117886 </v>
     <v>       2.34004056      -2.34004056       1.33117886 </v>
     <v>       2.34004056       2.34004056      -1.33117886 </v>
    </varray>
    <i name="volume">     29.15702270 </i>
    <varray name="rec_basis" >
     <v>       0.00000000       0.21367151       0.37560693 </v>
     <v>       0.21367151       0.00000000       0.37560693 </v>
     <v>       0.21367151       0.21367151       0.00000000 </v>
    </varray>
   </crystal>
   <varray name="positions" >
    <v>       0.25000000       0.75000000       0.50000000 </v>
    <v>       0.00000000       0.00000000       0.00000000 </v>
   </varray>
  </structure>
  <varray name="forces" >
   <v>       0.00000000       0.00000000       0.00000000 </v>
   <v>      -0.00000000      -0.00000000      -0.00000000 </v>
  </varray>
  <varray name="stress" >
   <v>     -22.66151683      -0.00000000      -0.00000000 </v>
   <v>      -0.00000000     -22.66151683      -0.00000000 </v>
   <v>      -0.00000000      -0.00000000     -20.02249622 </v>
  </varray>
  <energy>
   <i name="e_fr_energy">    -12.34997714 </i>
   <i name="e_wo_entrp">    -12.32176766 </i>
   <i name="e_0_energy">     -0.05641896 </i>
  </energy>
  <time name="totalsc">    0.18    0.33</time>
 </calculation>
 <calculation>
  <scstep>
   <time name="dav">    0.01    0.01</time>
   <time name="total">    0.03    0.03</time>
   <energy>
    <i name="alphaZ">      4.62668677 </i>
    <i name="ewald">   -269.62114985 </i>
    <i name="hartreedc">     -2.05478865 </i>
    <i name="XCdc">    -17.33589533 </i>
    <i name="pawpsdc">     71.20451268 </i>
    <i name="pawaedc">    -36.13082608 </i>
    <i name="eentropy">     -0.05641896 </i>
    <i name="bandstr">     30.88769244 </i>
    <i name="atom">    206.12968587 </i>
    <i name="e_fr_energy">    -12.35050112 </i>
    <i name="e_wo_entrp">    -12.29408216 </i>
    <i name="e_0_energy">    -12.32229164 </i>
   </energy>
  </scstep>
  <scstep>
   <time name="dav">    0.00    0.01</time>
   <time name="total">    0.02    0.03</time>
   <energy>
    <i name="alphaZ">      4.62668677 </i>
    <i name="ewald">   -269.62114985 </i>
    <i name="hartreedc">     -2.05365463 </i>
    <i name="XCdc">    -17.33504639 </i>
    <i name="pawpsdc">     71.24019183 </i>
    <i name="pawaedc">    -36.16733420 </i>
    <i name="eentropy">     -0.05641896 </i>
    <i name="bandstr">     30.88660519 </i>
    <i name="atom">    206.12968587 </i>
    <i name="e_fr_energy">    -12.35043436 </i>
    <i name="e_wo_entrp">    -12.29401541 </i>
    <i name="e_0_energy">    -12.32222488 </i>
   </energy>
  </scstep>
  <structure>
   <crystal>
    <varray name="basis" >
     <v>      -2.33608252       2.33608252       1.33323704 </v>
     <v>       2.33608252      -2.33608252       1.33323704 </v>
     <v>       2.33608252       2.33608252      -1.33323704 </v>
    </varray>
    <i name="volume">     29.10339954 </i>
    <varray name="rec_basis" >
     <v>      -0.00000000       0.21403354       0.37502708 </v>
     <v>       0.21403354      -0.00000000       0.37502708 </v>
     <v>       0.21403354       0.21403354       0.00000000 </v>
    </varray>
   </crystal>
   <varray name="positions" >
    <v>       0.25000000       0.75000000       0.50000000 </v>
    <v>       0.00000000       0.00000000       0.00000000 </v>
   </varray>
  </structure>
  <varray name="forces" >
   <v>      -0.00000000       0.00000000      -0.00000000 </v>
   <v>       0.00000000      -0.00000000       0.00000000 </v>
  </varray>
  <varray name="stress" >
   <v>     -15.83271358      -0.00000000      -0.00000000 </v>
   <v>      -0.00000000     -15.83271358       0.00000000 </v>
   <v>      -0.00000000       0.00000000     -29.44798281 </v>
  </varray>
  <energy>
   <i name="e_fr_energy">    -12.35043436 </i>
   <i name="e_wo_entrp">    -12.32222488 </i>
   <i name="e_0_energy">     -0.05641896 </i>
  </energy>
  <time name="totalsc">    0.12    0.22</time>
 </calculation>
 <calculation>
  <scstep>
   <time name="dav">    0.00    0.01</time>
   <time name="total">    0.02    0.03</time>
   <energy>
    <i name="alphaZ">      4.62750350 </i>
    <i name="ewald">   -269.63551150 </i>
    <i name="hartreedc">     -2.05189494 </i>
    <i name="XCdc">    -17.33281994 </i>
    <i name="pawpsdc">     71.29179562 </i>
    <i name="pawaedc">    -36.22008146 </i>
    <i name="eentropy">     -0.05641896 </i>
    <i name="bandstr">     30.89734119 </i>
    <i name="atom">    206.12968587 </i>
    <i name="e_fr_energy">    -12.35040062 </i>
    <i name="e_wo_entrp">    -12.29398166 </i>
    <i name="e_0_energy">    -12.32219114 </i>
   </energy>
  </scstep>
  <scstep>
   <time name="dav">    0.00    0.01</time>
   <time name="total">    0.02    0.03</time>
   <energy>
    <i name="alphaZ">      4.62750350 </i>
    <i name="ewald">   -269.63551150 </i>
    <i name="hartreedc">     -2.05151040 </i>
    <i name="XCdc">    -17.33271572 </i>
    <i name="pawpsdc">     71.29629537 </i>
    <i name="pawaedc">    -36.22472492 </i>
    <i name="eentropy">     -0.05641896 </i>
    <i name="bandstr">     30.89699623 </i>
    <i name="atom">    206.12968587 </i>
    <i name="e_fr_energy">    -12.35040053 </i>
    <i name="e_wo_entrp">    -12.29398157 </i>
    <i name="e_0_energy">    -12.32219105 </i>
   </energy>
  </scstep>
  <structure>
   <crystal>
    <varray name="basis" >
     <v>      -2.33570391       2.33570391       1.33343392 </v>
     <v>       2.33570391      -2.33570391       1.33343392 </v>
     <v>       2.33570391       2.33570391      -1.33343392 </v>
    </varray>
    <i name="volume">     29.09826297 </i>
    <varray name="rec_basis" >
     <v>      -0.00000000       0.21406823       0.37497171 </v>
     <v>       0.21406823      -0.00000000       0.37497171 </v>
     <v>       0.21406823       0.21406823       0.00000000 </v>
    </varray>
   </crystal>
   <varray name="positions" >
    <v>       0.25000000       0.75000000       0.50000000 </v>
    <v>       0.00000000       0.00000000       0.00000000 </v>
   </varray>
  </structure>
  <varray name="forces" >
   <v>      -0.00000000      -0.00000000       0.00000000 </v>
   <v>       0.00000000       0.00000000      -0.00000000 </v>
  </varray>
  <varray name="stress" >
   <v>     -13.70328752      -0.00000000       0.00000000 </v>
   <v>      -0.00000000     -13.70328752      -0.00000000 </v>
   <v>       0.00000000      -0.00000000     -31.57501175 </v>
  </varray>
  <energy>
   <i name="e_fr_energy">    -12.35040053 </i>
   <i name="e_wo_entrp">    -12.32219105 </i>
   <i name="e_0_energy">     -0.05641896 </i>
  </energy>
  <time name="totalsc">    0.11    0.28</time>
 </calculation>
 <calculation>
  <scstep>
   <time name="dav">    0.01    0.01</time>
   <time name="total">    0.02    0.03</time>
   <energy>
    <i name="alphaZ">      4.62697035 </i>
    <i name="ewald">   -269.62613767 </i>
    <i name="hartreedc">     -2.05093433 </i>
    <i name="XCdc">    -17.33314942 </i>
    <i name="pawpsdc">     71.30346215 </i>
    <i name="pawaedc">    -36.23212110 </i>
    <i name="eentropy">     -0.05641896 </i>
    <i name="bandstr">     30.88824059 </i>
    <i name="atom">    206.12968587 </i>
    <i name="e_fr_energy">    -12.35040251 </i>
    <i name="e_wo_entrp">    -12.29398355 </i>
    <i name="e_0_energy">    -12.32219303 </i>
   </energy>
  </scstep>
  <scstep>
   <time name="dav">    0.00    0.01</time>
   <time name="total">    0.02    0.04</time>
   <energy>
    <i name="alphaZ">      4.62697035 </i>
    <i name="ewald">   -269.62613767 </i>
    <i name="hartreedc">     -2.05089786 </i>
    <i name="XCdc">    -17.33318424 </i>
    <i name="pawpsdc">     71.30185687 </i>
    <i name="pawaedc">    -36.23047540 </i>
    <i name="eentropy">     -0.05641896 </i>
    <i name="bandstr">     30.88819874 </i>
    <i name="atom">    206.12968587 </i>
    <i name="e_fr_energy">    -12.35040229 </i>
    <i name="e_wo_entrp">    -12.29398333 </i>
    <i name="e_0_energy">    -12.32219281 </i>
   </energy>
  </scstep>
  <structure>
   <crystal>
    <varray name="basis" >
     <v>      -2.33595103       2.33595103       1.33330541 </v>
     <v>       2.33595103      -2.33595103       1.33330541 </v>
     <v>       2.33595103       2.33595103      -1.33330541 </v>
    </varray>
    <i name="volume">     29.10161582 </i>
    <varray name="rec_basis" >
     <v>      -0.00000000       0.21404558       0.37500785 </v>
     <v>       0.21404558      -0.00000000       0.37500785 </v>
     <v>       0.21404558       0.21404558      -0.00000000 </v>
    </varray>
   </crystal>
   <varray name="positions" >
    <v>       0.25000000       0.75000000       0.50000000 </v>
    <v>       0.00000000       0.00000000       0.00000000 </v>
   </varray>
  </structure>
  <varray name="forces" >
   <v>      -0.00000000      -0.00000000       0.00000000 </v>
   <v>       0.00000000       0.00000000      -0.00000000 </v>
  </varray>
  <varray name="stress" >
   <v>     -14.12630266       0.00000000       0.00000000 </v>
   <v>       0.00000000     -14.12630266      -0.00000000 </v>
   <v>       0.00000000      -0.00000000     -31.19928530 </v>
  </varray>
  <energy>
   <i name="e_fr_energy">    -12.35040229 </i>
   <i name="e_wo_entrp">    -12.32219281 </i>
   <i name="e_0_energy">     -0.05641896 </i>
  </energy>
  <time name="totalsc">    0.12    0.20</time>
 </calculation>
 <calculation>
  <scstep>
   <time name="dav">    0.00    0.01</time>
   <time name="total">    0.02    0.03</time>
   <energy>
    <i name="alphaZ">      4.62680854 </i>
    <i name="ewald">   -269.62329172 </i>
    <i name="hartreedc">     -2.05076496 </i>
    <i name="XCdc">    -17.33343903 </i>
    <i name="pawpsdc">     71.29946355 </i>
    <i name="pawaedc">    -36.22803546 </i>
    <i name="eentropy">     -0.05641896 </i>
    <i name="bandstr">     30.88559022 </i>
    <i name="atom">    206.12968587 </i>
    <i name="e_fr_energy">    -12.35040195 </i>
    <i name="e_wo_entrp">    -12.29398300 </i>
    <i name="e_0_energy">    -12.32219247 </i>
   </energy>
  </scstep>
  <scstep>
   <time name="dav">    0.00    0.01</time>
   <time name="total">    0.02    0.03</time>
   <energy>
    <i name="alphaZ">      4.62680854 </i>
    <i name="ewald">   -269.62329172 </i>
    <i name="hartreedc">     -2.05079064 </i>
    <i name="XCdc">    -17.33345367 </i>
    <i name="pawpsdc">     71.29888269 </i>
    <i name="pawaedc">    -36.22743986 </i>
    <i name="eentropy">     -0.05641896 </i>
    <i name="bandstr">     30.88561585 </i>
    <i name="atom">    206.12968587 </i>
    <i name="e_fr_energy">    -12.35040191 </i>
    <i name="e_wo_entrp">    -12.29398295 </i>
    <i name="e_0_energy">    -12.32219243 </i>
   </energy>
  </scstep>
  <structure>
   <crystal>
    <varray name="basis" >
     <v>      -2.33602606       2.33602606       1.33326640 </v>
     <v>       2.33602606      -2.33602606       1.33326640 </v>
     <v>       2.33602606       2.33602606      -1.33326640 </v>
    </varray>
    <i name="volume">     29.10263360 </i>
    <varray name="rec_basis" >
     <v>       0.00000000       0.21403871       0.37501883 </v>
     <v>       0.21403871       0.00000000       0.37501883 </v>
     <v>       0.21403871       0.21403871      -0.00000000 </v>
    </varray>
   </crystal>
   <varray name="positions" >
    <v>       0.25000000       0.75000000       0.50000000 </v>
    <v>       0.00000000       0.00000000       0.00000000 </v>
   </varray>
  </structure>
  <varray name="forces" >
   <v>       0.00000000      -0.00000000      -0.00000000 </v>
   <v>      -0.00000000       0.00000000       0.00000000 </v>
  </varray>
  <varray name="stress" >
   <v>     -14.33294615      -0.00000000      -0.00000000 </v>
   <v>      -0.00000000     -14.33294615       0.00000000 </v>
   <v>      -0.00000000       0.00000000     -30.96482748 </v>
  </varray>
  <energy>
   <i name="e_fr_energy">    -12.35040191 </i>
   <i name="e_wo_entrp">    -12.32219243 </i>
   <i name="e_0_energy">     -0.05641896 </i>
  </energy>
  <time name="totalsc">    0.11    0.25</time>
 </calculation>
 <calculation>
  <scstep>
   <time name="dav">    0.00    0.01</time>
   <time name="total">    0.02    0.03</time>
   <energy>
    <i name="alphaZ">      4.62674656 </i>
    <i name="ewald">   -269.62220150 </i>
    <i name="hartreedc">     -2.05079978 </i>
    <i name="XCdc">    -17.33354960 </i>
    <i name="pawpsdc">     71.29803656 </i>
    <i name="pawaedc">    -36.22657503 </i>
    <i name="eentropy">     -0.05641896 </i>
    <i name="bandstr">     30.88467414 </i>
    <i name="atom">    206.12968587 </i>
    <i name="e_fr_energy">    -12.35040174 </i>
    <i name="e_wo_entrp">    -12.29398278 </i>
    <i name="e_0_energy">    -12.32219226 </i>
   </energy>
  </scstep>
  <scstep>
   <time name="dav">    0.01    0.01</time>
   <time name="total">    0.02    0.04</time>
   <energy>
    <i name="alphaZ">      4.62674656 </i>
    <i name="ewald">   -269.62220150 </i>
    <i name="hartreedc">     -2.05080786 </i>
    <i name="XCdc">    -17.33355595 </i>
    <i name="pawpsdc">     71.29778583 </i>
    <i name="pawaedc">    -36.22631736 </i>
    <i name="eentropy">     -0.05641896 </i>
    <i name="bandstr">     30.88468164 </i>
    <i name="atom">    206.12968587 </i>
    <i name="e_fr_energy">    -12.35040172 </i>
    <i name="e_wo_entrp">    -12.29398276 </i>
    <i name="e_0_energy">    -12.32219224 </i>
   </energy>
  </scstep>
  <structure>
   <crystal>
    <varray name="basis" >
     <v>      -2.33605480       2.33605480       1.33325146 </v>
     <v>       2.33605480      -2.33605480       1.33325146 </v>
     <v>       2.33605480       2.33605480      -1.33325146 </v>
    </varray>
    <i name="volume">     29.10302347 </i>
    <varray name="rec_basis" >
     <v>      -0.00000000       0.21403608       0.37502303 </v>
     <v>       0.21403608      -0.00000000       0.37502303 </v>
     <v>       0.21403608       0.21403608       0.00000000 </v>
    </varray>
   </crystal>
   <varray name="positions" >
    <v>       0.25000000       0.75000000       0.50000000 </v>
    <v>       0.00000000       0.00000000       0.00000000 </v>
   </varray>
  </structure>
  <varray name="forces" >
   <v>       0.00000000      -0.00000000       0.00000000 </v>
   <v>      -0.00000000       0.00000000      -0.00000000 </v>
  </varray>
  <varray name="stress" >
   <v>     -14.41204194       0.00000000       0.00000000 </v>
   <v>       0.00000000     -14.41204194      -0.00000000 </v>
   <v>       0.00000000      -0.00000000     -30.89189902 </v>
  </varray>
  <energy>
   <i name="e_fr_energy">    -12.35040172 </i>
   <i name="e_wo_entrp">    -12.32219224 </i>
   <i name="e_0_energy">     -0.05641896 </i>
  </energy>
  <time name="totalsc">    0.12    0.23</time>
 </calculation>
 <calculation>
  <scstep>
   <time name="dav">    0.00    0.01</time>
   <time name="total">    0.02    0.03</time>
   <energy>
    <i name="alphaZ">      4.62671771 </i>
    <i name="ewald">   -269.62169405 </i>
    <i name="hartreedc">     -2.05080896 </i>
    <i name="XCdc">    -17.33359874 </i>
    <i name="pawpsdc">     71.29744365 </i>
    <i name="pawaedc">    -36.22596645 </i>
    <i name="eentropy">     -0.05641896 </i>
    <i name="bandstr">     30.88423830 </i>
    <i name="atom">    206.12968587 </i>
    <i name="e_fr_energy">    -12.35040163 </i>
    <i name="e_wo_entrp">    -12.29398267 </i>
    <i name="e_0_energy">    -12.32219215 </i>
   </energy>
  </scstep>
  <scstep>
   <time name="dav">    0.00    0.01</time>
   <time name="total">    0.02    0.11</time>
   <energy>
    <i name="alphaZ">      4.62671771 </i>
    <i name="ewald">   -269.62169405 </i>
    <i name="hartreedc">     -2.05081192 </i>
    <i name="XCdc">    -17.33360164 </i>
    <i name="pawpsdc">     71.29732822 </i>
    <i name="pawaedc">    -36.22584774 </i>
    <i name="eentropy">     -0.05641896 </i>
    <i name="bandstr">     30.88424087 </i>
    <i name="atom">    206.12968587 </i>
    <i name="e_fr_energy">    -12.35040162 </i>
    <i name="e_wo_entrp">    -12.29398267 </i>
    <i name="e_0_energy">    -12.32219214 </i>
   </energy>
  </scstep>
  <structure>
   <crystal>
    <varray name="basis" >
     <v>      -2.33606817       2.33606817       1.33324450 </v>
     <v>       2.33606817      -2.33606817       1.33324450 </v>
     <v>       2.33606817       2.33606817      -1.33324450 </v>
    </varray>
    <i name="volume">     29.10320494 </i>
    <varray name="rec_basis" >
     <v>       0.00000000       0.21403485       0.37502499 </v>
     <v>       0.21403485       0.00000000       0.37502499 </v>
     <v>       0.21403485       0.21403485       0.00000000 </v>
    </varray>
   </crystal>
   <varray name="positions" >
    <v>       0.25000000       0.75000000       0.50000000 </v>
    <v>       0.00000000       0.00000000       0.00000000 </v>
   </varray>
  </structure>
  <varray name="forces" >
   <v>      -0.00000000       0.00000000       0.00000000 </v>
   <v>       0.00000000      -0.00000000      -0.00000000 </v>
  </varray>
  <varray name="stress" >
   <v>     -14.44719572      -0.00000000      -0.00000000 </v>
   <v>      -0.00000000     -14.44719572       0.00000000 </v>
   <v>      -0.00000000       0.00000000     -30.86017090 </v>
  </varray>
  <energy>
   <i name="e_fr_energy">    -12.35040162 </i>
   <i name="e_wo_entrp">    -12.32219214 </i>
   <i name="e_0_energy">     -0.05641896 </i>
  </energy>
  <time name="totalsc">    0.12    0.64</time>
 </calculation>
 <calculation>
  <scstep>
   <time name="dav">    0.01    0.01</time>
   <time name="total">    0.02    0.04</time>
   <energy>
    <i name="alphaZ">      4.62670224 </i>
    <i name="ewald">   -269.62142195 </i>
    <i name="hartreedc">     -2.05081135 </i>
    <i name="XCdc">    -17.33362371 </i>
    <i name="pawpsdc">     71.29717409 </i>
    <i name="pawaedc">    -36.22568954 </i>
    <i name="eentropy">     -0.05641896 </i>
    <i name="bandstr">     30.88400174 </i>
    <i name="atom">    206.12968587 </i>
    <i name="e_fr_energy">    -12.35040157 </i>
    <i name="e_wo_entrp">    -12.29398261 </i>
    <i name="e_0_energy">    -12.32219209 </i>
   </energy>
  </scstep>
  <scstep>
   <time name="dav">    0.01    0.01</time>
   <time name="total">    0.02    0.05</time>
   <energy>
    <i name="alphaZ">      4.62670224 </i>
    <i name="ewald">   -269.62142195 </i>
    <i name="hartreedc">     -2.05081268 </i>
    <i name="XCdc">    -17.33362521 </i>
    <i name="pawpsdc">     71.29711358 </i>
    <i name="pawaedc">    -36.22562730 </i>
    <i name="eentropy">     -0.05641896 </i>
    <i name="bandstr">     30.88400283 </i>
    <i name="atom">    206.12968587 </i>
    <i name="e_fr_energy">    -12.35040157 </i>
    <i name="e_wo_entrp">    -12.29398261 </i>
    <i name="e_0_energy">    -12.32219209 </i>
   </energy>
  </scstep>
  <structure>
   <crystal>
    <varray name="basis" >
     <v>      -2.33607535       2.33607535       1.33324077 </v>
     <v>       2.33607535      -2.33607535       1.33324077 </v>
     <v>       2.33607535       2.33607535      -1.33324077 </v>
    </varray>
    <i name="volume">     29.10330224 </i>
    <varray name="rec_basis" >
     <v>       0.00000000       0.21403419       0.37502604 </v>
     <v>       0.21403419       0.00000000       0.37502604 </v>
     <v>       0.21403419       0.21403419       0.00000000 </v>
    </varray>
   </crystal>
   <varray name="positions" >
    <v>       0.25000000       0.75000000       0.50000000 </v>
    <v>       0.00000000       0.00000000       0.00000000 </v>
   </varray>
  </structure>
  <varray name="forces" >
   <v>      -0.00000000       0.00000000       0.00000000 </v>
   <v>       0.00000000      -0.00000000      -0.00000000 </v>
  </varray>
  <varray name="stress" >
   <v>     -14.46551564       0.00000000      -0.00000000 </v>
   <v>       0.00000000     -14.46551564       0.00000000 </v>
   <v>      -0.00000000       0.00000000     -30.84368927 </v>
  </varray>
  <energy>
   <i name="e_fr_energy">    -12.35040157 </i>
   <i name="e_wo_entrp">    -12.32219209 </i>
   <i name="e_0_energy">     -0.05641896 </i>
  </energy>
  <time name="totalsc">    0.12    0.29</time>
 </calculation>
 <calculation>
  <scstep>
   <time name="dav">    0.00    0.01</time>
   <time name="total">    0.02    0.03</time>
   <energy>
    <i name="alphaZ">      4.62669450 </i>
    <i name="ewald">   -269.62128590 </i>
    <i name="hartreedc">     -2.05081225 </i>
    <i name="XCdc">    -17.33363635 </i>
    <i name="pawpsdc">     71.29703300 </i>
    <i name="pawaedc">    -36.22554460 </i>
    <i name="eentropy">     -0.05641896 </i>
    <i name="bandstr">     30.88388314 </i>
    <i name="atom">    206.12968587 </i>
    <i name="e_fr_energy">    -12.35040154 </i>
    <i name="e_wo_entrp">    -12.29398258 </i>
    <i name="e_0_energy">    -12.32219206 </i>
   </energy>
  </scstep>
  <scstep>
   <time name="dav">    0.01    0.01</time>
   <time name="total">    0.02    0.04</time>
   <energy>
    <i name="alphaZ">      4.62669450 </i>
    <i name="ewald">   -269.62128590 </i>
    <i name="hartreedc">     -2.05081298 </i>
    <i name="XCdc">    -17.33363709 </i>
    <i name="pawpsdc">     71.29700302 </i>
    <i name="pawaedc">    -36.22551376 </i>
    <i name="eentropy">     -0.05641896 </i>
    <i name="bandstr">     30.88388374 </i>
    <i name="atom">    206.12968587 </i>
    <i name="e_fr_energy">    -12.35040154 </i>
    <i name="e_wo_entrp">    -12.29398258 </i>
    <i name="e_0_energy">    -12.32219206 </i>
   </energy>
  </scstep>
  <structure>
   <crystal>
    <varray name="basis" >
     <v>      -2.33607893       2.33607893       1.33323891 </v>
     <v>       2.33607893      -2.33607893       1.33323891 </v>
     <v>       2.33607893       2.33607893      -1.33323891 </v>
    </varray>
    <i name="volume">     29.10335089 </i>
    <varray name="rec_basis" >
     <v>       0.00000000       0.21403386       0.37502656 </v>
     <v>       0.21403386       0.00000000       0.37502656 </v>
     <v>       0.21403386       0.21403386      -0.00000000 </v>
    </varray>
   </crystal>
   <varray name="positions" >
    <v>       0.25000000       0.75000000       0.50000000 </v>
    <v>       0.00000000       0.00000000       0.00000000 </v>
   </varray>
  </structure>
  <varray name="forces" >
   <v>       0.00000000      -0.00000000      -0.00000000 </v>
   <v>      -0.00000000       0.00000000       0.00000000 </v>
  </varray>
  <varray name="stress" >
   <v>     -14.47485783      -0.00000000       0.00000000 </v>
   <v>      -0.00000000     -14.47485783      -0.00000000 </v>
   <v>       0.00000000      -0.00000000     -30.83513817 </v>
  </varray>
  <energy>
   <i name="e_fr_energy">    -12.35040154 </i>
   <i name="e_wo_entrp">    -12.32219206 </i>
   <i name="e_0_energy">     -0.05641896 </i>
  </energy>
  <time name="totalsc">    0.45    1.00</time>
 </calculation>
 <calculation>
  <scstep>
   <time name="dav">    0.01    0.01</time>
   <time name="total">    0.04    0.04</time>
   <energy>
    <i name="alphaZ">      4.62669064 </i>
    <i name="ewald">   -269.62121788 </i>
    <i name="hartreedc">     -2.05081270 </i>
    <i name="XCdc">    -17.33364265 </i>
    <i name="pawpsdc">     71.29696310 </i>
    <i name="pawaedc">    -36.22547278 </i>
    <i name="eentropy">     -0.05641896 </i>
    <i name="bandstr">     30.88382384 </i>
    <i name="atom">    206.12968587 </i>
    <i name="e_fr_energy">    -12.35040153 </i>
    <i name="e_wo_entrp">    -12.29398257 </i>
    <i name="e_0_energy">    -12.32219205 </i>
   </energy>
  </scstep>
  <scstep>
   <time name="dav">    0.01    0.01</time>
   <time name="total">    0.03    0.04</time>
   <energy>
    <i name="alphaZ">      4.62669064 </i>
    <i name="ewald">   -269.62121788 </i>
    <i name="hartreedc">     -2.05081307 </i>
    <i name="XCdc">    -17.33364303 </i>
    <i name="pawpsdc">     71.29694811 </i>
    <i name="pawaedc">    -36.22545737 </i>
    <i name="eentropy">     -0.05641896 </i>
    <i name="bandstr">     30.88382416 </i>
    <i name="atom">    206.12968587 </i>
    <i name="e_fr_energy">    -12.35040153 </i>
    <i name="e_wo_entrp">    -12.29398257 </i>
    <i name="e_0_energy">    -12.32219205 </i>
   </energy>
  </scstep>
  <structure>
   <crystal>
    <varray name="basis" >
     <v>      -2.33608073       2.33608073       1.33323797 </v>
     <v>       2.33608073      -2.33608073       1.33323797 </v>
     <v>       2.33608073       2.33608073      -1.33323797 </v>
    </varray>
    <i name="volume">     29.10337521 </i>
    <varray name="rec_basis" >
     <v>       0.00000000       0.21403370       0.37502682 </v>
     <v>       0.21403370       0.00000000       0.37502682 </v>
     <v>       0.21403370       0.21403370       0.00000000 </v>
    </varray>
   </crystal>
   <varray name="positions" >
    <v>       0.25000000       0.75000000       0.50000000 </v>
    <v>       0.00000000       0.00000000       0.00000000 </v>
   </varray>
  </structure>
  <varray name="forces" >
   <v>       0.00000000      -0.00000000       0.00000000 </v>
   <v>      -0.00000000       0.00000000      -0.00000000 </v>
  </varray>
  <varray name="stress" >
   <v>     -14.47945047       0.00000000      -0.00000000 </v>
   <v>       0.00000000     -14.47945047       0.00000000 </v>
   <v>      -0.00000000       0.00000000     -30.83093186 </v>
  </varray>
  <energy>
   <i name="e_fr_energy">    -12.35040153 </i>
   <i name="e_wo_entrp">    -12.32219205 </i>
   <i name="e_0_energy">     -0.05641896 </i>
  </energy>
  <time name="totalsc">    0.18    0.25</time>
 </calculation>
 <calculation>
  <scstep>
   <time name="dav">    0.01    0.01</time>
   <time name="total">    0.04    0.04</time>
   <energy>
    <i name="alphaZ">      4.62668870 </i>
    <i name="ewald">   -269.62118387 </i>
    <i name="hartreedc">     -2.05081297 </i>
    <i name="XCdc">    -17.33364582 </i>
    <i name="pawpsdc">     71.29692818 </i>
    <i name="pawaedc">    -36.22543692 </i>
    <i name="eentropy">     -0.05641896 </i>
    <i name="bandstr">     30.88379425 </i>
    <i name="atom">    206.12968587 </i>
    <i name="e_fr_energy">    -12.35040152 </i>
    <i name="e_wo_entrp">    -12.29398256 </i>
    <i name="e_0_energy">    -12.32219204 </i>
   </energy>
  </scstep>
  <scstep>
   <time name="dav">    0.01    0.01</time>
   <time name="total">    0.03    0.04</time>
   <energy>
    <i name="alphaZ">      4.62668870 </i>
    <i name="ewald">   -269.62118387 </i>
    <i name="hartreedc">     -2.05081315 </i>
    <i name="XCdc">    -17.33364601 </i>
    <i name="pawpsdc">     71.29692059 </i>
    <i name="pawaedc">    -36.22542912 </i>
    <i name="eentropy">     -0.05641896 </i>
    <i name="bandstr">     30.88379441 </i>
    <i name="atom">    206.12968587 </i>
    <i name="e_fr_energy">    -12.35040152 </i>
    <i name="e_wo_entrp">    -12.29398256 </i>
    <i name="e_0_energy">    -12.32219204 </i>
   </energy>
  </scstep>
  <structure>
   <crystal>
    <varray name="basis" >
     <v>      -2.33608162       2.33608162       1.33323751 </v>
     <v>       2.33608162      -2.33608162       1.33323751 </v>
     <v>       2.33608162       2.33608162      -1.33323751 </v>
    </varray>
    <i name="volume">     29.10338737 </i>
    <varray name="rec_basis" >
     <v>      -0.00000000       0.21403362       0.37502695 </v>
     <v>       0.21403362      -0.00000000       0.37502695 </v>
     <v>       0.21403362       0.21403362       0.00000000 </v>
    </varray>
   </crystal>
   <varray name="positions" >
    <v>       0.25000000       0.75000000       0.50000000 </v>
    <v>       0.00000000       0.00000000       0.00000000 </v>
   </varray>
  </structure>
  <varray name="forces" >
   <v>      -0.00000000      -0.00000000      -0.00000000 </v>
   <v>       0.00000000       0.00000000       0.00000000 </v>
  </varray>
  <varray name="stress" >
   <v>     -14.48175896      -0.00000000       0.00000000 </v>
   <v>      -0.00000000     -14.48175896      -0.00000000 </v>
   <v>       0.00000000      -0.00000000     -30.82882875 </v>
  </varray>
  <energy>
   <i name="e_fr_energy">    -12.35040152 </i>
   <i name="e_wo_entrp">    -12.32219204 </i>
   <i name="e_0_energy">     -0.05641896 </i>
  </energy>
  <time name="totalsc">    0.18    0.25</time>
 </calculation>
 <calculation>
  <scstep>
   <time name="dav">    0.01    0.01</time>
   <time name="total">    0.04    0.04</time>
   <energy>
    <i name="alphaZ">      4.62668774 </i>
    <i name="ewald">   -269.62116686 </i>
    <i name="hartreedc">     -2.05081311 </i>
    <i name="XCdc">    -17.33364740 </i>
    <i name="pawpsdc">     71.29691059 </i>
    <i name="pawaedc">    -36.22541885 </i>
    <i name="eentropy">     -0.05641896 </i>
    <i name="bandstr">     30.88377946 </i>
    <i name="atom">    206.12968587 </i>
    <i name="e_fr_energy">    -12.35040152 </i>
    <i name="e_wo_entrp">    -12.29398256 </i>
    <i name="e_0_energy">    -12.32219204 </i>
   </energy>
  </scstep>
  <scstep>
   <time name="dav">    0.01    0.01</time>
   <time name="total">    0.03    0.12</time>
   <energy>
    <i name="alphaZ">      4.62668774 </i>
    <i name="ewald">   -269.62116686 </i>
    <i name="hartreedc">     -2.05081320 </i>
    <i name="XCdc">    -17.33364749 </i>
    <i name="pawpsdc">     71.29690678 </i>
    <i name="pawaedc">    -36.22541493 </i>
    <i name="eentropy">     -0.05641896 </i>
    <i name="bandstr">     30.88377954 </i>
    <i name="atom">    206.12968587 </i>
    <i name="e_fr_energy">    -12.35040152 </i>
    <i name="e_wo_entrp">    -12.29398256 </i>
    <i name="e_0_energy">    -12.32219204 </i>
   </energy>
  </scstep>
  <structure>
   <crystal>
    <varray name="basis" >
     <v>      -2.33608207       2.33608207       1.33323727 </v>
     <v>       2.33608207      -2.33608207       1.33323727 </v>
     <v>       2.33608207       2.33608207      -1.33323727 </v>
    </varray>
    <i name="volume">     29.10339345 </i>
    <varray name="rec_basis" >
     <v>      -0.00000000       0.21403358       0.37502702 </v>
     <v>       0.21403358      -0.00000000       0.37502702 </v>
     <v>       0.21403358       0.21403358      -0.00000000 </v>
    </varray>
   </crystal>
   <varray name="positions" >
    <v>       0.25000000       0.75000000       0.50000000 </v>
    <v>       0.00000000       0.00000000       0.00000000 </v>
   </varray>
  </structure>
  <varray name="forces" >
   <v>       0.00000000      -0.00000000      -0.00000000 </v>
   <v>      -0.00000000       0.00000000       0.00000000 </v>
  </varray>
  <varray name="stress" >
   <v>     -14.48291305      -0.00000000      -0.00000000 </v>
   <v>      -0.00000000     -14.48291305       0.00000000 </v>
   <v>      -0.00000000       0.00000000     -30.82777691 </v>
  </varray>
  <energy>
   <i name="e_fr_energy">    -12.35040152 </i>
   <i name="e_wo_entrp">    -12.32219204 </i>
   <i name="e_0_energy">     -0.05641896 </i>
  </energy>
  <time name="totalsc">    0.18    0.36</time>
 </calculation>
 <calculation>
  <scstep>
   <time name="dav">    0.01    0.01</time>
   <time name="total">    0.04    0.05</time>
   <energy>
    <i name="alphaZ">      4.62668725 </i>
    <i name="ewald">   -269.62115836 </i>
    <i name="hartreedc">     -2.05081318 </i>
    <i name="XCdc">    -17.33364819 </i>
    <i name="pawpsdc">     71.29690177 </i>
    <i name="pawaedc">    -36.22540980 </i>
    <i name="eentropy">     -0.05641896 </i>
    <i name="bandstr">     30.88377207 </i>
    <i name="atom">    206.12968587 </i>
    <i name="e_fr_energy">    -12.35040151 </i>
    <i name="e_wo_entrp">    -12.29398256 </i>
    <i name="e_0_energy">    -12.32219204 </i>
   </energy>
  </scstep>
  <scstep>
   <time name="dav">    0.01    0.01</time>
   <time name="total">    0.03    0.04</time>
   <energy>
    <i name="alphaZ">      4.62668725 </i>
    <i name="ewald">   -269.62115836 </i>
    <i name="hartreedc">     -2.05081323 </i>
    <i name="XCdc">    -17.33364824 </i>
    <i name="pawpsdc">     71.29689986 </i>
    <i name="pawaedc">    -36.22540783 </i>
    <i name="eentropy">     -0.05641896 </i>
    <i name="bandstr">     30.88377210 </i>
    <i name="atom">    206.12968587 </i>
    <i name="e_fr_energy">    -12.35040151 </i>
    <i name="e_wo_entrp">    -12.29398256 </i>
    <i name="e_0_energy">    -12.32219204 </i>
   </energy>
  </scstep>
  <structure>
   <crystal>
    <varray name="basis" >
     <v>      -2.33608229       2.33608229       1.33323716 </v>
     <v>       2.33608229      -2.33608229       1.33323716 </v>
     <v>       2.33608229       2.33608229      -1.33323716 </v>
    </varray>
    <i name="volume">     29.10339650 </i>
    <varray name="rec_basis" >
     <v>      -0.00000000       0.21403356       0.37502705 </v>
     <v>       0.21403356      -0.00000000       0.37502705 </v>
     <v>       0.21403356       0.21403356      -0.00000000 </v>
    </varray>
   </crystal>
   <varray name="positions" >
    <v>       0.25000000       0.75000000       0.50000000 </v>
    <v>       0.00000000       0.00000000       0.00000000 </v>
   </varray>
  </structure>
  <varray name="forces" >
   <v>       0.00000000       0.00000000      -0.00000000 </v>
   <v>      -0.00000000      -0.00000000       0.00000000 </v>
  </varray>
  <varray name="stress" >
   <v>     -14.48349027      -0.00000000       0.00000000 </v>
   <v>      -0.00000000     -14.48349027       0.00000000 </v>
   <v>       0.00000000       0.00000000     -30.82725077 </v>
  </varray>
  <energy>
   <i name="e_fr_energy">    -12.35040151 </i>
   <i name="e_wo_entrp">    -12.32219204 </i>
   <i name="e_0_energy">     -0.05641896 </i>
  </energy>
  <time name="totalsc">    0.19    0.34</time>
  <eigenvalues>
   <array>
    <dimension dim="1">band</dimension>
    <dimension dim="2">kpoint</dimension>
    <dimension dim="3">spin</dimension>
    <field>eigene</field>
    <field>occ</field>
    <set>
     <set comment="spin 1">
      <set comment="kpoint 1">
       <r>    3.1958    1.0000 </r>
       <r>    3.1958    1.0000 </r>
       <r>    4.3562    1.0000 </r>
       <r>    4.3562    1.0000 </r>
       <r>   14.0446    0.0000 </r>
       <r>   14.0446    0.0000 </r>
       <r>   16.1646    0.0000 </r>
       <r>   16.1646    0.0000 </r>
      </set>
      <set comment="kpoint 2">
       <r>   -2.7862    1.0000 </r>
       <r>    3.0978    1.0000 </r>
       <r>    4.2075    1.0000 </r>
       <r>    9.8146    0.5000 </r>
       <r>   14.5267    0.0000 </r>
       <r>   16.2994    0.0000 </r>
       <r>   17.3673    0.0000 </r>
       <r>   17.5225    0.0000 </r>
      </set>
      <set comment="kpoint 3">
       <r>    0.5292    1.0000 </r>
       <r>    6.3750    1.0000 </r>
       <r>    6.5425    1.0000 </r>
       <r>    7.1820    1.0000 </r>
       <r>    7.1820    1.0000 </r>
       <r>   12.9937    0.0000 </r>
       <r>   12.9937    0.0000 </r>
       <r>   13.1862    0.0000 </r>
      </set>
     </set>
    </set>
   </array>
  </eigenvalues>
  <separator name="orbital magnetization" >
   <v name="MAGDIPOLOUT">      0.00000000      0.00000000      0.00000000</v>
  </separator>
  <dos>
   <i name="efermi">      9.81463364 </i>
   <total>
    <array>
     <dimension dim="1">gridpoints</dimension>
     <dimension dim="2">spin</dimension>
     <field>energy</field>
     <field>total</field>
     <field>integrated</field>
     <set>
      <set comment="spin 1">
       <r>    -4.7862     0.0000     0.0000 </r>
       <r>    -4.7052     0.0000     0.0000 </r>
       <r>    -4.6241     0.0000     0.0000 </r>
       <r>    -4.5431     0.0000     0.0000 </r>
       <r>    -4.4621     0.0000     0.0000 </r>
       <r>    -4.3810     0.0000     0.0000 </r>
       <r>    -4.3000     0.0000     0.0000 </r>
       <r>    -4.2190     0.0000     0.0000 </r>
       <r>    -4.1380     0.0000     0.0000 </r>
       <r>    -4.0569     0.0000     0.0000 </r>
       <r>    -3.9759     0.0000     0.0000 </r>
       <r>    -3.8949     0.0000     0.0000 </r>
       <r>    -3.8138     0.0000     0.0000 </r>
       <r>    -3.7328     0.0000     0.0000 </r>
       <r>    -3.6518     0.0000     0.0000 </r>
       <r>    -3.5708     0.0000     0.0000 </r>
       <r>    -3.4897     0.0000     0.0000 </r>
       <r>    -3.4087     0.0001     0.0000 </r>
       <r>    -3.3277     0.0007     0.0001 </r>
       <r>    -3.2466     0.0062     0.0006 </r>
       <r>    -3.1656     0.0381     0.0036 </r>
       <r>    -3.0846     0.1701     0.0174 </r>
       <r>    -3.0036     0.5518     0.0621 </r>
       <r>    -2.9225     1.3003     0.1675 </r>
       <r>    -2.8415     2.2258     0.3479 </r>
       <r>    -2.7605     2.7681     0.5722 </r>
       <r>    -2.6794     2.5012     0.7748 </r>
       <r>    -2.5984     1.6420     0.9079 </r>
       <r>    -2.5174     0.7831     0.9713 </r>
       <r>    -2.4363     0.2713     0.9933 </r>
       <r>    -2.3553     0.0682     0.9988 </r>
       <r>    -2.2743     0.0125     0.9999 </r>
       <r>    -2.1933     0.0017     1.0000 </r>
       <r>    -2.1122     0.0002     1.0000 </r>
       <r>    -2.0312     0.0000     1.0000 </r>
       <r>    -1.9502     0.0000     1.0000 </r>
       <r>    -1.8691     0.0000     1.0000 </r>
       <r>    -1.7881     0.0000     1.0000 </r>
       <r>    -1.7071     0.0000     1.0000 </r>
       <r>    -1.6261     0.0000     1.0000 </r>
       <r>    -1.5450     0.0000     1.0000 </r>
       <r>    -1.4640     0.0000     1.0000 </r>
       <r>    -1.3830     0.0000     1.0000 </r>
       <r>    -1.3019     0.0000     1.0000 </r>
       <r>    -1.2209     0.0000     1.0000 </r>
       <r>    -1.1399     0.0000     1.0000 </r>
       <r>    -1.0589     0.0000     1.0000 </r>
       <r>    -0.9778     0.0000     1.0000 </r>
       <r>    -0.8968     0.0000     1.0000 </r>
       <r>    -0.8158     0.0000     1.0000 </r>
       <r>    -0.7347     0.0000     1.0000 </r>
       <r>    -0.6537     0.0000     1.0000 </r>
       <r>    -0.5727     0.0000     1.0000 </r>
       <r>    -0.4917     0.0000     1.0000 </r>
       <r>    -0.4106     0.0000     1.0000 </r>
       <r>    -0.3296     0.0000     1.0000 </r>
       <r>    -0.2486     0.0000     1.0000 </r>
       <r>    -0.1675     0.0000     1.0000 </r>
       <r>    -0.0865     0.0000     1.0000 </r>
       <r>    -0.0055     0.0004     1.0000 </r>
       <r>     0.0755     0.0036     1.0003 </r>
       <r>     0.1566     0.0218     1.0021 </r>
       <r>     0.2376     0.0950     1.0098 </r>
       <r>     0.3186     0.3001     1.0341 </r>
       <r>     0.3997     0.6885     1.0899 </r>
       <r>     0.4807     1.1474     1.1829 </r>
       <r>     0.5617     1.3892     1.2955 </r>
       <r>     0.6427     1.2222     1.3945 </r>
       <r>     0.7238     0.7812     1.4578 </r>
       <r>     0.8048     0.3627     1.4872 </r>
       <r>     0.8858     0.1223     1.4971 </r>
       <r>     0.9669     0.0300     1.4995 </r>
       <r>     1.0479     0.0053     1.4999 </r>
       <r>     1.1289     0.0007     1.5000 </r>
       <r>     1.2099     0.0001     1.5000 </r>
       <r>     1.2910     0.0000     1.5000 </r>
       <r>     1.3720     0.0000     1.5000 </r>
       <r>     1.4530     0.0000     1.5000 </r>
       <r>     1.5341     0.0000     1.5000 </r>
       <r>     1.6151     0.0000     1.5000 </r>
       <r>     1.6961     0.0000     1.5000 </r>
       <r>     1.7771     0.0000     1.5000 </r>
       <r>     1.8582     0.0000     1.5000 </r>
       <r>     1.9392     0.0000     1.5000 </r>
       <r>     2.0202     0.0000     1.5000 </r>
       <r>     2.1013     0.0000     1.5000 </r>
       <r>     2.1823     0.0000     1.5000 </r>
       <r>     2.2633     0.0000     1.5000 </r>
       <r>     2.3443     0.0000     1.5000 </r>
       <r>     2.4254     0.0000     1.5000 </r>
       <r>     2.5064     0.0002     1.5000 </r>
       <r>     2.5874     0.0018     1.5002 </r>
       <r>     2.6685     0.0140     1.5013 </r>
       <r>     2.7495     0.0790     1.5077 </r>
       <r>     2.8305     0.3283     1.5343 </r>
       <r>     2.9116     1.0104     1.6162 </r>
       <r>     2.9926     2.3161     1.8038 </r>
       <r>     3.0736     3.9751     2.1259 </r>
       <r>     3.1546     5.1308     2.5417 </r>
       <r>     3.2357     4.9924     2.9462 </r>
       <r>     3.3167     3.6612     3.2429 </r>
       <r>     3.3977     2.0178     3.4064 </r>
       <r>     3.4788     0.8318     3.4738 </r>
       <r>     3.5598     0.2551     3.4944 </r>
       <r>     3.6408     0.0582     3.4991 </r>
       <r>     3.7218     0.0130     3.5002 </r>
       <r>     3.8029     0.0241     3.5021 </r>
       <r>     3.8839     0.1152     3.5115 </r>
       <r>     3.9649     0.4258     3.5460 </r>
       <r>     4.0460     1.1702     3.6408 </r>
       <r>     4.1270     2.4228     3.8371 </r>
       <r>     4.2080     3.8470     4.1488 </r>
       <r>     4.2890     4.7702     4.5354 </r>
       <r>     4.3701     4.6719     4.9139 </r>
       <r>     4.4511     3.6098     5.2064 </r>
       <r>     4.5321     2.1717     5.3824 </r>
       <r>     4.6132     0.9987     5.4633 </r>
       <r>     4.6942     0.3450     5.4913 </r>
       <r>     4.7752     0.0884     5.4984 </r>
       <r>     4.8562     0.0166     5.4998 </r>
       <r>     4.9373     0.0023     5.5000 </r>
       <r>     5.0183     0.0002     5.5000 </r>
       <r>     5.0993     0.0000     5.5000 </r>
       <r>     5.1804     0.0000     5.5000 </r>
       <r>     5.2614     0.0000     5.5000 </r>
       <r>     5.3424     0.0000     5.5000 </r>
       <r>     5.4234     0.0000     5.5000 </r>
       <r>     5.5045     0.0000     5.5000 </r>
       <r>     5.5855     0.0000     5.5000 </r>
       <r>     5.6665     0.0000     5.5000 </r>
       <r>     5.7476     0.0000     5.5000 </r>
       <r>     5.8286     0.0003     5.5000 </r>
       <r>     5.9096     0.0028     5.5003 </r>
       <r>     5.9906     0.0175     5.5017 </r>
       <r>     6.0717     0.0808     5.5082 </r>
       <r>     6.1527     0.2746     5.5305 </r>
       <r>     6.2337     0.6943     5.5867 </r>
       <r>     6.3148     1.3287     5.6944 </r>
       <r>     6.3958     1.9715     5.8541 </r>
       <r>     6.4768     2.3276     6.0427 </r>
       <r>     6.5578     2.2202     6.2226 </r>
       <r>     6.6389     1.7037     6.3607 </r>
       <r>     6.7199     1.0338     6.4445 </r>
       <r>     6.8009     0.5124     6.4860 </r>
       <r>     6.8820     0.3305     6.5127 </r>
       <r>     6.9630     0.5826     6.5600 </r>
       <r>     7.0440     1.2895     6.6644 </r>
       <r>     7.1250     2.2093     6.8435 </r>
       <r>     7.2061     2.7646     7.0675 </r>
       <r>     7.2871     2.5146     7.2712 </r>
       <r>     7.3681     1.6619     7.4059 </r>
       <r>     7.4492     0.7979     7.4705 </r>
       <r>     7.5302     0.2782     7.4931 </r>
       <r>     7.6112     0.0705     7.4988 </r>
       <r>     7.6922     0.0129     7.4998 </r>
       <r>     7.7733     0.0017     7.5000 </r>
       <r>     7.8543     0.0002     7.5000 </r>
       <r>     7.9353     0.0000     7.5000 </r>
       <r>     8.0164     0.0000     7.5000 </r>
       <r>     8.0974     0.0000     7.5000 </r>
       <r>     8.1784     0.0000     7.5000 </r>
       <r>     8.2595     0.0000     7.5000 </r>
       <r>     8.3405     0.0000     7.5000 </r>
       <r>     8.4215     0.0000     7.5000 </r>
       <r>     8.5025     0.0000     7.5000 </r>
       <r>     8.5836     0.0000     7.5000 </r>
       <r>     8.6646     0.0000     7.5000 </r>
       <r>     8.7456     0.0000     7.5000 </r>
       <r>     8.8267     0.0000     7.5000 </r>
       <r>     8.9077     0.0000     7.5000 </r>
       <r>     8.9887     0.0000     7.5000 </r>
       <r>     9.0697     0.0000     7.5000 </r>
       <r>     9.1508     0.0000     7.5000 </r>
       <r>     9.2318     0.0002     7.5000 </r>
       <r>     9.3128     0.0022     7.5002 </r>
       <r>     9.3939     0.0157     7.5015 </r>
       <r>     9.4749     0.0824     7.5081 </r>
       <r>     9.5559     0.3150     7.5337 </r>
       <r>     9.6369     0.8738     7.6045 </r>
       <r>     9.7180     1.7607     7.7471 </r>
       <r>     9.7990     2.5774     7.9560 </r>
       <r>     9.8800     2.7413     8.1781 </r>
       <r>     9.9611     2.1184     8.3497 </r>
       <r>    10.0421     1.1893     8.4461 </r>
       <r>    10.1231     0.4850     8.4854 </r>
       <r>    10.2041     0.1437     8.4971 </r>
       <r>    10.2852     0.0309     8.4996 </r>
       <r>    10.3662     0.0048     8.5000 </r>
       <r>    10.4472     0.0005     8.5000 </r>
       <r>    10.5283     0.0000     8.5000 </r>
       <r>    10.6093     0.0000     8.5000 </r>
       <r>    10.6903     0.0000     8.5000 </r>
       <r>    10.7713     0.0000     8.5000 </r>
       <r>    10.8524     0.0000     8.5000 </r>
       <r>    10.9334     0.0000     8.5000 </r>
       <r>    11.0144     0.0000     8.5000 </r>
       <r>    11.0955     0.0000     8.5000 </r>
       <r>    11.1765     0.0000     8.5000 </r>
       <r>    11.2575     0.0000     8.5000 </r>
       <r>    11.3385     0.0000     8.5000 </r>
       <r>    11.4196     0.0000     8.5000 </r>
       <r>    11.5006     0.0000     8.5000 </r>
       <r>    11.5816     0.0000     8.5000 </r>
       <r>    11.6627     0.0000     8.5000 </r>
       <r>    11.7437     0.0000     8.5000 </r>
       <r>    11.8247     0.0000     8.5000 </r>
       <r>    11.9057     0.0000     8.5000 </r>
       <r>    11.9868     0.0000     8.5000 </r>
       <r>    12.0678     0.0000     8.5000 </r>
       <r>    12.1488     0.0000     8.5000 </r>
       <r>    12.2299     0.0000     8.5000 </r>
       <r>    12.3109     0.0000     8.5000 </r>
       <r>    12.3919     0.0001     8.5000 </r>
       <r>    12.4729     0.0013     8.5001 </r>
       <r>    12.5540     0.0102     8.5009 </r>
       <r>    12.6350     0.0578     8.5056 </r>
       <r>    12.7160     0.2392     8.5250 </r>
       <r>    12.7971     0.7236     8.5836 </r>
       <r>    12.8781     1.6099     8.7141 </r>
       <r>    12.9591     2.6695     8.9304 </r>
       <r>    13.0401     3.3771     9.2040 </r>
       <r>    13.1212     3.3768     9.4777 </r>
       <r>    13.2022     2.7723     9.7023 </r>
       <r>    13.2832     1.9032     9.8565 </r>
       <r>    13.3643     1.0748     9.9436 </r>
       <r>    13.4453     0.4809     9.9826 </r>
       <r>    13.5263     0.1657     9.9960 </r>
       <r>    13.6073     0.0526    10.0003 </r>
       <r>    13.6884     0.0682    10.0058 </r>
       <r>    13.7694     0.2471    10.0258 </r>
       <r>    13.8504     0.7287    10.0849 </r>
       <r>    13.9315     1.5669    10.2118 </r>
       <r>    14.0125     2.4491    10.4103 </r>
       <r>    14.0935     2.7899    10.6363 </r>
       <r>    14.1746     2.3564    10.8273 </r>
       <r>    14.2556     1.6349    10.9597 </r>
       <r>    14.3366     1.3610    11.0700 </r>
       <r>    14.4176     1.8042    11.2162 </r>
       <r>    14.4987     2.5260    11.4209 </r>
       <r>    14.5797     2.7795    11.6461 </r>
       <r>    14.6607     2.2501    11.8284 </r>
       <r>    14.7418     1.3259    11.9359 </r>
       <r>    14.8228     0.5677    11.9819 </r>
       <r>    14.9038     0.1766    11.9962 </r>
       <r>    14.9848     0.0399    11.9994 </r>
       <r>    15.0659     0.0065    11.9999 </r>
       <r>    15.1469     0.0008    12.0000 </r>
       <r>    15.2279     0.0001    12.0000 </r>
       <r>    15.3090     0.0000    12.0000 </r>
       <r>    15.3900     0.0000    12.0000 </r>
       <r>    15.4710     0.0000    12.0000 </r>
       <r>    15.5520     0.0001    12.0000 </r>
       <r>    15.6331     0.0010    12.0001 </r>
       <r>    15.7141     0.0081    12.0007 </r>
       <r>    15.7951     0.0485    12.0047 </r>
       <r>    15.8762     0.2146    12.0221 </r>
       <r>    15.9572     0.7022    12.0790 </r>
       <r>    16.0382     1.7166    12.2181 </r>
       <r>    16.1192     3.1768    12.4755 </r>
       <r>    16.2003     4.5132    12.8412 </r>
       <r>    16.2813     4.9767    13.2444 </r>
       <r>    16.3623     4.2748    13.5908 </r>
       <r>    16.4434     2.8447    13.8213 </r>
       <r>    16.5244     1.4490    13.9387 </r>
       <r>    16.6054     0.5571    13.9839 </r>
       <r>    16.6864     0.1596    13.9968 </r>
       <r>    16.7675     0.0339    13.9995 </r>
       <r>    16.8485     0.0066    14.0001 </r>
       <r>    16.9295     0.0114    14.0010 </r>
       <r>    17.0106     0.0615    14.0060 </r>
       <r>    17.0916     0.2567    14.0268 </r>
       <r>    17.1726     0.7928    14.0910 </r>
       <r>    17.2536     1.8324    14.2395 </r>
       <r>    17.3347     3.2266    14.5009 </r>
       <r>    17.4157     4.4206    14.8591 </r>
       <r>    17.4967     4.7970    15.2478 </r>
       <r>    17.5778     4.1462    15.5838 </r>
       <r>    17.6588     2.8268    15.8129 </r>
       <r>    17.7398     1.4907    15.9336 </r>
       <r>    17.8208     0.5956    15.9819 </r>
       <r>    17.9019     0.1774    15.9963 </r>
       <r>    17.9829     0.0389    15.9994 </r>
       <r>    18.0639     0.0063    15.9999 </r>
       <r>    18.1450     0.0007    16.0000 </r>
       <r>    18.2260     0.0001    16.0000 </r>
       <r>    18.3070     0.0000    16.0000 </r>
       <r>    18.3880     0.0000    16.0000 </r>
       <r>    18.4691     0.0000    16.0000 </r>
       <r>    18.5501     0.0000    16.0000 </r>
       <r>    18.6311     0.0000    16.0000 </r>
       <r>    18.7122     0.0000    16.0000 </r>
       <r>    18.7932     0.0000    16.0000 </r>
       <r>    18.8742     0.0000    16.0000 </r>
       <r>    18.9552     0.0000    16.0000 </r>
       <r>    19.0363     0.0000    16.0000 </r>
       <r>    19.1173     0.0000    16.0000 </r>
       <r>    19.1983     0.0000    16.0000 </r>
       <r>    19.2794     0.0000    16.0000 </r>
       <r>    19.3604     0.0000    16.0000 </r>
       <r>    19.4414     0.0000    16.0000 </r>
       <r>    19.5225     0.0000    16.0000 </r>
      </set>
     </set>
    </array>
   </total>
  </dos>
 </calculation>
 <structure name="finalpos" >
  <crystal>
   <varray name="basis" >
    <v>      -2.33608229       2.33608229       1.33323716 </v>
    <v>       2.33608229      -2.33608229       1.33323716 </v>
    <v>       2.33608229       2.33608229      -1.33323716 </v>
   </varray>
   <i name="volume">     29.10339650 </i>
   <varray name="rec_basis" >
    <v>      -0.00000000       0.21403356       0.37502705 </v>
    <v>       0.21403356      -0.00000000       0.37502705 </v>
    <v>       0.21403356       0.21403356      -0.00000000 </v>
   </varray>
  </crystal>
  <varray name="positions" >
   <v>       0.25000000       0.75000000       0.50000000 </v>
   <v>       0.00000000       0.00000000       0.00000000 </v>
  </varray>
 </structure>
</modeling>
