unknown system                          
   1.00000000000000     
    -2.427915    2.427915    1.337219
     2.427915   -2.427915    1.337219
     2.427915    2.427915   -1.337219
   Si
     2
Direct
  0.750000  0.250000  0.500000
  0.500000  0.500000  0.000000
 
   36   36   36
  9.7260      9.6563      9.4536      9.1354      8.7265      8.2548      7.7458      7.2210      6.6964      6.1849    
  5.6974      5.2448      4.8376      4.4848      4.1932      3.9662      3.8051      3.7091      3.6773      3.7091    
  3.8051      3.9662      4.1932      4.4848      4.8376      5.2448      5.6974      6.1849      6.6964      7.2210    
  7.7458      8.2547      8.7265      9.1354      9.4537      9.6564      9.6564      9.8105      9.8232      9.6978    
  9.4487      9.0982      8.6714      8.1923      7.6806      7.1526      6.6218      6.1018      5.6064      5.1497    
  4.7438      4.3979      4.1173      3.9039      3.7576      3.6771      3.6615      3.7108      3.8257      4.0069    
  4.2538      4.5641      4.9333      5.3551      5.8224      6.3275      6.8618      7.4134      7.9656      8.4954    
  8.9740      9.3705      9.4537      9.8232      10.058      10.146      10.087      9.8944      9.5890      9.1943    
  8.7328      8.2232      7.6812      7.1210      6.5580      6.0094      5.4928      5.0240      4.6153      4.2743    
  4.0043      3.8055      3.6767      3.6164      3.6239      3.6995      3.8435      4.0557      4.3348      4.6781    
  5.0823      5.5435      6.0569      6.6157      7.2087      7.8177      8.4170      8.9740      9.1354      9.6978    
  10.146      10.452      10.601      10.594      10.443      10.169      9.7945      9.3416      8.8267      8.2639    
  7.6672      7.0535      6.4429      5.8574      5.3172      4.8387      4.4322      4.1028      3.8513      3.6762    
  3.5753      3.5471      3.5909      3.7066      3.8942      4.1534      4.4837      4.8843      5.3544      5.8917    
  6.4908      7.1396      7.8177      8.4954      8.7265      9.4487      10.087      10.601      10.961      11.153    
  11.179      11.053      10.798      10.437      9.9888      9.4660      8.8798      8.2429      7.5730      6.8938    
  6.2321      5.6141      5.0606      4.5858      4.1964      3.8938      3.6759      3.5396      3.4821      3.5019    
  3.5983      3.7716      4.0226      4.3528      4.7643      5.2589      5.8363      6.4908      7.2087      7.9656    
  8.2547      9.0982      9.8944      10.594      11.153      11.543      11.748      11.774      11.650      11.407    
  11.068      10.637      10.115      9.5070      8.8291      8.0998      7.3471      6.6043      5.9041      5.2733    
  4.7296      4.2819      3.9317      3.6759      3.5103      3.4306      3.4342      3.5202      3.6893      3.9436    
  4.2870      4.7241      5.2589      5.8917      6.6157      7.4134      7.7458      8.6714      9.5890      10.443    
  11.179      11.748      12.108      12.258      12.236      12.094      11.874      11.587      11.216      10.733    
  10.123      9.4060      8.6161      7.7873      6.9607      6.1768      5.4689      4.8587      4.3565      3.9637    
  3.6762      3.4879      3.3933      3.3887      3.4731      3.6479      3.9172      4.2870      4.7643      5.3544    
  6.0569      6.8618      7.2210      8.1923      9.1943      10.169      11.053      11.774      12.258      12.488    
  12.508      12.400      12.243      12.080      11.902      11.654      11.267      10.696      9.9545      9.1040    
  8.1984      7.2879      6.4219      5.6402      4.9682      4.4176      3.9890      3.6767      3.4730      3.3708    
  3.3659      3.4574      3.6479      3.9436      4.3528      4.8843      5.5435      6.3275      6.6964      7.6806    
  8.7328      9.7945      10.798      11.650      12.236      12.508      12.505      12.334      12.124      11.981    
  11.939      11.949      11.902      11.676      11.193      10.455      9.5469      8.5656      7.5739      6.6302    
  5.7807      5.0543      4.4630      4.0064      3.6771      3.4655      3.3633      3.3659      3.4731      3.6893    
  4.0226      4.4837      5.0823      5.8224      6.1849      7.1526      8.2232      9.3416      10.437      11.407    
  12.094      12.400      12.334      12.010      11.609      11.314      11.247      11.414      11.707      11.945    
  11.944      11.592      10.884      9.9298      8.8757      7.8078      6.7936      5.8850      5.1135      4.4909    
  4.0154      3.6773      3.4655      3.3708      3.3887      3.5202      3.7716      4.1534      4.6781      5.3551    
  5.6974      6.6218      7.6812      8.8267      9.9888      11.068      11.874      12.243      12.124      11.609    
  10.902      10.270      9.9446      10.044      10.527      11.201      11.801      12.079      11.888      11.230    
  10.240      9.1178      7.9811      6.9060      5.9493      5.1437      4.5004      4.0154      3.6771      3.4730    
  3.3933      3.4342      3.5983      3.8942      4.3348      4.9333      5.2448      6.1018      7.1210      8.2639    
  9.4660      10.637      11.587      12.080      11.981      11.314      10.270      9.1626      8.3411      8.0739    
  8.4536      9.3606      10.504      11.523      12.107      12.090      11.486      10.468      9.2837      8.0875    
  6.9633      5.9710      5.1437      4.4909      4.0064      3.6767      3.4879      3.4306      3.5019      3.7066    
  4.0557      4.5641      4.8376      5.6064      6.5580      7.6672      8.8798      10.115      11.216      11.902    
  11.939      11.247      9.9446      8.3411      6.8651      5.9403      5.8477      6.6257      8.0528      9.7233    
  11.183      12.072      12.215      11.654      10.607      9.3680      8.1235      6.9633      5.9493      5.1135    
  4.4630      3.9890      3.6762      3.5103      3.4821      3.5909      3.8435      4.2538      4.4848      5.1497    
  6.0094      7.0535      8.2429      9.5070      10.733      11.654      11.949      11.414      10.045      8.0739    
  5.9403      4.1808      3.2745      3.4849      4.7655      6.7735      8.9851      10.864      12.016      12.280    
  11.737      10.653      9.3680      8.0875      6.9060      5.8850      5.0543      4.4176      3.9637      3.6759    
  3.5396      3.5471      3.6995      4.0069      4.1932      4.7438      5.4928      6.4429      7.5730      8.8291    
  10.123      11.267      11.902      11.707      10.527      8.4536      5.8477      3.2745      1.3629     0.61732    
  1.2492      3.1014      5.6998      8.4113      10.638      11.978      12.300      11.737      10.607      9.2837    
  7.9811      6.7936      5.7807      4.9682      4.3565      3.9317      3.6759      3.5753      3.6239      3.8257    
  3.9662      4.3979      5.0240      5.8574      6.8938      8.0998      9.4060      10.696      11.676      11.945    
  11.201      9.3606      6.6257      3.4849     0.61732     -1.2848     -1.7291     -.58918      1.8493      4.9855    
  8.0980      10.557      11.978      12.280      11.654      10.468      9.1178      7.8078      6.6302      5.6402    
  4.8587      4.2819      3.8938      3.6762      3.6164      3.7108      3.8051      4.1173      4.6153      5.3172    
  6.2321      7.3472      8.6161      9.9545      11.193      11.944      11.801      10.504      8.0528      4.7655    
  1.2492     -1.7291     -3.4525     -3.4803     -1.7976      1.1774      4.7350      8.0980      10.638      12.016    
  12.215      11.486      10.240      8.8757      7.5739      6.4219      5.4689      4.7296      4.1964      3.8513    
  3.6767      3.6615      3.7091      3.9040      4.2743      4.8387      5.6141      6.6043      7.7873      9.1041    
  10.455      11.592      12.079      11.523      9.7233      6.7735      3.1014     -.58920     -3.4803     -4.8738    
 -4.4160     -2.2190      1.1774      4.9855      8.4113      10.864      12.072      12.090      11.230      9.9298    
  8.5656      7.2879      6.1768      5.2733      4.5858      4.1028      3.8055      3.6771      3.6773      3.7576    
  4.0043      4.4322      5.0606      5.9041      6.9607      8.1984      9.5469      10.884      11.888      12.107    
  11.183      8.9851      5.6998      1.8493     -1.7977     -4.4160     -5.3687     -4.4160     -1.7976      1.8493    
  5.6998      8.9851      11.183      12.107      11.888      10.884      9.5469      8.1984      6.9607      5.9041    
  5.0606      4.4322      4.0043      3.7576      3.7091      3.6771      3.8055      4.1028      4.5858      5.2733    
  6.1768      7.2879      8.5656      9.9298      11.230      12.090      12.072      10.864      8.4113      4.9854    
  1.1774     -2.2190     -4.4160     -4.8738     -3.4803     -.58918      3.1014      6.7735      9.7233      11.523    
  12.079      11.592      10.455      9.1040      7.7873      6.6043      5.6141      4.8387      4.2743      3.9039    
  3.8051      3.6615      3.6767      3.8514      4.1964      4.7297      5.4689      6.4219      7.5739      8.8757    
  10.240      11.486      12.215      12.016      10.638      8.0979      4.7350      1.1774     -1.7977     -3.4803    
 -3.4525     -1.7291      1.2492      4.7655      8.0528      10.504      11.801      11.944      11.193      9.9545    
  8.6161      7.3471      6.2321      5.3172      4.6153      4.1173      3.9662      3.7108      3.6164      3.6762    
  3.8938      4.2820      4.8587      5.6402      6.6302      7.8077      9.1177      10.468      11.654      12.280    
  11.978      10.557      8.0979      4.9854      1.8493     -.58920     -1.7291     -1.2848     0.61732      3.4849    
  6.6257      9.3606      11.201      11.945      11.676      10.696      9.4060      8.0998      6.8938      5.8574    
  5.0240      4.3979      4.1932      3.8257      3.6240      3.5753      3.6759      3.9317      4.3566      4.9683    
  5.7807      6.7935      7.9810      9.2836      10.607      11.737      12.300      11.978      10.638      8.4113    
  5.6998      3.1014      1.2492     0.61732      1.3629      3.2745      5.8477      8.4536      10.527      11.707    
  11.902      11.267      10.123      8.8291      7.5730      6.4429      5.4928      4.7438      4.4848      4.0069    
  3.6996      3.5471      3.5396      3.6760      3.9638      4.4176      5.0543      5.8850      6.9060      8.0875    
  9.3679      10.653      11.737      12.280      12.016      10.864      8.9851      6.7735      4.7655      3.4849    
  3.2745      4.1808      5.9403      8.0739      10.044      11.414      11.949      11.654      10.733      9.5070    
  8.2429      7.0535      6.0094      5.1497      4.8376      4.2538      3.8436      3.5909      3.4822      3.5103    
  3.6763      3.9890      4.4630      5.1135      5.9492      6.9632      8.1234      9.3679      10.607      11.654    
  12.215      12.072      11.183      9.7233      8.0528      6.6257      5.8477      5.9403      6.8651      8.3411    
  9.9446      11.247      11.939      11.902      11.216      10.115      8.8798      7.6672      6.5580      5.6064    
  5.2448      4.5641      4.0557      3.7066      3.5019      3.4306      3.4880      3.6767      4.0065      4.4909    
  5.1437      5.9709      6.9632      8.0875      9.2836      10.468      11.486      12.090      12.107      11.523    
  10.504      9.3606      8.4536      8.0739      8.3411      9.1626      10.270      11.314      11.981      12.080    
  11.587      10.637      9.4660      8.2639      7.1210      6.1018      5.6974      4.9333      4.3348      3.8942    
  3.5983      3.4342      3.3933      3.4730      3.6772      4.0154      4.5004      5.1437      5.9492      6.9060    
  7.9810      9.1177      10.240      11.230      11.888      12.079      11.801      11.201      10.527      10.045    
  9.9446      10.270      10.902      11.609      12.124      12.243      11.874      11.068      9.9888      8.8267    
  7.6812      6.6218      6.1849      5.3551      4.6781      4.1534      3.7716      3.5202      3.3888      3.3708    
  3.4655      3.6773      4.0154      4.4909      5.1135      5.8850      6.7935      7.8077      8.8757      9.9298    
  10.884      11.592      11.944      11.945      11.707      11.414      11.247      11.314      11.609      12.010    
  12.334      12.400      12.094      11.407      10.437      9.3416      8.2232      7.1526      6.6964      5.8224    
  5.0823      4.4836      4.0225      3.6892      3.4731      3.3659      3.3633      3.4655      3.6772      4.0065    
  4.4630      5.0543      5.7807      6.6302      7.5739      8.5656      9.5469      10.455      11.193      11.676    
  11.902      11.949      11.939      11.981      12.124      12.334      12.505      12.508      12.236      11.650    
  10.798      9.7945      8.7328      7.6806      7.2210      6.3275      5.5434      4.8843      4.3527      3.9436    
  3.6479      3.4574      3.3659      3.3708      3.4730      3.6767      3.9890      4.4176      4.9683      5.6402    
  6.4219      7.2879      8.1984      9.1041      9.9545      10.696      11.267      11.654      11.902      12.080    
  12.243      12.400      12.508      12.488      12.258      11.774      11.053      10.169      9.1943      8.1923    
  7.7458      6.8618      6.0569      5.3544      4.7643      4.2869      3.9172      3.6479      3.4731      3.3888    
  3.3933      3.4880      3.6763      3.9638      4.3566      4.8587      5.4689      6.1768      6.9607      7.7873    
  8.6161      9.4060      10.123      10.733      11.216      11.587      11.874      12.094      12.236      12.258    
  12.108      11.748      11.179      10.443      9.5890      8.6714      8.2548      7.4134      6.6157      5.8917    
  5.2589      4.7241      4.2869      3.9436      3.6892      3.5202      3.4342      3.4306      3.5103      3.6760    
  3.9317      4.2820      4.7297      5.2733      5.9041      6.6043      7.3472      8.0998      8.8291      9.5070    
  10.115      10.637      11.068      11.407      11.650      11.774      11.748      11.543      11.153      10.594    
  9.8944      9.0982      8.7265      7.9656      7.2087      6.4908      5.8363      5.2589      4.7643      4.3527    
  4.0225      3.7716      3.5983      3.5019      3.4822      3.5396      3.6759      3.8938      4.1964      4.5858    
  5.0606      5.6141      6.2321      6.8938      7.5730      8.2429      8.8798      9.4660      9.9888      10.437    
  10.798      11.053      11.179      11.153      10.961      10.601      10.087      9.4487      9.1354      8.4954    
  7.8177      7.1396      6.4908      5.8917      5.3544      4.8843      4.4836      4.1534      3.8942      3.7066    
  3.5909      3.5471      3.5753      3.6762      3.8514      4.1028      4.4322      4.8387      5.3172      5.8574    
  6.4429      7.0535      7.6672      8.2639      8.8267      9.3416      9.7945      10.169      10.443      10.594    
  10.601      10.452      10.146      9.6978      9.4536      8.9740      8.4170      7.8177      7.2087      6.6157    
  6.0569      5.5434      5.0823      4.6781      4.3348      4.0557      3.8436      3.6996      3.6240      3.6164    
  3.6767      3.8055      4.0043      4.2743      4.6153      5.0240      5.4928      6.0094      6.5580      7.1210    
  7.6812      8.2232      8.7328      9.1943      9.5890      9.8944      10.087      10.146      10.058      9.8232    
  9.6563      9.3705      8.9740      8.4954      7.9656      7.4134      6.8618      6.3275      5.8224      5.3551    
  4.9333      4.5641      4.2538      4.0069      3.8257      3.7108      3.6615      3.6771      3.7576      3.9040    
  4.1173      4.3979      4.7438      5.1497      5.6064      6.1018      6.6218      7.1526      7.6806      8.1923    
  8.6714      9.0982      9.4487      9.6978      9.8232      9.8105      9.6564      9.5466      9.3169      8.9848    
  8.5749      8.1136      7.6256      7.1308      6.6437      6.1750      5.7335      5.3275      4.9657      4.6557    
  4.4034      4.2126      4.0844      4.0189      4.0153      4.0737      4.1944      4.3782      4.6249      4.9322    
  5.2950      5.7048      6.1506      6.6202      7.1020      7.5846      8.0565      8.5036      8.9077      9.2469    
  9.4975      9.6387      9.5466      9.6564      9.6387      9.4975      9.2469      8.9077      8.5036      8.0565    
  7.5846      7.1020      6.6202      6.1506      5.7048      5.2950      4.9322      4.6248      4.3782      4.1944    
  4.0737      4.0153      4.0189      4.0844      4.2126      4.4034      4.6557      4.9657      5.3275      5.7335    
  6.1750      6.6437      7.1308      7.6256      8.1136      8.5749      8.9848      9.3169      9.3007      9.6221    
  9.8232      9.8931      9.8326      9.6529      9.3726      9.0128      8.5935      8.1313      7.6401      7.1324    
  6.6218      6.1236      5.6537      5.2268      4.8544      4.5439      4.2989      4.1199      4.0064      3.9575    
  3.9727      4.0524      4.1966      4.4044      4.6738      5.0007      5.3807      5.8085      6.2789      6.7850    
  7.3171      7.8594      8.3899      8.8805      8.9380      9.4487      9.8596      10.146      10.293      10.301    
  10.179      9.9445      9.6166      9.2137      8.7508      8.2407      7.6965      7.1341      6.5723      6.0314    
  5.5304      5.0846      4.7041      4.3941      4.1560      3.9890      3.8916      3.8628      3.9022      4.0095    
  4.1843      4.4254      4.7311      5.0997      5.5291      6.0167      6.5575      7.1412      7.7507      8.3603    
  8.4857      9.1525      9.7503      10.242      10.601      10.811      10.871      10.792      10.590      10.284    
  9.8892      9.4184      8.8824      8.2942      7.6714      7.0369      6.4159      5.8329      5.3074      4.8530    
  4.4768      4.1807      3.9638      3.8236      3.7580      3.7659      3.8464      3.9993      4.2247      4.5230    
  4.8951      5.3419      5.8628      6.4534      7.1026      7.7900      7.9737      8.7577      9.5094      10.184    
  10.741      11.153      11.405      11.498      11.444      11.264      10.976      10.588      10.107      9.5421    
  8.9051      8.2158      7.5016      6.7938      6.1231      5.5144      4.9850      4.5438      4.1933      3.9317    
  3.7554      3.6611      3.6464      3.7101      3.8524      4.0745      4.3792      4.7698      5.2496      5.8194    
  6.4744      7.2007      7.4302      8.2916      9.1595      9.9842      10.717      11.316      11.748      11.998    
  12.081      12.029      11.870      11.617      11.260      10.787      10.195      9.5074      8.7478      7.9493    
  7.1507      6.3898      5.6975      5.0949      4.5927      4.1933      3.8938      3.6892      3.5745      3.5462    
  3.6029      3.7454      3.9765      4.3010      4.7248      5.2529      5.8862      6.6180      6.8784      7.7802    
  8.7263      9.6655      10.542      11.303      11.886      12.258      12.434      12.463      12.403      12.286    
  12.107      11.828      11.406      10.815      10.079      9.2477      8.3631      7.4726      6.6223      5.8493    
  5.1784      4.6216      4.1807      3.8514      3.6266      3.4999      3.4669      3.5262      3.6795      3.9313    
  4.2889      4.7600      5.3506      6.0603      6.3362      7.2456      8.2344      9.2529      10.241      11.135    
  11.841      12.297      12.508      12.542      12.492      12.437      12.405      12.362      12.228      11.912    
  11.365      10.600      9.6966      8.7266      7.7466      6.8112      5.9638      5.2323      4.6295      4.1560    
  3.8055      3.5692      3.4390      3.4100      3.4811      3.6554      3.9395      4.3427      4.8744      5.5400    
  5.8166      6.7052      7.7050      8.7703      9.8401      10.842      11.656      12.175      12.378      12.334    
  12.175      12.044      12.036      12.161      12.335      12.420      12.273      11.812      11.046      10.078    
  9.0259      7.9619      6.9491      6.0365      5.2546      4.6161      4.1199      3.7576      3.5184      3.3930    
  3.3764      3.4683      3.6735      4.0008      4.4615      5.0656      5.3303      6.1734      7.1556      8.2379    
  9.3611      10.450      11.371      11.962      12.150      11.982      11.609      11.237      11.056      11.166    
  11.537      12.020      12.400      12.478      12.141      11.399      10.378      9.2499      8.1103      7.0306    
  6.0647      5.2445      4.5819      4.0737      3.7091      3.4756      3.3632      3.3671      3.4884      3.7338    
  4.1147      4.6438      4.8869      5.6631      6.6013      7.6721      8.8221      9.9771      11.009      11.707    
  11.925      11.649      11.014      10.270      9.7015      9.5362      9.8588      10.578      11.457      12.197    
  12.541      12.351      11.647      10.587      9.3910      8.1868      7.0532      6.0476      5.2026      4.5282    
  4.0189      3.6615      3.4421      3.3505      3.3826      3.5414      3.8361      4.2802      4.4949      5.1866    
  6.0567      7.0880      8.2370      9.4337      10.571      11.420      11.750      11.456      10.610      9.4537    
  8.3412      7.6339      7.5791      8.2216      9.3842      10.728      11.869      12.494      12.456      11.792    
  10.700      9.4452      8.1893      7.0164      5.9863      5.1306      4.4571      3.9575      3.6164      3.4190    
  3.3555      3.4231      3.6271      3.9794      4.1616      4.7555      5.5370      6.5014      7.6193      8.8308    
  10.047      11.071      11.606      11.438      10.529      9.0515      7.3685      5.9404      5.1890      5.3571    
  6.4222      8.1011      9.9461      11.490      12.381      12.474      11.837      10.714      9.4121      8.1186    
  6.9223      5.8835      5.0317      4.3714      3.8916      3.5753      3.4073      3.3784      3.4882      3.7445    
  3.8917      4.3796      5.0568      5.9300      6.9853      8.1789      9.4338      10.615      11.418      11.527    
  10.767      9.1864      7.0751      4.9193      3.2746      2.5996      3.1030      4.6694      6.8973      9.2321    
  11.139      12.246      12.426      11.791      10.631      9.2942      7.9783      6.7751      5.7434      4.9094    
  4.2741      3.8236      3.5396      3.4073      3.4191      3.5770      3.6875      4.0657      4.6288      5.3917    
  6.3553      7.4944      8.7496      10.025      11.093      11.583      11.187      9.7929      7.5466      4.8634    
  2.3441     0.61735     0.14729      1.0780      3.1822      5.9382      8.6988      10.884      12.124      12.328    
  11.660      10.458      9.0969      7.7742      6.5806      5.5714      4.7685      4.1686      3.7554      3.5103    
  3.4191      3.4765      3.5492      3.8173      4.2624      4.9030      5.7513      6.8006      8.0131      9.3140    
  10.571      11.456      11.570      10.640      8.6280      5.7892      2.6571     -.72218E-01 -1.7290     -1.8788    
 -.46851      2.1545      5.3586      8.4286      10.767      12.033      12.186      11.448      10.200      8.8277    
  7.5142      6.3462      5.3741      4.6138      4.0583      3.6892      3.4879      3.4421      3.4756      3.6352    
  3.9628      4.4766      5.1947      6.1250      7.2520      8.5253      9.8554      11.048      11.699      11.418    
  9.9779      7.4273      4.1300     0.72049     -2.0405     -3.4803     -3.2278     -1.3386      1.7232      5.2395    
  8.4592      10.800      11.973      11.999      11.158      9.8653      8.4964      7.2077      6.0806      5.1583    
  4.4507      3.9466      3.6266      3.4730      3.4654      3.5184      3.7319      4.1200      4.7020      5.4947    
  6.5007      7.6949      9.0147      10.354      11.442      11.843      11.189      9.3165      6.3627      2.7873    
 -.70052     -3.3136     -4.4160     -3.7275     -1.4191      1.9454      5.5936      8.7764      10.959      11.921    
  11.756      10.792      9.4662      8.1145      6.8658      5.7934      4.9318      4.2843      3.8367      3.5692    
  3.5184      3.4654      3.5692      3.8367      4.2843      4.9318      5.7934      6.8658      8.1145      9.4661    
  10.792      11.756      11.921      10.959      8.7764      5.5936      1.9453     -1.4191     -3.7275     -4.4160    
 -3.3136     -.70053      2.7872      6.3626      9.3165      11.189      11.843      11.442      10.354      9.0148    
  7.6950      6.5007      5.4947      4.7020      4.1200      3.7319      3.6352      3.4756      3.4729      3.6266    
  3.9466      4.4507      5.1583      6.0806      7.2076      8.4964      9.8653      11.158      11.999      11.973    
  10.800      8.4592      5.2395      1.7232     -1.3386     -3.2278     -3.4803     -2.0405     0.72046      4.1300    
  7.4273      9.9779      11.418      11.699      11.048      9.8554      8.5253      7.2520      6.1250      5.1946    
  4.4766      3.9628      3.8173      3.5492      3.4421      3.4879      3.6892      4.0583      4.6138      5.3740    
  6.3462      7.5141      8.8277      10.200      11.448      12.186      12.033      10.767      8.4286      5.3586    
  2.1544     -.46855     -1.8789     -1.7291     -.72271E-01  2.6571      5.7892      8.6279      10.640      11.570    
  11.456      10.571      9.3140      8.0131      6.8006      5.7513      4.9030      4.2624      4.0657      3.6875    
  3.4765      3.4191      3.5103      3.7555      4.1686      4.7685      5.5714      6.5805      7.7742      9.0968    
  10.458      11.660      12.328      12.124      10.883      8.6988      5.9382      3.1822      1.0779     0.14723    
 0.61728      2.3440      4.8634      7.5466      9.7929      11.187      11.583      11.093      10.025      8.7496    
  7.4944      6.3553      5.3917      4.6288      4.3796      3.8917      3.5770      3.4191      3.4073      3.5397    
  3.8236      4.2741      4.9094      5.7433      6.7751      7.9783      9.2941      10.631      11.791      12.426    
  12.246      11.139      9.2321      6.8972      4.6694      3.1030      2.5995      3.2745      4.9192      7.0751    
  9.1863      10.767      11.527      11.418      10.615      9.4338      8.1789      6.9853      5.9300      5.0568    
  4.7555      4.1615      3.7445      3.4882      3.3785      3.4073      3.5754      3.8917      4.3714      5.0317    
  5.8834      6.9223      8.1186      9.4120      10.714      11.837      12.474      12.381      11.490      9.9461    
  8.1011      6.4222      5.3571      5.1889      5.9403      7.3684      9.0515      10.529      11.438      11.606    
  11.071      10.047      8.8308      7.6193      6.5014      5.5370      5.1866      4.4949      3.9793      3.6271    
  3.4231      3.3555      3.4191      3.6164      3.9575      4.4572      5.1306      5.9862      7.0164      8.1892    
  9.4452      10.700      11.792      12.456      12.494      11.869      10.728      9.3842      8.2216      7.5791    
  7.6338      8.3411      9.4536      10.610      11.456      11.750      11.420      10.571      9.4337      8.2370    
  7.0880      6.0567      5.6631      4.8869      4.2801      3.8361      3.5414      3.3826      3.3505      3.4421    
  3.6615      4.0189      4.5282      5.2026      6.0476      7.0532      8.1868      9.3910      10.587      11.647    
  12.351      12.541      12.197      11.457      10.578      9.8588      9.5362      9.7014      10.270      11.014    
  11.649      11.925      11.707      11.009      9.9771      8.8221      7.6721      6.6012      6.1734      5.3303    
  4.6438      4.1147      3.7338      3.4884      3.3671      3.3633      3.4756      3.7091      4.0737      4.5819    
  5.2445      6.0647      7.0306      8.1104      9.2499      10.378      11.399      12.141      12.478      12.400    
  12.020      11.537      11.166      11.056      11.237      11.609      11.982      12.150      11.962      11.371    
  10.450      9.3611      8.2379      7.1556      6.7052      5.8166      5.0656      4.4615      4.0008      3.6735    
  3.4683      3.3765      3.3931      3.5184      3.7577      4.1199      4.6161      5.2546      6.0365      6.9491    
  7.9619      9.0259      10.078      11.046      11.812      12.273      12.420      12.335      12.161      12.036    
  12.044      12.175      12.334      12.378      12.175      11.656      10.842      9.8401      8.7703      7.7050    
  7.2456      6.3362      5.5400      4.8743      4.3427      3.9394      3.6554      3.4811      3.4100      3.4390    
  3.5692      3.8055      4.1560      4.6295      5.2323      5.9638      6.8112      7.7467      8.7266      9.6966    
  10.600      11.365      11.912      12.228      12.362      12.405      12.437      12.492      12.542      12.508    
  12.297      11.841      11.135      10.241      9.2529      8.2344      7.7802      6.8784      6.0603      5.3506    
  4.7600      4.2889      3.9313      3.6795      3.5262      3.4669      3.4999      3.6266      3.8514      4.1807    
  4.6216      5.1784      5.8493      6.6223      7.4727      8.3631      9.2477      10.079      10.815      11.406    
  11.828      12.107      12.286      12.403      12.463      12.434      12.258      11.886      11.303      10.542    
  9.6655      8.7263      8.2916      7.4302      6.6180      5.8862      5.2529      4.7248      4.3010      3.9765    
  3.7454      3.6029      3.5462      3.5744      3.6892      3.8938      4.1933      4.5927      5.0949      5.6975    
  6.3898      7.1508      7.9494      8.7478      9.5074      10.195      10.787      11.260      11.617      11.871    
  12.029      12.081      11.998      11.748      11.316      10.717      9.9842      9.1595      8.7577      7.9737    