       N       E                     dE             d eps       ncg     rms          rms(c)
DAV:   1     0.104666563426E+01    0.10467E+01   -0.28084E+03   912   0.603E+02
DAV:   2    -0.101541555672E+02   -0.11201E+02   -0.10802E+02  1320   0.638E+01
DAV:   3    -0.102693842638E+02   -0.11523E+00   -0.11438E+00  1296   0.810E+00
DAV:   4    -0.102695932964E+02   -0.20903E-03   -0.20903E-03  1360   0.331E-01
DAV:   5    -0.102695935294E+02   -0.23296E-06   -0.23320E-06  1248   0.783E-03    0.154E+00
DAV:   6    -0.102632162971E+02    0.63772E-02   -0.36086E-03  1208   0.401E-01    0.958E-01
DAV:   7    -0.102587279637E+02    0.44883E-02   -0.94143E-03  1112   0.675E-01    0.503E-02
DAV:   8    -0.102586766277E+02    0.51336E-04   -0.37797E-04   640   0.141E-01
   1 F= -.10258677E+02 E0= -.10248472E+02  d E =-.102587E+02
