   2   2   0   0
  0.2001288E+02  0.3839590E-09  0.3839590E-09  0.3839590E-09  0.5000000E-15
  1.000000000000000E-004
  CAR 
 unknown system                          
     16.74254124     -8.10711828  301      5.97912513      1.00000000
     -8.107  0.0000E+00  0.0000E+00
     -8.024  0.0000E+00  0.0000E+00
     -7.941  0.0000E+00  0.0000E+00
     -7.859  0.0000E+00  0.0000E+00
     -7.776  0.0000E+00  0.0000E+00
     -7.693  0.0000E+00  0.0000E+00
     -7.610  0.0000E+00  0.0000E+00
     -7.527  0.0000E+00  0.0000E+00
     -7.444  0.0000E+00  0.0000E+00
     -7.362  0.0000E+00  0.0000E+00
     -7.279  0.8274E-18  0.6853E-19
     -7.196  0.1009E-15  0.8429E-17
     -7.113  0.8324E-14  0.6979E-15
     -7.030  0.4887E-12  0.4118E-13
     -6.947  0.2047E-10  0.1736E-11
     -6.865  0.6116E-09  0.5239E-10
     -6.782  0.1305E-07  0.1133E-08
     -6.699  0.1989E-06  0.1761E-07
     -6.616  0.2168E-05  0.1972E-06
     -6.533  0.1692E-04  0.1599E-05
     -6.450  0.9478E-04  0.9449E-05
     -6.368  0.3833E-03  0.4120E-04
     -6.285  0.1135E-02  0.1352E-03
     -6.202  0.2534E-02  0.3451E-03
     -6.119  0.4537E-02  0.7209E-03
     -6.036  0.7057E-02  0.1305E-02
     -5.953  0.1003E-01  0.2137E-02
     -5.871  0.1289E-01  0.3204E-02
     -5.788  0.1479E-01  0.4429E-02
     -5.705  0.1575E-01  0.5734E-02
     -5.622  0.1650E-01  0.7100E-02
     -5.539  0.1761E-01  0.8559E-02
     -5.456  0.1948E-01  0.1017E-01
     -5.374  0.2213E-01  0.1201E-01
     -5.291  0.2516E-01  0.1409E-01
     -5.208  0.2771E-01  0.1638E-01
     -5.125  0.2825E-01  0.1872E-01
     -5.042  0.2615E-01  0.2089E-01
     -4.959  0.2334E-01  0.2282E-01
     -4.877  0.2281E-01  0.2471E-01
     -4.794  0.2616E-01  0.2688E-01
     -4.711  0.3250E-01  0.2957E-01
     -4.628  0.3911E-01  0.3281E-01
     -4.545  0.4308E-01  0.3638E-01
     -4.463  0.4254E-01  0.3990E-01
     -4.380  0.3841E-01  0.4308E-01
     -4.297  0.3487E-01  0.4597E-01
     -4.214  0.3599E-01  0.4895E-01
     -4.131  0.4169E-01  0.5241E-01
     -4.048  0.4769E-01  0.5636E-01
     -3.966  0.4982E-01  0.6048E-01
     -3.883  0.4858E-01  0.6451E-01
     -3.800  0.4859E-01  0.6853E-01
     -3.717  0.5352E-01  0.7297E-01
     -3.634  0.6164E-01  0.7807E-01
     -3.551  0.6750E-01  0.8366E-01
     -3.469  0.6773E-01  0.8927E-01
     -3.386  0.6227E-01  0.9443E-01
     -3.303  0.5140E-01  0.9869E-01
     -3.220  0.3753E-01  0.1018E+00
     -3.137  0.2688E-01  0.1040E+00
     -3.054  0.2370E-01  0.1060E+00
     -2.972  0.2555E-01  0.1081E+00
     -2.889  0.2863E-01  0.1105E+00
     -2.806  0.3381E-01  0.1133E+00
     -2.723  0.4280E-01  0.1168E+00
     -2.640  0.5162E-01  0.1211E+00
     -2.557  0.5299E-01  0.1255E+00
     -2.475  0.4397E-01  0.1291E+00
     -2.392  0.2875E-01  0.1315E+00
     -2.309  0.1451E-01  0.1327E+00
     -2.226  0.5546E-02  0.1332E+00
     -2.143  0.1578E-02  0.1333E+00
     -2.060  0.3324E-03  0.1333E+00
     -1.978  0.8071E-04  0.1333E+00
     -1.895  0.2473E-03  0.1334E+00
     -1.812  0.1374E-02  0.1335E+00
     -1.729  0.5605E-02  0.1339E+00
     -1.646  0.1648E-01  0.1353E+00
     -1.563  0.3507E-01  0.1382E+00
     -1.481  0.5451E-01  0.1427E+00
     -1.398  0.6364E-01  0.1480E+00
     -1.315  0.6061E-01  0.1530E+00
     -1.232  0.5637E-01  0.1577E+00
     -1.149  0.5920E-01  0.1626E+00
     -1.066  0.6342E-01  0.1678E+00
     -0.984  0.6018E-01  0.1728E+00
     -0.901  0.5268E-01  0.1772E+00
     -0.818  0.5200E-01  0.1815E+00
     -0.735  0.6001E-01  0.1865E+00
     -0.652  0.6540E-01  0.1919E+00
     -0.569  0.5903E-01  0.1968E+00
     -0.487  0.4553E-01  0.2005E+00
     -0.404  0.3511E-01  0.2035E+00
     -0.321  0.3114E-01  0.2060E+00
     -0.238  0.3176E-01  0.2087E+00
     -0.155  0.3675E-01  0.2117E+00
     -0.072  0.4493E-01  0.2154E+00
      0.010  0.4945E-01  0.2195E+00
      0.093  0.4335E-01  0.2231E+00
      0.176  0.2861E-01  0.2255E+00
      0.259  0.1396E-01  0.2266E+00
      0.342  0.5440E-02  0.2271E+00
      0.425  0.3586E-02  0.2274E+00
      0.507  0.7471E-02  0.2280E+00
      0.590  0.1659E-01  0.2294E+00
      0.673  0.2834E-01  0.2317E+00
      0.756  0.3666E-01  0.2348E+00
      0.839  0.3616E-01  0.2378E+00
      0.922  0.2758E-01  0.2400E+00
      1.004  0.1737E-01  0.2415E+00
      1.087  0.1171E-01  0.2425E+00
      1.170  0.1184E-01  0.2434E+00
      1.253  0.1573E-01  0.2447E+00
      1.336  0.2290E-01  0.2466E+00
      1.419  0.3517E-01  0.2495E+00
      1.501  0.5244E-01  0.2539E+00
      1.584  0.7045E-01  0.2597E+00
      1.667  0.8271E-01  0.2666E+00
      1.750  0.8397E-01  0.2735E+00
      1.833  0.7454E-01  0.2797E+00
      1.916  0.6172E-01  0.2848E+00
      1.998  0.5492E-01  0.2894E+00
      2.081  0.5947E-01  0.2943E+00
      2.164  0.7275E-01  0.3003E+00
      2.247  0.8443E-01  0.3073E+00
      2.330  0.8536E-01  0.3144E+00
      2.413  0.7703E-01  0.3208E+00
      2.495  0.6864E-01  0.3265E+00
      2.578  0.6824E-01  0.3321E+00
      2.661  0.7771E-01  0.3385E+00
      2.744  0.9056E-01  0.3460E+00
      2.827  0.9704E-01  0.3541E+00
      2.910  0.9613E-01  0.3620E+00
      2.992  0.9656E-01  0.3700E+00
      3.075  0.1025E+00  0.3785E+00
      3.158  0.1071E+00  0.3874E+00
      3.241  0.1040E+00  0.3960E+00
      3.324  0.9544E-01  0.4039E+00
      3.407  0.8875E-01  0.4113E+00
      3.489  0.8680E-01  0.4185E+00
      3.572  0.8573E-01  0.4256E+00
      3.655  0.8287E-01  0.4324E+00
      3.738  0.8141E-01  0.4392E+00
      3.821  0.8370E-01  0.4461E+00
      3.904  0.8810E-01  0.4534E+00
      3.986  0.9300E-01  0.4611E+00
      4.069  0.9646E-01  0.4691E+00
      4.152  0.9448E-01  0.4769E+00
      4.235  0.8548E-01  0.4840E+00
      4.318  0.7242E-01  0.4900E+00
      4.401  0.5915E-01  0.4949E+00
      4.483  0.4946E-01  0.4990E+00
      4.566  0.4730E-01  0.5029E+00
      4.649  0.5188E-01  0.5072E+00
      4.732  0.5597E-01  0.5118E+00
      4.815  0.5336E-01  0.5163E+00
      4.898  0.4476E-01  0.5200E+00
      4.980  0.3459E-01  0.5228E+00
      5.063  0.2589E-01  0.5250E+00
      5.146  0.1981E-01  0.5266E+00
      5.229  0.1662E-01  0.5280E+00
      5.312  0.1542E-01  0.5293E+00
      5.395  0.1448E-01  0.5305E+00
      5.477  0.1268E-01  0.5315E+00
      5.560  0.9922E-02  0.5324E+00
      5.643  0.6563E-02  0.5329E+00
      5.726  0.3443E-02  0.5332E+00
      5.809  0.1364E-02  0.5333E+00
      5.892  0.3974E-03  0.5333E+00
      5.974  0.9338E-04  0.5333E+00
      6.057  0.8747E-04  0.5333E+00
      6.140  0.4079E-03  0.5334E+00
      6.223  0.1608E-02  0.5335E+00
      6.306  0.4660E-02  0.5339E+00
      6.389  0.9992E-02  0.5347E+00
      6.471  0.1602E-01  0.5360E+00
      6.554  0.1957E-01  0.5377E+00
      6.637  0.1921E-01  0.5393E+00
      6.720  0.1782E-01  0.5407E+00
      6.803  0.1992E-01  0.5424E+00
      6.886  0.2655E-01  0.5446E+00
      6.968  0.3460E-01  0.5475E+00
      7.051  0.4167E-01  0.5509E+00
      7.134  0.4804E-01  0.5549E+00
      7.217  0.5350E-01  0.5593E+00
      7.300  0.5653E-01  0.5640E+00
      7.383  0.5727E-01  0.5687E+00
      7.465  0.5820E-01  0.5736E+00
      7.548  0.6316E-01  0.5788E+00
      7.631  0.7512E-01  0.5850E+00
      7.714  0.9170E-01  0.5926E+00
      7.797  0.1039E+00  0.6012E+00
      7.879  0.1035E+00  0.6098E+00
      7.962  0.9160E-01  0.6174E+00
      8.045  0.7908E-01  0.6239E+00
      8.128  0.7654E-01  0.6303E+00
      8.211  0.8525E-01  0.6373E+00
      8.294  0.9540E-01  0.6452E+00
      8.376  0.9584E-01  0.6532E+00
      8.459  0.8710E-01  0.6604E+00
      8.542  0.8074E-01  0.6671E+00
      8.625  0.8521E-01  0.6741E+00
      8.708  0.9738E-01  0.6822E+00
      8.791  0.1086E+00  0.6912E+00
      8.873  0.1132E+00  0.7006E+00
      8.956  0.1101E+00  0.7097E+00
      9.039  0.1042E+00  0.7183E+00
      9.122  0.1032E+00  0.7269E+00
      9.205  0.1094E+00  0.7359E+00
      9.288  0.1174E+00  0.7457E+00
      9.370  0.1203E+00  0.7556E+00
      9.453  0.1151E+00  0.7651E+00
      9.536  0.1040E+00  0.7738E+00
      9.619  0.9220E-01  0.7814E+00
      9.702  0.8392E-01  0.7884E+00
      9.785  0.7948E-01  0.7949E+00
      9.867  0.7710E-01  0.8013E+00
      9.950  0.7694E-01  0.8077E+00
     10.033  0.8203E-01  0.8145E+00
     10.116  0.9287E-01  0.8222E+00
     10.199  0.1027E+00  0.8307E+00
     10.282  0.1036E+00  0.8393E+00
     10.364  0.9708E-01  0.8473E+00
     10.447  0.9107E-01  0.8549E+00
     10.530  0.9031E-01  0.8623E+00
     10.613  0.9260E-01  0.8700E+00
     10.696  0.9210E-01  0.8776E+00
     10.779  0.8490E-01  0.8847E+00
     10.861  0.7278E-01  0.8907E+00
     10.944  0.6033E-01  0.8957E+00
     11.027  0.4956E-01  0.8998E+00
     11.110  0.4183E-01  0.9033E+00
     11.193  0.4168E-01  0.9067E+00
     11.276  0.5260E-01  0.9111E+00
     11.358  0.7102E-01  0.9170E+00
     11.441  0.8945E-01  0.9244E+00
     11.524  0.1039E+00  0.9330E+00
     11.607  0.1127E+00  0.9423E+00
     11.690  0.1115E+00  0.9515E+00
     11.773  0.9772E-01  0.9596E+00
     11.855  0.7763E-01  0.9661E+00
     11.938  0.6005E-01  0.9710E+00
     12.021  0.4837E-01  0.9750E+00
     12.104  0.4197E-01  0.9785E+00
     12.187  0.4049E-01  0.9819E+00
     12.270  0.4376E-01  0.9855E+00
     12.352  0.4841E-01  0.9895E+00
     12.435  0.4832E-01  0.9935E+00
     12.518  0.4267E-01  0.9970E+00
     12.601  0.3914E-01  0.1000E+01
     12.684  0.4326E-01  0.1004E+01
     12.767  0.4971E-01  0.1008E+01
     12.849  0.5064E-01  0.1012E+01
     12.932  0.4808E-01  0.1016E+01
     13.015  0.5101E-01  0.1020E+01
     13.098  0.6152E-01  0.1025E+01
     13.181  0.6992E-01  0.1031E+01
     13.264  0.6591E-01  0.1037E+01
     13.346  0.5130E-01  0.1041E+01
     13.429  0.3692E-01  0.1044E+01
     13.512  0.2927E-01  0.1046E+01
     13.595  0.2528E-01  0.1049E+01
     13.678  0.1968E-01  0.1050E+01
     13.761  0.1219E-01  0.1051E+01
     13.843  0.6211E-02  0.1052E+01
     13.926  0.4458E-02  0.1052E+01
     14.009  0.7570E-02  0.1053E+01
     14.092  0.1406E-01  0.1054E+01
     14.175  0.1969E-01  0.1056E+01
     14.258  0.1992E-01  0.1057E+01
     14.340  0.1477E-01  0.1058E+01
     14.423  0.9183E-02  0.1059E+01
     14.506  0.7937E-02  0.1060E+01
     14.589  0.1186E-01  0.1061E+01
     14.672  0.1759E-01  0.1062E+01
     14.755  0.2000E-01  0.1064E+01
     14.837  0.1672E-01  0.1065E+01
     14.920  0.1022E-01  0.1066E+01
     15.003  0.4559E-02  0.1067E+01
     15.086  0.1480E-02  0.1067E+01
     15.169  0.3492E-03  0.1067E+01
     15.252  0.5970E-04  0.1067E+01
     15.334  0.7377E-05  0.1067E+01
     15.417  0.6574E-06  0.1067E+01
     15.500  0.4215E-07  0.1067E+01
     15.583  0.1941E-08  0.1067E+01
     15.666  0.6406E-10  0.1067E+01
     15.749  0.1514E-11  0.1067E+01
     15.831  0.2558E-13  0.1067E+01
     15.914  0.3127E-15  0.1067E+01
     15.997  0.0000E+00  0.1067E+01
     16.080  0.0000E+00  0.1067E+01
     16.163  0.0000E+00  0.1067E+01
     16.246  0.0000E+00  0.1067E+01
     16.328  0.0000E+00  0.1067E+01
     16.411  0.0000E+00  0.1067E+01
     16.494  0.0000E+00  0.1067E+01
     16.577  0.0000E+00  0.1067E+01
     16.660  0.0000E+00  0.1067E+01
     16.743  0.0000E+00  0.1067E+01
