<?xml version="1.0" encoding="ISO-8859-1"?>
<modeling>
 <generator>
  <i name="program" type="string">vasp </i>
  <i name="version" type="string">5.4.4.18Apr17-6-g9f103f2a35  </i>
  <i name="subversion" type="string">(build Dec 09 2018 21:25:21) complex            parallel </i>
  <i name="platform" type="string">IFC18.0.1.163_CrayMPICH7.7.0_MKL18.0.1.163 </i>
  <i name="date" type="string">2019 03 20 </i>
  <i name="time" type="string">09:48:13 </i>
 </generator>
 <incar>
  <i type="string" name="PREC">normal</i>
  <i type="int" name="IBRION">     2</i>
  <i name="EDIFF">      0.00040000</i>
  <i name="EDIFFG">     -0.01000000</i>
  <i type="int" name="NSW">    15</i>
  <i type="int" name="ISIF">     3</i>
  <i name="ENCUT">    200.00000000</i>
  <i type="int" name="NBANDS">     8</i>
  <i type="logical" name="LREAL"> F  </i>
  <i type="int" name="ISMEAR">     0</i>
  <i name="SIGMA">      0.20000000</i>
  <v type="int" name="KPOINT_BSE">    -1     0     0     0</v>
 </incar>
 <structure name="primitive_cell" >
  <crystal>
   <varray name="basis" >
    <v>       0.00000000       2.71500000       2.71500000 </v>
    <v>       2.71500000       0.00000000       2.71500000 </v>
    <v>       2.71500000       2.71500000       0.00000000 </v>
   </varray>
   <i name="volume">     40.02575175 </i>
   <varray name="rec_basis" >
    <v>      -0.18416206       0.18416206       0.18416206 </v>
    <v>       0.18416206      -0.18416206       0.18416206 </v>
    <v>       0.18416206       0.18416206      -0.18416206 </v>
   </varray>
  </crystal>
  <varray name="positions" >
   <v>      -0.50000000      -0.50000000      -0.50000000 </v>
   <v>      -0.25000000      -0.25000000      -0.25000000 </v>
  </varray>
 </structure>
 <varray name="primitive_index" >
  <v type="int" >        1 </v>
  <v type="int" >        2 </v>
 </varray>
 <kpoints>
  <generation param="Monkhorst-Pack">
   <v type="int" name="divisions">       6        6        6 </v>
   <v name="usershift">      0.00000000       0.00000000       0.00000000 </v>
   <v name="genvec1">      0.16666667      -0.00000000       0.00000000 </v>
   <v name="genvec2">     -0.00000000       0.16666667      -0.00000000 </v>
   <v name="genvec3">      0.00000000       0.00000000       0.16666667 </v>
   <v name="shift">      0.50000000       0.50000000       0.50000000 </v>
  </generation>
  <varray name="kpointlist" >
   <v>       0.08333333       0.08333333       0.08333333 </v>
   <v>       0.25000000       0.08333333       0.08333333 </v>
   <v>       0.41666667       0.08333333       0.08333333 </v>
   <v>      -0.41666667       0.08333333       0.08333333 </v>
   <v>      -0.25000000       0.08333333       0.08333333 </v>
   <v>      -0.08333333       0.08333333       0.08333333 </v>
   <v>       0.25000000       0.25000000       0.08333333 </v>
   <v>       0.41666667       0.25000000       0.08333333 </v>
   <v>      -0.41666667       0.25000000       0.08333333 </v>
   <v>      -0.25000000       0.25000000       0.08333333 </v>
   <v>      -0.08333333       0.25000000       0.08333333 </v>
   <v>       0.41666667       0.41666667       0.08333333 </v>
   <v>      -0.41666667       0.41666667       0.08333333 </v>
   <v>      -0.25000000       0.41666667       0.08333333 </v>
   <v>      -0.08333333       0.41666667       0.08333333 </v>
   <v>      -0.41666667      -0.41666667       0.08333333 </v>
   <v>      -0.25000000      -0.41666667       0.08333333 </v>
   <v>      -0.25000000      -0.25000000       0.08333333 </v>
   <v>       0.25000000       0.25000000       0.25000000 </v>
   <v>       0.41666667       0.25000000       0.25000000 </v>
   <v>      -0.41666667       0.25000000       0.25000000 </v>
   <v>      -0.25000000       0.25000000       0.25000000 </v>
   <v>       0.41666667       0.41666667       0.25000000 </v>
   <v>      -0.41666667       0.41666667       0.25000000 </v>
   <v>      -0.25000000       0.41666667       0.25000000 </v>
   <v>      -0.41666667      -0.41666667       0.25000000 </v>
   <v>       0.41666667       0.41666667       0.41666667 </v>
   <v>      -0.41666667       0.41666667       0.41666667 </v>
  </varray>
  <varray name="weights" >
   <v>       0.00925926 </v>
   <v>       0.02777778 </v>
   <v>       0.02777778 </v>
   <v>       0.02777778 </v>
   <v>       0.02777778 </v>
   <v>       0.02777778 </v>
   <v>       0.02777778 </v>
   <v>       0.05555556 </v>
   <v>       0.05555556 </v>
   <v>       0.05555556 </v>
   <v>       0.05555556 </v>
   <v>       0.02777778 </v>
   <v>       0.05555556 </v>
   <v>       0.05555556 </v>
   <v>       0.05555556 </v>
   <v>       0.02777778 </v>
   <v>       0.05555556 </v>
   <v>       0.02777778 </v>
   <v>       0.00925926 </v>
   <v>       0.02777778 </v>
   <v>       0.02777778 </v>
   <v>       0.02777778 </v>
   <v>       0.02777778 </v>
   <v>       0.05555556 </v>
   <v>       0.05555556 </v>
   <v>       0.02777778 </v>
   <v>       0.00925926 </v>
   <v>       0.02777778 </v>
  </varray>
 </kpoints>
 <parameters>
  <separator name="general" >
   <i type="string" name="SYSTEM">unknown system</i>
   <i type="logical" name="LCOMPAT"> F  </i>
  </separator>
  <separator name="electronic" >
   <i type="string" name="PREC">normal</i>
   <i name="ENMAX">    200.00000000</i>
   <i name="ENAUG">    322.06900000</i>
   <i name="EDIFF">      0.00040000</i>
   <i type="int" name="IALGO">    38</i>
   <i type="int" name="IWAVPR">    11</i>
   <i type="int" name="NBANDS">     8</i>
   <i name="NELECT">      8.00000000</i>
   <i type="int" name="TURBO">     0</i>
   <i type="int" name="IRESTART">     0</i>
   <i type="int" name="NREBOOT">     0</i>
   <i type="int" name="NMIN">     0</i>
   <i name="EREF">      0.00000000</i>
   <separator name="electronic smearing" >
    <i type="int" name="ISMEAR">     0</i>
    <i name="SIGMA">      0.20000000</i>
    <i name="KSPACING">      0.50000000</i>
    <i type="logical" name="KGAMMA"> T  </i>
   </separator>
   <separator name="electronic projectors" >
    <i type="logical" name="LREAL"> F  </i>
    <v name="ROPT">      0.00000000</v>
    <i type="int" name="LMAXPAW">  -100</i>
    <i type="int" name="LMAXMIX">     2</i>
    <i type="logical" name="NLSPLINE"> F  </i>
   </separator>
   <separator name="electronic startup" >
    <i type="int" name="ISTART">     0</i>
    <i type="int" name="ICHARG">     2</i>
    <i type="int" name="INIWAV">     1</i>
   </separator>
   <separator name="electronic spin" >
    <i type="int" name="ISPIN">     1</i>
    <i type="logical" name="LNONCOLLINEAR"> F  </i>
    <v name="MAGMOM">      1.00000000      1.00000000</v>
    <i name="NUPDOWN">     -1.00000000</i>
    <i type="logical" name="LSORBIT"> F  </i>
    <v name="SAXIS">      0.00000000      0.00000000      1.00000000</v>
    <i type="logical" name="LSPIRAL"> F  </i>
    <v name="QSPIRAL">      0.00000000      0.00000000      0.00000000</v>
    <i type="logical" name="LZEROZ"> F  </i>
   </separator>
   <separator name="electronic exchange-correlation" >
    <i type="logical" name="LASPH"> F  </i>
    <i type="logical" name="LMETAGGA"> F  </i>
   </separator>
   <separator name="electronic convergence" >
    <i type="int" name="NELM">    60</i>
    <i type="int" name="NELMDL">    -5</i>
    <i type="int" name="NELMIN">     2</i>
    <i name="ENINI">    200.00000000</i>
    <separator name="electronic convergence detail" >
     <i type="logical" name="LDIAG"> T  </i>
     <i type="logical" name="LSUBROT"> F  </i>
     <i name="WEIMIN">      0.00100000</i>
     <i name="EBREAK">      0.00001250</i>
     <i name="DEPER">      0.30000000</i>
     <i type="int" name="NRMM">     4</i>
     <i name="TIME">      0.40000000</i>
    </separator>
   </separator>
   <separator name="electronic mixer" >
    <i name="AMIX">      0.40000000</i>
    <i name="BMIX">      1.00000000</i>
    <i name="AMIN">      0.10000000</i>
    <i name="AMIX_MAG">      1.60000000</i>
    <i name="BMIX_MAG">      1.00000000</i>
    <separator name="electronic mixer details" >
     <i type="int" name="IMIX">     4</i>
     <i type="logical" name="MIXFIRST"> F  </i>
     <i type="int" name="MAXMIX">   -45</i>
     <i name="WC">    100.00000000</i>
     <i type="int" name="INIMIX">     1</i>
     <i type="int" name="MIXPRE">     1</i>
     <i type="int" name="MREMOVE">     5</i>
    </separator>
   </separator>
   <separator name="electronic dipolcorrection" >
    <i type="logical" name="LDIPOL"> F  </i>
    <i type="logical" name="LMONO"> F  </i>
    <i type="int" name="IDIPOL">     0</i>
    <i name="EPSILON">      1.00000000</i>
    <v name="DIPOL">   -100.00000000   -100.00000000   -100.00000000</v>
    <i name="EFIELD">      0.00000000</i>
   </separator>
  </separator>
  <separator name="grids" >
   <i type="int" name="NGX">    14</i>
   <i type="int" name="NGY">    14</i>
   <i type="int" name="NGZ">    14</i>
   <i type="int" name="NGXF">    28</i>
   <i type="int" name="NGYF">    28</i>
   <i type="int" name="NGZF">    28</i>
   <i type="logical" name="ADDGRID"> F  </i>
  </separator>
  <separator name="ionic" >
   <i type="int" name="NSW">    15</i>
   <i type="int" name="IBRION">     2</i>
   <i type="int" name="MDALGO">     0</i>
   <i type="int" name="ISIF">     3</i>
   <i name="PSTRESS">      0.00000000</i>
   <i name="EDIFFG">     -0.01000000</i>
   <i type="int" name="NFREE">     1</i>
   <i name="POTIM">      0.50000000</i>
   <i name="SMASS">     -3.00000000</i>
   <i name="SCALEE">      1.00000000</i>
  </separator>
  <separator name="ionic md" >
   <i name="TEBEG">      0.00010000</i>
   <i name="TEEND">      0.00010000</i>
   <i type="int" name="NBLOCK">     1</i>
   <i type="int" name="KBLOCK">    15</i>
   <i type="int" name="NPACO">   256</i>
   <i name="APACO">     16.00000000</i>
  </separator>
  <separator name="symmetry" >
   <i type="int" name="ISYM">     2</i>
   <i name="SYMPREC">      0.00001000</i>
  </separator>
  <separator name="dos" >
   <i type="int" name="LORBIT">     0</i>
   <v name="RWIGS">     -1.00000000</v>
   <i type="int" name="NEDOS">   301</i>
   <i name="EMIN">     10.00000000</i>
   <i name="EMAX">    -10.00000000</i>
   <i name="EFERMI">      0.00000000</i>
  </separator>
  <separator name="writing" >
   <i type="int" name="NWRITE">     2</i>
   <i type="logical" name="LWAVE"> T  </i>
   <i type="logical" name="LDOWNSAMPLE"> F  </i>
   <i type="logical" name="LCHARG"> T  </i>
   <i type="logical" name="LPARD"> F  </i>
   <i type="logical" name="LVTOT"> F  </i>
   <i type="logical" name="LVHAR"> F  </i>
   <i type="logical" name="LELF"> F  </i>
   <i type="logical" name="LOPTICS"> F  </i>
   <v name="STM">      0.00000000      0.00000000      0.00000000      0.00000000      0.00000000      0.00000000      0.00000000</v>
  </separator>
  <separator name="performance" >
   <i type="int" name="NPAR">     8</i>
   <i type="int" name="NSIM">     4</i>
   <i type="int" name="NBLK">    -1</i>
   <i type="logical" name="LPLANE"> T  </i>
   <i type="logical" name="LSCALAPACK"> T  </i>
   <i type="logical" name="LSCAAWARE"> F  </i>
   <i type="logical" name="LSCALU"> F  </i>
   <i type="logical" name="LASYNC"> F  </i>
   <i type="logical" name="LORBITALREAL"> F  </i>
  </separator>
  <separator name="miscellaneous" >
   <i type="int" name="IDIOT">     3</i>
   <i type="int" name="ISPECIAL">     0</i>
   <i type="logical" name="LMUSIC"> F  </i>
   <v name="POMASS">     28.08500000</v>
   <v name="DARWINR">      0.00000000</v>
   <v name="DARWINV">      1.00000000</v>
   <i type="logical" name="LCORR"> T  </i>
  </separator>
  <i type="logical" name="GGA_COMPAT"> T  </i>
  <i type="logical" name="LBERRY"> F  </i>
  <i type="int" name="ICORELEVEL">     0</i>
  <i type="logical" name="LDAU"> F  </i>
  <i type="int" name="I_CONSTRAINED_M">     0</i>
  <separator name="electronic exchange-correlation" >
   <i type="string" name="GGA">--</i>
   <i type="int" name="VOSKOWN">     0</i>
   <i type="logical" name="LHFCALC"> F  </i>
   <i type="string" name="PRECFOCK"></i>
   <i type="logical" name="LSYMGRAD"> F  </i>
   <i type="logical" name="LHFONE"> F  </i>
   <i type="logical" name="LRHFCALC"> F  </i>
   <i type="logical" name="LTHOMAS"> F  </i>
   <i type="logical" name="LMODELHF"> F  </i>
   <i name="ENCUT4O">     -1.00000000</i>
   <i type="int" name="EXXOEP">     0</i>
   <i type="int" name="FOURORBIT">     0</i>
   <i name="AEXX">      0.00000000</i>
   <i name="HFALPHA">      0.00000000</i>
   <i name="MCALPHA">      0.00000000</i>
   <i name="ALDAX">      1.00000000</i>
   <i name="AGGAX">      1.00000000</i>
   <i name="ALDAC">      1.00000000</i>
   <i name="AGGAC">      1.00000000</i>
   <i type="int" name="NKREDX">     1</i>
   <i type="int" name="NKREDY">     1</i>
   <i type="int" name="NKREDZ">     1</i>
   <i type="logical" name="SHIFTRED"> F  </i>
   <i type="logical" name="ODDONLY"> F  </i>
   <i type="logical" name="EVENONLY"> F  </i>
   <i type="int" name="LMAXFOCK">     0</i>
   <i type="int" name="NMAXFOCKAE">     0</i>
   <i type="logical" name="LFOCKAEDFT"> F  </i>
   <i name="HFSCREEN">      0.00000000</i>
   <i name="HFSCREENC">      0.00000000</i>
   <i type="int" name="NBANDSGWLOW">     0</i>
  </separator>
  <separator name="vdW DFT" >
   <i type="logical" name="LUSE_VDW"> F  </i>
   <i name="Zab_VDW">     -0.84910000</i>
   <i name="PARAM1">      0.12340000</i>
   <i name="PARAM2">      1.00000000</i>
   <i name="PARAM3">      0.00000000</i>
  </separator>
  <separator name="model GW" >
   <i type="int" name="MODEL_GW">     0</i>
   <i name="MODEL_EPS0">     12.00772552</i>
   <i name="MODEL_ALPHA">      1.00000000</i>
  </separator>
  <separator name="linear response parameters" >
   <i type="logical" name="LEPSILON"> F  </i>
   <i type="logical" name="LRPA"> F  </i>
   <i type="logical" name="LNABLA"> F  </i>
   <i type="logical" name="LVEL"> F  </i>
   <i type="int" name="KINTER">     0</i>
   <i name="CSHIFT">      0.10000000</i>
   <i name="OMEGAMAX">     -1.00000000</i>
   <i name="DEG_THRESHOLD">      0.00200000</i>
   <i name="RTIME">     -0.10000000</i>
   <i name="WPLASMAI">      0.00000000</i>
   <v name="DFIELD">      0.00000000      0.00000000      0.00000000</v>
   <v name="WPLASMA">      0.00000000      0.00000000      0.00000000      0.00000000      0.00000000      0.00000000      0.00000000      0.00000000      0.00000000</v>
  </separator>
  <separator name="orbital magnetization" >
   <i type="logical" name="NUCIND"> F  </i>
   <v name="MAGPOS">      0.00000000      0.00000000      0.00000000</v>
   <i type="logical" name="LNICSALL"> T  </i>
   <i type="logical" name="ORBITALMAG"> F  </i>
   <i type="logical" name="LMAGBLOCH"> F  </i>
   <i type="logical" name="LCHIMAG"> F  </i>
   <i type="logical" name="LGAUGE"> T  </i>
   <i type="int" name="MAGATOM">     0</i>
   <v name="MAGDIPOL">      0.00000000      0.00000000      0.00000000</v>
   <v name="AVECCONST">      0.00000000      0.00000000      0.00000000</v>
  </separator>
  <separator name="response functions" >
   <i type="logical" name="LADDER"> F  </i>
   <i type="logical" name="LRPAFORCE"> F  </i>
   <i type="logical" name="LFXC"> F  </i>
   <i type="logical" name="LHARTREE"> T  </i>
   <i type="int" name="IBSE">     0</i>
   <v type="int" name="KPOINT">    -1     0     0     0</v>
   <i type="logical" name="LTCTE"> F  </i>
   <i type="logical" name="LTETE"> F  </i>
   <i type="logical" name="LTRIPLET"> F  </i>
   <i type="logical" name="LFXCEPS"> F  </i>
   <i type="logical" name="LFXHEG"> F  </i>
   <i type="int" name="NATURALO">     2</i>
   <i type="logical" name="L2ORDER"> F  </i>
   <i type="logical" name="LMP2LT"> F  </i>
   <i type="logical" name="LUSEW"> F  </i>
   <i name="ENCUTGW">     -2.00000000</i>
   <i name="ENCUTGWSOFT">     -2.00000000</i>
   <i name="ENCUTLF">     -1.00000000</i>
   <i type="int" name="LMAXMP2">    -1</i>
   <i name="SCISSOR">      0.00000000</i>
   <i type="int" name="NOMEGA">     0</i>
   <i type="int" name="NOMEGAR">     0</i>
   <i type="int" name="NBANDSGW">    -1</i>
   <i type="int" name="NBANDSO">    -1</i>
   <i type="int" name="NBANDSV">    -1</i>
   <i type="int" name="NELM">     1</i>
   <i type="int" name="NELMHF">     1</i>
   <i type="int" name="DIM">     3</i>
   <i type="int" name="ANTIRES">     0</i>
   <i name="OMEGAMAX">    -30.00000000</i>
   <i name="OMEGAMIN">    -30.00000000</i>
   <i name="OMEGATL">   -200.00000000</i>
   <i type="int" name="OMEGAGRID">   140</i>
   <i name="CSHIFT">     -0.10000000</i>
   <i type="logical" name="SELFENERGY"> F  </i>
   <i type="logical" name="LSPECTRAL"> F  </i>
   <i type="logical" name="LSPECTRALGW"> F  </i>
   <i type="logical" name="LSINGLES"> F  </i>
   <i type="logical" name="LFERMIGW"> F  </i>
   <i type="logical" name="ODDONLYGW"> F  </i>
   <i type="logical" name="EVENONLYGW"> F  </i>
   <i type="int" name="NKREDLFX">     1</i>
   <i type="int" name="NKREDLFY">     1</i>
   <i type="int" name="NKREDLFZ">     1</i>
   <i type="int" name="MAXMEM">  2800</i>
   <i type="int" name="TELESCOPE">     0</i>
   <i type="int" name="TAUPAR">     1</i>
   <i type="int" name="OMEGAPAR">    -1</i>
   <i name="LAMBDA">      1.00000000</i>
  </separator>
  <separator name="External order field" >
   <i name="OFIELD_KAPPA">      0.00000000</i>
   <v name="OFIELD_K">      0.00000000      0.00000000      0.00000000</v>
   <i name="OFIELD_Q6_NEAR">      0.00000000</i>
   <i name="OFIELD_Q6_FAR">      0.00000000</i>
   <i name="OFIELD_A">      0.00000000</i>
  </separator>
 </parameters>
 <atominfo>
  <atoms>       2 </atoms>
  <types>       1 </types>
  <array name="atoms" >
   <dimension dim="1">ion</dimension>
   <field type="string">element</field>
   <field type="int">atomtype</field>
   <set>
    <rc><c>Si</c><c>   1</c></rc>
    <rc><c>Si</c><c>   1</c></rc>
   </set>
  </array>
  <array name="atomtypes" >
   <dimension dim="1">type</dimension>
   <field type="int">atomspertype</field>
   <field type="string">element</field>
   <field>mass</field>
   <field>valence</field>
   <field type="string">pseudopotential</field>
   <set>
    <rc><c>   2</c><c>Si</c><c>     28.08500000</c><c>      4.00000000</c><c> PAW_PBE Si 05Jan2001                   </c></rc>
   </set>
  </array>
 </atominfo>
 <structure name="initialpos" >
  <crystal>
   <varray name="basis" >
    <v>       0.00000000       2.71500000       2.71500000 </v>
    <v>       2.71500000       0.00000000       2.71500000 </v>
    <v>       2.71500000       2.71500000       0.00000000 </v>
   </varray>
   <i name="volume">     40.02575175 </i>
   <varray name="rec_basis" >
    <v>      -0.18416206       0.18416206       0.18416206 </v>
    <v>       0.18416206      -0.18416206       0.18416206 </v>
    <v>       0.18416206       0.18416206      -0.18416206 </v>
   </varray>
  </crystal>
  <varray name="positions" >
   <v>       0.50000000       0.50000000       0.50000000 </v>
   <v>       0.75000000       0.75000000       0.75000000 </v>
  </varray>
 </structure>
 <calculation>
  <scstep>
   <time name="dav">    0.22    0.23</time>
   <time name="total">    0.26    0.28</time>
   <energy>
    <i name="alphaZ">      3.36414203 </i>
    <i name="ewald">   -228.56352493 </i>
    <i name="hartreedc">    -11.00108243 </i>
    <i name="XCdc">    -18.60172597 </i>
    <i name="pawpsdc">     65.95520812 </i>
    <i name="pawaedc">    -30.76852678 </i>
    <i name="eentropy">     -0.00993503 </i>
    <i name="bandstr">     10.69815544 </i>
    <i name="atom">    206.11247263 </i>
    <i name="e_fr_energy">     -2.81481693 </i>
    <i name="e_wo_entrp">     -2.80488190 </i>
    <i name="e_0_energy">     -2.80984942 </i>
   </energy>
  </scstep>
  <scstep>
   <time name="dav">    0.36    0.40</time>
   <time name="total">    0.36    0.40</time>
   <energy>
    <i name="e_fr_energy">    -10.90797961 </i>
    <i name="e_wo_entrp">    -10.90797925 </i>
    <i name="e_0_energy">    -10.90797943 </i>
   </energy>
  </scstep>
  <scstep>
   <time name="dav">    0.27    0.28</time>
   <time name="total">    0.27    0.28</time>
   <energy>
    <i name="e_fr_energy">    -10.97645858 </i>
    <i name="e_wo_entrp">    -10.97645815 </i>
    <i name="e_0_energy">    -10.97645837 </i>
   </energy>
  </scstep>
  <scstep>
   <time name="dav">    0.36    0.37</time>
   <time name="total">    0.36    0.37</time>
   <energy>
    <i name="e_fr_energy">    -10.97662025 </i>
    <i name="e_wo_entrp">    -10.97661982 </i>
    <i name="e_0_energy">    -10.97662003 </i>
   </energy>
  </scstep>
  <scstep>
   <time name="dav">    0.24    0.25</time>
   <time name="total">    0.26    0.27</time>
   <energy>
    <i name="e_fr_energy">    -10.97662029 </i>
    <i name="e_wo_entrp">    -10.97661986 </i>
    <i name="e_0_energy">    -10.97662007 </i>
   </energy>
  </scstep>
  <scstep>
   <time name="dav">    0.26    0.26</time>
   <time name="total">    0.30    0.30</time>
   <energy>
    <i name="e_fr_energy">    -10.85264662 </i>
    <i name="e_wo_entrp">    -10.85264324 </i>
    <i name="e_0_energy">    -10.85264493 </i>
   </energy>
  </scstep>
  <scstep>
   <time name="dav">    0.26    0.26</time>
   <time name="total">    0.30    0.31</time>
   <energy>
    <i name="e_fr_energy">    -10.79603465 </i>
    <i name="e_wo_entrp">    -10.79600197 </i>
    <i name="e_0_energy">    -10.79601831 </i>
   </energy>
  </scstep>
  <scstep>
   <time name="dav">    0.22    0.22</time>
   <time name="total">    0.26    0.27</time>
   <energy>
    <i name="e_fr_energy">    -10.79732903 </i>
    <i name="e_wo_entrp">    -10.79730416 </i>
    <i name="e_0_energy">    -10.79731659 </i>
   </energy>
  </scstep>
  <scstep>
   <time name="dav">    0.18    0.18</time>
   <time name="total">    0.21    0.22</time>
   <energy>
    <i name="alphaZ">      3.36414203 </i>
    <i name="ewald">   -228.56352493 </i>
    <i name="hartreedc">    -14.89249576 </i>
    <i name="XCdc">    -17.94062828 </i>
    <i name="pawpsdc">     75.91830971 </i>
    <i name="pawaedc">    -40.96850338 </i>
    <i name="eentropy">     -0.00002459 </i>
    <i name="bandstr">      6.17283192 </i>
    <i name="atom">    206.11247263 </i>
    <i name="e_fr_energy">    -10.79742066 </i>
    <i name="e_wo_entrp">    -10.79739607 </i>
    <i name="e_0_energy">    -10.79740836 </i>
   </energy>
  </scstep>
  <structure>
   <crystal>
    <varray name="basis" >
     <v>       0.00000000       2.71500000       2.71500000 </v>
     <v>       2.71500000       0.00000000       2.71500000 </v>
     <v>       2.71500000       2.71500000       0.00000000 </v>
    </varray>
    <i name="volume">     40.02575175 </i>
    <varray name="rec_basis" >
     <v>      -0.18416206       0.18416206       0.18416206 </v>
     <v>       0.18416206      -0.18416206       0.18416206 </v>
     <v>       0.18416206       0.18416206      -0.18416206 </v>
    </varray>
   </crystal>
   <varray name="positions" >
    <v>       0.50000000       0.50000000       0.50000000 </v>
    <v>       0.75000000       0.75000000       0.75000000 </v>
   </varray>
  </structure>
  <varray name="forces" >
   <v>       0.00000000       0.00000000       0.00000000 </v>
   <v>      -0.00000000      -0.00000000      -0.00000000 </v>
  </varray>
  <varray name="stress" >
   <v>      18.70028127       0.00000000      -0.00000000 </v>
   <v>       0.00000000      18.70028127      -0.00000000 </v>
   <v>      -0.00000000       0.00000000      18.70028127 </v>
  </varray>
  <energy>
   <i name="e_fr_energy">    -10.79742066 </i>
   <i name="e_wo_entrp">    -10.79740836 </i>
   <i name="e_0_energy">     -0.00002459 </i>
  </energy>
  <time name="totalsc">    3.26    4.92</time>
 </calculation>
 <calculation>
  <scstep>
   <time name="dav">    0.28    0.27</time>
   <time name="total">    0.32    0.33</time>
   <energy>
    <i name="alphaZ">      3.25292820 </i>
    <i name="ewald">   -226.01658582 </i>
    <i name="hartreedc">    -14.73876605 </i>
    <i name="XCdc">    -18.10475745 </i>
    <i name="pawpsdc">     75.91044631 </i>
    <i name="pawaedc">    -40.96162072 </i>
    <i name="eentropy">     -0.00000664 </i>
    <i name="bandstr">      3.73983238 </i>
    <i name="atom">    206.11247263 </i>
    <i name="e_fr_energy">    -10.80605716 </i>
    <i name="e_wo_entrp">    -10.80605053 </i>
    <i name="e_0_energy">    -10.80605384 </i>
   </energy>
  </scstep>
  <scstep>
   <time name="dav">    0.25    0.25</time>
   <time name="total">    0.29    0.31</time>
   <energy>
    <i name="e_fr_energy">    -10.80196794 </i>
    <i name="e_wo_entrp">    -10.80195898 </i>
    <i name="e_0_energy">    -10.80196346 </i>
   </energy>
  </scstep>
  <scstep>
   <time name="dav">    0.25    0.26</time>
   <time name="total">    0.30    0.30</time>
   <energy>
    <i name="e_fr_energy">    -10.79984439 </i>
    <i name="e_wo_entrp">    -10.79983142 </i>
    <i name="e_0_energy">    -10.79983790 </i>
   </energy>
  </scstep>
  <scstep>
   <time name="dav">    0.12    0.12</time>
   <time name="total">    0.15    0.16</time>
   <energy>
    <i name="alphaZ">      3.25292820 </i>
    <i name="ewald">   -226.01658582 </i>
    <i name="hartreedc">    -15.30069926 </i>
    <i name="XCdc">    -18.09307102 </i>
    <i name="pawpsdc">     74.88314120 </i>
    <i name="pawaedc">    -39.90567511 </i>
    <i name="eentropy">     -0.00001270 </i>
    <i name="bandstr">      4.26766992 </i>
    <i name="atom">    206.11247263 </i>
    <i name="e_fr_energy">    -10.79983195 </i>
    <i name="e_wo_entrp">    -10.79981926 </i>
    <i name="e_0_energy">    -10.79982561 </i>
   </energy>
  </scstep>
  <structure>
   <crystal>
    <varray name="basis" >
     <v>       0.00000000       2.74559483       2.74559483 </v>
     <v>       2.74559483       0.00000000       2.74559483 </v>
     <v>       2.74559483       2.74559483      -0.00000000 </v>
    </varray>
    <i name="volume">     41.39418556 </i>
    <varray name="rec_basis" >
     <v>      -0.18210990       0.18210990       0.18210990 </v>
     <v>       0.18210990      -0.18210990       0.18210990 </v>
     <v>       0.18210990       0.18210990      -0.18210990 </v>
    </varray>
   </crystal>
   <varray name="positions" >
    <v>       0.50000000       0.50000000       0.50000000 </v>
    <v>       0.75000000       0.75000000       0.75000000 </v>
   </varray>
  </structure>
  <varray name="forces" >
   <v>      -0.00000000       0.00000000       0.00000000 </v>
   <v>       0.00000000      -0.00000000      -0.00000000 </v>
  </varray>
  <varray name="stress" >
   <v>     -11.78189588       0.00000000      -0.00000000 </v>
   <v>       0.00000000     -11.78189588       0.00000000 </v>
   <v>      -0.00000000      -0.00000000     -11.78189588 </v>
  </varray>
  <energy>
   <i name="e_fr_energy">    -10.79983195 </i>
   <i name="e_wo_entrp">    -10.79982561 </i>
   <i name="e_0_energy">     -0.00001270 </i>
  </energy>
  <time name="totalsc">    1.28    1.44</time>
 </calculation>
 <calculation>
  <scstep>
   <time name="dav">    0.26    0.27</time>
   <time name="total">    0.31    0.32</time>
   <energy>
    <i name="alphaZ">      3.29620994 </i>
    <i name="ewald">   -227.01459152 </i>
    <i name="hartreedc">    -15.37039934 </i>
    <i name="XCdc">    -18.02970454 </i>
    <i name="pawpsdc">     74.84635121 </i>
    <i name="pawaedc">    -39.86740308 </i>
    <i name="eentropy">     -0.00002078 </i>
    <i name="bandstr">      5.22416093 </i>
    <i name="atom">    206.11247263 </i>
    <i name="e_fr_energy">    -10.80292455 </i>
    <i name="e_wo_entrp">    -10.80290377 </i>
    <i name="e_0_energy">    -10.80291416 </i>
   </energy>
  </scstep>
  <scstep>
   <time name="dav">    0.26    0.26</time>
   <time name="total">    0.30    0.30</time>
   <energy>
    <i name="e_fr_energy">    -10.80228084 </i>
    <i name="e_wo_entrp">    -10.80226224 </i>
    <i name="e_0_energy">    -10.80227154 </i>
   </energy>
  </scstep>
  <scstep>
   <time name="dav">    0.16    0.16</time>
   <time name="total">    0.19    0.20</time>
   <energy>
    <i name="alphaZ">      3.29620994 </i>
    <i name="ewald">   -227.01459152 </i>
    <i name="hartreedc">    -15.14383950 </i>
    <i name="XCdc">    -18.03525582 </i>
    <i name="pawpsdc">     75.18507297 </i>
    <i name="pawaedc">    -40.21482906 </i>
    <i name="eentropy">     -0.00001613 </i>
    <i name="bandstr">      5.01282163 </i>
    <i name="atom">    206.11247263 </i>
    <i name="e_fr_energy">    -10.80195485 </i>
    <i name="e_wo_entrp">    -10.80193872 </i>
    <i name="e_0_energy">    -10.80194678 </i>
   </energy>
  </scstep>
  <structure>
   <crystal>
    <varray name="basis" >
     <v>       0.00000000       2.73352460       2.73352460 </v>
     <v>       2.73352460       0.00000000       2.73352460 </v>
     <v>       2.73352460       2.73352460      -0.00000000 </v>
    </varray>
    <i name="volume">     40.85064846 </i>
    <varray name="rec_basis" >
     <v>      -0.18291403       0.18291403       0.18291403 </v>
     <v>       0.18291403      -0.18291403       0.18291403 </v>
     <v>       0.18291403       0.18291403      -0.18291403 </v>
    </varray>
   </crystal>
   <varray name="positions" >
    <v>       0.50000000       0.50000000       0.50000000 </v>
    <v>       0.75000000       0.75000000       0.75000000 </v>
   </varray>
  </structure>
  <varray name="forces" >
   <v>      -0.00000000      -0.00000000      -0.00000000 </v>
   <v>       0.00000000       0.00000000       0.00000000 </v>
  </varray>
  <varray name="stress" >
   <v>      -0.51647088       0.00000000      -0.00000000 </v>
   <v>       0.00000000      -0.51647088       0.00000000 </v>
   <v>      -0.00000000       0.00000000      -0.51647088 </v>
  </varray>
  <energy>
   <i name="e_fr_energy">    -10.80195485 </i>
   <i name="e_wo_entrp">    -10.80194678 </i>
   <i name="e_0_energy">     -0.00001613 </i>
  </energy>
  <time name="totalsc">    1.05    1.30</time>
  <eigenvalues>
   <array>
    <dimension dim="1">band</dimension>
    <dimension dim="2">kpoint</dimension>
    <dimension dim="3">spin</dimension>
    <field>eigene</field>
    <field>occ</field>
    <set>
     <set comment="spin 1">
      <set comment="kpoint 1">
       <r>   -6.1071    1.0000 </r>
       <r>    4.7853    1.0000 </r>
       <r>    5.5067    0.9996 </r>
       <r>    5.5067    0.9996 </r>
       <r>    8.2168    0.0000 </r>
       <r>    8.4203    0.0000 </r>
       <r>    8.4203    0.0000 </r>
       <r>    9.4771    0.0000 </r>
      </set>
      <set comment="kpoint 2">
       <r>   -5.6371    1.0000 </r>
       <r>    2.7102    1.0000 </r>
       <r>    4.2822    1.0000 </r>
       <r>    5.2945    1.0000 </r>
       <r>    8.3057    0.0000 </r>
       <r>    8.8156    0.0000 </r>
       <r>    9.1686    0.0000 </r>
       <r>   11.2757    0.0000 </r>
      </set>
      <set comment="kpoint 3">
       <r>   -4.5615    1.0000 </r>
       <r>   -0.0215    1.0000 </r>
       <r>    3.8149    1.0000 </r>
       <r>    4.6604    1.0000 </r>
       <r>    7.7959    0.0000 </r>
       <r>    9.2236    0.0000 </r>
       <r>    9.2690    0.0000 </r>
       <r>   13.0804    0.0000 </r>
      </set>
      <set comment="kpoint 4">
       <r>   -3.8766    1.0000 </r>
       <r>   -1.1479    1.0000 </r>
       <r>    3.8779    1.0000 </r>
       <r>    4.2829    1.0000 </r>
       <r>    7.6406    0.0000 </r>
       <r>    8.9455    0.0000 </r>
       <r>    9.3780    0.0000 </r>
       <r>   13.5329    0.0000 </r>
      </set>
      <set comment="kpoint 5">
       <r>   -4.9665    1.0000 </r>
       <r>    0.8143    1.0000 </r>
       <r>    4.3458    1.0000 </r>
       <r>    4.3735    1.0000 </r>
       <r>    7.8972    0.0000 </r>
       <r>    8.9475    0.0000 </r>
       <r>    9.7468    0.0000 </r>
       <r>   11.6355    0.0000 </r>
      </set>
      <set comment="kpoint 6">
       <r>   -5.8698    1.0000 </r>
       <r>    3.7154    1.0000 </r>
       <r>    4.8670    1.0000 </r>
       <r>    5.0467    1.0000 </r>
       <r>    7.9619    0.0000 </r>
       <r>    8.8152    0.0000 </r>
       <r>    9.3142    0.0000 </r>
       <r>   10.4171    0.0000 </r>
      </set>
      <set comment="kpoint 7">
       <r>   -5.3992    1.0000 </r>
       <r>    2.5141    1.0000 </r>
       <r>    4.1246    1.0000 </r>
       <r>    4.1423    1.0000 </r>
       <r>    7.3894    0.0000 </r>
       <r>    9.5091    0.0000 </r>
       <r>   10.3292    0.0000 </r>
       <r>   10.5326    0.0000 </r>
      </set>
      <set comment="kpoint 8">
       <r>   -4.5019    1.0000 </r>
       <r>    0.6895    1.0000 </r>
       <r>    2.8225    1.0000 </r>
       <r>    3.7577    1.0000 </r>
       <r>    7.7896    0.0000 </r>
       <r>    9.4103    0.0000 </r>
       <r>   10.1870    0.0000 </r>
       <r>   11.6530    0.0000 </r>
      </set>
      <set comment="kpoint 9">
       <r>   -3.4055    1.0000 </r>
       <r>   -1.0324    1.0000 </r>
       <r>    2.2236    1.0000 </r>
       <r>    3.5345    1.0000 </r>
       <r>    8.0394    0.0000 </r>
       <r>    9.5842    0.0000 </r>
       <r>   11.5273    0.0000 </r>
       <r>   11.9123    0.0000 </r>
      </set>
      <set comment="kpoint 10">
       <r>   -4.1138    1.0000 </r>
       <r>    0.0073    1.0000 </r>
       <r>    2.1868    1.0000 </r>
       <r>    4.0140    1.0000 </r>
       <r>    8.6204    0.0000 </r>
       <r>    9.2615    0.0000 </r>
       <r>   10.9195    0.0000 </r>
       <r>   11.4182    0.0000 </r>
      </set>
      <set comment="kpoint 11">
       <r>   -5.1771    1.0000 </r>
       <r>    1.6892    1.0000 </r>
       <r>    3.5111    1.0000 </r>
       <r>    4.6742    1.0000 </r>
       <r>    8.2657    0.0000 </r>
       <r>    9.1095    0.0000 </r>
       <r>   10.2022    0.0000 </r>
       <r>   10.5715    0.0000 </r>
      </set>
      <set comment="kpoint 12">
       <r>   -3.7996    1.0000 </r>
       <r>   -0.1358    1.0000 </r>
       <r>    2.7879    1.0000 </r>
       <r>    3.1212    1.0000 </r>
       <r>    6.5790    0.0000 </r>
       <r>    7.5562    0.0000 </r>
       <r>   13.1838    0.0000 </r>
       <r>   13.2604    0.0000 </r>
      </set>
      <set comment="kpoint 13">
       <r>   -2.6217    1.0000 </r>
       <r>   -1.4611    1.0000 </r>
       <r>    1.9602    1.0000 </r>
       <r>    2.7222    1.0000 </r>
       <r>    7.1993    0.0000 </r>
       <r>    8.3172    0.0000 </r>
       <r>   12.7332    0.0000 </r>
       <r>   14.1769    0.0000 </r>
      </set>
      <set comment="kpoint 14">
       <r>   -2.9912    1.0000 </r>
       <r>   -1.1231    1.0000 </r>
       <r>    1.4827    1.0000 </r>
       <r>    3.2615    1.0000 </r>
       <r>    7.8103    0.0000 </r>
       <r>   10.7141    0.0000 </r>
       <r>   11.6863    0.0000 </r>
       <r>   12.3374    0.0000 </r>
      </set>
      <set comment="kpoint 15">
       <r>   -4.0049    1.0000 </r>
       <r>   -0.6585    1.0000 </r>
       <r>    3.1106    1.0000 </r>
       <r>    4.1094    1.0000 </r>
       <r>    8.2175    0.0000 </r>
       <r>    8.8828    0.0000 </r>
       <r>   10.1918    0.0000 </r>
       <r>   12.4060    0.0000 </r>
      </set>
      <set comment="kpoint 16">
       <r>   -2.7106    1.0000 </r>
       <r>   -1.4681    1.0000 </r>
       <r>    2.5214    1.0000 </r>
       <r>    2.9070    1.0000 </r>
       <r>    6.4687    0.0003 </r>
       <r>    7.0328    0.0000 </r>
       <r>   14.6725    0.0000 </r>
       <r>   14.7425    0.0000 </r>
      </set>
      <set comment="kpoint 17">
       <r>   -3.6342    1.0000 </r>
       <r>   -0.3557    1.0000 </r>
       <r>    2.2754    1.0000 </r>
       <r>    3.0588    1.0000 </r>
       <r>    7.4052    0.0000 </r>
       <r>    8.6871    0.0000 </r>
       <r>   11.3802    0.0000 </r>
       <r>   13.1962    0.0000 </r>
      </set>
      <set comment="kpoint 18">
       <r>   -4.7041    1.0000 </r>
       <r>    1.2172    1.0000 </r>
       <r>    3.3254    1.0000 </r>
       <r>    3.5408    1.0000 </r>
       <r>    6.8911    0.0000 </r>
       <r>    8.4621    0.0000 </r>
       <r>   11.6530    0.0000 </r>
       <r>   11.8663    0.0000 </r>
      </set>
      <set comment="kpoint 19">
       <r>   -5.4109    1.0000 </r>
       <r>    1.7425    1.0000 </r>
       <r>    4.8949    1.0000 </r>
       <r>    4.8949    1.0000 </r>
       <r>    7.6108    0.0000 </r>
       <r>    9.1576    0.0000 </r>
       <r>    9.1576    0.0000 </r>
       <r>   12.4007    0.0000 </r>
      </set>
      <set comment="kpoint 20">
       <r>   -4.7416    1.0000 </r>
       <r>    0.8099    1.0000 </r>
       <r>    2.7859    1.0000 </r>
       <r>    4.7249    1.0000 </r>
       <r>    8.4011    0.0000 </r>
       <r>    9.6488    0.0000 </r>
       <r>    9.8186    0.0000 </r>
       <r>   11.7129    0.0000 </r>
      </set>
      <set comment="kpoint 21">
       <r>   -3.5815    1.0000 </r>
       <r>   -0.6199    1.0000 </r>
       <r>    1.6954    1.0000 </r>
       <r>    3.9480    1.0000 </r>
       <r>    7.6926    0.0000 </r>
       <r>   10.9666    0.0000 </r>
       <r>   11.0668    0.0000 </r>
       <r>   12.7631    0.0000 </r>
      </set>
      <set comment="kpoint 22">
       <r>   -3.5292    1.0000 </r>
       <r>   -0.6990    1.0000 </r>
       <r>    2.1652    1.0000 </r>
       <r>    3.4711    1.0000 </r>
       <r>    7.2043    0.0000 </r>
       <r>   10.1172    0.0000 </r>
       <r>   11.3236    0.0000 </r>
       <r>   11.5774    0.0000 </r>
      </set>
      <set comment="kpoint 23">
       <r>   -4.3242    1.0000 </r>
       <r>    0.0137    1.0000 </r>
       <r>    3.2391    1.0000 </r>
       <r>    3.8402    1.0000 </r>
       <r>    7.6733    0.0000 </r>
       <r>    9.8611    0.0000 </r>
       <r>   10.5563    0.0000 </r>
       <r>   10.7125    0.0000 </r>
      </set>
      <set comment="kpoint 24">
       <r>   -3.3374    1.0000 </r>
       <r>   -0.7375    1.0000 </r>
       <r>    1.7948    1.0000 </r>
       <r>    3.0590    1.0000 </r>
       <r>    8.8925    0.0000 </r>
       <r>    9.4205    0.0000 </r>
       <r>   10.3905    0.0000 </r>
       <r>   13.1206    0.0000 </r>
      </set>
      <set comment="kpoint 25">
       <r>   -2.5191    1.0000 </r>
       <r>   -1.4688    1.0000 </r>
       <r>    1.6364    1.0000 </r>
       <r>    2.4009    1.0000 </r>
       <r>    8.6950    0.0000 </r>
       <r>    9.9623    0.0000 </r>
       <r>   10.7207    0.0000 </r>
       <r>   12.1110    0.0000 </r>
      </set>
      <set comment="kpoint 26">
       <r>   -2.7271    1.0000 </r>
       <r>   -1.3720    1.0000 </r>
       <r>    1.5117    1.0000 </r>
       <r>    3.2784    1.0000 </r>
       <r>    6.9300    0.0000 </r>
       <r>    9.8273    0.0000 </r>
       <r>   12.7345    0.0000 </r>
       <r>   12.8911    0.0000 </r>
      </set>
      <set comment="kpoint 27">
       <r>   -4.2388    1.0000 </r>
       <r>   -0.7532    1.0000 </r>
       <r>    4.5067    1.0000 </r>
       <r>    4.5067    1.0000 </r>
       <r>    7.1769    0.0000 </r>
       <r>    9.0804    0.0000 </r>
       <r>    9.0804    0.0000 </r>
       <r>   13.4297    0.0000 </r>
      </set>
      <set comment="kpoint 28">
       <r>   -3.6439    1.0000 </r>
       <r>   -1.0559    1.0000 </r>
       <r>    2.6912    1.0000 </r>
       <r>    4.0721    1.0000 </r>
       <r>    7.8371    0.0000 </r>
       <r>    9.6949    0.0000 </r>
       <r>   10.0691    0.0000 </r>
       <r>   13.5949    0.0000 </r>
      </set>
     </set>
    </set>
   </array>
  </eigenvalues>
  <separator name="orbital magnetization" >
   <v name="MAGDIPOLOUT">      0.00000000      0.00000000      0.00000000</v>
  </separator>
  <dos>
   <i name="efermi">      5.97912513 </i>
   <total>
    <array>
     <dimension dim="1">gridpoints</dimension>
     <dimension dim="2">spin</dimension>
     <field>energy</field>
     <field>total</field>
     <field>integrated</field>
     <set>
      <set comment="spin 1">
       <r>    -8.1071     0.0000     0.0000 </r>
       <r>    -8.0243     0.0000     0.0000 </r>
       <r>    -7.9415     0.0000     0.0000 </r>
       <r>    -7.8586     0.0000     0.0000 </r>
       <r>    -7.7758     0.0000     0.0000 </r>
       <r>    -7.6930     0.0000     0.0000 </r>
       <r>    -7.6101     0.0000     0.0000 </r>
       <r>    -7.5273     0.0000     0.0000 </r>
       <r>    -7.4445     0.0000     0.0000 </r>
       <r>    -7.3616     0.0000     0.0000 </r>
       <r>    -7.2788     0.0000     0.0000 </r>
       <r>    -7.1960     0.0000     0.0000 </r>
       <r>    -7.1131     0.0000     0.0000 </r>
       <r>    -7.0303     0.0000     0.0000 </r>
       <r>    -6.9475     0.0000     0.0000 </r>
       <r>    -6.8646     0.0000     0.0000 </r>
       <r>    -6.7818     0.0000     0.0000 </r>
       <r>    -6.6990     0.0000     0.0000 </r>
       <r>    -6.6161     0.0000     0.0000 </r>
       <r>    -6.5333     0.0003     0.0000 </r>
       <r>    -6.4505     0.0014     0.0001 </r>
       <r>    -6.3676     0.0057     0.0006 </r>
       <r>    -6.2848     0.0170     0.0020 </r>
       <r>    -6.2020     0.0380     0.0052 </r>
       <r>    -6.1191     0.0680     0.0108 </r>
       <r>    -6.0363     0.1059     0.0196 </r>
       <r>    -5.9535     0.1505     0.0320 </r>
       <r>    -5.8706     0.1934     0.0481 </r>
       <r>    -5.7878     0.2218     0.0664 </r>
       <r>    -5.7050     0.2362     0.0860 </r>
       <r>    -5.6222     0.2475     0.1065 </r>
       <r>    -5.5393     0.2642     0.1284 </r>
       <r>    -5.4565     0.2921     0.1526 </r>
       <r>    -5.3737     0.3319     0.1801 </r>
       <r>    -5.2908     0.3774     0.2113 </r>
       <r>    -5.2080     0.4156     0.2458 </r>
       <r>    -5.1252     0.4237     0.2809 </r>
       <r>    -5.0423     0.3923     0.3134 </r>
       <r>    -4.9595     0.3501     0.3424 </r>
       <r>    -4.8767     0.3421     0.3707 </r>
       <r>    -4.7938     0.3924     0.4032 </r>
       <r>    -4.7110     0.4875     0.4436 </r>
       <r>    -4.6282     0.5866     0.4922 </r>
       <r>    -4.5453     0.6462     0.5457 </r>
       <r>    -4.4625     0.6381     0.5985 </r>
       <r>    -4.3797     0.5761     0.6463 </r>
       <r>    -4.2968     0.5231     0.6896 </r>
       <r>    -4.2140     0.5399     0.7343 </r>
       <r>    -4.1312     0.6253     0.7861 </r>
       <r>    -4.0483     0.7153     0.8454 </r>
       <r>    -3.9655     0.7473     0.9073 </r>
       <r>    -3.8827     0.7286     0.9676 </r>
       <r>    -3.7998     0.7289     1.0280 </r>
       <r>    -3.7170     0.8027     1.0945 </r>
       <r>    -3.6342     0.9246     1.1711 </r>
       <r>    -3.5513     1.0125     1.2549 </r>
       <r>    -3.4685     1.0160     1.3391 </r>
       <r>    -3.3857     0.9340     1.4165 </r>
       <r>    -3.3029     0.7711     1.4803 </r>
       <r>    -3.2200     0.5629     1.5270 </r>
       <r>    -3.1372     0.4031     1.5603 </r>
       <r>    -3.0544     0.3555     1.5898 </r>
       <r>    -2.9715     0.3833     1.6215 </r>
       <r>    -2.8887     0.4295     1.6571 </r>
       <r>    -2.8059     0.5072     1.6991 </r>
       <r>    -2.7230     0.6420     1.7523 </r>
       <r>    -2.6402     0.7743     1.8164 </r>
       <r>    -2.5574     0.7948     1.8823 </r>
       <r>    -2.4745     0.6595     1.9369 </r>
       <r>    -2.3917     0.4313     1.9726 </r>
       <r>    -2.3089     0.2177     1.9907 </r>
       <r>    -2.2260     0.0832     1.9976 </r>
       <r>    -2.1432     0.0237     1.9995 </r>
       <r>    -2.0604     0.0050     1.9999 </r>
       <r>    -1.9775     0.0012     2.0000 </r>
       <r>    -1.8947     0.0037     2.0003 </r>
       <r>    -1.8119     0.0206     2.0020 </r>
       <r>    -1.7290     0.0841     2.0090 </r>
       <r>    -1.6462     0.2473     2.0295 </r>
       <r>    -1.5634     0.5261     2.0731 </r>
       <r>    -1.4805     0.8177     2.1408 </r>
       <r>    -1.3977     0.9546     2.2199 </r>
       <r>    -1.3149     0.9091     2.2952 </r>
       <r>    -1.2320     0.8455     2.3652 </r>
       <r>    -1.1492     0.8879     2.4388 </r>
       <r>    -1.0664     0.9514     2.5176 </r>
       <r>    -0.9835     0.9028     2.5923 </r>
       <r>    -0.9007     0.7901     2.6578 </r>
       <r>    -0.8179     0.7800     2.7224 </r>
       <r>    -0.7351     0.9002     2.7970 </r>
       <r>    -0.6522     0.9811     2.8782 </r>
       <r>    -0.5694     0.8855     2.9516 </r>
       <r>    -0.4866     0.6829     3.0081 </r>
       <r>    -0.4037     0.5266     3.0518 </r>
       <r>    -0.3209     0.4671     3.0905 </r>
       <r>    -0.2381     0.4765     3.1299 </r>
       <r>    -0.1552     0.5512     3.1756 </r>
       <r>    -0.0724     0.6740     3.2314 </r>
       <r>     0.0104     0.7418     3.2928 </r>
       <r>     0.0933     0.6503     3.3467 </r>
       <r>     0.1761     0.4292     3.3823 </r>
       <r>     0.2589     0.2094     3.3996 </r>
       <r>     0.3418     0.0816     3.4064 </r>
       <r>     0.4246     0.0538     3.4108 </r>
       <r>     0.5074     0.1121     3.4201 </r>
       <r>     0.5903     0.2489     3.4407 </r>
       <r>     0.6731     0.4251     3.4759 </r>
       <r>     0.7559     0.5498     3.5215 </r>
       <r>     0.8388     0.5424     3.5664 </r>
       <r>     0.9216     0.4137     3.6007 </r>
       <r>     1.0044     0.2606     3.6223 </r>
       <r>     1.0873     0.1757     3.6368 </r>
       <r>     1.1701     0.1775     3.6515 </r>
       <r>     1.2529     0.2360     3.6711 </r>
       <r>     1.3358     0.3435     3.6995 </r>
       <r>     1.4186     0.5275     3.7432 </r>
       <r>     1.5014     0.7866     3.8084 </r>
       <r>     1.5842     1.0568     3.8959 </r>
       <r>     1.6671     1.2407     3.9987 </r>
       <r>     1.7499     1.2596     4.1030 </r>
       <r>     1.8327     1.1181     4.1956 </r>
       <r>     1.9156     0.9258     4.2723 </r>
       <r>     1.9984     0.8238     4.3405 </r>
       <r>     2.0812     0.8920     4.4144 </r>
       <r>     2.1641     1.0913     4.5048 </r>
       <r>     2.2469     1.2664     4.6097 </r>
       <r>     2.3297     1.2804     4.7158 </r>
       <r>     2.4126     1.1555     4.8115 </r>
       <r>     2.4954     1.0296     4.8968 </r>
       <r>     2.5782     1.0236     4.9816 </r>
       <r>     2.6611     1.1656     5.0781 </r>
       <r>     2.7439     1.3584     5.1906 </r>
       <r>     2.8267     1.4556     5.3112 </r>
       <r>     2.9096     1.4419     5.4306 </r>
       <r>     2.9924     1.4484     5.5506 </r>
       <r>     3.0752     1.5372     5.6779 </r>
       <r>     3.1581     1.6069     5.8110 </r>
       <r>     3.2409     1.5594     5.9402 </r>
       <r>     3.3237     1.4316     6.0588 </r>
       <r>     3.4066     1.3313     6.1691 </r>
       <r>     3.4894     1.3020     6.2769 </r>
       <r>     3.5722     1.2859     6.3834 </r>
       <r>     3.6551     1.2431     6.4864 </r>
       <r>     3.7379     1.2211     6.5875 </r>
       <r>     3.8207     1.2555     6.6915 </r>
       <r>     3.9036     1.3215     6.8010 </r>
       <r>     3.9864     1.3950     6.9166 </r>
       <r>     4.0692     1.4469     7.0364 </r>
       <r>     4.1520     1.4172     7.1538 </r>
       <r>     4.2349     1.2823     7.2600 </r>
       <r>     4.3177     1.0864     7.3500 </r>
       <r>     4.4005     0.8872     7.4235 </r>
       <r>     4.4834     0.7419     7.4849 </r>
       <r>     4.5662     0.7095     7.5437 </r>
       <r>     4.6490     0.7782     7.6082 </r>
       <r>     4.7319     0.8396     7.6777 </r>
       <r>     4.8147     0.8003     7.7440 </r>
       <r>     4.8975     0.6714     7.7996 </r>
       <r>     4.9804     0.5189     7.8426 </r>
       <r>     5.0632     0.3883     7.8748 </r>
       <r>     5.1460     0.2971     7.8994 </r>
       <r>     5.2289     0.2493     7.9200 </r>
       <r>     5.3117     0.2314     7.9392 </r>
       <r>     5.3945     0.2171     7.9572 </r>
       <r>     5.4774     0.1902     7.9729 </r>
       <r>     5.5602     0.1488     7.9853 </r>
       <r>     5.6430     0.0984     7.9934 </r>
       <r>     5.7259     0.0516     7.9977 </r>
       <r>     5.8087     0.0205     7.9994 </r>
       <r>     5.8915     0.0060     7.9999 </r>
       <r>     5.9744     0.0014     8.0000 </r>
       <r>     6.0572     0.0013     8.0001 </r>
       <r>     6.1400     0.0061     8.0006 </r>
       <r>     6.2229     0.0241     8.0026 </r>
       <r>     6.3057     0.0699     8.0084 </r>
       <r>     6.3885     0.1499     8.0208 </r>
       <r>     6.4713     0.2403     8.0407 </r>
       <r>     6.5542     0.2935     8.0650 </r>
       <r>     6.6370     0.2882     8.0889 </r>
       <r>     6.7198     0.2672     8.1110 </r>
       <r>     6.8027     0.2989     8.1358 </r>
       <r>     6.8855     0.3983     8.1688 </r>
       <r>     6.9683     0.5191     8.2118 </r>
       <r>     7.0512     0.6250     8.2636 </r>
       <r>     7.1340     0.7207     8.3232 </r>
       <r>     7.2168     0.8024     8.3897 </r>
       <r>     7.2997     0.8479     8.4599 </r>
       <r>     7.3825     0.8590     8.5311 </r>
       <r>     7.4653     0.8731     8.6034 </r>
       <r>     7.5482     0.9473     8.6819 </r>
       <r>     7.6310     1.1268     8.7752 </r>
       <r>     7.7138     1.3755     8.8892 </r>
       <r>     7.7967     1.5588     9.0183 </r>
       <r>     7.8795     1.5518     9.1468 </r>
       <r>     7.9623     1.3739     9.2606 </r>
       <r>     8.0452     1.1862     9.3589 </r>
       <r>     8.1280     1.1481     9.4540 </r>
       <r>     8.2108     1.2787     9.5599 </r>
       <r>     8.2937     1.4309     9.6784 </r>
       <r>     8.3765     1.4375     9.7975 </r>
       <r>     8.4593     1.3065     9.9057 </r>
       <r>     8.5422     1.2111    10.0060 </r>
       <r>     8.6250     1.2781    10.1119 </r>
       <r>     8.7078     1.4607    10.2329 </r>
       <r>     8.7907     1.6297    10.3679 </r>
       <r>     8.8735     1.6978    10.5085 </r>
       <r>     8.9563     1.6512    10.6453 </r>
       <r>     9.0391     1.5627    10.7747 </r>
       <r>     9.1220     1.5481    10.9030 </r>
       <r>     9.2048     1.6414    11.0389 </r>
       <r>     9.2876     1.7606    11.1848 </r>
       <r>     9.3705     1.8038    11.3342 </r>
       <r>     9.4533     1.7268    11.4772 </r>
       <r>     9.5361     1.5601    11.6065 </r>
       <r>     9.6190     1.3830    11.7210 </r>
       <r>     9.7018     1.2588    11.8253 </r>
       <r>     9.7846     1.1922    11.9240 </r>
       <r>     9.8675     1.1566    12.0198 </r>
       <r>     9.9503     1.1541    12.1154 </r>
       <r>    10.0331     1.2304    12.2174 </r>
       <r>    10.1160     1.3931    12.3328 </r>
       <r>    10.1988     1.5399    12.4603 </r>
       <r>    10.2816     1.5544    12.5891 </r>
       <r>    10.3645     1.4562    12.7097 </r>
       <r>    10.4473     1.3661    12.8228 </r>
       <r>    10.5301     1.3547    12.9351 </r>
       <r>    10.6130     1.3890    13.0501 </r>
       <r>    10.6958     1.3815    13.1645 </r>
       <r>    10.7786     1.2734    13.2700 </r>
       <r>    10.8615     1.0917    13.3604 </r>
       <r>    10.9443     0.9049    13.4354 </r>
       <r>    11.0271     0.7434    13.4970 </r>
       <r>    11.1100     0.6275    13.5490 </r>
       <r>    11.1928     0.6252    13.6007 </r>
       <r>    11.2756     0.7890    13.6661 </r>
       <r>    11.3584     1.0654    13.7544 </r>
       <r>    11.4413     1.3417    13.8655 </r>
       <r>    11.5241     1.5582    13.9946 </r>
       <r>    11.6069     1.6905    14.1346 </r>
       <r>    11.6898     1.6720    14.2731 </r>
       <r>    11.7726     1.4658    14.3945 </r>
       <r>    11.8554     1.1644    14.4910 </r>
       <r>    11.9383     0.9008    14.5656 </r>
       <r>    12.0211     0.7256    14.6257 </r>
       <r>    12.1039     0.6295    14.6778 </r>
       <r>    12.1868     0.6073    14.7281 </r>
       <r>    12.2696     0.6564    14.7825 </r>
       <r>    12.3524     0.7262    14.8426 </r>
       <r>    12.4353     0.7248    14.9027 </r>
       <r>    12.5181     0.6401    14.9557 </r>
       <r>    12.6009     0.5871    15.0043 </r>
       <r>    12.6838     0.6489    15.0581 </r>
       <r>    12.7666     0.7457    15.1198 </r>
       <r>    12.8494     0.7597    15.1828 </r>
       <r>    12.9323     0.7212    15.2425 </r>
       <r>    13.0151     0.7651    15.3059 </r>
       <r>    13.0979     0.9228    15.3823 </r>
       <r>    13.1808     1.0488    15.4692 </r>
       <r>    13.2636     0.9887    15.5511 </r>
       <r>    13.3464     0.7695    15.6148 </r>
       <r>    13.4293     0.5539    15.6607 </r>
       <r>    13.5121     0.4391    15.6971 </r>
       <r>    13.5949     0.3792    15.7285 </r>
       <r>    13.6777     0.2952    15.7529 </r>
       <r>    13.7606     0.1828    15.7681 </r>
       <r>    13.8434     0.0932    15.7758 </r>
       <r>    13.9262     0.0669    15.7813 </r>
       <r>    14.0091     0.1135    15.7907 </r>
       <r>    14.0919     0.2109    15.8082 </r>
       <r>    14.1747     0.2954    15.8327 </r>
       <r>    14.2576     0.2988    15.8574 </r>
       <r>    14.3404     0.2216    15.8758 </r>
       <r>    14.4232     0.1377    15.8872 </r>
       <r>    14.5061     0.1190    15.8971 </r>
       <r>    14.5889     0.1780    15.9118 </r>
       <r>    14.6717     0.2638    15.9336 </r>
       <r>    14.7546     0.3000    15.9585 </r>
       <r>    14.8374     0.2509    15.9793 </r>
       <r>    14.9202     0.1533    15.9920 </r>
       <r>    15.0031     0.0684    15.9976 </r>
       <r>    15.0859     0.0222    15.9995 </r>
       <r>    15.1687     0.0052    15.9999 </r>
       <r>    15.2516     0.0009    16.0000 </r>
       <r>    15.3344     0.0001    16.0000 </r>
       <r>    15.4172     0.0000    16.0000 </r>
       <r>    15.5001     0.0000    16.0000 </r>
       <r>    15.5829     0.0000    16.0000 </r>
       <r>    15.6657     0.0000    16.0000 </r>
       <r>    15.7486     0.0000    16.0000 </r>
       <r>    15.8314     0.0000    16.0000 </r>
       <r>    15.9142     0.0000    16.0000 </r>
       <r>    15.9971     0.0000    16.0000 </r>
       <r>    16.0799     0.0000    16.0000 </r>
       <r>    16.1627     0.0000    16.0000 </r>
       <r>    16.2455     0.0000    16.0000 </r>
       <r>    16.3284     0.0000    16.0000 </r>
       <r>    16.4112     0.0000    16.0000 </r>
       <r>    16.4940     0.0000    16.0000 </r>
       <r>    16.5769     0.0000    16.0000 </r>
       <r>    16.6597     0.0000    16.0000 </r>
       <r>    16.7425     0.0000    16.0000 </r>
      </set>
     </set>
    </array>
   </total>
  </dos>
 </calculation>
 <structure name="finalpos" >
  <crystal>
   <varray name="basis" >
    <v>       0.00000000       2.73352460       2.73352460 </v>
    <v>       2.73352460       0.00000000       2.73352460 </v>
    <v>       2.73352460       2.73352460      -0.00000000 </v>
   </varray>
   <i name="volume">     40.85064846 </i>
   <varray name="rec_basis" >
    <v>      -0.18291403       0.18291403       0.18291403 </v>
    <v>       0.18291403      -0.18291403       0.18291403 </v>
    <v>       0.18291403       0.18291403      -0.18291403 </v>
   </varray>
  </crystal>
  <varray name="positions" >
   <v>       0.50000000       0.50000000       0.50000000 </v>
   <v>       0.75000000       0.75000000       0.75000000 </v>
  </varray>
 </structure>
</modeling>
