unknown system                          
           1
     0.000000    2.715000    2.715000
     2.715000    0.000000    2.715000
     2.715000    2.715000    0.000000
   Si
   2
Direct configuration=     1
   0.50000000  0.50000000  0.50000000
   0.75000000  0.75000000  0.75000000
unknown system                          
           1
     0.000000    2.745595    2.745595
     2.745595    0.000000    2.745595
     2.745595    2.745595   -0.000000
   Si
   2
Direct configuration=     2
   0.50000000  0.50000000  0.50000000
   0.75000000  0.75000000  0.75000000
unknown system                          
           1
     0.000000    2.733525    2.733525
     2.733525    0.000000    2.733525
     2.733525    2.733525   -0.000000
   Si
   2
Direct configuration=     3
   0.50000000  0.50000000  0.50000000
   0.75000000  0.75000000  0.75000000
