unknown system                          
   1.00000000000000     
    -2.450000    2.450000    1.274000
     2.450000   -2.450000    1.274000
     2.450000    2.450000   -1.274000
   Si
     2
Direct
  0.250000  0.750000  0.500000
  0.000000  0.000000  0.000000
 
   28   28   28
 -.55776571236E+01 -.40441435777E+01 -.48210257170E-01 0.48987567072E+01 0.91059045531E+01
 0.11440938385E+02 0.11702582169E+02 0.10502056967E+02 0.87918500370E+01 0.71705993607E+01
 0.58162161030E+01 0.47888925373E+01 0.40852545676E+01 0.36788674115E+01 0.35463157074E+01
 0.36788616359E+01 0.40852640687E+01 0.47889171433E+01 0.58162310078E+01 0.71705967617E+01
 0.87918478578E+01 0.10502063241E+02 0.11702585580E+02 0.11440936443E+02 0.91059069622E+01
 0.48987590893E+01 -.48221957236E-01 -.40441612927E+01 -.40441612927E+01 -.48371229518E+01
 -.26870088330E+01 0.15529515027E+01 0.62924552915E+01 0.99595876801E+01 0.11661983229E+02
 0.11432383332E+02 0.10007436365E+02 0.82991861616E+01 0.67462990760E+01 0.54835704882E+01
 0.45500525563E+01 0.39331298967E+01 0.36053843243E+01 0.35463282527E+01 0.37511679829E+01
 0.42322204657E+01 0.50146224701E+01 0.61219862244E+01 0.75469321379E+01 0.92089942509E+01
 0.10881355770E+02 0.11851317300E+02 0.11204359059E+02 0.84895383710E+01 0.41202019749E+01
 -.61865489126E+00 -.48221957236E-01 -.26870203515E+01 -.27505734456E+01 -.22178454165E+00
 0.38813294791E+01 0.80160171483E+01 0.10840469302E+02 0.11755645419E+02 0.11015619309E+02
 0.94258575698E+01 0.77598010989E+01 0.62992636948E+01 0.51433855505E+01 0.43114825361E+01
 0.37840882033E+01 0.35346293335E+01 0.35463614743E+01 0.38183662814E+01 0.43657395499E+01
 0.52139607804E+01 0.63822653458E+01 0.78521086139E+01 0.95259223059E+01 0.11134032728E+02
 0.11917652016E+02 0.11055377565E+02 0.82651511015E+01 0.41202019749E+01 0.48987590893E+01
 0.15529457021E+01 -.22178579839E+00 0.30879315985E+00 0.29125405757E+01 0.65132235606E+01
 0.97336571863E+01 0.11539641150E+02 0.11637221024E+02 0.10457236129E+02 0.87971032726E+01
 0.72042510589E+01 0.58545878473E+01 0.48141337225E+01 0.40856779265E+01 0.36457462437E+01
 0.34702007637E+01 0.35464039914E+01 0.38768191195E+01 0.44782314421E+01 0.53749976356E+01
 0.65808537049E+01 0.80669619224E+01 0.97238621936E+01 0.11259318979E+02 0.11935365577E+02
 0.11055377565E+02 0.84895383710E+01 0.91059069622E+01 0.62924536395E+01 0.38813312770E+01
 0.29125501346E+01 0.38168503120E+01 0.61891711375E+01 0.90041631593E+01 0.11140212112E+02
 0.11903776931E+02 0.11276748592E+02 0.97993096633E+01 0.81562319393E+01 0.66623792257E+01
 0.54352531228E+01 0.45120516310E+01 0.38833701731E+01 0.35245889349E+01 0.34151610823E+01
 0.35464434903E+01 0.39234352023E+01 0.45633405147E+01 0.54880367968E+01 0.67052504013E+01
 0.81779021112E+01 0.97911567987E+01 0.11259318979E+02 0.11917652016E+02 0.11204359059E+02
 0.11440936443E+02 0.99595835040E+01 0.80160114731E+01 0.65132321191E+01 0.61891884249E+01
 0.72175096750E+01 0.91112177721E+01 0.10987734697E+02 0.12029970398E+02 0.11872088233E+02
 0.10710079436E+02 0.91113586217E+01 0.75371277304E+01 0.61611652616E+01 0.50606865094E+01
 0.42502737691E+01 0.37130386334E+01 0.34257051003E+01 0.33719143477E+01 0.35464721107E+01
 0.39558363563E+01 0.46163361131E+01 0.55462947537E+01 0.67476064406E+01 0.81779021112E+01
 0.97238621936E+01 0.11134032728E+02 0.11851317300E+02 0.11702585580E+02 0.11661986377E+02
 0.10840459901E+02 0.97336490429E+01 0.90041754486E+01 0.91112372452E+01 0.10041957404E+02
 0.11314265750E+02 0.12248391091E+02 0.12335750212E+02 0.11486600658E+02 0.10030632171E+02
 0.84452402193E+01 0.69712725862E+01 0.57232582181E+01 0.47460423717E+01 0.40385497745E+01
 0.35808241484E+01 0.33527570327E+01 0.33421838733E+01 0.35464880344E+01 0.39724322673E+01
 0.46343249434E+01 0.55462947537E+01 0.67052504013E+01 0.80669619224E+01 0.95259223059E+01
 0.10881355770E+02 0.10502063241E+02 0.11432400201E+02 0.11755652980E+02 0.11539629995E+02
 0.11140203992E+02 0.10987746637E+02 0.11314281482E+02 0.11998066696E+02 0.12628975733E+02
 0.12751696684E+02 0.12130390931E+02 0.10874829605E+02 0.93503652491E+01 0.78394738813E+01
 0.64859052987E+01 0.53663315983E+01 0.45021959009E+01 0.38834779960E+01 0.34907664768E+01
 0.33081223615E+01 0.33270580985E+01 0.35464929473E+01 0.39724322673E+01 0.46163361131E+01
 0.54880367968E+01 0.65808537049E+01 0.78521086139E+01 0.92089942509E+01 0.87918478578E+01
 0.10007449890E+02 0.11015643766E+02 0.11637231370E+02 0.11903768240E+02 0.12029964766E+02
 0.12248399078E+02 0.12628983575E+02 0.13010108379E+02 0.13091799376E+02 0.12628592491E+02
 0.11593922008E+02 0.10207951120E+02 0.87324276276E+01 0.73289119798E+01 0.61029779118E+01
 0.51031584970E+01 0.43362641754E+01 0.37890681520E+01 0.34452116551E+01 0.32931067061E+01
 0.33270580985E+01 0.35464880344E+01 0.39558363563E+01 0.45633405147E+01 0.53749976356E+01
 0.63822653458E+01 0.75469321379E+01 0.71705967617E+01 0.82991835144E+01 0.94258727899E+01
 0.10457260418E+02 0.11276759647E+02 0.11872085242E+02 0.12335748573E+02 0.12751698902E+02
 0.13091798325E+02 0.13204197934E+02 0.12907096956E+02 0.12122958411E+02 0.10956745128E+02
 0.96035541747E+01 0.82231357897E+01 0.69425042388E+01 0.58387946398E+01 0.49421400340E+01
 0.42523730314E+01 0.37573890434E+01 0.34452116551E+01 0.33081223615E+01 0.33421838733E+01
 0.35464721107E+01 0.39234352023E+01 0.44782314421E+01 0.52139607804E+01 0.61219862244E+01
 0.58162310078E+01 0.67462972700E+01 0.77597982467E+01 0.87971145406E+01 0.97993269927E+01
 0.10710089139E+02 0.11486604242E+02 0.12130393331E+02 0.12628589446E+02 0.12907089169E+02
 0.12849827755E+02 0.12376200330E+02 0.11517198730E+02 0.10387199236E+02 0.91233020668E+01
 0.78607946608E+01 0.67018074906E+01 0.57040598382E+01 0.48879674386E+01 0.42523730314E+01
 0.37890681520E+01 0.34907664768E+01 0.33527570327E+01 0.33719143477E+01 0.35464434903E+01
 0.38768191195E+01 0.43657395499E+01 0.50146224701E+01 0.47889171433E+01 0.54835863919E+01
 0.62992641017E+01 0.72042483214E+01 0.81562357605E+01 0.91113654285E+01 0.10030638796E+02
 0.10874837896E+02 0.11593927143E+02 0.12122952457E+02 0.12376189804E+02 0.12277485459E+02
 0.11805048414E+02 0.11000921049E+02 0.99628481464E+01 0.88148481534E+01 0.76725853938E+01
 0.66200838757E+01 0.57040598382E+01 0.49421400340E+01 0.43362641754E+01 0.38834779960E+01
 0.35808241484E+01 0.34257051003E+01 0.34151610823E+01 0.35464039914E+01 0.38183662814E+01
 0.42322204657E+01 0.40852640687E+01 0.45500705584E+01 0.51433988364E+01 0.58545909471E+01
 0.66623770179E+01 0.75371240769E+01 0.84452369732E+01 0.93503675938E+01 0.10207960340E+02
 0.10956751025E+02 0.11517192804E+02 0.11805038964E+02 0.11757803534E+02 0.11360755668E+02
 0.10657186011E+02 0.97367628212E+01 0.87085592129E+01 0.76725853938E+01 0.67018074906E+01
 0.58387946398E+01 0.51031584970E+01 0.45021959009E+01 0.40385497745E+01 0.37130386334E+01
 0.35245889349E+01 0.34702007637E+01 0.35463614743E+01 0.37511679829E+01 0.36788616359E+01
 0.39331290350E+01 0.43114890036E+01 0.48141420509E+01 0.54352580780E+01 0.61611641072E+01
 0.69712646822E+01 0.78394641954E+01 0.87324251311E+01 0.96035603766E+01 0.10387204173E+02
 0.11000917229E+02 0.11360749195E+02 0.11405567553E+02 0.11118932887E+02 0.10536785254E+02
 0.97367628212E+01 0.88148481534E+01 0.78607946608E+01 0.69425042388E+01 0.61029779118E+01
 0.53663315983E+01 0.47460423717E+01 0.42502737691E+01 0.38833701731E+01 0.36457462437E+01
 0.35346293335E+01 0.35463282527E+01 0.35463157074E+01 0.36053745479E+01 0.37840769212E+01
 0.40856730685E+01 0.45120541830E+01 0.50606913594E+01 0.57232586640E+01 0.64858979564E+01
 0.73289005373E+01 0.82231286378E+01 0.91233029776E+01 0.99628513854E+01 0.10657184609E+02
 0.11118928770E+02 0.11281224898E+02 0.11118932887E+02 0.10657186011E+02 0.99628481464E+01
 0.91233020668E+01 0.82231357897E+01 0.73289119798E+01 0.64859052987E+01 0.57232582181E+01
 0.50606865094E+01 0.45120516310E+01 0.40856779265E+01 0.37840882033E+01 0.36053843243E+01
 0.36788674115E+01 0.35463283501E+01 0.35346177108E+01 0.36457293959E+01 0.38833586281E+01
 0.42502709419E+01 0.47460447973E+01 0.53663340260E+01 0.61029751813E+01 0.69424945491E+01
 0.78607838225E+01 0.88148442233E+01 0.97367648147E+01 0.10536784887E+02 0.11118928770E+02
 0.11405567553E+02 0.11360755668E+02 0.11000921049E+02 0.10387199236E+02 0.96035541747E+01
 0.87324276276E+01 0.78394738813E+01 0.69712725862E+01 0.61611652616E+01 0.54352531228E+01
 0.48141337225E+01 0.43114825361E+01 0.39331298967E+01 0.40852545676E+01 0.37511693093E+01
 0.35463613197E+01 0.34701906978E+01 0.35245742594E+01 0.37130269538E+01 0.40385426510E+01
 0.45021942631E+01 0.51031629102E+01 0.58387978837E+01 0.67018005175E+01 0.76725725143E+01
 0.87085533434E+01 0.97367648147E+01 0.10657184609E+02 0.11360749195E+02 0.11757803534E+02
 0.11805048414E+02 0.11517198730E+02 0.10956745128E+02 0.10207951120E+02 0.93503652491E+01
 0.84452402193E+01 0.75371277304E+01 0.66623792257E+01 0.58545878473E+01 0.51433855505E+01
 0.45500525563E+01 0.47888925373E+01 0.42322053888E+01 0.38183641149E+01 0.35464030404E+01
 0.34151560669E+01 0.34256998238E+01 0.35808176911E+01 0.38834678840E+01 0.43362583410E+01
 0.49421459351E+01 0.57040671610E+01 0.66200781398E+01 0.76725725143E+01 0.88148442233E+01
 0.99628513854E+01 0.11000917229E+02 0.11805038964E+02 0.12277485459E+02 0.12376200330E+02
 0.12122958411E+02 0.11593922008E+02 0.10874829605E+02 0.10030632171E+02 0.91113586217E+01
 0.81562319393E+01 0.72042510589E+01 0.62992636948E+01 0.54835704882E+01 0.58162161030E+01
 0.50145997792E+01 0.43657261827E+01 0.38768150587E+01 0.35464412650E+01 0.33719165514E+01
 0.33527646114E+01 0.34907670888E+01 0.37890563212E+01 0.42523645509E+01 0.48879738936E+01
 0.57040671610E+01 0.67018005175E+01 0.78607838225E+01 0.91233029776E+01 0.10387204173E+02
 0.11517192804E+02 0.12376189804E+02 0.12849827755E+02 0.12907096956E+02 0.12628592491E+02
 0.12130390931E+02 0.11486600658E+02 0.10710079436E+02 0.97993096633E+01 0.87971032726E+01
 0.77598010989E+01 0.67462990760E+01 0.71705993607E+01 0.61219763031E+01 0.52139488511E+01
 0.44782263406E+01 0.39234306971E+01 0.35464684610E+01 0.33421930986E+01 0.33081408298E+01
 0.34452171290E+01 0.37573766564E+01 0.42523645509E+01 0.49421459351E+01 0.58387978837E+01
 0.69424945491E+01 0.82231286378E+01 0.96035603766E+01 0.10956751025E+02 0.12122952457E+02
 0.12907089169E+02 0.13204197934E+02 0.13091799376E+02 0.12751696684E+02 0.12335750212E+02
 0.11872088233E+02 0.11276748592E+02 0.10457236129E+02 0.94258575698E+01 0.82991861616E+01
 0.87918500370E+01 0.75469338896E+01 0.63822634217E+01 0.53750020127E+01 0.45633466889E+01
 0.39558322077E+01 0.35464832679E+01 0.33270716377E+01 0.32931294169E+01 0.34452171290E+01
 0.37890563212E+01 0.43362583410E+01 0.51031629102E+01 0.61029751813E+01 0.73289005373E+01
 0.87324251311E+01 0.10207960340E+02 0.11593927143E+02 0.12628589446E+02 0.13091798325E+02
 0.13010108379E+02 0.12628975733E+02 0.12248391091E+02 0.12029970398E+02 0.11903776931E+02
 0.11637221024E+02 0.11015619309E+02 0.10007436365E+02 0.10502056967E+02 0.92089957713E+01
 0.78521083868E+01 0.65808605817E+01 0.54880572680E+01 0.46163517738E+01 0.39724285343E+01
 0.35464877585E+01 0.33270716377E+01 0.33081408298E+01 0.34907670888E+01 0.38834678840E+01
 0.45021942631E+01 0.53663340260E+01 0.64858979564E+01 0.78394641954E+01 0.93503675938E+01
 0.10874837896E+02 0.12130393331E+02 0.12751698902E+02 0.12628983575E+02 0.11998066696E+02
 0.11314265750E+02 0.10987734697E+02 0.11140212112E+02 0.11539641150E+02 0.11755645419E+02
 0.11432383332E+02 0.11702582169E+02 0.10881359993E+02 0.95259231217E+01 0.80669595370E+01
 0.67052641138E+01 0.55463251473E+01 0.46343442845E+01 0.39724285343E+01 0.35464832679E+01
 0.33421930986E+01 0.33527646114E+01 0.35808176911E+01 0.40385426510E+01 0.47460447973E+01
 0.57232586640E+01 0.69712646822E+01 0.84452369732E+01 0.10030638796E+02 0.11486604242E+02
 0.12335748573E+02 0.12248399078E+02 0.11314281482E+02 0.10041957404E+02 0.91112177721E+01
 0.90041631593E+01 0.97336571863E+01 0.10840469302E+02 0.11661983229E+02 0.11440938385E+02
 0.11851329031E+02 0.11134047063E+02 0.97238624630E+01 0.81778983517E+01 0.67476227285E+01
 0.55463251473E+01 0.46163517738E+01 0.39558322077E+01 0.35464684610E+01 0.33719165514E+01
 0.34256998238E+01 0.37130269538E+01 0.42502709419E+01 0.50606913594E+01 0.61611641072E+01
 0.75371240769E+01 0.91113654285E+01 0.10710089139E+02 0.11872085242E+02 0.12029964766E+02
 0.10987746637E+02 0.91112372452E+01 0.72175096750E+01 0.61891711375E+01 0.65132235606E+01
 0.80160171483E+01 0.99595876801E+01 0.91059045531E+01 0.11204365484E+02 0.11917675551E+02
 0.11259339467E+02 0.97911568618E+01 0.81778983517E+01 0.67052641138E+01 0.54880572680E+01
 0.45633466889E+01 0.39234306971E+01 0.35464412650E+01 0.34151560669E+01 0.35245742594E+01
 0.38833586281E+01 0.45120541830E+01 0.54352580780E+01 0.66623770179E+01 0.81562357605E+01
 0.97993269927E+01 0.11276759647E+02 0.11903768240E+02 0.11140203992E+02 0.90041754486E+01
 0.61891884249E+01 0.38168503120E+01 0.29125405757E+01 0.38813294791E+01 0.62924552915E+01
 0.48987567072E+01 0.84895306109E+01 0.11055386618E+02 0.11935393559E+02 0.11259339467E+02
 0.97238624630E+01 0.80669595370E+01 0.65808605817E+01 0.53750020127E+01 0.44782263406E+01
 0.38768150587E+01 0.35464030404E+01 0.34701906978E+01 0.36457293959E+01 0.40856730685E+01
 0.48141420509E+01 0.58545909471E+01 0.72042483214E+01 0.87971145406E+01 0.10457260418E+02
 0.11637231370E+02 0.11539629995E+02 0.97336490429E+01 0.65132321191E+01 0.29125501346E+01
 0.30879315985E+00 -.22178454165E+00 0.15529515027E+01 -.48210257170E-01 0.41201970973E+01
 0.82651412964E+01 0.11055386618E+02 0.11917675551E+02 0.11134047063E+02 0.95259231217E+01
 0.78521083868E+01 0.63822634217E+01 0.52139488511E+01 0.43657261827E+01 0.38183641149E+01
 0.35463613197E+01 0.35346177108E+01 0.37840769212E+01 0.43114890036E+01 0.51433988364E+01
 0.62992641017E+01 0.77597982467E+01 0.94258727899E+01 0.11015643766E+02 0.11755652980E+02
 0.10840459901E+02 0.80160114731E+01 0.38813312770E+01 -.22178579839E+00 -.27505734456E+01
 -.26870088330E+01 -.40441435777E+01 -.61864097576E+00 0.41201970973E+01 0.84895306109E+01
 0.11204365484E+02 0.11851329031E+02 0.10881359993E+02 0.92089957713E+01 0.75469338896E+01
 0.61219763031E+01 0.50145997792E+01 0.42322053888E+01 0.37511693093E+01 0.35463283501E+01
 0.36053745479E+01 0.39331290350E+01 0.45500705584E+01 0.54835863919E+01 0.67462972700E+01
 0.82991835144E+01 0.10007449890E+02 0.11432400201E+02 0.11661986377E+02 0.99595835040E+01
 0.62924536395E+01 0.15529457021E+01 -.26870203515E+01 -.48371229518E+01 -.40440826772E+01
 -.29323512364E+01 0.56120566641E+00 0.50866880906E+01 0.90424887580E+01 0.11292850257E+02
 0.11569461553E+02 0.10404581534E+02 0.87045861574E+01 0.70779438551E+01 0.57084950439E+01
 0.46599410900E+01 0.39309471967E+01 0.34949684656E+01 0.33269899789E+01 0.34160830409E+01
 0.37688544537E+01 0.44073825212E+01 0.53594209538E+01 0.66354742109E+01 0.81916112987E+01
 0.98856160236E+01 0.11245893172E+02 0.11374635364E+02 0.96072381915E+01 0.60013507900E+01
 0.15054420105E+01 -.23343574951E+01 -.29323645577E+01 -.40440927260E+01 -.23343664875E+01
 0.15054197745E+01 0.60013200669E+01 0.96072136979E+01 0.11374613084E+02 0.11245863007E+02
 0.98855903394E+01 0.81916068117E+01 0.66354778412E+01 0.53594087673E+01 0.44073608103E+01
 0.37688467537E+01 0.34160887330E+01 0.33269926401E+01 0.34949733811E+01 0.39309714590E+01
 0.46599753426E+01 0.57085137561E+01 0.70779474143E+01 0.87045969089E+01 0.10404604546E+02
 0.11569483714E+02 0.11292870715E+02 0.90425154811E+01 0.50867110956E+01 0.56120752447E+00
 0.66093323724E+00 -.22280721351E+01 -.26869709954E+01 -.54946298846E+00 0.33023169781E+01
 0.73840720662E+01 0.10318429024E+02 0.11411217675E+02 0.10819706176E+02 0.92967823115E+01
 0.76446099684E+01 0.61810469221E+01 0.50133502526E+01 0.41662115031E+01 0.36219435469E+01
 0.33533184466E+01 0.33421372743E+01 0.35862915404E+01 0.41004415817E+01 0.49111618966E+01
 0.60420066927E+01 0.74840701868E+01 0.91555048654E+01 0.10829671281E+02 0.11814589278E+02
 0.11261039622E+02 0.87904454851E+01 0.48467467221E+01 0.53457391511E+01 0.17921921238E+01
 -.35015712380E+00 -.22176125149E+00 0.20907667283E+01 0.56041925880E+01 0.89396927555E+01
 0.10978444650E+02 0.11311721713E+02 0.10284189234E+02 0.86736475265E+01 0.70917761436E+01
 0.57380864151E+01 0.46876282654E+01 0.39481116826E+01 0.34971463706E+01 0.33096684077E+01
 0.33719010544E+01 0.36858599785E+01 0.42688937491E+01 0.51476123932E+01 0.63410727449E+01
 0.78300034288E+01 0.95179393860E+01 0.11146508701E+02 0.12005315710E+02 0.11345221271E+02
 0.89383542377E+01 0.94690372764E+01 0.64884273688E+01 0.37416013457E+01 0.23594231390E+01
 0.29125482846E+01 0.51174285862E+01 0.79911911644E+01 0.10358927597E+02 0.11412864609E+02
 0.11021179122E+02 0.96619946047E+01 0.80481412762E+01 0.65599383677E+01 0.53277581492E+01
 0.43972865494E+01 0.37628596766E+01 0.34000710843E+01 0.32872869800E+01 0.34151904577E+01
 0.37891308567E+01 0.44278016264E+01 0.53562319729E+01 0.65878694867E+01 0.80940539564E+01
 0.97688145042E+01 0.11344272186E+02 0.12150177050E+02 0.11558770119E+02 0.11855863119E+02
 0.10264390710E+02 0.80439025878E+01 0.61467099331E+01 0.54263326893E+01 0.61891632938E+01
 0.80328559015E+01 0.10069395747E+02 0.11393267343E+02 0.11516799440E+02 0.10540990558E+02
 0.90068257108E+01 0.74490261828E+01 0.60732746690E+01 0.49679444845E+01 0.41544410463E+01
 0.36180201091E+01 0.33347785250E+01 0.32872940297E+01 0.34702731612E+01 0.38912717435E+01
 0.45688244886E+01 0.55248871246E+01 0.67667529099E+01 0.82583350594E+01 0.98901774960E+01
 0.11410997362E+02 0.12234158671E+02 0.12221610517E+02 0.12144440940E+02 0.11137199247E+02
 0.97037171327E+01 0.85825673152E+01 0.83528714955E+01 0.91111968045E+01 0.10419684106E+02
 0.11556399822E+02 0.11909506631E+02 0.11279634121E+02 0.99316396206E+01 0.83721353370E+01
 0.69035021254E+01 0.56523226365E+01 0.46726784291E+01 0.39679885526E+01 0.35187691673E+01
 0.33036633950E+01 0.33096857653E+01 0.35347336477E+01 0.39872559458E+01 0.46841560213E+01
 0.56431536890E+01 0.68655158823E+01 0.83104529993E+01 0.98711729906E+01 0.11333398332E+02
 0.11101568146E+02 0.12069088512E+02 0.12314399182E+02 0.11881574835E+02 0.11157738380E+02
 0.10659329913E+02 0.10726084202E+02 0.11314237036E+02 0.12022534612E+02 0.12332922626E+02
 0.11910849934E+02 0.10782658739E+02 0.92941763359E+01 0.77916482508E+01 0.64359264393E+01
 0.53134442460E+01 0.44520504875E+01 0.38436947002E+01 0.34679983751E+01 0.33075014525E+01
 0.33533363176E+01 0.36054991665E+01 0.40720200618E+01 0.47669446586E+01 0.57031187046E+01
 0.68766088375E+01 0.82450684176E+01 0.97098643844E+01 0.94144013091E+01 0.10716758270E+02
 0.11743596128E+02 0.12272077697E+02 0.12327287729E+02 0.12166819107E+02 0.12105158748E+02
 0.12297575004E+02 0.12628946375E+02 0.12783793497E+02 0.12450127502E+02 0.11521878559E+02
 0.10172119337E+02 0.87029636153E+01 0.72967456433E+01 0.60668434868E+01 0.50687587846E+01
 0.43125293012E+01 0.37845833151E+01 0.34666110053E+01 0.33456185015E+01 0.34160953270E+01
 0.36789665147E+01 0.41407362226E+01 0.48118186804E+01 0.57002041540E+01 0.67981914625E+01
 0.80650223184E+01 0.77816341860E+01 0.90029943181E+01 0.10198819265E+02 0.11239696123E+02
 0.11970301745E+02 0.12382627016E+02 0.12613235927E+02 0.12814195198E+02 0.13017256235E+02
 0.13091775634E+02 0.12829218708E+02 0.12095504903E+02 0.10944992434E+02 0.95886962938E+01
 0.82018574499E+01 0.69154603673E+01 0.58124147429E+01 0.49264389567E+01 0.42575442009E+01
 0.37914808829E+01 0.35138973674E+01 0.34161128490E+01 0.34949547147E+01 0.37512294076E+01
 0.41891991603E+01 0.48154732170E+01 0.56338764296E+01 0.66347538169E+01 0.63970280214E+01
 0.74138798043E+01 0.85024119824E+01 0.95868235995E+01 0.10589304505E+02 0.11424914552E+02
 0.12054496276E+02 0.12517265688E+02 0.12850536462E+02 0.13017370184E+02 0.12907081906E+02
 0.12413020684E+02 0.11530872272E+02 0.10380405474E+02 0.91016690250E+01 0.78299367328E+01
 0.66706110098E+01 0.56841713693E+01 0.48911813329E+01 0.42881226567E+01 0.38635330494E+01
 0.36078561660E+01 0.35160511142E+01 0.35862402624E+01 0.38183719191E+01 0.42142678846E+01
 0.47771925992E+01 0.55080277702E+01 0.53308286326E+01 0.61010395370E+01 0.69864390784E+01
 0.79451617605E+01 0.89217252207E+01 0.98596755082E+01 0.10713184213E+02 0.11441656919E+02
 0.12018552778E+02 0.12411882918E+02 0.12556708783E+02 0.12376193272E+02 0.11840411929E+02
 0.10992817987E+02 0.99262800096E+01 0.87626806300E+01 0.76183657326E+01 0.65784203784E+01
 0.56889248889E+01 0.49646328234E+01 0.44033616495E+01 0.39985134289E+01 0.37453442193E+01
 0.36415698836E+01 0.36857823428E+01 0.38767702861E+01 0.42142569983E+01 0.46991393223E+01
 0.45862726127E+01 0.51139699543E+01 0.57663854948E+01 0.65269521156E+01 0.73659437232E+01
 0.82438021759E+01 0.91186468991E+01 0.99517103188E+01 0.10704728947E+02 0.11330514283E+02
 0.11766606757E+02 0.11942983641E+02 0.11805046274E+02 0.11340039862E+02 0.10590247744E+02
 0.96441007721E+01 0.86101020105E+01 0.75875828257E+01 0.66475208717E+01 0.58286720271E+01
 0.51455737832E+01 0.46005464896E+01 0.41927960285E+01 0.39219889044E+01 0.37878545521E+01
 0.37890391390E+01 0.39233442119E+01 0.41891674017E+01 0.41406863580E+01 0.44458597629E+01
 0.48713969693E+01 0.54140714197E+01 0.60630703905E+01 0.67981731862E+01 0.75917484095E+01
 0.84125869923E+01 0.92269880256E+01 0.99942518160E+01 0.10659796573E+02 0.11154298715E+02
 0.11405531503E+02 0.11360755277E+02 0.11008494493E+02 0.10387037814E+02 0.95743991433E+01
 0.86650834704E+01 0.77454452619E+01 0.68782661122E+01 0.61003735696E+01 0.54297207982E+01
 0.48748210679E+01 0.44409623809E+01 0.41318825493E+01 0.39490263719E+01 0.38911807865E+01
 0.39557209835E+01 0.39723104545E+01 0.40719568116E+01 0.42866708779E+01 0.46178000424E+01
 0.50643737305E+01 0.56199267924E+01 0.62712761996E+01 0.69997076650E+01 0.77824149414E+01
 0.85908134428E+01 0.93847765160E+01 0.10106897842E+02 0.10683999441E+02 0.11040292801E+02
 0.11118932352E+02 0.10901912099E+02 0.10417723236E+02 0.97325081149E+01 0.89293685806E+01
 0.80862797770E+01 0.72623067091E+01 0.64955460638E+01 0.58091206663E+01 0.52184542007E+01
 0.47351469321E+01 0.43671777012E+01 0.41180320960E+01 0.39871793788E+01 0.40719673463E+01
 0.39723193627E+01 0.39871859296E+01 0.41180462134E+01 0.43671987686E+01 0.47351660853E+01
 0.52184726444E+01 0.58091434785E+01 0.64955638928E+01 0.72623075815E+01 0.80862733764E+01
 0.89293740507E+01 0.97325231403E+01 0.10417730259E+02 0.10901909203E+02 0.11118931124E+02
 0.11040290843E+02 0.10683983849E+02 0.10106873633E+02 0.93847632848E+01 0.85908136835E+01
 0.77824114820E+01 0.69996925324E+01 0.62712577488E+01 0.56199091650E+01 0.50643536519E+01
 0.46177835307E+01 0.42866695174E+01 0.44458706238E+01 0.41407112328E+01 0.39557450176E+01
 0.38912030369E+01 0.39490521555E+01 0.41319054891E+01 0.44409757415E+01 0.48748344657E+01
 0.54297431398E+01 0.61003921272E+01 0.68782658571E+01 0.77454359899E+01 0.86650833766E+01
 0.95744043637E+01 0.10387033678E+02 0.11008484296E+02 0.11360750764E+02 0.11405525904E+02
 0.11154277350E+02 0.10659765970E+02 0.99942315705E+01 0.92269804691E+01 0.84125792097E+01
 0.75917369690E+01 0.67981635179E+01 0.60630597407E+01 0.54140558641E+01 0.48713878128E+01
 0.51139707658E+01 0.45862939071E+01 0.41892004497E+01 0.39233762014E+01 0.37890719635E+01
 0.37878888557E+01 0.39220110328E+01 0.41928006696E+01 0.46005514079E+01 0.51455916228E+01
 0.58286881212E+01 0.66475195121E+01 0.75875739380E+01 0.86100997251E+01 0.96440970459E+01
 0.10590231123E+02 0.11340020334E+02 0.11805036592E+02 0.11942973919E+02 0.11766582221E+02
 0.11330482359E+02 0.10704705881E+02 0.99516960818E+01 0.91186343512E+01 0.82437951411E+01
 0.73659455439E+01 0.65269525170E+01 0.57663788721E+01 0.61010438925E+01 0.53308410395E+01
 0.46991681552E+01 0.42142902875E+01 0.38768009770E+01 0.36858182225E+01 0.36416073603E+01
 0.37453626045E+01 0.39985090012E+01 0.44033580991E+01 0.49646437101E+01 0.56889346324E+01
 0.65784163674E+01 0.76183589834E+01 0.87626786163E+01 0.99262688815E+01 0.10992790022E+02
 0.11840383425E+02 0.12376177024E+02 0.12556693755E+02 0.12411857908E+02 0.12018526140E+02
 0.11441637592E+02 0.10713167192E+02 0.98596601499E+01 0.89217235395E+01 0.79451750804E+01
 0.69864508760E+01 0.74138993750E+01 0.63970423776E+01 0.55080513813E+01 0.47772250152E+01
 0.42142938580E+01 0.38183929547E+01 0.35862711697E+01 0.35160847532E+01 0.36078676400E+01
 0.38635214746E+01 0.42881135732E+01 0.48911845875E+01 0.56841714618E+01 0.66706022283E+01
 0.78299317885E+01 0.91016674819E+01 0.10380388701E+02 0.11530837237E+02 0.12412987156E+02
 0.12907059860E+02 0.13017349782E+02 0.12850514324E+02 0.12517250932E+02 0.12054487337E+02
 0.11424900239E+02 0.10589290605E+02 0.95868284069E+01 0.85024338747E+01 0.90030195770E+01
 0.77816551810E+01 0.66347743905E+01 0.56339080824E+01 0.48155043645E+01 0.41892125646E+01
 0.37512358211E+01 0.34949740576E+01 0.34161353398E+01 0.35138989854E+01 0.37914652806E+01
 0.42575337426E+01 0.49264353834E+01 0.58124039742E+01 0.69154457065E+01 0.82018524468E+01
 0.95886932521E+01 0.10944972019E+02 0.12095469833E+02 0.12829187401E+02 0.13091751611E+02
 0.13017233086E+02 0.12814180103E+02 0.12613237682E+02 0.12382632593E+02 0.11970295265E+02
 0.11239688907E+02 0.10198831257E+02 0.10716776865E+02 0.94144238903E+01 0.80650379027E+01
 0.67982126758E+01 0.57002379404E+01 0.48118433076E+01 0.41407352240E+01 0.36789578671E+01
 0.34160994207E+01 0.33456241674E+01 0.34666009602E+01 0.37845667430E+01 0.43125208263E+01
 0.50687500888E+01 0.60668237148E+01 0.72967263508E+01 0.87029565849E+01 0.10172112136E+02
 0.11521857114E+02 0.12450100697E+02 0.12783773059E+02 0.12628926716E+02 0.12297554639E+02
 0.12105154994E+02 0.12166838342E+02 0.12327307598E+02 0.12272081818E+02 0.11743599647E+02
 0.12069103690E+02 0.11101590946E+02 0.97098791469E+01 0.82450736300E+01 0.68766248675E+01
 0.57031470638E+01 0.47669579800E+01 0.40720062071E+01 0.36054790277E+01 0.33533250630E+01
 0.33074881820E+01 0.34679770593E+01 0.38436792882E+01 0.44520451742E+01 0.53134324370E+01
 0.64359024828E+01 0.77916282694E+01 0.92941667561E+01 0.10782646112E+02 0.11910830983E+02
 0.12332911417E+02 0.12022532205E+02 0.11314228594E+02 0.10726073525E+02 0.10659340471E+02
 0.11157771654E+02 0.11881604112E+02 0.12314413083E+02 0.12144460273E+02 0.12221634241E+02
 0.11333421235E+02 0.98711771493E+01 0.83104463936E+01 0.68655223125E+01 0.56431693600E+01
 0.46841547999E+01 0.39872331685E+01 0.35347078404E+01 0.33096623997E+01 0.33036337684E+01
 0.35187398712E+01 0.39679753923E+01 0.46726751531E+01 0.56523096109E+01 0.69034804789E+01
 0.83721203684E+01 0.99316292903E+01 0.11279617718E+02 0.11909494353E+02 0.11556408269E+02
 0.10419702594E+02 0.91112042197E+01 0.83528760482E+01 0.85825922291E+01 0.97037571840E+01
 0.11137229793E+02 0.10264413736E+02 0.11855881378E+02 0.12234184421E+02 0.11411015426E+02
 0.98901712777E+01 0.82583190310E+01 0.67667479707E+01 0.55248853928E+01 0.45688080963E+01
 0.38912449560E+01 0.34702475712E+01 0.32872640587E+01 0.33347395580E+01 0.36179888784E+01
 0.41544307168E+01 0.49679409116E+01 0.60732621013E+01 0.74490130386E+01 0.90068212817E+01
 0.10540983200E+02 0.11516783845E+02 0.11393265598E+02 0.10069423112E+02 0.80328922809E+01
 0.61891867000E+01 0.54263539416E+01 0.61467453974E+01 0.80439401857E+01 0.64884538355E+01
 0.94690462382E+01 0.11558780890E+02 0.12150196909E+02 0.11344280964E+02 0.97688007932E+01
 0.80940337025E+01 0.65878545006E+01 0.53562124012E+01 0.44277727047E+01 0.37891047383E+01
 0.34151693211E+01 0.32872566505E+01 0.34000324786E+01 0.37628341079E+01 0.43972798414E+01
 0.53277524526E+01 0.65599278340E+01 0.80481405525E+01 0.96620038484E+01 0.11021178812E+02
 0.11412855739E+02 0.10358938521E+02 0.79912317400E+01 0.51174743746E+01 0.29125825395E+01
 0.23594570838E+01 0.37416400230E+01 0.17922247958E+01 0.53457487841E+01 0.89383470106E+01
 0.11345220517E+02 0.12005323029E+02 0.11146505616E+02 0.95179225842E+01 0.78299849737E+01
 0.63410515804E+01 0.51475793240E+01 0.42688581550E+01 0.36858383402E+01 0.33718862832E+01
 0.33096432101E+01 0.34971178127E+01 0.39480989118E+01 0.46876265366E+01 0.57380786588E+01
 0.70917692362E+01 0.86736596348E+01 0.10284211340E+02 0.11311730848E+02 0.10978447211E+02
 0.89397155072E+01 0.56042370314E+01 0.20908102827E+01 -.22172536980E+00 -.35011935004E+00
 -.22280416764E+01 0.66095133019E+00 0.48467383132E+01 0.87904250276E+01 0.11261027161E+02
 0.11814581016E+02 0.10829656589E+02 0.91554894324E+01 0.74840582336E+01 0.60419844270E+01
 0.49111234367E+01 0.41004074031E+01 0.35862772361E+01 0.33421289098E+01 0.33533021376E+01
 0.36219319672E+01 0.41662159521E+01 0.50133550612E+01 0.61810394034E+01 0.76446082184E+01
 0.92968040766E+01 0.10819736192E+02 0.11411235468E+02 0.10318444215E+02 0.73841023530E+01
 0.33023547581E+01 -.54943298214E+00 -.26869439389E+01 -.48063523097E-01 0.66103955731E+00
 0.33581811463E+01 0.69520496738E+01 0.10082972406E+02 0.11758280255E+02 0.11731430748E+02
 0.10467180139E+02 0.87681859902E+01 0.71530565297E+01 0.57870794860E+01 0.47304305301E+01
 0.39819759168E+01 0.35161503859E+01 0.33081463400E+01 0.33456811732E+01 0.36322826741E+01
 0.41862852270E+01 0.50339416753E+01 0.61912419160E+01 0.76323194100E+01 0.92522848200E+01
 0.10757657977E+02 0.11415877847E+02 0.10556349027E+02 0.80748050753E+01 0.46407487956E+01
 0.15055185769E+01 0.56130459671E+00 -.61848249382E+00 0.56130758405E+00 0.36046746846E+01
 0.72792878108E+01 0.10229110766E+02 0.11588874679E+02 0.11280018589E+02 0.98859307363E+01
 0.82117590983E+01 0.66730473004E+01 0.54038212758E+01 0.44470973265E+01 0.37934861522E+01
 0.34162036643E+01 0.32931292717E+01 0.34161955773E+01 0.37934860457E+01 0.44471009101E+01
 0.54038070296E+01 0.66730186715E+01 0.82117452564E+01 0.98859404263E+01 0.11280029161E+02
 0.11588872317E+02 0.10229107250E+02 0.72792914056E+01 0.36046767600E+01 0.33581805742E+01
 0.66103837646E+00 -.48058583472E-01 0.15055208521E+01 0.46407426860E+01 0.80748047758E+01