    2    2   15    1
  0.1529437E+02  0.3691622E-09  0.3691622E-09  0.3691622E-09  0.5000000E-15
  1.000000000000000E-004
  CAR 
 unknown system                          
      8    159      8
 
  0.4166667E-01  0.4166667E-01  0.4166667E-01  0.4629630E-02
    1       -4.376982   1.000000
    2        4.969595   1.000000
    3        6.512672   1.000000
    4        7.516368   1.000000
    5       11.263166   0.000000
    6       15.431947   0.000000
    7       16.545520   0.000000
    8       17.336690   0.000000
 
  0.1250000E+00  0.4166667E-01  0.4166667E-01  0.9259259E-02
    1       -3.790020   1.000000
    2        4.642094   1.000000
    3        6.677904   1.000000
    4        8.640612   0.999365
    5       12.345168   0.000000
    6       13.924479   0.000000
    7       14.168485   0.000000
    8       16.019641   0.000000
 
  0.2083333E+00  0.4166667E-01  0.4166667E-01  0.9259259E-02
    1       -2.816143   1.000000
    2        4.636925   1.000000
    3        6.848404   1.000000
    4        9.665061   0.000029
    5       11.494544   0.000000
    6       12.120317   0.000000
    7       13.890432   0.000000
    8       14.771247   0.000000
 
  0.2916667E+00  0.4166667E-01  0.4166667E-01  0.9259259E-02
    1       -1.462453   1.000000
    2        4.972956   1.000000
    3        7.166531   1.000000
    4        7.554867   1.000000
    5       10.089583   0.000000
    6       12.667508   0.000000
    7       13.160116   0.000000
    8       14.105539   0.000000
 
  0.3750000E+00  0.4166667E-01  0.4166667E-01  0.9259259E-02
    1        0.256114   1.000000
    2        4.734531   1.000000
    3        5.757999   1.000000
    4        7.551290   1.000000
    5        8.703948   0.997238
    6       11.439819   0.000000
    7       13.671070   0.000000
    8       14.424263   0.000000
 
  0.4583333E+00  0.4166667E-01  0.4166667E-01  0.4629630E-02
    1        2.077005   1.000000
    2        2.628196   1.000000
    3        6.596751   1.000000
    4        6.836666   1.000000
    5        8.627173   0.999546
    6       10.695162   0.000000
    7       13.546218   0.000000
    8       14.578286   0.000000
 
 -0.4166667E-01  0.4166667E-01  0.4166667E-01  0.2314815E-02
    1       -4.573104   1.000000
    2        5.347249   1.000000
    3        6.128681   1.000000
    4        7.225777   1.000000
    5       10.848032   0.000000
    6       15.822508   0.000000
    7       17.410236   0.000000
    8       18.045842   0.000000
 
  0.1250000E+00  0.1250000E+00  0.4166667E-01  0.4629630E-02
    1       -2.897959   1.000000
    2        4.635120   1.000000
    3        7.732540   1.000000
    4        9.148848   0.355273
    5       11.567778   0.000000
    6       11.696904   0.000000
    7       13.899594   0.000000
    8       15.292528   0.000000
 
  0.2083333E+00  0.1250000E+00  0.4166667E-01  0.9259259E-02
    1       -1.624950   1.000000
    2        4.927738   1.000000
    3        7.943352   1.000000
    4        8.321034   1.000000
    5        9.670155   0.000025
    6       11.467059   0.000000
    7       13.630408   0.000000
    8       14.353208   0.000000
 
  0.2916667E+00  0.1250000E+00  0.4166667E-01  0.9259259E-02
    1        0.017412   1.000000
    2        5.311486   1.000000
    3        5.727011   1.000000
    4        7.098353   1.000000
    5        9.509033   0.001761
    6       11.985074   0.000000
    7       13.086577   0.000000
    8       14.031581   0.000000
 
  0.3750000E+00  0.1250000E+00  0.4166667E-01  0.9259259E-02
    1        1.961146   1.000000
    2        3.051822   1.000000
    3        5.689417   1.000000
    4        6.524387   1.000000
    5        9.526109   0.001188
    6       11.463320   0.000000
    7       12.903289   0.000000
    8       15.304898   0.000000
 
  0.4583333E+00  0.1250000E+00  0.4166667E-01  0.9259259E-02
    1        0.812194   1.000000
    2        4.218820   1.000000
    3        4.732194   1.000000
    4        7.531183   1.000000
    5        9.036790   0.663213
    6       12.129582   0.000000
    7       13.049433   0.000000
    8       15.301211   0.000000
 
 -0.4583333E+00  0.1250000E+00  0.4166667E-01  0.9259259E-02
    1       -0.976139   1.000000
    2        3.710270   1.000000
    3        7.014022   1.000000
    4        7.610823   1.000000
    5        9.866366   0.000000
    6       12.713974   0.000000
    7       13.318958   0.000000
    8       14.529641   0.000000
 
 -0.3750000E+00  0.1250000E+00  0.4166667E-01  0.9259259E-02
    1       -2.407158   1.000000
    2        3.276856   1.000000
    3        7.164333   1.000000
    4        9.669470   0.000025
    5       11.507463   0.000000
    6       11.741344   0.000000
    7       13.548180   0.000000
    8       15.623294   0.000000
 
 -0.2916667E+00  0.1250000E+00  0.4166667E-01  0.9259259E-02
    1       -3.460654   1.000000
    2        3.200777   1.000000
    3        6.966192   1.000000
    4        9.291987   0.083292
    5       12.804323   0.000000
    6       13.598952   0.000000
    7       14.045514   0.000000
    8       15.418965   0.000000
 
 -0.2083333E+00  0.1250000E+00  0.4166667E-01  0.4629630E-02
    1       -4.129193   1.000000
    2        3.477292   1.000000
    3        6.742630   1.000000
    4        8.267645   1.000000
    5       12.624080   0.000000
    6       13.969941   0.000000
    7       15.516514   0.000000
    8       17.098643   0.000000
 
 -0.1250000E+00  0.1250000E+00  0.4166667E-01  0.4629630E-02
    1       -4.407719   1.000000
    2        4.062875   1.000000
    3        6.140021   1.000000
    4        8.140733   1.000000
    5       11.791433   0.000000
    6       14.318682   0.000000
    7       16.532317   0.000000
    8       19.461951   0.000000
 
 -0.4166667E-01  0.1250000E+00  0.4166667E-01  0.4629630E-02
    1       -4.294399   1.000000
    2        4.660162   1.000000
    3        5.839464   1.000000
    4        8.389558   1.000000
    5       11.663003   0.000000
    6       14.415192   0.000000
    7       16.646633   0.000000
    8       18.083830   0.000000
 
  0.2083333E+00  0.2083333E+00  0.4166667E-01  0.4629630E-02
    1       -0.062287   1.000000
    2        5.464221   1.000000
    3        6.258035   1.000000
    4        6.314475   1.000000
    5       10.212965   0.000000
    6       12.431879   0.000000
    7       12.768818   0.000000
    8       13.033523   0.000000
 
  0.2916667E+00  0.2083333E+00  0.4166667E-01  0.9259259E-02
    1        1.832138   1.000000
    2        3.787302   1.000000
    3        4.683966   1.000000
    4        6.422663   1.000000
    5       10.258639   0.000000
    6       11.696382   0.000000
    7       13.067475   0.000000
    8       14.629229   0.000000
 
  0.3750000E+00  0.2083333E+00  0.4166667E-01  0.9259259E-02
    1        1.520390   1.000000
    2        3.336964   1.000000
    3        4.273881   1.000000
    4        7.490033   1.000000
    5        9.533943   0.000987
    6       11.462533   0.000000
    7       14.030237   0.000000
    8       15.866147   0.000000
 
  0.4583333E+00  0.2083333E+00  0.4166667E-01  0.9259259E-02
    1       -0.331642   1.000000
    2        2.504256   1.000000
    3        6.753577   1.000000
    4        8.024116   1.000000
    5        9.662791   0.000031
    6       11.726528   0.000000
    7       14.011773   0.000000
    8       15.559747   0.000000
 
 -0.4583333E+00  0.2083333E+00  0.4166667E-01  0.9259259E-02
    1       -1.836496   1.000000
    2        1.984300   1.000000
    3        7.651961   1.000000
    4        9.489166   0.002739
    5       10.887552   0.000000
    6       12.099677   0.000000
    7       12.775888   0.000000
    8       15.452550   0.000000
 
 -0.3750000E+00  0.2083333E+00  0.4166667E-01  0.9259259E-02
    1       -2.968249   1.000000
    2        1.831134   1.000000
    3        7.417056   1.000000
    4        9.877324   0.000000
    5       11.765723   0.000000
    6       13.136913   0.000000
    7       14.454903   0.000000
    8       14.978541   0.000000
 
 -0.2916667E+00  0.2083333E+00  0.4166667E-01  0.4629630E-02
    1       -3.716964   1.000000
    2        2.045200   1.000000
    3        7.126270   1.000000
    4        8.876321   0.940139
    5       12.574009   0.000000
    6       14.349911   0.000000
    7       14.483463   0.000000
    8       16.803037   0.000000
 
 -0.2083333E+00  0.2083333E+00  0.4166667E-01  0.4629630E-02
    1       -4.077477   1.000000
    2        2.612100   1.000000
    3        6.433559   1.000000
    4        8.811618   0.977967
    5       12.850870   0.000000
    6       13.446487   0.000000
    7       15.291951   0.000000
    8       19.216102   0.000000
 
 -0.1250000E+00  0.2083333E+00  0.4166667E-01  0.9259259E-02
    1       -4.046849   1.000000
    2        3.477190   1.000000
    3        5.773233   1.000000
    4        9.292862   0.082347
    5       12.847565   0.000000
    6       12.992672   0.000000
    7       16.037986   0.000000
    8       17.185984   0.000000
 
 -0.4166667E-01  0.2083333E+00  0.4166667E-01  0.4629630E-02
    1       -3.625352   1.000000
    2        4.337788   1.000000
    3        5.724453   1.000000
    4        9.766368   0.000001
    5       13.001976   0.000000
    6       13.063174   0.000000
    7       13.674655   0.000000
    8       15.882878   0.000000
 
  0.2916667E+00  0.2916667E+00  0.4166667E-01  0.4629630E-02
    1        2.337648   1.000000
    2        2.405402   1.000000
    3        4.172330   1.000000
    4        7.466176   1.000000
    5        9.940440   0.000000
    6       10.901211   0.000000
    7       15.233112   0.000000
    8       15.363241   0.000000
 
  0.3750000E+00  0.2916667E+00  0.4166667E-01  0.9259259E-02
    1        0.467810   1.000000
    2        1.416554   1.000000
    3        6.613776   1.000000
    4        8.390032   1.000000
    5        9.564830   0.000462
    6       11.045345   0.000000
    7       14.647847   0.000000
    8       15.812498   0.000000
 
  0.4583333E+00  0.2916667E+00  0.4166667E-01  0.9259259E-02
    1       -1.106898   1.000000
    2        0.811329   1.000000
    3        8.265215   1.000000
    4        9.289031   0.086542
    5       10.162597   0.000000
    6       12.177260   0.000000
    7       12.853313   0.000000
    8       14.622506   0.000000
 
 -0.4583333E+00  0.2916667E+00  0.4166667E-01  0.9259259E-02
    1       -2.314528   1.000000
    2        0.579085   1.000000
    3        8.018426   1.000000
    4       10.425203   0.000000
    5       10.761849   0.000000
    6       12.650347   0.000000
    7       14.133495   0.000000
    8       14.232424   0.000000
 
 -0.3750000E+00  0.2916667E+00  0.4166667E-01  0.4629630E-02
    1       -3.142019   1.000000
    2        0.722076   1.000000
    3        7.662010   1.000000
    4        9.518027   0.001434
    5       11.312059   0.000000
    6       13.190872   0.000000
    7       16.114908   0.000000
    8       16.555014   0.000000
 
 -0.2916667E+00  0.2916667E+00  0.4166667E-01  0.4629630E-02
    1       -3.583319   1.000000
    2        1.234094   1.000000
    3        6.893801   1.000000
    4        9.430042   0.009151
    5       11.500934   0.000000
    6       14.058736   0.000000
    7       15.480670   0.000000
    8       18.983375   0.000000
 
 -0.2083333E+00  0.2916667E+00  0.4166667E-01  0.9259259E-02
    1       -3.635142   1.000000
    2        2.098028   1.000000
    3        6.106077   1.000000
    4        9.971153   0.000000
    5       11.590025   0.000000
    6       14.571201   0.000000
    7       15.226508   0.000000
    8       16.629540   0.000000
 
 -0.1250000E+00  0.2916667E+00  0.4166667E-01  0.9259259E-02
    1       -3.296798   1.000000
    2        3.251262   1.000000
    3        5.649253   1.000000
    4       10.566040   0.000000
    5       11.833239   0.000000
    6       13.193416   0.000000
    7       14.352294   0.000000
    8       15.797471   0.000000
 
 -0.4166667E-01  0.2916667E+00  0.4166667E-01  0.4629630E-02
    1       -2.570965   1.000000
    2        4.384836   1.000000
    3        5.878142   1.000000
    4        9.622210   0.000100
    5       11.836576   0.000000
    6       12.350341   0.000000
    7       14.129556   0.000000
    8       14.290460   0.000000
 
  0.3750000E+00  0.3750000E+00  0.4166667E-01  0.4629630E-02
    1       -0.224816   1.000000
    2       -0.220299   1.000000
    3        8.882969   0.934342
    4        8.934591   0.873668
    5        9.771865   0.000001
    6       12.066149   0.000000
    7       13.322766   0.000000
    8       14.021464   0.000000
 
  0.4583333E+00  0.3750000E+00  0.4166667E-01  0.9259259E-02
    1       -1.502419   1.000000
    2       -0.535421   1.000000
    3        8.764629   0.990505
    4        9.644124   0.000054
    5       11.205637   0.000000
    6       12.080789   0.000000
    7       13.710199   0.000000
    8       14.064023   0.000000
 
 -0.4583333E+00  0.3750000E+00  0.4166667E-01  0.4629630E-02
    1       -2.406551   1.000000
    2       -0.468696   1.000000
    3        8.350030   1.000000
    4       10.157807   0.000000
    5       10.278625   0.000000
    6       12.102844   0.000000
    7       16.378806   0.000000
    8       16.400141   0.000000
 
 -0.3750000E+00  0.3750000E+00  0.4166667E-01  0.4629630E-02
    1       -2.927491   1.000000
    2       -0.023798   1.000000
    3        7.512097   1.000000
    4       10.122049   0.000000
    5       10.280447   0.000000
    6       12.905659   0.000000
    7       17.598373   0.000000
    8       18.864665   0.000000
 
 -0.2916667E+00  0.3750000E+00  0.4166667E-01  0.9259259E-02
    1       -3.060895   1.000000
    2        0.790468   1.000000
    3        6.633885   1.000000
    4       10.304852   0.000000
    5       10.636626   0.000000
    6       14.138446   0.000000
    7       15.955367   0.000000
    8       16.793196   0.000000
 
 -0.2083333E+00  0.3750000E+00  0.4166667E-01  0.9259259E-02
    1       -2.805630   1.000000
    2        1.951798   1.000000
    3        6.031194   1.000000
    4       10.479727   0.000000
    5       11.155753   0.000000
    6       12.959268   0.000000
    7       15.151520   0.000000
    8       16.399501   0.000000
 
 -0.1250000E+00  0.3750000E+00  0.4166667E-01  0.9259259E-02
    1       -2.163529   1.000000
    2        3.391805   1.000000
    3        5.832367   1.000000
    4        9.268292   0.112047
    5       10.956291   0.000000
    6       12.988063   0.000000
    7       13.715866   0.000000
    8       15.451345   0.000000
 
 -0.4166667E-01  0.3750000E+00  0.4166667E-01  0.4629630E-02
    1       -1.138945   1.000000
    2        4.780418   1.000000
    3        6.325751   1.000000
    4        6.956888   1.000000
    5       10.389586   0.000000
    6       12.938799   0.000000
    7       13.004192   0.000000
    8       14.239441   0.000000
 
  0.4583333E+00  0.4583333E+00  0.4166667E-01  0.2314815E-02
    1       -1.513868   1.000000
    2       -1.513868   1.000000
    3        9.189940   0.254087
    4        9.189945   0.254075
    5       11.123939   0.000000
    6       11.123942   0.000000
    7       16.352457   0.000000
    8       16.352459   0.000000
 
 -0.4583333E+00  0.4583333E+00  0.4166667E-01  0.4629630E-02
    1       -2.112632   1.000000
    2       -1.142718   1.000000
    3        8.283093   1.000000
    4        9.207495   0.215987
    5       10.925727   0.000000
    6       11.853417   0.000000
    7       18.664873   0.000000
    8       18.726890   0.000000
 
 -0.3750000E+00  0.4583333E+00  0.4166667E-01  0.9259259E-02
    1       -2.326634   1.000000
    2       -0.393883   1.000000
    3        7.324949   1.000000
    4        9.170120   0.300996
    5       11.363902   0.000000
    6       13.148389   0.000000
    7       15.818440   0.000000
    8       17.182719   0.000000
 
 -0.2916667E+00  0.4583333E+00  0.4166667E-01  0.9259259E-02
    1       -2.153844   1.000000
    2        0.721935   1.000000
    3        6.623594   1.000000
    4        9.339849   0.042561
    5       11.390257   0.000000
    6       13.067620   0.000000
    7       15.030861   0.000000
    8       15.473181   0.000000
 
 -0.2083333E+00  0.4583333E+00  0.4166667E-01  0.9259259E-02
    1       -1.595185   1.000000
    2        2.177783   1.000000
    3        6.266200   1.000000
    4        8.929909   0.880405
    5        9.874651   0.000000
    6       13.146149   0.000000
    7       13.888038   0.000000
    8       16.488674   0.000000
 
 -0.1250000E+00  0.4583333E+00  0.4166667E-01  0.9259259E-02
    1       -0.655833   1.000000
    2        3.888461   1.000000
    3        6.264159   1.000000
    4        6.581838   1.000000
    5       10.031916   0.000000
    6       12.079272   0.000000
    7       13.748957   0.000000
    8       15.271995   0.000000
 
 -0.4166667E-01  0.4583333E+00  0.4166667E-01  0.4629630E-02
    1        0.651870   1.000000
    2        4.210568   1.000000
    3        5.658723   1.000000
    4        7.026010   1.000000
    5        8.955280   0.840766
    6       11.437679   0.000000
    7       12.614419   0.000000
    8       15.507016   0.000000
 
 -0.4583333E+00 -0.4583333E+00  0.4166667E-01  0.4629630E-02
    1       -1.436334   1.000000
    2       -1.435303   1.000000
    3        8.163649   1.000000
    4        8.180168   1.000000
    5       12.109642   0.000000
    6       12.302756   0.000000
    7       15.745835   0.000000
    8       17.170062   0.000000
 
 -0.3750000E+00 -0.4583333E+00  0.4166667E-01  0.9259259E-02
    1       -1.344452   1.000000
    2       -0.383135   1.000000
    3        7.380808   1.000000
    4        8.292978   1.000000
    5       11.465268   0.000000
    6       13.467654   0.000000
    7       14.668006   0.000000
    8       14.929920   0.000000
 
 -0.2916667E+00 -0.4583333E+00  0.4166667E-01  0.9259259E-02
    1       -0.869439   1.000000
    2        1.030853   1.000000
    3        6.910283   1.000000
    4        8.506851   0.999985
    5        9.041150   0.651887
    6       12.977176   0.000000
    7       14.550902   0.000000
    8       16.319480   0.000000
 
 -0.2083333E+00 -0.4583333E+00  0.4166667E-01  0.9259259E-02
    1       -0.015544   1.000000
    2        2.770137   1.000000
    3        6.152997   1.000000
    4        6.875192   1.000000
    5        9.261097   0.122042
    6       11.557743   0.000000
    7       14.870489   0.000000
    8       16.114950   0.000000
 
 -0.1250000E+00 -0.4583333E+00  0.4166667E-01  0.9259259E-02
    1        1.200505   1.000000
    2        3.808415   1.000000
    3        4.877955   1.000000
    4        7.089585   1.000000
    5        9.023912   0.695782
    6       11.411612   0.000000
    7       12.348376   0.000000
    8       16.521094   0.000000
 
 -0.4166667E-01 -0.4583333E+00  0.4166667E-01  0.4629630E-02
    1        1.802771   1.000000
    2        2.899325   1.000000
    3        6.644689   1.000000
    4        7.725508   1.000000
    5        7.832455   1.000000
    6       10.530032   0.000000
    7       12.702512   0.000000
    8       15.396975   0.000000
 
 -0.3750000E+00 -0.3750000E+00  0.4166667E-01  0.4629630E-02
    1        0.004288   1.000000
    2        0.013421   1.000000
    3        7.695323   1.000000
    4        7.703719   1.000000
    5        8.848777   0.960001
    6       12.906627   0.000000
    7       15.046235   0.000000
    8       15.835977   0.000000
 
 -0.2916667E+00 -0.3750000E+00  0.4166667E-01  0.9259259E-02
    1        0.776308   1.000000
    2        1.711602   1.000000
    3        6.017982   1.000000
    4        7.528844   1.000000
    5        8.401906   1.000000
    6       11.326787   0.000000
    7       15.925025   0.000000
    8       16.706143   0.000000
 
 -0.2083333E+00 -0.3750000E+00  0.4166667E-01  0.9259259E-02
    1        1.892323   1.000000
    2        3.439036   1.000000
    3        3.993284   1.000000
    4        7.530085   1.000000
    5        8.814378   0.976921
    6       10.654813   0.000000
    7       13.571325   0.000000
    8       16.424789   0.000000
 
 -0.1250000E+00 -0.3750000E+00  0.4166667E-01  0.9259259E-02
    1        1.518364   1.000000
    2        3.483839   1.000000
    3        6.024493   1.000000
    4        7.454156   1.000000
    5        8.574879   0.999887
    6       11.013252   0.000000
    7       11.792937   0.000000
    8       15.541280   0.000000
 
 -0.4166667E-01 -0.3750000E+00  0.4166667E-01  0.4629630E-02
    1       -0.143783   1.000000
    2        5.281621   1.000000
    3        6.636923   1.000000
    4        7.733957   1.000000
    5        8.401214   1.000000
    6       10.986348   0.000000
    7       13.036987   0.000000
    8       14.475710   0.000000
 
 -0.2916667E+00 -0.2916667E+00  0.4166667E-01  0.4629630E-02
    1        2.626072   1.000000
    2        2.784852   1.000000
    3        3.711616   1.000000
    4        7.849029   1.000000
    5        8.597760   0.999789
    6       10.357792   0.000000
    7       14.690425   0.000000
    8       15.460986   0.000000
 
 -0.2083333E+00 -0.2916667E+00  0.4166667E-01  0.9259259E-02
    1        1.368396   1.000000
    2        4.230667   1.000000
    3        5.104022   1.000000
    4        7.429840   1.000000
    5        9.150177   0.351779
    6       10.661374   0.000000
    7       12.491701   0.000000
    8       14.189370   0.000000
 
 -0.1250000E+00 -0.2916667E+00  0.4166667E-01  0.9259259E-02
    1       -0.384957   1.000000
    2        5.941330   1.000000
    3        6.836685   1.000000
    4        7.480554   1.000000
    5        8.903667   0.913490
    6       11.262550   0.000000
    7       12.036218   0.000000
    8       13.437147   0.000000
 
 -0.4166667E-01 -0.2916667E+00  0.4166667E-01  0.4629630E-02
    1       -1.788318   1.000000
    2        6.012999   1.000000
    3        7.283973   1.000000
    4        8.021057   1.000000
    5       10.090207   0.000000
    6       12.021283   0.000000
    7       12.491226   0.000000
    8       14.326361   0.000000
 
 -0.2083333E+00 -0.2083333E+00  0.4166667E-01  0.4629630E-02
    1       -0.465083   1.000000
    2        6.647737   1.000000
    3        6.728499   1.000000
    4        6.871783   1.000000
    5        9.524203   0.001242
    6       11.402783   0.000000
    7       12.180097   0.000000
    8       12.231033   0.000000
 
 -0.1250000E+00 -0.2083333E+00  0.4166667E-01  0.9259259E-02
    1       -1.951163   1.000000
    2        6.304954   1.000000
    3        8.008764   1.000000
    4        8.550119   0.999944
    5        9.753713   0.000002
    6       11.032088   0.000000
    7       12.754663   0.000000
    8       13.532282   0.000000
 
 -0.4166667E-01 -0.2083333E+00  0.4166667E-01  0.4629630E-02
    1       -3.062156   1.000000
    2        5.792058   1.000000
    3        6.907667   1.000000
    4        9.180671   0.275539
    5       11.672410   0.000000
    6       12.398795   0.000000
    7       12.781207   0.000000
    8       14.960707   0.000000
 
 -0.1250000E+00 -0.1250000E+00  0.4166667E-01  0.4629630E-02
    1       -3.144277   1.000000
    2        6.089967   1.000000
    3        7.526047   1.000000
    4        8.492241   0.999990
    5       11.930338   0.000000
    6       12.134244   0.000000
    7       12.591922   0.000000
    8       14.946256   0.000000
 
 -0.4166667E-01 -0.1250000E+00  0.4166667E-01  0.4629630E-02
    1       -3.954913   1.000000
    2        5.911073   1.000000
    3        6.663757   1.000000
    4        7.749448   1.000000
    5       11.457338   0.000000
    6       14.436692   0.000000
    7       14.642966   0.000000
    8       16.791256   0.000000
 
 -0.4166667E-01 -0.4166667E-01  0.4166667E-01  0.1157407E-02
    1       -4.459619   1.000000
    2        6.347408   1.000000
    3        6.436096   1.000000
    4        6.436109   1.000000
    5       10.754432   0.000000
    6       16.611294   0.000000
    7       17.076285   0.000000
    8       17.360861   0.000000
 
  0.1250000E+00  0.1250000E+00  0.1250000E+00  0.4629630E-02
    1       -2.488532   1.000000
    2        3.224255   1.000000
    3        8.064974   1.000000
    4        9.574849   0.000358
    5       11.215196   0.000000
    6       11.320478   0.000000
    7       14.382768   0.000000
    8       15.107260   0.000000
 
  0.2083333E+00  0.1250000E+00  0.1250000E+00  0.9259259E-02
    1       -1.137304   1.000000
    2        3.592834   1.000000
    3        7.682396   1.000000
    4        8.230652   1.000000
    5        9.791943   0.000000
    6       11.950216   0.000000
    7       13.948083   0.000000
    8       14.817087   0.000000
 
  0.2916667E+00  0.1250000E+00  0.1250000E+00  0.9259259E-02
    1        0.577459   1.000000
    2        4.271397   1.000000
    3        5.160727   1.000000
    4        6.808399   1.000000
    5       10.129438   0.000000
    6       12.958023   0.000000
    7       13.875254   0.000000
    8       14.140933   0.000000
 
  0.3750000E+00  0.1250000E+00  0.1250000E+00  0.4629630E-02
    1        2.397247   1.000000
    2        2.926977   1.000000
    3        5.304548   1.000000
    4        5.564357   1.000000
    5       10.576096   0.000000
    6       12.310975   0.000000
    7       13.895863   0.000000
    8       14.484696   0.000000
 
 -0.1250000E+00  0.1250000E+00  0.1250000E+00  0.2314815E-02
    1       -4.242702   1.000000
    2        3.755667   1.000000
    3        5.166033   1.000000
    4        9.359398   0.031447
    5       12.436806   0.000000
    6       12.889263   0.000000
    7       17.683296   0.000000
    8       18.162769   0.000000
 
  0.2083333E+00  0.2083333E+00  0.1250000E+00  0.4629630E-02
    1        0.498883   1.000000
    2        4.229967   1.000000
    3        5.912486   1.000000
    4        5.950588   1.000000
    5       10.933750   0.000000
    6       13.019485   0.000000
    7       13.935881   0.000000
    8       14.037049   0.000000
 
  0.2916667E+00  0.2083333E+00  0.1250000E+00  0.9259259E-02
    1        2.429403   1.000000
    2        3.497993   1.000000
    3        4.382827   1.000000
    4        5.338080   1.000000
    5       11.422226   0.000000
    6       13.011142   0.000000
    7       13.794287   0.000000
    8       14.764634   0.000000
 
  0.3750000E+00  0.2083333E+00  0.1250000E+00  0.9259259E-02
    1        1.292041   1.000000
    2        3.157742   1.000000
    3        4.912586   1.000000
    4        6.623215   1.000000
    5       10.820724   0.000000
    6       12.780396   0.000000
    7       14.150698   0.000000
    8       15.050792   0.000000
 
  0.4583333E+00  0.2083333E+00  0.1250000E+00  0.9259259E-02
    1       -0.490465   1.000000
    2        2.364245   1.000000
    3        7.447062   1.000000
    4        8.130296   1.000000
    5       10.215339   0.000000
    6       12.449128   0.000000
    7       13.021634   0.000000
    8       14.804702   0.000000
 
 -0.4583333E+00  0.2083333E+00  0.1250000E+00  0.4629630E-02
    1       -1.917470   1.000000
    2        1.916437   1.000000
    3        8.500922   0.999987
    4        9.785606   0.000001
    5       10.989820   0.000000
    6       11.228888   0.000000
    7       13.252924   0.000000
    8       14.361588   0.000000
 
 -0.2083333E+00  0.2083333E+00  0.1250000E+00  0.4629630E-02
    1       -3.913012   1.000000
    2        2.661310   1.000000
    3        5.088235   1.000000
    4       10.306726   0.000000
    5       11.433866   0.000000
    6       13.834295   0.000000
    7       16.753437   0.000000
    8       18.642912   0.000000
 
 -0.1250000E+00  0.2083333E+00  0.1250000E+00  0.4629630E-02
    1       -3.800020   1.000000
    2        3.220251   1.000000
    3        4.761260   1.000000
    4       10.602732   0.000000
    5       11.527285   0.000000
    6       13.683801   0.000000
    7       15.784940   0.000000
    8       18.425941   0.000000
 
  0.2916667E+00  0.2916667E+00  0.1250000E+00  0.4629630E-02
    1        2.141769   1.000000
    2        2.169637   1.000000
    3        4.832917   1.000000
    4        6.559487   1.000000
    5       11.353579   0.000000
    6       12.162830   0.000000
    7       14.581685   0.000000
    8       15.588600   0.000000
 
  0.3750000E+00  0.2916667E+00  0.1250000E+00  0.9259259E-02
    1        0.312439   1.000000
    2        1.266471   1.000000
    3        7.321109   1.000000
    4        8.057546   1.000000
    5       10.834317   0.000000
    6       11.890341   0.000000
    7       13.266562   0.000000
    8       14.218843   0.000000
 
  0.4583333E+00  0.2916667E+00  0.1250000E+00  0.4629630E-02
    1       -1.186334   1.000000
    2        0.736752   1.000000
    3        8.987164   0.779990
    4        9.706394   0.000008
    5       10.956379   0.000000
    6       11.367397   0.000000
    7       12.521909   0.000000
    8       13.487346   0.000000
 
 -0.2916667E+00  0.2916667E+00  0.1250000E+00  0.4629630E-02
    1       -3.420230   1.000000
    2        1.355079   1.000000
    3        5.473897   1.000000
    4       10.072973   0.000000
    5       11.039229   0.000000
    6       15.598524   0.000000
    7       15.743522   0.000000
    8       18.693509   0.000000
 
 -0.2083333E+00  0.2916667E+00  0.1250000E+00  0.9259259E-02
    1       -3.389813   1.000000
    2        2.212058   1.000000
    3        4.711352   1.000000
    4       10.110940   0.000000
    5       11.565078   0.000000
    6       15.017597   0.000000
    7       15.516936   0.000000
    8       17.532962   0.000000
 
 -0.1250000E+00  0.2916667E+00  0.1250000E+00  0.4629630E-02
    1       -2.969892   1.000000
    2        3.056923   1.000000
    3        4.671098   1.000000
    4       10.397658   0.000000
    5       11.396735   0.000000
    6       13.349605   0.000000
    7       15.225360   0.000000
    8       16.215360   0.000000
 