 running on    8 total cores
 distrk:  each k-point on    8 cores,    1 groups
 distr:  one band on    1 cores,    8 groups
 using from now: INCAR     
 vasp.5.4.4.18Apr17-6-g9f103f2a35 (build Dec 09 2018 21:25:21) complex          
  
 POSCAR found type information on POSCAR  Si
 POSCAR found :  1 types and       2 ions
 scaLAPACK will be used

 ----------------------------------------------------------------------------- 
|                                                                             |
|           W    W    AA    RRRRR   N    N  II  N    N   GGGG   !!!           |
|           W    W   A  A   R    R  NN   N  II  NN   N  G    G  !!!           |
|           W    W  A    A  R    R  N N  N  II  N N  N  G       !!!           |
|           W WW W  AAAAAA  RRRRR   N  N N  II  N  N N  G  GGG   !            |
|           WW  WW  A    A  R   R   N   NN  II  N   NN  G    G                |
|           W    W  A    A  R    R  N    N  II  N    N   GGGG   !!!           |
|                                                                             |
|      For optimal performance we recommend to set                            |
|        NCORE= 4 - approx SQRT( number of cores)                             |
|      NCORE specifies how many cores store one orbital (NPAR=cpu/NCORE).     |
|      This setting can  greatly improve the performance of VASP for DFT.     |
|      The default,   NCORE=1            might be grossly inefficient         |
|      on modern multi-core architectures or massively parallel machines.     |
|      Do your own testing !!!!                                               |
|      Unfortunately you need to use the default for GW and RPA calculations. |
|      (for HF NCORE is supported but not extensively tested yet)             |
|                                                                             |
 ----------------------------------------------------------------------------- 

 LDA part: xc-table for Pade appr. of Perdew
 POSCAR, INCAR and KPOINTS ok, starting setup
 FFT: planning ...
 WAVECAR not read
 entering main loop
       N       E                     dE             d eps       ncg     rms          rms(c)
DAV:   1    -0.294939059764E+01   -0.29494E+01   -0.20386E+03  2600   0.382E+02
DAV:   2    -0.101442327444E+02   -0.71948E+01   -0.69371E+01  3856   0.485E+01
DAV:   3    -0.102069673882E+02   -0.62735E-01   -0.62544E-01  3176   0.541E+00
DAV:   4    -0.102070801933E+02   -0.11281E-03   -0.11280E-03  4056   0.206E-01
DAV:   5    -0.102070802594E+02   -0.66088E-07   -0.66059E-07  3064   0.281E-03    0.149E+00
DAV:   6    -0.102008032298E+02    0.62770E-02   -0.17973E-03  3168   0.306E-01    0.934E-01
DAV:   7    -0.101959225819E+02    0.48806E-02   -0.53210E-03  2888   0.543E-01    0.340E-02
DAV:   8    -0.101959047534E+02    0.17828E-04   -0.78275E-05  1528   0.669E-02
   1 F= -.10195905E+02 E0= -.10188980E+02  d E =-.101959E+02
 curvature:   0.00 expect dE= 0.000E+00 dE for cont linesearch  0.000E+00
 trial: gam= 0.00000 g(F)=  0.120E-45 g(S)=  0.405E-01 ort = 0.000E+00 (trialstep = 0.100E+01)
 search vector abs. value=  0.405E-01
 bond charge predicted
       N       E                     dE             d eps       ncg     rms          rms(c)
DAV:   1    -0.102346095551E+02   -0.38687E-01   -0.10315E+00  3768   0.580E+00    0.616E-01
DAV:   2    -0.102239525393E+02    0.10657E-01   -0.21099E-02  3096   0.110E+00    0.345E-01
DAV:   3    -0.102188294177E+02    0.51231E-02   -0.13948E-02  3616   0.650E-01    0.304E-02
DAV:   4    -0.102188687791E+02   -0.39361E-04   -0.48329E-04  1800   0.177E-01
   2 F= -.10218869E+02 E0= -.10212578E+02  d E =-.229640E-01
 trial-energy change:   -0.022964  1 .order   -0.023224   -0.040550   -0.005898
 step:   1.1702(harm=  1.1702)  dis= 0.00000  next Energy=   -10.219631 (dE=-0.237E-01)
 bond charge predicted
       N       E                     dE             d eps       ncg     rms          rms(c)
DAV:   1    -0.102199739872E+02   -0.11446E-02   -0.29765E-02  3624   0.988E-01    0.987E-02
DAV:   2    -0.102197072264E+02    0.26676E-03   -0.57900E-04  2656   0.185E-01
   3 F= -.10219707E+02 E0= -.10213448E+02  d E =-.238025E-01
 curvature:  -0.59 expect dE=-0.360E-03 dE for cont linesearch -0.322E-03
 ZBRENT: increasing intervall
 opt :   1.5106  next Energy=   -10.220914 (dE=-0.250E-01)
 bond charge predicted
       N       E                     dE             d eps       ncg     rms          rms(c)
DAV:   1    -0.102201913918E+02   -0.21740E-03   -0.10388E-01  3656   0.184E+00    0.202E-01
DAV:   2    -0.102190536932E+02    0.11377E-02   -0.21202E-03  3208   0.347E-01    0.113E-01
DAV:   3    -0.102185116342E+02    0.54206E-03   -0.14569E-03  2776   0.211E-01    0.981E-03
DAV:   4    -0.102185174007E+02   -0.57665E-05   -0.64011E-05  1368   0.638E-02
   4 F= -.10218517E+02 E0= -.10212343E+02  d E =-.226126E-01
 curvature:  -2.20 expect dE=-0.355E-02 dE for cont linesearch -0.350E-02
 ZBRENT: bracketing found
 ZBRENT: interpolating
 opt :   1.2962  next Energy=   -10.220005 (dE=-0.241E-01)
 bond charge predicted
       N       E                     dE             d eps       ncg     rms          rms(c)
DAV:   1    -0.102202921900E+02   -0.17806E-02   -0.45337E-02  3656   0.121E+00    0.133E-01
DAV:   2    -0.102197936520E+02    0.49854E-03   -0.93780E-04  2864   0.232E-01    0.747E-02
DAV:   3    -0.102195474342E+02    0.24622E-03   -0.63531E-04  1600   0.141E-01
   5 F= -.10219547E+02 E0= -.10213321E+02  d E =-.236427E-01
 curvature:  -0.19 expect dE=-0.239E-04 dE for cont linesearch -0.147E-04
 ZBRENT: interpolating
 opt :   1.2616  next Energy=   -10.219578 (dE=-0.237E-01)
 bond charge predicted
       N       E                     dE             d eps       ncg     rms          rms(c)
DAV:   1    -0.102196166038E+02    0.17705E-03   -0.12679E-03  3288   0.213E-01    0.197E-02
DAV:   2    -0.102196073205E+02    0.92832E-05   -0.19388E-05  1344   0.347E-02
   6 F= -.10219607E+02 E0= -.10213371E+02  d E =-.237026E-01
 curvature:  -0.39 expect dE=-0.476E-04 dE for cont linesearch -0.259E-04
 ZBRENT: bisectioning
 opt :   1.2159  next Energy=   -10.219678 (dE=-0.238E-01)
 bond charge predicted
       N       E                     dE             d eps       ncg     rms          rms(c)
DAV:   1    -0.102196482434E+02   -0.31640E-04   -0.18004E-03  3624   0.243E-01    0.268E-02
DAV:   2    -0.102196285142E+02    0.19729E-04   -0.35304E-05  1352   0.455E-02
   7 F= -.10219629E+02 E0= -.10213381E+02  d E =-.237238E-01
 curvature:  -1.06 expect dE=-0.739E-04 dE for cont linesearch -0.835E-05
 ZBRENT: interpolating
 opt :   1.1968  next Energy=   -10.219635 (dE=-0.237E-01)
 bond charge predicted
       N       E                     dE             d eps       ncg     rms          rms(c)
DAV:   1    -0.102196127149E+02    0.35528E-04   -0.22520E-04  1800   0.885E-02    0.108E-02
DAV:   2    -0.102196098263E+02    0.28886E-05   -0.73940E-06  1328   0.210E-02
   8 F= -.10219610E+02 E0= -.10213358E+02  d E =-.237051E-01
 curvature:  -0.83 expect dE=-0.592E-04 dE for cont linesearch -0.570E-05
 ZBRENT: interpolating
 opt :   1.2060  next Energy=   -10.219612 (dE=-0.237E-01)
 bond charge predicted
       N       E                     dE             d eps       ncg     rms          rms(c)
DAV:   1    -0.102196160059E+02   -0.32910E-05   -0.11429E-04  1296   0.611E-02    0.548E-03
DAV:   2    -0.102196154310E+02    0.57487E-06   -0.42113E-06  1296   0.168E-02
   9 F= -.10219615E+02 E0= -.10213365E+02  d E =-.237107E-01
 curvature:  -0.36 expect dE=-0.265E-04 dE for cont linesearch -0.446E-05
 ZBRENT: interpolating
 opt :   1.2115  next Energy=   -10.219630 (dE=-0.237E-01)
 bond charge predicted
       N       E                     dE             d eps       ncg     rms          rms(c)
DAV:   1    -0.102196180744E+02   -0.20685E-05   -0.21660E-05  1288   0.266E-02    0.308E-03
DAV:   2    -0.102196178404E+02    0.23395E-06   -0.77979E-07  1296   0.696E-03
  10 F= -.10219618E+02 E0= -.10213369E+02  d E =-.237131E-01
 curvature:  -0.10 expect dE=-0.655E-05 dE for cont linesearch -0.537E-06
 ZBRENT: interpolating
 opt :   1.2135  next Energy=   -10.219618 (dE=-0.237E-01)
 bond charge predicted
       N       E                     dE             d eps       ncg     rms          rms(c)
DAV:   1    -0.102196185363E+02   -0.46195E-06   -0.25064E-06  1288   0.925E-03    0.115E-03
DAV:   2    -0.102196185046E+02    0.31719E-07   -0.11212E-07  1296   0.253E-03
  11 F= -.10219619E+02 E0= -.10213370E+02  d E =-.237138E-01
 curvature:  -0.09 expect dE=-0.550E-05 dE for cont linesearch -0.271E-06
 ZBRENT: bisectioning
 opt :   1.2147  next Energy=   -10.219619 (dE=-0.237E-01)
 bond charge predicted
       N       E                     dE             d eps       ncg     rms          rms(c)
DAV:   1    -0.102196189141E+02   -0.37782E-06   -0.10794E-06  1280   0.606E-03    0.709E-04
DAV:   2    -0.102196189016E+02    0.12520E-07   -0.40539E-08  1296   0.156E-03
  12 F= -.10219619E+02 E0= -.10213371E+02  d E =-.237141E-01
 curvature:  -0.12 expect dE=-0.773E-05 dE for cont linesearch -0.295E-06
 ZBRENT: bisectioning
 opt :   1.2153  next Energy=   -10.219619 (dE=-0.237E-01)
 bond charge predicted
       N       E                     dE             d eps       ncg     rms          rms(c)
DAV:   1    -0.102196190897E+02   -0.17555E-06   -0.25039E-07  1296   0.293E-03    0.350E-04
DAV:   2    -0.102196190865E+02    0.32050E-08   -0.99826E-09  1296   0.767E-04
  13 F= -.10219619E+02 E0= -.10213371E+02  d E =-.237143E-01
 curvature:  -0.07 expect dE=-0.467E-05 dE for cont linesearch -0.150E-06
 ZBRENT: bisectioning
 opt :   1.2156  next Energy=   -10.219619 (dE=-0.237E-01)
 bond charge predicted
       N       E                     dE             d eps       ncg     rms          rms(c)
DAV:   1    -0.102196191761E+02   -0.86430E-07   -0.63596E-08  1296   0.148E-03    0.178E-04
DAV:   2    -0.102196191764E+02   -0.23155E-09   -0.25008E-09  1296   0.383E-04
  14 F= -.10219619E+02 E0= -.10213371E+02  d E =-.237144E-01
 curvature:  -0.04 expect dE=-0.258E-05 dE for cont linesearch -0.758E-07
 ZBRENT: bisectioning
 opt :   1.2158  next Energy=   -10.219619 (dE=-0.237E-01)
 bond charge predicted
       N       E                     dE             d eps       ncg     rms          rms(c)
DAV:   1    -0.102196192200E+02   -0.43919E-07   -0.15814E-08  1296   0.737E-04    0.917E-05
DAV:   2    -0.102196192204E+02   -0.35186E-09   -0.61434E-10  1296   0.190E-04
  15 F= -.10219619E+02 E0= -.10213371E+02  d E =-.237145E-01
 curvature:  -0.02 expect dE=-0.137E-05 dE for cont linesearch -0.382E-07
 ZBRENT: bisectioning
 opt :   1.2158  next Energy=   -10.219619 (dE=-0.237E-01)
 writing wavefunctions
