unknown system                          
   1.00000000000000     
    -2.450000    2.450000    1.274000
     2.450000   -2.450000    1.274000
     2.450000    2.450000   -1.274000
   Si
     2
Direct
  0.250000  0.750000  0.500000
  0.000000  0.000000  0.000000
 
   24   24   24
 -.54887744672E+01 -.34779608683E+01 0.15240935883E+01 0.70857593446E+01 0.10862028759E+02
 0.11854699340E+02 0.10659790391E+02 0.86979329100E+01 0.68815264852E+01 0.54839461742E+01
 0.45601112670E+01 0.40542376198E+01 0.38954452885E+01 0.40542697944E+01 0.45600845611E+01
 0.54838728890E+01 0.68815055689E+01 0.86979488592E+01 0.10659744215E+02 0.11854614412E+02
 0.10862003536E+02 0.70857461790E+01 0.15239709567E+01 -.34781213982E+01 -.34781213982E+01
 -.45360529588E+01 -.17783584803E+01 0.33738081523E+01 0.84392578746E+01 0.11376428864E+02
 0.11625142088E+02 0.10077822622E+02 0.81191317610E+01 0.64120140494E+01 0.51540214399E+01
 0.43597676231E+01 0.39616697728E+01 0.38954460868E+01 0.41453178735E+01 0.47526535649E+01
 0.57903715509E+01 0.72971984700E+01 0.91779780764E+01 0.11082618410E+02 0.11935646306E+02
 0.10429267580E+02 0.62935550142E+01 0.85057295087E+00 0.15239709567E+01 -.17784894446E+01
 -.18990272180E+01 0.12210920990E+01 0.59394179979E+01 0.99667343139E+01 0.11743801250E+02
 0.11183262627E+02 0.93787587826E+01 0.74862357047E+01 0.59258828867E+01 0.48259413117E+01
 0.41662505074E+01 0.38740947033E+01 0.38954641484E+01 0.42282129133E+01 0.49224281843E+01
 0.60480319983E+01 0.76238993701E+01 0.95212514999E+01 0.11334137448E+02 0.11949089482E+02
 0.10261757535E+02 0.62935550142E+01 0.70857461790E+01 0.33737207140E+01 0.12210116579E+01
 0.18216416243E+01 0.48357026796E+01 0.86080525372E+01 0.11249732780E+02 0.11777667738E+02
 0.10523946765E+02 0.86205073730E+01 0.68461135618E+01 0.54583862489E+01 0.45222199228E+01
 0.39922234308E+01 0.37971978196E+01 0.38954611815E+01 0.42966758167E+01 0.50553622298E+01
 0.62341821399E+01 0.78326667464E+01 0.97001473672E+01 0.11417008219E+02 0.11949089482E+02
 0.10429267580E+02 0.10862003536E+02 0.84392475044E+01 0.59393777591E+01 0.48356794874E+01
 0.58160930270E+01 0.82920111267E+01 0.10796669283E+02 0.11973699389E+02 0.11407473024E+02
 0.97210617800E+01 0.78578966130E+01 0.62434777965E+01 0.50397730847E+01 0.42610180013E+01
 0.38477235589E+01 0.37355850688E+01 0.38954188810E+01 0.43454537337E+01 0.51400723522E+01
 0.63318116803E+01 0.79044677079E+01 0.97001473672E+01 0.11334137448E+02 0.11935646306E+02
 0.11854614412E+02 0.11376403936E+02 0.99667280747E+01 0.86080581059E+01 0.82920371903E+01
 0.92931054092E+01 0.10945888933E+02 0.12120902739E+02 0.12026064957E+02 0.10709503238E+02
 0.88918489224E+01 0.71465420493E+01 0.57172037480E+01 0.46935812584E+01 0.40555786013E+01
 0.37399738637E+01 0.36926641884E+01 0.38953611789E+01 0.43708082757E+01 0.51691632159E+01
 0.63318116803E+01 0.78326667464E+01 0.95212514999E+01 0.11082618410E+02 0.10659744215E+02
 0.11625105296E+02 0.11743781014E+02 0.11249730298E+02 0.10796707935E+02 0.10945946671E+02
 0.11695495630E+02 0.12453484438E+02 0.12494225737E+02 0.11521923451E+02 0.98791295859E+01
 0.81178851327E+01 0.65375957433E+01 0.52979667345E+01 0.44363478687E+01 0.39145726307E+01
 0.36736374466E+01 0.36706584262E+01 0.38953336103E+01 0.43708082757E+01 0.51400723522E+01
 0.62341821399E+01 0.76238993701E+01 0.91779780764E+01 0.86979488592E+01 0.10077844848E+02
 0.11183273250E+02 0.11777655517E+02 0.11973698890E+02 0.12120957063E+02 0.12453554431E+02
 0.12834238257E+02 0.12839263849E+02 0.12124153922E+02 0.10748233328E+02 0.90964370284E+01
 0.74689829112E+01 0.60729296651E+01 0.50074856512E+01 0.42784127608E+01 0.38429697620E+01
 0.36512591352E+01 0.36706584262E+01 0.38953611789E+01 0.43454537337E+01 0.50553622298E+01
 0.60480319983E+01 0.72971984700E+01 0.68815055689E+01 0.81191750457E+01 0.93788319830E+01
 0.10523993752E+02 0.11407470560E+02 0.12026065465E+02 0.12494281203E+02 0.12839331315E+02
 0.12898576819E+02 0.12441114786E+02 0.11410302963E+02 0.10003880946E+02 0.84606557569E+01
 0.70029932010E+01 0.57824773902E+01 0.48591315325E+01 0.42252121765E+01 0.38429697620E+01
 0.36736374466E+01 0.36926641884E+01 0.38954188810E+01 0.42966758167E+01 0.49224281843E+01
 0.57903715509E+01 0.54838728890E+01 0.64119949032E+01 0.74862894446E+01 0.86206041265E+01
 0.97211292666E+01 0.10709511239E+02 0.11521926006E+02 0.12124202751E+02 0.12441172246E+02
 0.12344119556E+02 0.11757295569E+02 0.10737150172E+02 0.94334613441E+01 0.80474224346E+01
 0.67599418720E+01 0.56837577074E+01 0.48591315325E+01 0.42784127608E+01 0.39145726307E+01
 0.37399738637E+01 0.37355850688E+01 0.38954611815E+01 0.42282129133E+01 0.47526535649E+01
 0.45600845611E+01 0.51539859467E+01 0.59258685293E+01 0.68461610309E+01 0.78579910491E+01
 0.88919221907E+01 0.98791474863E+01 0.10748239685E+02 0.11410343276E+02 0.11757341809E+02
 0.11691887284E+02 0.11177884259E+02 0.10274644364E+02 0.91252406603E+01 0.79043178830E+01
 0.67599418720E+01 0.57824773902E+01 0.50074856512E+01 0.44363478687E+01 0.40555786013E+01
 0.38477235589E+01 0.37971978196E+01 0.38954641484E+01 0.41453178735E+01 0.40542697944E+01
 0.43598100533E+01 0.48259502835E+01 0.54583805746E+01 0.62435086932E+01 0.71466167255E+01
 0.81179527562E+01 0.90964620849E+01 0.10003891380E+02 0.10737183287E+02 0.11177921693E+02
 0.11227722046E+02 0.10853412445E+02 0.10110442699E+02 0.91252406603E+01 0.80474224346E+01
 0.70029932010E+01 0.60729296651E+01 0.52979667345E+01 0.46935812584E+01 0.42610180013E+01
 0.39922234308E+01 0.38740947033E+01 0.38954460868E+01 0.38954452885E+01 0.39617520635E+01
 0.41663507318E+01 0.45222738597E+01 0.50397797726E+01 0.57172150756E+01 0.65376420678E+01
 0.74690372573E+01 0.84606834444E+01 0.94334744365E+01 0.10274672803E+02 0.10853445177E+02
 0.11060654450E+02 0.10853412445E+02 0.10274644364E+02 0.94334613441E+01 0.84606557569E+01
 0.74689829112E+01 0.65375957433E+01 0.57172037480E+01 0.50397730847E+01 0.45222199228E+01
 0.41662505074E+01 0.39616697728E+01 0.40542376198E+01 0.38954821835E+01 0.38742093538E+01
 0.39923627614E+01 0.42611085613E+01 0.46936002233E+01 0.52979591672E+01 0.60729467728E+01
 0.70030319513E+01 0.80474493622E+01 0.91252547152E+01 0.10110469520E+02 0.10853445177E+02
 0.11227722046E+02 0.11177884259E+02 0.10737150172E+02 0.10003880946E+02 0.90964370284E+01
 0.81178851327E+01 0.71465420493E+01 0.62434777965E+01 0.54583862489E+01 0.48259413117E+01
 0.43597676231E+01 0.45601112670E+01 0.41453487051E+01 0.38955348765E+01 0.37973264069E+01
 0.38478788657E+01 0.40556907737E+01 0.44363740445E+01 0.50074620293E+01 0.57824720226E+01
 0.67599700054E+01 0.79043439380E+01 0.91252547152E+01 0.10274672803E+02 0.11177921693E+02
 0.11691887284E+02 0.11757295569E+02 0.11410302963E+02 0.10748233328E+02 0.98791295859E+01
 0.88918489224E+01 0.78578966130E+01 0.68461135618E+01 0.59258828867E+01 0.51540214399E+01
 0.54839461742E+01 0.47527503908E+01 0.42283107873E+01 0.38955613551E+01 0.37357110383E+01
 0.37401260842E+01 0.39146915842E+01 0.42784406974E+01 0.48590980936E+01 0.56837438135E+01
 0.67599700054E+01 0.80474493622E+01 0.94334744365E+01 0.10737183287E+02 0.11757341809E+02
 0.12344119556E+02 0.12441114786E+02 0.12124153922E+02 0.11521923451E+02 0.10709503238E+02
 0.97210617800E+01 0.86205073730E+01 0.74862357047E+01 0.64120140494E+01 0.68815264852E+01
 0.57904691016E+01 0.49225834166E+01 0.42968324326E+01 0.38955392330E+01 0.36927781777E+01
 0.36737784270E+01 0.38430883280E+01 0.42252399458E+01 0.48590980936E+01 0.57824720226E+01
 0.70030319513E+01 0.84606834444E+01 0.10003891380E+02 0.11410343276E+02 0.12441172246E+02
 0.12898576819E+02 0.12839263849E+02 0.12494225737E+02 0.12026064957E+02 0.11407473024E+02
 0.10523946765E+02 0.93787587826E+01 0.81191317610E+01 0.86979329100E+01 0.72972173060E+01
 0.60481369975E+01 0.50555568804E+01 0.43456515419E+01 0.38954911396E+01 0.36707617735E+01
 0.36513942876E+01 0.38430883280E+01 0.42784406974E+01 0.50074620293E+01 0.60729467728E+01
 0.74690372573E+01 0.90964620849E+01 0.10748239685E+02 0.12124202751E+02 0.12839331315E+02
 0.12834238257E+02 0.12453484438E+02 0.12120902739E+02 0.11973699389E+02 0.11777667738E+02
 0.11183262627E+02 0.10077822622E+02 0.10659790391E+02 0.91779975368E+01 0.76239111885E+01
 0.62342817452E+01 0.51402869255E+01 0.43710261551E+01 0.38954659979E+01 0.36707617735E+01
 0.36737784270E+01 0.39146915842E+01 0.44363740445E+01 0.52979591672E+01 0.65376420678E+01
 0.81179527562E+01 0.98791474863E+01 0.11521926006E+02 0.12494281203E+02 0.12453554431E+02
 0.11695495630E+02 0.10945888933E+02 0.10796669283E+02 0.11249732780E+02 0.11743801250E+02
 0.11625142088E+02 0.11854699340E+02 0.11082732271E+02 0.95213020593E+01 0.78326699914E+01
 0.63319039073E+01 0.51693833776E+01 0.43710261551E+01 0.38954911396E+01 0.36927781777E+01
 0.37401260842E+01 0.40556907737E+01 0.46936002233E+01 0.57172150756E+01 0.71466167255E+01
 0.88919221907E+01 0.10709511239E+02 0.12026065465E+02 0.12120957063E+02 0.10945946671E+02
 0.92931054092E+01 0.82920111267E+01 0.86080525372E+01 0.99667343139E+01 0.11376428864E+02
 0.10862028759E+02 0.11935768948E+02 0.11334299866E+02 0.97002153866E+01 0.79044670203E+01
 0.63319039073E+01 0.51402869255E+01 0.43456515419E+01 0.38955392330E+01 0.37357110383E+01
 0.38478788657E+01 0.42611085613E+01 0.50397797726E+01 0.62435086932E+01 0.78579910491E+01
 0.97211292666E+01 0.11407470560E+02 0.11973698890E+02 0.10796707935E+02 0.82920371903E+01
 0.58160930270E+01 0.48357026796E+01 0.59394179979E+01 0.84392578746E+01 0.70857593446E+01
 0.10429290415E+02 0.11949232338E+02 0.11417188130E+02 0.97002153866E+01 0.78326699914E+01
 0.62342817452E+01 0.50555568804E+01 0.42968324326E+01 0.38955613551E+01 0.37973264069E+01
 0.39923627614E+01 0.45222738597E+01 0.54583805746E+01 0.68461610309E+01 0.86206041265E+01
 0.10523993752E+02 0.11777655517E+02 0.11249730298E+02 0.86080581059E+01 0.48356794874E+01
 0.18216416243E+01 0.12210920990E+01 0.33738081523E+01 0.15240935883E+01 0.62935692604E+01
 0.10261778920E+02 0.11949232338E+02 0.11334299866E+02 0.95213020593E+01 0.76239111885E+01
 0.60481369975E+01 0.49225834166E+01 0.42283107873E+01 0.38955348765E+01 0.38742093538E+01
 0.41663507318E+01 0.48259502835E+01 0.59258685293E+01 0.74862894446E+01 0.93788319830E+01
 0.11183273250E+02 0.11743781014E+02 0.99667280747E+01 0.59393777591E+01 0.12210116579E+01
 -.18990272180E+01 -.17783584803E+01 -.34779608683E+01 0.85070856780E+00 0.62935692604E+01
 0.10429290415E+02 0.11935768948E+02 0.11082732271E+02 0.91779975368E+01 0.72972173060E+01
 0.57904691016E+01 0.47527503908E+01 0.41453487051E+01 0.38954821835E+01 0.39617520635E+01
 0.43598100533E+01 0.51539859467E+01 0.64119949032E+01 0.81191750457E+01 0.10077844848E+02
 0.11625105296E+02 0.11376403936E+02 0.84392475044E+01 0.33737207140E+01 -.17784894446E+01
 -.45360529588E+01 -.34780387321E+01 -.20422488929E+01 0.22567852735E+01 0.72682643228E+01
 0.10774044399E+02 0.11723858081E+02 0.10572256402E+02 0.86317798683E+01 0.68079659096E+01
 0.53827781484E+01 0.44216928625E+01 0.38748578378E+01 0.36706882479E+01 0.37741421493E+01
 0.42069432170E+01 0.50352178497E+01 0.63212691687E+01 0.80374903313E+01 0.99711231976E+01
 0.11420790878E+02 0.11052352128E+02 0.81231989017E+01 0.33250118911E+01 -.13072336004E+01
 -.20424065955E+01 -.34780711200E+01 -.13071038478E+01 0.33251755371E+01 0.81232455536E+01
 0.11052287764E+02 0.11420758743E+02 0.99712025587E+01 0.80376006720E+01 0.63213095742E+01
 0.50352181037E+01 0.42069834570E+01 0.37741939174E+01 0.36706552724E+01 0.38747460919E+01
 0.44216077840E+01 0.53827524949E+01 0.68079134412E+01 0.86316534785E+01 0.10572145253E+02
 0.11723862297E+02 0.10774120546E+02 0.72682688855E+01 0.22566578160E+01 0.23832370129E+01
 -.11692028152E+01 -.17784587816E+01 0.85143663403E+00 0.52975999519E+01 0.93406195794E+01
 0.11320956115E+02 0.10975460483E+02 0.92738722714E+01 0.74027822012E+01 0.58300912168E+01
 0.47033682745E+01 0.40155585697E+01 0.36976001370E+01 0.36926485854E+01 0.39932040558E+01
 0.46453404438E+01 0.57211457008E+01 0.72534603428E+01 0.91414125234E+01 0.11041422173E+02
 0.11942028804E+02 0.10670130765E+02 0.70582567594E+01 0.75839605811E+01 0.36873215545E+01
 0.11084211296E+01 0.12210467602E+01 0.39138386710E+01 0.76642780078E+01 0.10541226219E+02
 0.11388712966E+02 0.10361571116E+02 0.85324578216E+01 0.67708361749E+01 0.53677472584E+01
 0.44085881373E+01 0.38590663953E+01 0.36497336336E+01 0.37355713610E+01 0.41220395139E+01
 0.48622496500E+01 0.60240093144E+01 0.76214907108E+01 0.95262060164E+01 0.11360280245E+02
 0.12122600834E+02 0.10842209875E+02 0.11267834375E+02 0.87124797974E+01 0.58471603192E+01
 0.42562879981E+01 0.48357332644E+01 0.71777202807E+01 0.98523897145E+01 0.11376529653E+02
 0.11135975779E+02 0.96146878306E+01 0.77944472348E+01 0.61820935047E+01 0.49623430285E+01
 0.41675690545E+01 0.37460834999E+01 0.36334657350E+01 0.37971878235E+01 0.42528660747E+01
 0.50559728039E+01 0.62659921679E+01 0.78796116771E+01 0.97526049255E+01 0.11513842685E+02
 0.12270837157E+02 0.12340704975E+02 0.11805084478E+02 0.10128568803E+02 0.83328546680E+01
 0.75646815987E+01 0.82921011224E+01 0.99615339039E+01 0.11399115736E+02 0.11644261017E+02
 0.10567723780E+02 0.88304479469E+01 0.71066404181E+01 0.56714579800E+01 0.46354526762E+01
 0.39920036292E+01 0.36820060506E+01 0.36497565137E+01 0.38740761319E+01 0.43768070811E+01
 0.52111104176E+01 0.64256371897E+01 0.80034849190E+01 0.97983155367E+01 0.11483870776E+02
 0.11252418196E+02 0.12252621057E+02 0.12243308766E+02 0.11436183988E+02 0.10565527841E+02
 0.10352713424E+02 0.10945993507E+02 0.11796358061E+02 0.12084488626E+02 0.11350676291E+02
 0.98174499239E+01 0.80891766981E+01 0.65136916608E+01 0.52669609958E+01 0.44021151189E+01
 0.38889513057E+01 0.36692532381E+01 0.36976214408E+01 0.39616299864E+01 0.44850071247E+01
 0.53147478409E+01 0.64881014513E+01 0.79803045774E+01 0.96556392054E+01 0.93335607292E+01
 0.10815202278E+02 0.11931397693E+02 0.12381934283E+02 0.12287314902E+02 0.12089547394E+02
 0.12158577495E+02 0.12453556967E+02 0.12543070855E+02 0.11978436948E+02 0.10696127998E+02
 0.90706660063E+01 0.74523191011E+01 0.60545340606E+01 0.49892587597E+01 0.42716079202E+01
 0.38616211583E+01 0.37076380108E+01 0.37741842476E+01 0.40541799738E+01 0.45692777285E+01
 0.53579262104E+01 0.64472836040E+01 0.78110080807E+01 0.75106109872E+01 0.88577111394E+01
 0.10197952483E+02 0.11348916743E+02 0.12108940027E+02 0.12494472112E+02 0.12701225639E+02
 0.12853773550E+02 0.12839291013E+02 0.12396574169E+02 0.11387157779E+02 0.99775923525E+01
 0.84344989252E+01 0.69761898865E+01 0.57596504987E+01 0.48520050748E+01 0.42485755186E+01
 0.39101994659E+01 0.37947105597E+01 0.38748010185E+01 0.41452913327E+01 0.46228755903E+01
 0.53368388450E+01 0.63068981968E+01 0.60801362880E+01 0.71063840259E+01 0.82678500941E+01
 0.94561542960E+01 0.10552694797E+02 0.11448796164E+02 0.12086713757E+02 0.12490193289E+02
 0.12644111416E+02 0.12441119416E+02 0.11780092327E+02 0.10709623438E+02 0.93818282891E+01
 0.79874747056E+01 0.67051693839E+01 0.56497565006E+01 0.48626300409E+01 0.43339672930E+01
 0.40323670439E+01 0.39259529018E+01 0.39932709016E+01 0.42282725410E+01 0.46413176931E+01
 0.52534683339E+01 0.51154230923E+01 0.57878339468E+01 0.66341356932E+01 0.76131292111E+01
 0.86504108231E+01 0.96585886287E+01 0.10559553746E+02 0.11288304879E+02 0.11780540365E+02
 0.11961504538E+02 0.11757306573E+02 0.11145201357E+02 0.10183536050E+02 0.90083064396E+01
 0.77880468925E+01 0.66677202074E+01 0.57354372762E+01 0.50228140568E+01 0.45253151536E+01
 0.42232916778E+01 0.40947795829E+01 0.41221219667E+01 0.42968264919E+01 0.46230153942E+01
 0.45695224252E+01 0.49348981153E+01 0.54555107082E+01 0.61333741826E+01 0.69460524274E+01
 0.78456353105E+01 0.87692750636E+01 0.96498326797E+01 0.10415746247E+02 0.10983883865E+02
 0.11262713350E+02 0.11177914206E+02 0.10710196955E+02 0.99176849625E+01 0.89225126496E+01
 0.78680749891E+01 0.68745011168E+01 0.60166860437E+01 0.53280813806E+01 0.48161480231E+01
 0.44751156810E+01 0.42923867157E+01 0.42529679234E+01 0.43456768354E+01 0.43710621614E+01
 0.44852967460E+01 0.47269842634E+01 0.51099537312E+01 0.56424438806E+01 0.63163999322E+01
 0.71047795236E+01 0.79655380316E+01 0.88439304052E+01 0.96679738663E+01 0.10344110186E+02
 0.10767637565E+02 0.10853454077E+02 0.10572757766E+02 0.99704048645E+01 0.91489399845E+01
 0.82297665166E+01 0.73169111916E+01 0.64816217891E+01 0.57664024022E+01 0.51947122029E+01
 0.47761225138E+01 0.45075892183E+01 0.43769253580E+01 0.44851217552E+01 0.43710378956E+01
 0.43770819379E+01 0.45077528229E+01 0.47761533242E+01 0.51946642595E+01 0.57664069759E+01
 0.64817038765E+01 0.73169889557E+01 0.82297863205E+01 0.91489334524E+01 0.99704191724E+01
 0.10572785313E+02 0.10853454732E+02 0.10767608058E+02 0.10344095414E+02 0.96679950171E+01
 0.88439331172E+01 0.79654619799E+01 0.71046695798E+01 0.63163726373E+01 0.56425138708E+01
 0.51099798954E+01 0.47268582402E+01 0.49348249570E+01 0.45693551708E+01 0.43456146055E+01
 0.42530928883E+01 0.42925695950E+01 0.44752021311E+01 0.48161378241E+01 0.53280774310E+01
 0.60167374569E+01 0.68745621618E+01 0.78680963629E+01 0.89225083760E+01 0.99176975674E+01
 0.10710227782E+02 0.11177921268E+02 0.11262681777E+02 0.10983863618E+02 0.10415778033E+02
 0.96498598825E+01 0.87692039257E+01 0.78454896237E+01 0.69459773617E+01 0.61334365689E+01
 0.54555822917E+01 0.57879336274E+01 0.51154133327E+01 0.46228877473E+01 0.42967505433E+01
 0.41222132638E+01 0.40949602378E+01 0.42234124850E+01 0.45253318658E+01 0.50227948012E+01
 0.57354462406E+01 0.66677482434E+01 0.77880573603E+01 0.90083025073E+01 0.10183554913E+02
 0.11145245228E+02 0.11757320349E+02 0.11961454287E+02 0.11780482237E+02 0.11288312270E+02
 0.10559584126E+02 0.96585189907E+01 0.86502303541E+01 0.76129943065E+01 0.66341656339E+01
 0.71063708458E+01 0.60802449033E+01 0.52535225476E+01 0.46412550512E+01 0.42282121832E+01
 0.39933341830E+01 0.39261082495E+01 0.40324884332E+01 0.43339851890E+01 0.48625853109E+01
 0.56497250509E+01 0.67051731934E+01 0.79874848823E+01 0.93818330328E+01 0.10709649861E+02
 0.11780140064E+02 0.12441114964E+02 0.12644001331E+02 0.12490048373E+02 0.12086654387E+02
 0.11448811717E+02 0.10552639514E+02 0.94559669505E+01 0.82676705373E+01 0.88575232228E+01
 0.75105588888E+01 0.63069989347E+01 0.53369471011E+01 0.46228914702E+01 0.41452697730E+01
 0.38748445007E+01 0.37948248170E+01 0.39102948879E+01 0.42485789778E+01 0.48519423332E+01
 0.57596044774E+01 0.69761983446E+01 0.84345240647E+01 0.99775985783E+01 0.11387164367E+02
 0.12396586228E+02 0.12839232790E+02 0.12853575581E+02 0.12700971769E+02 0.12494333367E+02
 0.12108946382E+02 0.11348907632E+02 0.10197805983E+02 0.10815138340E+02 0.93334037478E+01
 0.78109325955E+01 0.64473656333E+01 0.53580725952E+01 0.45693709382E+01 0.40542099555E+01
 0.37742193236E+01 0.37077129747E+01 0.38616881360E+01 0.42716046197E+01 0.49892014629E+01
 0.60545046786E+01 0.74523520307E+01 0.90706998835E+01 0.10696101186E+02 0.11978375776E+02
 0.12543010342E+02 0.12453431324E+02 0.12158309490E+02 0.12089219558E+02 0.12287127510E+02
 0.12381954447E+02 0.11931463087E+02 0.12252761924E+02 0.11252450784E+02 0.96555416542E+01
 0.79802272062E+01 0.64881641735E+01 0.53149167725E+01 0.44851654901E+01 0.39617125738E+01
 0.36976611852E+01 0.36693053290E+01 0.38890061702E+01 0.44021218052E+01 0.52669260796E+01
 0.65136886190E+01 0.80892278679E+01 0.98174659983E+01 0.11350579944E+02 0.12084329800E+02
 0.11796220146E+02 0.10945841090E+02 0.10352451791E+02 0.10565207666E+02 0.11436000788E+02
 0.12243357808E+02 0.11805150402E+02 0.12340887944E+02 0.11483982962E+02 0.97982891733E+01
 0.80034277492E+01 0.64256883699E+01 0.52112896155E+01 0.43770106172E+01 0.38742015778E+01
 0.36498078089E+01 0.36820518351E+01 0.39920607802E+01 0.46354743520E+01 0.56714390234E+01
 0.71066488823E+01 0.88304968884E+01 0.10567705920E+02 0.11644091580E+02 0.11398874516E+02
 0.99613601608E+01 0.82919878379E+01 0.75645113461E+01 0.83326200338E+01 0.10128426991E+02
 0.87123860472E+01 0.11267884019E+02 0.12271010783E+02 0.11513998587E+02 0.97526461096E+01
 0.78795902610E+01 0.62660411170E+01 0.50561501049E+01 0.42530879940E+01 0.37973331219E+01
 0.36335208727E+01 0.37461255175E+01 0.41676282711E+01 0.49623669406E+01 0.61820690441E+01
 0.77944450778E+01 0.96147250791E+01 0.11135938195E+02 0.11376326147E+02 0.98521188608E+01
 0.71775580399E+01 0.48357033877E+01 0.42562555524E+01 0.58470490082E+01 0.36873246103E+01
 0.75839017698E+01 0.10842213215E+02 0.12122721651E+02 0.11360442650E+02 0.95262990991E+01
 0.76215081901E+01 0.60240585327E+01 0.48624102710E+01 0.41222485240E+01 0.37357048453E+01
 0.36497723366E+01 0.38590943568E+01 0.44086373579E+01 0.53677557865E+01 0.67707869354E+01
 0.85324325099E+01 0.10361603786E+02 0.11388690952E+02 0.10541046712E+02 0.76640274744E+01
 0.39137083038E+01 0.12210938756E+01 0.11085124639E+01 -.11690468217E+01 0.23833183523E+01
 0.70582219770E+01 0.10670082302E+02 0.11942080643E+02 0.11041564693E+02 0.91415344933E+01
 0.72535052909E+01 0.57211883815E+01 0.46454684660E+01 0.39933720813E+01 0.36927406222E+01
 0.36976015009E+01 0.40155583133E+01 0.47033954338E+01 0.58300746876E+01 0.74027005067E+01
 0.92738209344E+01 0.10975496350E+02 0.11320978001E+02 0.93405035101E+01 0.52973933771E+01
 0.85132243432E+00 -.17783882209E+01 0.15241102540E+01 0.23833432065E+01 0.54608827831E+01
 0.91118063525E+01 0.11554216842E+02 0.11921630213E+02 0.10595762887E+02 0.86779270595E+01
 0.68883450390E+01 0.54758405702E+01 0.45035179114E+01 0.39260387846E+01 0.36736294487E+01
 0.37075215631E+01 0.40412493138E+01 0.47327217256E+01 0.58462229677E+01 0.73822071229E+01
 0.91950843381E+01 0.10869522998E+02 0.11378341924E+02 0.99043179114E+01 0.67329246516E+01
 0.33251167991E+01 0.22566779255E+01 0.85064764875E+00 0.22568012936E+01 0.56911802032E+01
 0.93233420390E+01 0.11446326828E+02 0.11443955753E+02 0.99320965085E+01 0.80440104995E+01
 0.63631267303E+01 0.50889092503E+01 0.42519689618E+01 0.37947438479E+01 0.36512177672E+01
 0.37946133878E+01 0.42519207133E+01 0.50889748949E+01 0.63630963624E+01 0.80438253143E+01
 0.99319851208E+01 0.11444075614E+02 0.11446520468E+02 0.93233834010E+01 0.56910600167E+01
 0.54608387223E+01 0.23831871397E+01 0.15240080206E+01 0.33252103413E+01 0.67331335991E+01
 0.99043932734E+01 0.11378209647E+02 0.10869420836E+02 0.91952009513E+01 0.73823875643E+01
 0.58462460624E+01 0.47326621490E+01 0.40413016327E+01 0.37076261905E+01 0.36735874248E+01
 0.39258864938E+01 0.45034701524E+01 0.54759101061E+01 0.68883301017E+01 0.86777686201E+01
 0.10595650760E+02 0.11921711388E+02 0.11554406766E+02 0.91119256828E+01 0.94052405975E+01
 0.61412787877E+01 0.36872441175E+01 0.33737686983E+01 0.52976670264E+01 0.82633874530E+01
 0.10597202529E+02 0.11216908273E+02 0.10187136319E+02 0.84343918815E+01 0.67366055172E+01
 0.53706963610E+01 0.44280374734E+01 0.38828331344E+01 0.36692245685E+01 0.37399406410E+01
 0.40947420881E+01 0.47813318130E+01 0.58680824370E+01 0.73841514025E+01 0.92371233750E+01
 0.11141237259E+02 0.12320358993E+02 0.11796579463E+02 0.12181826448E+02 0.10164282543E+02
 0.75728667789E+01 0.58470979542E+01 0.59394658510E+01 0.76643620547E+01 0.98398668452E+01
 0.11116613829E+02 0.10855885437E+02 0.94223298378E+01 0.76929665522E+01 0.61447396164E+01
 0.49632125419E+01 0.41909363237E+01 0.37845876434E+01 0.36819974998E+01 0.38477192162E+01
 0.42923629141E+01 0.50679667125E+01 0.62368569225E+01 0.78107619847E+01 0.96752106126E+01
 0.11530890076E+02 0.12636420233E+02 0.12830943470E+02 0.12621452561E+02 0.11184385048E+02
 0.93853444967E+01 0.83328252562E+01 0.86081691368E+01 0.98524488562E+01 0.11045108399E+02
 0.11254967515E+02 0.10270834614E+02 0.86452769943E+01 0.70114684074E+01 0.56384042946E+01
 0.46438611806E+01 0.40322700948E+01 0.37513298449E+01 0.37461143035E+01 0.39922381741E+01
 0.45075574308E+01 0.53435363114E+01 0.65526113198E+01 0.81303262067E+01 0.99506580079E+01
 0.11728611418E+02 0.11702609896E+02 0.12837710393E+02 0.12958058799E+02 0.12161811302E+02
 0.11112594300E+02 0.10565515315E+02 0.10796783823E+02 0.11399108108E+02 0.11619100919E+02
 0.10957985618E+02 0.95421055715E+01 0.79187701811E+01 0.64274184035E+01 0.52424979109E+01
 0.44264250128E+01 0.39583916073E+01 0.37846263759E+01 0.38591277154E+01 0.41662668935E+01
 0.47268108743E+01 0.55871430093E+01 0.67877547601E+01 0.83117810490E+01 0.10033330640E+02
 0.99098615133E+01 0.11436087640E+02 0.12590757841E+02 0.13024764765E+02 0.12796206873E+02
 0.12338234064E+02 0.12089519921E+02 0.12120940879E+02 0.12084408306E+02 0.11534736086E+02
 0.10341975593E+02 0.88147376603E+01 0.72917172504E+01 0.59739562041E+01 0.49754587938E+01
 0.43192788222E+01 0.39716934798E+01 0.38828882233E+01 0.40156317842E+01 0.43597846253E+01
 0.49347784803E+01 0.57786965400E+01 0.69202217375E+01 0.83356290254E+01 0.81975663966E+01
 0.95872077198E+01 0.10941672005E+02 0.12060224486E+02 0.12713263055E+02 0.12894014514E+02
 0.12823840550E+02 0.12701170089E+02 0.12494173608E+02 0.11978322695E+02 0.10988721801E+02
 0.96396334813E+01 0.81818102212E+01 0.68119543980E+01 0.56783478934E+01 0.48498938196E+01
 0.43263890672E+01 0.40711390366E+01 0.40413524377E+01 0.42070583216E+01 0.45601463252E+01
 0.51153960452E+01 0.59012660486E+01 0.69368114864E+01 0.68355213612E+01 0.79098351482E+01
 0.90929435915E+01 0.10262008528E+02 0.11280709198E+02 0.12024360738E+02 0.12435647843E+02
 0.12575342159E+02 0.12490129780E+02 0.12124065476E+02 0.11387060873E+02 0.10308457350E+02
 0.90287009207E+01 0.77126412963E+01 0.65208384904E+01 0.55609297462E+01 0.48732571215E+01
 0.44480193236E+01 0.42524897284E+01 0.42520059132E+01 0.44217643618E+01 0.47528205915E+01
 0.52535587595E+01 0.59434739887E+01 0.59013075037E+01 0.66261115283E+01 0.74997127419E+01
 0.84718549631E+01 0.94559995845E+01 0.10352785119E+02 0.11079451599E+02 0.11580540413E+02
 0.11823921714E+02 0.11780499545E+02 0.11410245554E+02 0.10709576431E+02 0.97348471685E+01
 0.86041176023E+01 0.74655027106E+01 0.64490699878E+01 0.56344457684E+01 0.50480688753E+01
 0.46807808741E+01 0.45081160877E+01 0.45035334877E+01 0.46455264144E+01 0.49226955308E+01
 0.53370491338E+01 0.53582357755E+01 0.57787819668E+01 0.63286293922E+01 0.70053736088E+01
 0.77795187101E+01 0.85943168708E+01 0.93795738198E+01 0.10068076943E+02 0.10601505156E+02
 0.10924965317E+02 0.10983883399E+02 0.10737154700E+02 0.10183533041E+02 0.93806695417E+01
 0.84373669690E+01 0.74799762967E+01 0.66140026216E+01 0.59031088084E+01 0.53712098186E+01
 0.50168596966E+01 0.48264520285E+01 0.47813684979E+01 0.48624452285E+01 0.50557037121E+01
 0.51404397582E+01 0.53151103633E+01 0.55872662604E+01 0.59702448411E+01 0.64701666629E+01
 0.70744236095E+01 0.77498195499E+01 0.84496368331E+01 0.91210252499E+01 0.97056139841E+01
 0.10136649537E+02 0.10344137631E+02 0.10274692178E+02 0.99177036002E+01 0.93189405709E+01
 0.85689876121E+01 0.77724300493E+01 0.70172818953E+01 0.63607372351E+01 0.58321535939E+01
 0.54426001173E+01 0.51912969065E+01 0.50679803112E+01 0.50561566112E+01 0.52112573810E+01
 0.51694929256E+01 0.52114654568E+01 0.53436845069E+01 0.55812543994E+01 0.59367542577E+01
 0.64105582255E+01 0.69880921664E+01 0.76420381237E+01 0.83326531266E+01 0.90033136045E+01
 0.95778559059E+01 0.99704517132E+01 0.10110498860E+02 0.99704249634E+01 0.95778610669E+01
 0.90033647631E+01 0.83326678782E+01 0.76419467145E+01 0.69879776601E+01 0.64105830862E+01
 0.59369164398E+01 0.55813349445E+01 0.53435385818E+01 0.55871421880E+01 0.53148310190E+01
 0.51403065150E+01 0.50562704940E+01 0.50681315745E+01 0.51912821373E+01 0.54424814849E+01
 0.58321192921E+01 0.63608279955E+01 0.70173769185E+01 0.77724381734E+01 0.85689461244E+01
 0.93189246972E+01 0.99177171512E+01 0.10274684283E+02 0.10344102215E+02 0.10136653873E+02
 0.97056940964E+01 0.91210921259E+01 0.84495738325E+01 0.77496783819E+01 0.70744026697E+01
 0.64703280954E+01 0.59703734376E+01 0.63287774056E+01 0.57786957108E+01 0.53579295681E+01
 0.50554718492E+01 0.48624669066E+01 0.47815082921E+01 0.48264957371E+01 0.50167949959E+01
 0.53711728860E+01 0.59031578902E+01 0.66140628979E+01 0.74799712540E+01 0.84373180372E+01
 0.93806462421E+01 0.10183549747E+02 0.10737156817E+02 0.10983844707E+02 0.10924956585E+02
 0.10601595573E+02 0.10068186414E+02 0.93795375046E+01 0.85941344485E+01 0.77794102428E+01
 0.70054807145E+01 0.74997322536E+01 0.66262505983E+01 0.59012689321E+01 0.53367670848E+01
 0.49224203148E+01 0.46454756341E+01 0.45036414835E+01 0.45081859792E+01 0.46807481289E+01
 0.50480153234E+01 0.56344367217E+01 0.64490787082E+01 0.74654782581E+01 0.86040691418E+01
 0.97348331196E+01 0.10709611665E+02 0.11410260026E+02 0.11780433310E+02 0.11823845460E+02
 0.11580578407E+02 0.11079563527E+02 0.10352767894E+02 0.94557807904E+01 0.84716471326E+01
 0.90926667713E+01 0.79097638018E+01 0.68356280167E+01 0.59434818925E+01 0.52533428204E+01
 0.47525594330E+01 0.44216684695E+01 0.42520641697E+01 0.42525467067E+01 0.44479894708E+01
 0.48731784592E+01 0.55608718146E+01 0.65208169269E+01 0.77126213102E+01 0.90286662551E+01
 0.10308447296E+02 0.11387095540E+02 0.12124057174E+02 0.12489981896E+02 0.12575130767E+02
 0.12435571089E+02 0.12024445533E+02 0.11280725234E+02 0.10261793751E+02 0.10941517783E+02
 0.95869163330E+01 0.81974230790E+01 0.69368697847E+01 0.59013085710E+01 0.51152708079E+01
 0.45599462247E+01 0.42069458988E+01 0.40413540324E+01 0.40711617173E+01 0.43263519147E+01
 0.48498032164E+01 0.56782741394E+01 0.68119410439E+01 0.81818138920E+01 0.96395946658E+01
 0.10988666744E+02 0.11978298735E+02 0.12494100698E+02 0.12700914817E+02 0.12823477095E+02
 0.12893814422E+02 0.12713327299E+02 0.12060306714E+02 0.12590921206E+02 0.11436030367E+02
 0.99096083048E+01 0.83354473766E+01 0.69202290656E+01 0.57787603395E+01 0.49347510844E+01
 0.43596714911E+01 0.40155239956E+01 0.38828419713E+01 0.39716874894E+01 0.43192470274E+01
 0.49753790310E+01 0.59738959611E+01 0.72917314438E+01 0.88147520858E+01 0.10341880223E+02
 0.11534569024E+02 0.12084283616E+02 0.12120804440E+02 0.12089200805E+02 0.12337781218E+02