   2   2   0   0
  0.1529437E+02  0.3691622E-09  0.3691622E-09  0.3691622E-09  0.5000000E-15
  1.000000000000000E-004
  CAR 
 unknown system                          
     19.49828005     -4.80714848  301      9.81937021      1.00000000
     -4.807  0.0000E+00  0.0000E+00
     -4.726  0.0000E+00  0.0000E+00
     -4.645  0.0000E+00  0.0000E+00
     -4.564  0.0000E+00  0.0000E+00
     -4.483  0.0000E+00  0.0000E+00
     -4.402  0.0000E+00  0.0000E+00
     -4.321  0.0000E+00  0.0000E+00
     -4.240  0.0000E+00  0.0000E+00
     -4.159  0.0000E+00  0.0000E+00
     -4.078  0.0000E+00  0.0000E+00
     -3.997  0.0000E+00  0.0000E+00
     -3.916  0.1827E-14  0.1480E-15
     -3.835  0.1488E-12  0.1221E-13
     -3.754  0.8745E-11  0.7207E-12
     -3.673  0.3719E-09  0.3085E-10
     -3.592  0.1145E-07  0.9584E-09
     -3.511  0.2553E-06  0.2164E-07
     -3.430  0.4123E-05  0.3557E-06
     -3.349  0.4829E-04  0.4268E-05
     -3.268  0.4100E-03  0.3749E-04
     -3.187  0.2526E-02  0.2422E-03
     -3.106  0.1130E-01  0.1157E-02
     -3.025  0.3668E-01  0.4129E-02
     -2.944  0.8651E-01  0.1114E-01
     -2.863  0.1482E+00  0.2315E-01
     -2.782  0.1845E+00  0.3809E-01
     -2.701  0.1669E+00  0.5162E-01
     -2.620  0.1097E+00  0.6050E-01
     -2.539  0.5238E-01  0.6475E-01
     -2.458  0.1817E-01  0.6622E-01
     -2.377  0.4576E-02  0.6659E-01
     -2.296  0.8367E-03  0.6666E-01
     -2.215  0.1110E-03  0.6667E-01
     -2.134  0.1068E-04  0.6667E-01
     -2.053  0.7454E-06  0.6667E-01
     -1.972  0.3769E-07  0.6667E-01
     -1.890  0.1380E-08  0.6667E-01
     -1.809  0.3660E-10  0.6667E-01
     -1.728  0.7023E-12  0.6667E-01
     -1.647  0.9775E-14  0.6667E-01
     -1.566  0.9136E-16  0.6667E-01
     -1.485  0.0000E+00  0.6667E-01
     -1.404  0.0000E+00  0.6667E-01
     -1.323  0.0000E+00  0.6667E-01
     -1.242  0.0000E+00  0.6667E-01
     -1.161  0.0000E+00  0.6667E-01
     -1.080  0.0000E+00  0.6667E-01
     -0.999  0.0000E+00  0.6667E-01
     -0.918  0.0000E+00  0.6667E-01
     -0.837  0.0000E+00  0.6667E-01
     -0.756  0.0000E+00  0.6667E-01
     -0.675  0.0000E+00  0.6667E-01
     -0.594  0.9821E-15  0.6667E-01
     -0.513  0.7893E-13  0.6667E-01
     -0.432  0.4617E-11  0.6667E-01
     -0.351  0.1955E-09  0.6667E-01
     -0.270  0.5991E-08  0.6667E-01
     -0.189  0.1330E-06  0.6667E-01
     -0.108  0.2138E-05  0.6667E-01
     -0.027  0.2493E-04  0.6667E-01
      0.054  0.2108E-03  0.6669E-01
      0.135  0.1293E-02  0.6679E-01
      0.216  0.5755E-02  0.6726E-01
      0.297  0.1860E-01  0.6876E-01
      0.378  0.4368E-01  0.7230E-01
      0.459  0.7450E-01  0.7834E-01
      0.540  0.9232E-01  0.8582E-01
      0.621  0.8314E-01  0.9255E-01
      0.702  0.5440E-01  0.9696E-01
      0.783  0.2586E-01  0.9906E-01
      0.864  0.8931E-02  0.9978E-01
      0.945  0.2239E-02  0.9996E-01
      1.026  0.4076E-03  0.1000E+00
      1.107  0.5384E-04  0.1000E+00
      1.188  0.5159E-05  0.1000E+00
      1.269  0.3583E-06  0.1000E+00
      1.350  0.1804E-07  0.1000E+00
      1.431  0.6575E-09  0.1000E+00
      1.512  0.1736E-10  0.1000E+00
      1.593  0.3315E-12  0.1000E+00
      1.674  0.4613E-14  0.1000E+00
      1.755  0.4568E-16  0.1000E+00
      1.836  0.0000E+00  0.1000E+00
      1.917  0.2741E-15  0.1000E+00
      1.998  0.2471E-13  0.1000E+00
      2.079  0.1665E-11  0.1000E+00
      2.160  0.8117E-10  0.1000E+00
      2.241  0.2867E-08  0.1000E+00
      2.322  0.7344E-07  0.1000E+00
      2.403  0.1366E-05  0.1000E+00
      2.484  0.1847E-04  0.1000E+00
      2.565  0.1820E-03  0.1000E+00
      2.647  0.1310E-02  0.1001E+00
      2.728  0.6924E-02  0.1007E+00
      2.809  0.2699E-01  0.1029E+00
      2.890  0.7808E-01  0.1092E+00
      2.971  0.1690E+00  0.1229E+00
      3.052  0.2757E+00  0.1452E+00
      3.133  0.3412E+00  0.1729E+00
      3.214  0.3213E+00  0.1989E+00
      3.295  0.2301E+00  0.2175E+00
      3.376  0.1246E+00  0.2276E+00
      3.457  0.5073E-01  0.2318E+00
      3.538  0.1539E-01  0.2330E+00
      3.619  0.3478E-02  0.2333E+00
      3.700  0.7706E-03  0.2333E+00
      3.781  0.1459E-02  0.2335E+00
      3.862  0.7089E-02  0.2340E+00
      3.943  0.2653E-01  0.2362E+00
      4.024  0.7376E-01  0.2422E+00
      4.105  0.1544E+00  0.2547E+00
      4.186  0.2479E+00  0.2748E+00
      4.267  0.3119E+00  0.3000E+00
      4.348  0.3119E+00  0.3253E+00
      4.429  0.2477E+00  0.3454E+00
      4.510  0.1542E+00  0.3579E+00
      4.591  0.7363E-01  0.3638E+00
      4.672  0.2647E-01  0.3660E+00
      4.753  0.7061E-02  0.3665E+00
      4.834  0.1385E-02  0.3666E+00
      4.915  0.1985E-03  0.3667E+00
      4.996  0.2071E-04  0.3667E+00
      5.077  0.1571E-05  0.3667E+00
      5.158  0.8644E-07  0.3667E+00
      5.239  0.3448E-08  0.3667E+00
      5.320  0.9973E-10  0.3667E+00
      5.401  0.8064E-11  0.3667E+00
      5.482  0.2479E-09  0.3667E+00
      5.563  0.7436E-08  0.3667E+00
      5.644  0.1616E-06  0.3667E+00
      5.725  0.2547E-05  0.3667E+00
      5.806  0.2913E-04  0.3667E+00
      5.887  0.2420E-03  0.3667E+00
      5.968  0.1465E-02  0.3668E+00
      6.049  0.6480E-02  0.3673E+00
      6.130  0.2111E-01  0.3690E+00
      6.211  0.5121E-01  0.3732E+00
      6.292  0.9432E-01  0.3808E+00
      6.373  0.1353E+00  0.3918E+00
      6.454  0.1552E+00  0.4044E+00
      6.535  0.1444E+00  0.4161E+00
      6.616  0.1082E+00  0.4248E+00
      6.697  0.6388E-01  0.4300E+00
      6.778  0.3020E-01  0.4325E+00
      6.859  0.1728E-01  0.4339E+00
      6.940  0.2955E-01  0.4363E+00
      7.021  0.7054E-01  0.4420E+00
      7.103  0.1315E+00  0.4526E+00
      7.184  0.1791E+00  0.4671E+00
      7.265  0.1774E+00  0.4815E+00
      7.346  0.1276E+00  0.4918E+00
      7.427  0.6669E-01  0.4973E+00
      7.508  0.2532E-01  0.4993E+00
      7.589  0.6983E-02  0.4999E+00
      7.670  0.1398E-02  0.5000E+00
      7.751  0.2031E-03  0.5000E+00
      7.832  0.2141E-04  0.5000E+00
      7.913  0.1636E-05  0.5000E+00
      7.994  0.9061E-07  0.5000E+00
      8.075  0.3636E-08  0.5000E+00
      8.156  0.1056E-09  0.5000E+00
      8.237  0.2221E-11  0.5000E+00
      8.318  0.3380E-13  0.5000E+00
      8.399  0.3654E-15  0.5000E+00
      8.480  0.0000E+00  0.5000E+00
      8.561  0.0000E+00  0.5000E+00
      8.642  0.4568E-16  0.5000E+00
      8.723  0.3654E-14  0.5000E+00
      8.804  0.2820E-12  0.5000E+00
      8.885  0.1578E-10  0.5000E+00
      8.966  0.6390E-09  0.5000E+00
      9.047  0.1873E-07  0.5000E+00
      9.128  0.3976E-06  0.5000E+00
      9.209  0.6117E-05  0.5000E+00
      9.290  0.6822E-04  0.5000E+00
      9.371  0.5517E-03  0.5001E+00
      9.452  0.3238E-02  0.5003E+00
      9.533  0.1379E-01  0.5014E+00
      9.614  0.4266E-01  0.5049E+00
      9.695  0.9583E-01  0.5127E+00
      9.776  0.1564E+00  0.5253E+00
      9.857  0.1855E+00  0.5404E+00
      9.938  0.1598E+00  0.5533E+00
     10.019  0.1001E+00  0.5614E+00
     10.100  0.4553E-01  0.5651E+00
     10.181  0.1504E-01  0.5663E+00
     10.262  0.3609E-02  0.5666E+00
     10.343  0.6286E-03  0.5667E+00
     10.424  0.7943E-04  0.5667E+00
     10.505  0.7280E-05  0.5667E+00
     10.586  0.4837E-06  0.5667E+00
     10.667  0.2329E-07  0.5667E+00
     10.748  0.8121E-09  0.5667E+00
     10.829  0.2050E-10  0.5667E+00
     10.910  0.3747E-12  0.5667E+00
     10.991  0.4933E-14  0.5667E+00
     11.072  0.0000E+00  0.5667E+00
     11.153  0.0000E+00  0.5667E+00
     11.234  0.0000E+00  0.5667E+00
     11.315  0.0000E+00  0.5667E+00
     11.396  0.0000E+00  0.5667E+00
     11.477  0.0000E+00  0.5667E+00
     11.559  0.0000E+00  0.5667E+00
     11.640  0.0000E+00  0.5667E+00
     11.721  0.0000E+00  0.5667E+00
     11.802  0.0000E+00  0.5667E+00
     11.883  0.0000E+00  0.5667E+00
     11.964  0.1667E-14  0.5667E+00
     12.045  0.1382E-12  0.5667E+00
     12.126  0.8343E-11  0.5667E+00
     12.207  0.3649E-09  0.5667E+00
     12.288  0.1157E-07  0.5667E+00
     12.369  0.2659E-06  0.5667E+00
     12.450  0.4434E-05  0.5667E+00
     12.531  0.5368E-04  0.5667E+00
     12.612  0.4721E-03  0.5667E+00
     12.693  0.3017E-02  0.5670E+00
     12.774  0.1402E-01  0.5681E+00
     12.855  0.4739E-01  0.5719E+00
     12.936  0.1166E+00  0.5814E+00
     13.017  0.2088E+00  0.5983E+00
     13.098  0.2723E+00  0.6204E+00
     13.179  0.2586E+00  0.6413E+00
     13.260  0.1789E+00  0.6558E+00
     13.341  0.9015E-01  0.6631E+00
     13.422  0.3308E-01  0.6658E+00
     13.503  0.8858E-02  0.6665E+00
     13.584  0.1926E-02  0.6667E+00
     13.665  0.1668E-02  0.6668E+00
     13.746  0.7118E-02  0.6674E+00
     13.827  0.2563E-01  0.6695E+00
     13.908  0.6728E-01  0.6749E+00
     13.989  0.1283E+00  0.6853E+00
     14.070  0.1779E+00  0.6997E+00
     14.151  0.1804E+00  0.7143E+00
     14.232  0.1384E+00  0.7255E+00
     14.313  0.9661E-01  0.7334E+00
     14.394  0.9685E-01  0.7412E+00
     14.475  0.1389E+00  0.7525E+00
     14.556  0.1806E+00  0.7671E+00
     14.637  0.1776E+00  0.7815E+00
     14.718  0.1277E+00  0.7918E+00
     14.799  0.6678E-01  0.7972E+00
     14.880  0.2537E-01  0.7993E+00
     14.961  0.6998E-02  0.7999E+00
     15.042  0.1402E-02  0.8000E+00
     15.123  0.2038E-03  0.8000E+00
     15.204  0.2149E-04  0.8000E+00
     15.285  0.1644E-05  0.8000E+00
     15.366  0.1146E-06  0.8000E+00
     15.447  0.4919E-06  0.8000E+00
     15.528  0.7342E-05  0.8000E+00
     15.609  0.8005E-04  0.8000E+00
     15.690  0.6333E-03  0.8001E+00
     15.771  0.3640E-02  0.8004E+00
     15.852  0.1523E-01  0.8016E+00
     15.933  0.4659E-01  0.8054E+00
     16.015  0.1052E+00  0.8139E+00
     16.096  0.1794E+00  0.8284E+00
     16.177  0.2403E+00  0.8479E+00
     16.258  0.2692E+00  0.8697E+00
     16.339  0.2647E+00  0.8912E+00
     16.420  0.2264E+00  0.9095E+00
     16.501  0.1590E+00  0.9224E+00
     16.582  0.8660E-01  0.9294E+00
     16.663  0.3532E-01  0.9323E+00
     16.744  0.1060E-01  0.9331E+00
     16.825  0.2324E-02  0.9333E+00
     16.906  0.3992E-03  0.9333E+00
     16.987  0.3317E-03  0.9334E+00
     17.068  0.2090E-02  0.9335E+00
     17.149  0.1094E-01  0.9344E+00
     17.230  0.4173E-01  0.9378E+00
     17.311  0.1157E+00  0.9472E+00
     17.392  0.2333E+00  0.9661E+00
     17.473  0.3422E+00  0.9938E+00
     17.554  0.3652E+00  0.1023E+01
     17.635  0.2835E+00  0.1046E+01
     17.716  0.1601E+00  0.1059E+01
     17.797  0.6579E-01  0.1065E+01
     17.878  0.1965E-01  0.1066E+01
     17.959  0.4268E-02  0.1067E+01
     18.040  0.6734E-03  0.1067E+01
     18.121  0.7719E-04  0.1067E+01
     18.202  0.6423E-05  0.1067E+01
     18.283  0.3879E-06  0.1067E+01
     18.364  0.1699E-07  0.1067E+01
     18.445  0.5396E-09  0.1067E+01
     18.526  0.1242E-10  0.1067E+01
     18.607  0.2069E-12  0.1067E+01
     18.688  0.2558E-14  0.1067E+01
     18.769  0.0000E+00  0.1067E+01
     18.850  0.0000E+00  0.1067E+01
     18.931  0.0000E+00  0.1067E+01
     19.012  0.0000E+00  0.1067E+01
     19.093  0.0000E+00  0.1067E+01
     19.174  0.0000E+00  0.1067E+01
     19.255  0.0000E+00  0.1067E+01
     19.336  0.0000E+00  0.1067E+01
     19.417  0.0000E+00  0.1067E+01
     19.498  0.0000E+00  0.1067E+01
