<?xml version="1.0" encoding="ISO-8859-1"?>
<modeling>
 <generator>
  <i name="program" type="string">vasp </i>
  <i name="version" type="string">5.4.4.18Apr17-6-g9f103f2a35  </i>
  <i name="subversion" type="string">(build Dec 09 2018 21:25:21) complex            parallel </i>
  <i name="platform" type="string">IFC18.0.1.163_CrayMPICH7.7.0_MKL18.0.1.163 </i>
  <i name="date" type="string">2019 03 18 </i>
  <i name="time" type="string">04:27:23 </i>
 </generator>
 <incar>
  <i type="string" name="PREC">normal</i>
  <i type="int" name="IBRION">     2</i>
  <i name="EDIFF">      0.00040000</i>
  <i name="EDIFFG">     -0.01000000</i>
  <i type="int" name="NSW">    15</i>
  <i type="int" name="ISIF">     2</i>
  <i name="ENCUT">    150.00000000</i>
  <i type="int" name="NBANDS">     8</i>
  <i type="logical" name="LREAL"> F  </i>
  <i type="int" name="ISMEAR">     0</i>
  <i name="SIGMA">      0.20000000</i>
  <v type="int" name="KPOINT_BSE">    -1     0     0     0</v>
 </incar>
 <structure name="primitive_cell" >
  <crystal>
   <varray name="basis" >
    <v>      -2.45000000       2.45000000       1.27400000 </v>
    <v>       2.45000000      -2.45000000       1.27400000 </v>
    <v>       2.45000000       2.45000000      -1.27400000 </v>
   </varray>
   <i name="volume">     30.58874000 </i>
   <varray name="rec_basis" >
    <v>       0.00000000       0.20408163       0.39246468 </v>
    <v>       0.20408163       0.00000000       0.39246468 </v>
    <v>       0.20408163       0.20408163      -0.00000000 </v>
   </varray>
  </crystal>
  <varray name="positions" >
   <v>       0.25000000      -0.25000000      -0.50000000 </v>
   <v>       0.00000000       0.00000000       0.00000000 </v>
  </varray>
 </structure>
 <varray name="primitive_index" >
  <v type="int" >        1 </v>
  <v type="int" >        2 </v>
 </varray>
 <kpoints>
  <generation param="Monkhorst-Pack">
   <v type="int" name="divisions">       2        2        2 </v>
   <v name="usershift">      0.00000000       0.00000000       0.00000000 </v>
   <v name="genvec1">      0.50000000       0.00000000      -0.00000000 </v>
   <v name="genvec2">      0.00000000       0.50000000      -0.00000000 </v>
   <v name="genvec3">      0.00000000      -0.00000000       0.50000000 </v>
   <v name="shift">      0.50000000       0.50000000       0.50000000 </v>
  </generation>
  <varray name="kpointlist" >
   <v>       0.25000000       0.25000000       0.25000000 </v>
   <v>      -0.25000000       0.25000000       0.25000000 </v>
   <v>      -0.25000000      -0.25000000       0.25000000 </v>
  </varray>
  <varray name="weights" >
   <v>       0.25000000 </v>
   <v>       0.50000000 </v>
   <v>       0.25000000 </v>
  </varray>
 </kpoints>
 <parameters>
  <separator name="general" >
   <i type="string" name="SYSTEM">unknown system</i>
   <i type="logical" name="LCOMPAT"> F  </i>
  </separator>
  <separator name="electronic" >
   <i type="string" name="PREC">normal</i>
   <i name="ENMAX">    150.00000000</i>
   <i name="ENAUG">    322.06900000</i>
   <i name="EDIFF">      0.00040000</i>
   <i type="int" name="IALGO">    38</i>
   <i type="int" name="IWAVPR">    11</i>
   <i type="int" name="NBANDS">     8</i>
   <i name="NELECT">      8.00000000</i>
   <i type="int" name="TURBO">     0</i>
   <i type="int" name="IRESTART">     0</i>
   <i type="int" name="NREBOOT">     0</i>
   <i type="int" name="NMIN">     0</i>
   <i name="EREF">      0.00000000</i>
   <separator name="electronic smearing" >
    <i type="int" name="ISMEAR">     0</i>
    <i name="SIGMA">      0.20000000</i>
    <i name="KSPACING">      0.50000000</i>
    <i type="logical" name="KGAMMA"> T  </i>
   </separator>
   <separator name="electronic projectors" >
    <i type="logical" name="LREAL"> F  </i>
    <v name="ROPT">      0.00000000</v>
    <i type="int" name="LMAXPAW">  -100</i>
    <i type="int" name="LMAXMIX">     2</i>
    <i type="logical" name="NLSPLINE"> F  </i>
   </separator>
   <separator name="electronic startup" >
    <i type="int" name="ISTART">     0</i>
    <i type="int" name="ICHARG">     2</i>
    <i type="int" name="INIWAV">     1</i>
   </separator>
   <separator name="electronic spin" >
    <i type="int" name="ISPIN">     1</i>
    <i type="logical" name="LNONCOLLINEAR"> F  </i>
    <v name="MAGMOM">      1.00000000      1.00000000</v>
    <i name="NUPDOWN">     -1.00000000</i>
    <i type="logical" name="LSORBIT"> F  </i>
    <v name="SAXIS">      0.00000000      0.00000000      1.00000000</v>
    <i type="logical" name="LSPIRAL"> F  </i>
    <v name="QSPIRAL">      0.00000000      0.00000000      0.00000000</v>
    <i type="logical" name="LZEROZ"> F  </i>
   </separator>
   <separator name="electronic exchange-correlation" >
    <i type="logical" name="LASPH"> F  </i>
    <i type="logical" name="LMETAGGA"> F  </i>
   </separator>
   <separator name="electronic convergence" >
    <i type="int" name="NELM">    60</i>
    <i type="int" name="NELMDL">     0</i>
    <i type="int" name="NELMIN">     2</i>
    <i name="ENINI">    150.00000000</i>
    <separator name="electronic convergence detail" >
     <i type="logical" name="LDIAG"> T  </i>
     <i type="logical" name="LSUBROT"> F  </i>
     <i name="WEIMIN">      0.00100000</i>
     <i name="EBREAK">      0.00001250</i>
     <i name="DEPER">      0.30000000</i>
     <i type="int" name="NRMM">     4</i>
     <i name="TIME">      0.40000000</i>
    </separator>
   </separator>
   <separator name="electronic mixer" >
    <i name="AMIX">      0.40000000</i>
    <i name="BMIX">      1.00000000</i>
    <i name="AMIN">      0.10000000</i>
    <i name="AMIX_MAG">      1.60000000</i>
    <i name="BMIX_MAG">      1.00000000</i>
    <separator name="electronic mixer details" >
     <i type="int" name="IMIX">     4</i>
     <i type="logical" name="MIXFIRST"> F  </i>
     <i type="int" name="MAXMIX">   -45</i>
     <i name="WC">    100.00000000</i>
     <i type="int" name="INIMIX">     1</i>
     <i type="int" name="MIXPRE">     1</i>
     <i type="int" name="MREMOVE">     5</i>
    </separator>
   </separator>
   <separator name="electronic dipolcorrection" >
    <i type="logical" name="LDIPOL"> F  </i>
    <i type="logical" name="LMONO"> F  </i>
    <i type="int" name="IDIPOL">     0</i>
    <i name="EPSILON">      1.00000000</i>
    <v name="DIPOL">   -100.00000000   -100.00000000   -100.00000000</v>
    <i name="EFIELD">      0.00000000</i>
   </separator>
  </separator>
  <separator name="grids" >
   <i type="int" name="NGX">    12</i>
   <i type="int" name="NGY">    12</i>
   <i type="int" name="NGZ">    12</i>
   <i type="int" name="NGXF">    24</i>
   <i type="int" name="NGYF">    24</i>
   <i type="int" name="NGZF">    24</i>
   <i type="logical" name="ADDGRID"> F  </i>
  </separator>
  <separator name="ionic" >
   <i type="int" name="NSW">    15</i>
   <i type="int" name="IBRION">     2</i>
   <i type="int" name="MDALGO">     0</i>
   <i type="int" name="ISIF">     2</i>
   <i name="PSTRESS">      0.00000000</i>
   <i name="EDIFFG">     -0.01000000</i>
   <i type="int" name="NFREE">     1</i>
   <i name="POTIM">      0.50000000</i>
   <i name="SMASS">     -3.00000000</i>
   <i name="SCALEE">      1.00000000</i>
  </separator>
  <separator name="ionic md" >
   <i name="TEBEG">      0.00010000</i>
   <i name="TEEND">      0.00010000</i>
   <i type="int" name="NBLOCK">     1</i>
   <i type="int" name="KBLOCK">    15</i>
   <i type="int" name="NPACO">   256</i>
   <i name="APACO">     16.00000000</i>
  </separator>
  <separator name="symmetry" >
   <i type="int" name="ISYM">     2</i>
   <i name="SYMPREC">      0.00001000</i>
  </separator>
  <separator name="dos" >
   <i type="int" name="LORBIT">     0</i>
   <v name="RWIGS">     -1.00000000</v>
   <i type="int" name="NEDOS">   301</i>
   <i name="EMIN">     10.00000000</i>
   <i name="EMAX">    -10.00000000</i>
   <i name="EFERMI">      0.00000000</i>
  </separator>
  <separator name="writing" >
   <i type="int" name="NWRITE">     2</i>
   <i type="logical" name="LWAVE"> T  </i>
   <i type="logical" name="LDOWNSAMPLE"> F  </i>
   <i type="logical" name="LCHARG"> T  </i>
   <i type="logical" name="LPARD"> F  </i>
   <i type="logical" name="LVTOT"> F  </i>
   <i type="logical" name="LVHAR"> F  </i>
   <i type="logical" name="LELF"> F  </i>
   <i type="logical" name="LOPTICS"> F  </i>
   <v name="STM">      0.00000000      0.00000000      0.00000000      0.00000000      0.00000000      0.00000000      0.00000000</v>
  </separator>
  <separator name="performance" >
   <i type="int" name="NPAR">     8</i>
   <i type="int" name="NSIM">     4</i>
   <i type="int" name="NBLK">    -1</i>
   <i type="logical" name="LPLANE"> T  </i>
   <i type="logical" name="LSCALAPACK"> T  </i>
   <i type="logical" name="LSCAAWARE"> F  </i>
   <i type="logical" name="LSCALU"> F  </i>
   <i type="logical" name="LASYNC"> F  </i>
   <i type="logical" name="LORBITALREAL"> F  </i>
  </separator>
  <separator name="miscellaneous" >
   <i type="int" name="IDIOT">     3</i>
   <i type="int" name="ISPECIAL">     0</i>
   <i type="logical" name="LMUSIC"> F  </i>
   <v name="POMASS">     28.08500000</v>
   <v name="DARWINR">      0.00000000</v>
   <v name="DARWINV">      1.00000000</v>
   <i type="logical" name="LCORR"> T  </i>
  </separator>
  <i type="logical" name="GGA_COMPAT"> T  </i>
  <i type="logical" name="LBERRY"> F  </i>
  <i type="int" name="ICORELEVEL">     0</i>
  <i type="logical" name="LDAU"> F  </i>
  <i type="int" name="I_CONSTRAINED_M">     0</i>
  <separator name="electronic exchange-correlation" >
   <i type="string" name="GGA">--</i>
   <i type="int" name="VOSKOWN">     0</i>
   <i type="logical" name="LHFCALC"> F  </i>
   <i type="string" name="PRECFOCK"></i>
   <i type="logical" name="LSYMGRAD"> F  </i>
   <i type="logical" name="LHFONE"> F  </i>
   <i type="logical" name="LRHFCALC"> F  </i>
   <i type="logical" name="LTHOMAS"> F  </i>
   <i type="logical" name="LMODELHF"> F  </i>
   <i name="ENCUT4O">     -1.00000000</i>
   <i type="int" name="EXXOEP">     0</i>
   <i type="int" name="FOURORBIT">     0</i>
   <i name="AEXX">      0.00000000</i>
   <i name="HFALPHA">      0.00000000</i>
   <i name="MCALPHA">      0.00000000</i>
   <i name="ALDAX">      1.00000000</i>
   <i name="AGGAX">      1.00000000</i>
   <i name="ALDAC">      1.00000000</i>
   <i name="AGGAC">      1.00000000</i>
   <i type="int" name="NKREDX">     1</i>
   <i type="int" name="NKREDY">     1</i>
   <i type="int" name="NKREDZ">     1</i>
   <i type="logical" name="SHIFTRED"> F  </i>
   <i type="logical" name="ODDONLY"> F  </i>
   <i type="logical" name="EVENONLY"> F  </i>
   <i type="int" name="LMAXFOCK">     0</i>
   <i type="int" name="NMAXFOCKAE">     0</i>
   <i type="logical" name="LFOCKAEDFT"> F  </i>
   <i name="HFSCREEN">      0.00000000</i>
   <i name="HFSCREENC">      0.00000000</i>
   <i type="int" name="NBANDSGWLOW">     0</i>
  </separator>
  <separator name="vdW DFT" >
   <i type="logical" name="LUSE_VDW"> F  </i>
   <i name="Zab_VDW">     -0.84910000</i>
   <i name="PARAM1">      0.12340000</i>
   <i name="PARAM2">      1.00000000</i>
   <i name="PARAM3">      0.00000000</i>
  </separator>
  <separator name="model GW" >
   <i type="int" name="MODEL_GW">     0</i>
   <i name="MODEL_EPS0">      9.17662200</i>
   <i name="MODEL_ALPHA">      1.00000000</i>
  </separator>
  <separator name="linear response parameters" >
   <i type="logical" name="LEPSILON"> F  </i>
   <i type="logical" name="LRPA"> F  </i>
   <i type="logical" name="LNABLA"> F  </i>
   <i type="logical" name="LVEL"> F  </i>
   <i type="int" name="KINTER">     0</i>
   <i name="CSHIFT">      0.10000000</i>
   <i name="OMEGAMAX">     -1.00000000</i>
   <i name="DEG_THRESHOLD">      0.00200000</i>
   <i name="RTIME">     -0.10000000</i>
   <i name="WPLASMAI">      0.00000000</i>
   <v name="DFIELD">      0.00000000      0.00000000      0.00000000</v>
   <v name="WPLASMA">      0.00000000      0.00000000      0.00000000      0.00000000      0.00000000      0.00000000      0.00000000      0.00000000      0.00000000</v>
  </separator>
  <separator name="orbital magnetization" >
   <i type="logical" name="NUCIND"> F  </i>
   <v name="MAGPOS">      0.00000000      0.00000000      0.00000000</v>
   <i type="logical" name="LNICSALL"> T  </i>
   <i type="logical" name="ORBITALMAG"> F  </i>
   <i type="logical" name="LMAGBLOCH"> F  </i>
   <i type="logical" name="LCHIMAG"> F  </i>
   <i type="logical" name="LGAUGE"> T  </i>
   <i type="int" name="MAGATOM">     0</i>
   <v name="MAGDIPOL">      0.00000000      0.00000000      0.00000000</v>
   <v name="AVECCONST">      0.00000000      0.00000000      0.00000000</v>
  </separator>
  <separator name="response functions" >
   <i type="logical" name="LADDER"> F  </i>
   <i type="logical" name="LRPAFORCE"> F  </i>
   <i type="logical" name="LFXC"> F  </i>
   <i type="logical" name="LHARTREE"> T  </i>
   <i type="int" name="IBSE">     0</i>
   <v type="int" name="KPOINT">    -1     0     0     0</v>
   <i type="logical" name="LTCTE"> F  </i>
   <i type="logical" name="LTETE"> F  </i>
   <i type="logical" name="LTRIPLET"> F  </i>
   <i type="logical" name="LFXCEPS"> F  </i>
   <i type="logical" name="LFXHEG"> F  </i>
   <i type="int" name="NATURALO">     2</i>
   <i type="logical" name="L2ORDER"> F  </i>
   <i type="logical" name="LMP2LT"> F  </i>
   <i type="logical" name="LUSEW"> F  </i>
   <i name="ENCUTGW">     -2.00000000</i>
   <i name="ENCUTGWSOFT">     -2.00000000</i>
   <i name="ENCUTLF">     -1.00000000</i>
   <i type="int" name="LMAXMP2">    -1</i>
   <i name="SCISSOR">      0.00000000</i>
   <i type="int" name="NOMEGA">     0</i>
   <i type="int" name="NOMEGAR">     0</i>
   <i type="int" name="NBANDSGW">    -1</i>
   <i type="int" name="NBANDSO">    -1</i>
   <i type="int" name="NBANDSV">    -1</i>
   <i type="int" name="NELM">     1</i>
   <i type="int" name="NELMHF">     1</i>
   <i type="int" name="DIM">     3</i>
   <i type="int" name="ANTIRES">     0</i>
   <i name="OMEGAMAX">    -30.00000000</i>
   <i name="OMEGAMIN">    -30.00000000</i>
   <i name="OMEGATL">   -200.00000000</i>
   <i type="int" name="OMEGAGRID">   140</i>
   <i name="CSHIFT">     -0.10000000</i>
   <i type="logical" name="SELFENERGY"> F  </i>
   <i type="logical" name="LSPECTRAL"> F  </i>
   <i type="logical" name="LSPECTRALGW"> F  </i>
   <i type="logical" name="LSINGLES"> F  </i>
   <i type="logical" name="LFERMIGW"> F  </i>
   <i type="logical" name="ODDONLYGW"> F  </i>
   <i type="logical" name="EVENONLYGW"> F  </i>
   <i type="int" name="NKREDLFX">     1</i>
   <i type="int" name="NKREDLFY">     1</i>
   <i type="int" name="NKREDLFZ">     1</i>
   <i type="int" name="MAXMEM">  2800</i>
   <i type="int" name="TELESCOPE">     0</i>
   <i type="int" name="TAUPAR">     1</i>
   <i type="int" name="OMEGAPAR">    -1</i>
   <i name="LAMBDA">      1.00000000</i>
  </separator>
  <separator name="External order field" >
   <i name="OFIELD_KAPPA">      0.00000000</i>
   <v name="OFIELD_K">      0.00000000      0.00000000      0.00000000</v>
   <i name="OFIELD_Q6_NEAR">      0.00000000</i>
   <i name="OFIELD_Q6_FAR">      0.00000000</i>
   <i name="OFIELD_A">      0.00000000</i>
  </separator>
 </parameters>
 <atominfo>
  <atoms>       2 </atoms>
  <types>       1 </types>
  <array name="atoms" >
   <dimension dim="1">ion</dimension>
   <field type="string">element</field>
   <field type="int">atomtype</field>
   <set>
    <rc><c>Si</c><c>   1</c></rc>
    <rc><c>Si</c><c>   1</c></rc>
   </set>
  </array>
  <array name="atomtypes" >
   <dimension dim="1">type</dimension>
   <field type="int">atomspertype</field>
   <field type="string">element</field>
   <field>mass</field>
   <field>valence</field>
   <field type="string">pseudopotential</field>
   <set>
    <rc><c>   2</c><c>Si</c><c>     28.08500000</c><c>      4.00000000</c><c> PAW_PBE Si 05Jan2001                   </c></rc>
   </set>
  </array>
 </atominfo>
 <structure name="initialpos" >
  <crystal>
   <varray name="basis" >
    <v>      -2.45000000       2.45000000       1.27400000 </v>
    <v>       2.45000000      -2.45000000       1.27400000 </v>
    <v>       2.45000000       2.45000000      -1.27400000 </v>
   </varray>
   <i name="volume">     30.58874000 </i>
   <varray name="rec_basis" >
    <v>       0.00000000       0.20408163       0.39246468 </v>
    <v>       0.20408163       0.00000000       0.39246468 </v>
    <v>       0.20408163       0.20408163      -0.00000000 </v>
   </varray>
  </crystal>
  <varray name="positions" >
   <v>       0.25000000       0.75000000       0.50000000 </v>
   <v>       0.00000000       0.00000000       0.00000000 </v>
  </varray>
 </structure>
 <calculation>
  <scstep>
   <time name="dav">    0.03    0.04</time>
   <time name="total">    0.06    0.07</time>
   <energy>
    <i name="alphaZ">      4.40202223 </i>
    <i name="ewald">   -265.18101312 </i>
    <i name="hartreedc">     -2.30415367 </i>
    <i name="XCdc">    -17.81530915 </i>
    <i name="pawpsdc">     65.95520812 </i>
    <i name="pawaedc">    -30.76852678 </i>
    <i name="eentropy">     -0.00000000 </i>
    <i name="bandstr">     34.34042839 </i>
    <i name="atom">    206.09183643 </i>
    <i name="e_fr_energy">     -5.27950756 </i>
    <i name="e_wo_entrp">     -5.27950756 </i>
    <i name="e_0_energy">     -5.27950756 </i>
   </energy>
  </scstep>
  <scstep>
   <time name="dav">    0.04    0.05</time>
   <time name="total">    0.04    0.05</time>
   <energy>
    <i name="e_fr_energy">    -11.87588790 </i>
    <i name="e_wo_entrp">    -11.81946894 </i>
    <i name="e_0_energy">    -11.84767842 </i>
   </energy>
  </scstep>
  <scstep>
   <time name="dav">    0.03    0.04</time>
   <time name="total">    0.04    0.04</time>
   <energy>
    <i name="e_fr_energy">    -11.92836875 </i>
    <i name="e_wo_entrp">    -11.87194979 </i>
    <i name="e_0_energy">    -11.90015927 </i>
   </energy>
  </scstep>
  <scstep>
   <time name="dav">    0.04    0.06</time>
   <time name="total">    0.04    0.06</time>
   <energy>
    <i name="e_fr_energy">    -11.92841295 </i>
    <i name="e_wo_entrp">    -11.87199399 </i>
    <i name="e_0_energy">    -11.90020347 </i>
   </energy>
  </scstep>
  <scstep>
   <time name="dav">    0.03    0.03</time>
   <time name="total">    0.04    0.04</time>
   <energy>
    <i name="e_fr_energy">    -11.92841304 </i>
    <i name="e_wo_entrp">    -11.87199408 </i>
    <i name="e_0_energy">    -11.90020356 </i>
   </energy>
  </scstep>
  <scstep>
   <time name="dav">    0.02    0.02</time>
   <time name="total">    0.05    0.05</time>
   <energy>
    <i name="e_fr_energy">    -11.91278358 </i>
    <i name="e_wo_entrp">    -11.85636462 </i>
    <i name="e_0_energy">    -11.88457410 </i>
   </energy>
  </scstep>
  <scstep>
   <time name="dav">    0.02    0.02</time>
   <time name="total">    0.05    0.05</time>
   <energy>
    <i name="e_fr_energy">    -11.90255099 </i>
    <i name="e_wo_entrp">    -11.84613204 </i>
    <i name="e_0_energy">    -11.87434152 </i>
   </energy>
  </scstep>
  <scstep>
   <time name="dav">    0.02    0.01</time>
   <time name="total">    0.04    0.05</time>
   <energy>
    <i name="alphaZ">      4.40202223 </i>
    <i name="ewald">   -265.18101312 </i>
    <i name="hartreedc">     -2.26248505 </i>
    <i name="XCdc">    -17.57560114 </i>
    <i name="pawpsdc">     71.91766014 </i>
    <i name="pawaedc">    -36.81991901 </i>
    <i name="eentropy">     -0.05641896 </i>
    <i name="bandstr">     27.58141487 </i>
    <i name="atom">    206.09183643 </i>
    <i name="e_fr_energy">    -11.90250360 </i>
    <i name="e_wo_entrp">    -11.84608464 </i>
    <i name="e_0_energy">    -11.87429412 </i>
   </energy>
  </scstep>
  <structure>
   <crystal>
    <varray name="basis" >
     <v>      -2.45000000       2.45000000       1.27400000 </v>
     <v>       2.45000000      -2.45000000       1.27400000 </v>
     <v>       2.45000000       2.45000000      -1.27400000 </v>
    </varray>
    <i name="volume">     30.58874000 </i>
    <varray name="rec_basis" >
     <v>       0.00000000       0.20408163       0.39246468 </v>
     <v>       0.20408163       0.00000000       0.39246468 </v>
     <v>       0.20408163       0.20408163      -0.00000000 </v>
    </varray>
   </crystal>
   <varray name="positions" >
    <v>       0.25000000       0.75000000       0.50000000 </v>
    <v>       0.00000000       0.00000000       0.00000000 </v>
   </varray>
  </structure>
  <varray name="forces" >
   <v>       0.00000000       0.00000000      -0.00000000 </v>
   <v>      -0.00000000      -0.00000000       0.00000000 </v>
  </varray>
  <varray name="stress" >
   <v>    -231.79676726       0.00000000       0.00000000 </v>
   <v>       0.00000000    -231.79676726      -0.00000000 </v>
   <v>       0.00000000      -0.00000000     243.88325795 </v>
  </varray>
  <energy>
   <i name="e_fr_energy">    -11.90250360 </i>
   <i name="e_wo_entrp">    -11.87429412 </i>
   <i name="e_0_energy">     -0.05641896 </i>
  </energy>
  <time name="totalsc">    0.68    0.97</time>
  <eigenvalues>
   <array>
    <dimension dim="1">band</dimension>
    <dimension dim="2">kpoint</dimension>
    <dimension dim="3">spin</dimension>
    <field>eigene</field>
    <field>occ</field>
    <set>
     <set comment="spin 1">
      <set comment="kpoint 1">
       <r>    3.3874    1.0000 </r>
       <r>    3.3874    1.0000 </r>
       <r>    4.0403    1.0000 </r>
       <r>    4.0404    1.0000 </r>
       <r>   13.2584    0.0000 </r>
       <r>   13.2584    0.0000 </r>
       <r>   15.0424    0.0000 </r>
       <r>   15.0424    0.0000 </r>
      </set>
      <set comment="kpoint 2">
       <r>   -3.1642    1.0000 </r>
       <r>    1.9013    1.0000 </r>
       <r>    3.6316    1.0000 </r>
       <r>    8.5711    0.5000 </r>
       <r>   12.9166    0.0000 </r>
       <r>   16.2090    0.0000 </r>
       <r>   17.3808    0.0000 </r>
       <r>   18.2891    0.0000 </r>
      </set>
      <set comment="kpoint 3">
       <r>    0.8368    1.0000 </r>
       <r>    5.7474    1.0000 </r>
       <r>    5.8404    1.0000 </r>
       <r>    7.2871    1.0000 </r>
       <r>    7.2872    1.0000 </r>
       <r>   11.5326    0.0000 </r>
       <r>   12.3731    0.0000 </r>
       <r>   12.3732    0.0000 </r>
      </set>
     </set>
    </set>
   </array>
  </eigenvalues>
  <separator name="orbital magnetization" >
   <v name="MAGDIPOLOUT">      0.00000000      0.00000000      0.00000000</v>
  </separator>
  <dos>
   <i name="efermi">      8.57109529 </i>
   <total>
    <array>
     <dimension dim="1">gridpoints</dimension>
     <dimension dim="2">spin</dimension>
     <field>energy</field>
     <field>total</field>
     <field>integrated</field>
     <set>
      <set comment="spin 1">
       <r>    -5.1642     0.0000     0.0000 </r>
       <r>    -5.0794     0.0000     0.0000 </r>
       <r>    -4.9945     0.0000     0.0000 </r>
       <r>    -4.9097     0.0000     0.0000 </r>
       <r>    -4.8248     0.0000     0.0000 </r>
       <r>    -4.7400     0.0000     0.0000 </r>
       <r>    -4.6552     0.0000     0.0000 </r>
       <r>    -4.5703     0.0000     0.0000 </r>
       <r>    -4.4855     0.0000     0.0000 </r>
       <r>    -4.4006     0.0000     0.0000 </r>
       <r>    -4.3158     0.0000     0.0000 </r>
       <r>    -4.2309     0.0000     0.0000 </r>
       <r>    -4.1461     0.0000     0.0000 </r>
       <r>    -4.0612     0.0000     0.0000 </r>
       <r>    -3.9764     0.0000     0.0000 </r>
       <r>    -3.8915     0.0000     0.0000 </r>
       <r>    -3.8067     0.0000     0.0000 </r>
       <r>    -3.7219     0.0004     0.0000 </r>
       <r>    -3.6370     0.0044     0.0004 </r>
       <r>    -3.5522     0.0310     0.0030 </r>
       <r>    -3.4673     0.1533     0.0160 </r>
       <r>    -3.3825     0.5342     0.0614 </r>
       <r>    -3.2976     1.3125     0.1727 </r>
       <r>    -3.2128     2.2734     0.3656 </r>
       <r>    -3.1279     2.7767     0.6012 </r>
       <r>    -3.0431     2.3915     0.8041 </r>
       <r>    -2.9583     1.4525     0.9274 </r>
       <r>    -2.8734     0.6220     0.9801 </r>
       <r>    -2.7886     0.1877     0.9960 </r>
       <r>    -2.7037     0.0399     0.9994 </r>
       <r>    -2.6189     0.0060     0.9999 </r>
       <r>    -2.5340     0.0006     1.0000 </r>
       <r>    -2.4492     0.0000     1.0000 </r>
       <r>    -2.3643     0.0000     1.0000 </r>
       <r>    -2.2795     0.0000     1.0000 </r>
       <r>    -2.1947     0.0000     1.0000 </r>
       <r>    -2.1098     0.0000     1.0000 </r>
       <r>    -2.0250     0.0000     1.0000 </r>
       <r>    -1.9401     0.0000     1.0000 </r>
       <r>    -1.8553     0.0000     1.0000 </r>
       <r>    -1.7704     0.0000     1.0000 </r>
       <r>    -1.6856     0.0000     1.0000 </r>
       <r>    -1.6007     0.0000     1.0000 </r>
       <r>    -1.5159     0.0000     1.0000 </r>
       <r>    -1.4311     0.0000     1.0000 </r>
       <r>    -1.3462     0.0000     1.0000 </r>
       <r>    -1.2614     0.0000     1.0000 </r>
       <r>    -1.1765     0.0000     1.0000 </r>
       <r>    -1.0917     0.0000     1.0000 </r>
       <r>    -1.0068     0.0000     1.0000 </r>
       <r>    -0.9220     0.0000     1.0000 </r>
       <r>    -0.8371     0.0000     1.0000 </r>
       <r>    -0.7523     0.0000     1.0000 </r>
       <r>    -0.6675     0.0000     1.0000 </r>
       <r>    -0.5826     0.0000     1.0000 </r>
       <r>    -0.4978     0.0000     1.0000 </r>
       <r>    -0.4129     0.0000     1.0000 </r>
       <r>    -0.3281     0.0000     1.0000 </r>
       <r>    -0.2432     0.0000     1.0000 </r>
       <r>    -0.1584     0.0000     1.0000 </r>
       <r>    -0.0735     0.0000     1.0000 </r>
       <r>     0.0113     0.0000     1.0000 </r>
       <r>     0.0961     0.0000     1.0000 </r>
       <r>     0.1810     0.0000     1.0000 </r>
       <r>     0.2658     0.0001     1.0000 </r>
       <r>     0.3507     0.0016     1.0001 </r>
       <r>     0.4355     0.0117     1.0011 </r>
       <r>     0.5204     0.0610     1.0063 </r>
       <r>     0.6052     0.2247     1.0254 </r>
       <r>     0.6901     0.5833     1.0749 </r>
       <r>     0.7749     1.0672     1.1654 </r>
       <r>     0.8597     1.3769     1.2822 </r>
       <r>     0.9446     1.2527     1.3885 </r>
       <r>     1.0294     0.8037     1.4567 </r>
       <r>     1.1143     0.3636     1.4876 </r>
       <r>     1.1991     0.1159     1.4974 </r>
       <r>     1.2840     0.0261     1.4996 </r>
       <r>     1.3688     0.0050     1.5000 </r>
       <r>     1.4537     0.0086     1.5008 </r>
       <r>     1.5385     0.0517     1.5052 </r>
       <r>     1.6233     0.2302     1.5247 </r>
       <r>     1.7082     0.7233     1.5861 </r>
       <r>     1.7930     1.6021     1.7220 </r>
       <r>     1.8779     2.5018     1.9343 </r>
       <r>     1.9627     2.7550     2.1680 </r>
       <r>     2.0476     2.1394     2.3495 </r>
       <r>     2.1324     1.1714     2.4489 </r>
       <r>     2.2173     0.4522     2.4873 </r>
       <r>     2.3021     0.1230     2.4977 </r>
       <r>     2.3869     0.0236     2.4997 </r>
       <r>     2.4718     0.0032     2.5000 </r>
       <r>     2.5566     0.0003     2.5000 </r>
       <r>     2.6415     0.0000     2.5000 </r>
       <r>     2.7263     0.0000     2.5000 </r>
       <r>     2.8112     0.0003     2.5000 </r>
       <r>     2.8960     0.0027     2.5003 </r>
       <r>     2.9809     0.0209     2.5020 </r>
       <r>     3.0657     0.1117     2.5115 </r>
       <r>     3.1505     0.4225     2.5473 </r>
       <r>     3.2354     1.1370     2.6438 </r>
       <r>     3.3202     2.2104     2.8313 </r>
       <r>     3.4051     3.2189     3.1045 </r>
       <r>     3.4899     3.7676     3.4241 </r>
       <r>     3.5748     3.8627     3.7518 </r>
       <r>     3.6596     3.5727     4.0550 </r>
       <r>     3.7445     2.8881     4.3000 </r>
       <r>     3.8293     2.1906     4.4859 </r>
       <r>     3.9142     2.0894     4.6631 </r>
       <r>     3.9990     2.5593     4.8803 </r>
       <r>     4.0838     2.8263     5.1201 </r>
       <r>     4.1687     2.3309     5.3178 </r>
       <r>     4.2535     1.3707     5.4341 </r>
       <r>     4.3384     0.5695     5.4825 </r>
       <r>     4.4232     0.1668     5.4966 </r>
       <r>     4.5081     0.0344     5.4995 </r>
       <r>     4.5929     0.0050     5.5000 </r>
       <r>     4.6778     0.0005     5.5000 </r>
       <r>     4.7626     0.0000     5.5000 </r>
       <r>     4.8474     0.0000     5.5000 </r>
       <r>     4.9323     0.0000     5.5000 </r>
       <r>     5.0171     0.0000     5.5000 </r>
       <r>     5.1020     0.0000     5.5000 </r>
       <r>     5.1868     0.0002     5.5000 </r>
       <r>     5.2717     0.0022     5.5002 </r>
       <r>     5.3565     0.0162     5.5016 </r>
       <r>     5.4414     0.0851     5.5088 </r>
       <r>     5.5262     0.3206     5.5360 </r>
       <r>     5.6110     0.8711     5.6099 </r>
       <r>     5.6959     1.7168     5.7556 </r>
       <r>     5.7807     2.4659     5.9648 </r>
       <r>     5.8656     2.5888     6.1844 </r>
       <r>     5.9504     1.9873     6.3530 </r>
       <r>     6.0353     1.1131     6.4475 </r>
       <r>     6.1201     0.4529     6.4859 </r>
       <r>     6.2050     0.1332     6.4972 </r>
       <r>     6.2898     0.0281     6.4996 </r>
       <r>     6.3746     0.0043     6.5000 </r>
       <r>     6.4595     0.0005     6.5000 </r>
       <r>     6.5443     0.0000     6.5000 </r>
       <r>     6.6292     0.0000     6.5000 </r>
       <r>     6.7140     0.0003     6.5000 </r>
       <r>     6.7989     0.0030     6.5003 </r>
       <r>     6.8837     0.0223     6.5022 </r>
       <r>     6.9686     0.1175     6.5121 </r>
       <r>     7.0534     0.4366     6.5492 </r>
       <r>     7.1382     1.1433     6.6462 </r>
       <r>     7.2231     2.1108     6.8253 </r>
       <r>     7.3079     2.7478     7.0584 </r>
       <r>     7.3928     2.5225     7.2724 </r>
       <r>     7.4776     1.6330     7.4110 </r>
       <r>     7.5625     0.7454     7.4742 </r>
       <r>     7.6473     0.2398     7.4946 </r>
       <r>     7.7322     0.0544     7.4992 </r>
       <r>     7.8170     0.0087     7.4999 </r>
       <r>     7.9018     0.0010     7.5000 </r>
       <r>     7.9867     0.0003     7.5000 </r>
       <r>     8.0715     0.0022     7.5002 </r>
       <r>     8.1564     0.0174     7.5017 </r>
       <r>     8.2412     0.0961     7.5098 </r>
       <r>     8.3261     0.3742     7.5416 </r>
       <r>     8.4109     1.0265     7.6287 </r>
       <r>     8.4958     1.9852     7.7971 </r>
       <r>     8.5806     2.7071     8.0268 </r>
       <r>     8.6654     2.6032     8.2477 </r>
       <r>     8.7503     1.7653     8.3974 </r>
       <r>     8.8351     0.8440     8.4691 </r>
       <r>     8.9200     0.2845     8.4932 </r>
       <r>     9.0048     0.0676     8.4989 </r>
       <r>     9.0897     0.0113     8.4999 </r>
       <r>     9.1745     0.0013     8.5000 </r>
       <r>     9.2594     0.0001     8.5000 </r>
       <r>     9.3442     0.0000     8.5000 </r>
       <r>     9.4290     0.0000     8.5000 </r>
       <r>     9.5139     0.0000     8.5000 </r>
       <r>     9.5987     0.0000     8.5000 </r>
       <r>     9.6836     0.0000     8.5000 </r>
       <r>     9.7684     0.0000     8.5000 </r>
       <r>     9.8533     0.0000     8.5000 </r>
       <r>     9.9381     0.0000     8.5000 </r>
       <r>    10.0230     0.0000     8.5000 </r>
       <r>    10.1078     0.0000     8.5000 </r>
       <r>    10.1926     0.0000     8.5000 </r>
       <r>    10.2775     0.0000     8.5000 </r>
       <r>    10.3623     0.0000     8.5000 </r>
       <r>    10.4472     0.0000     8.5000 </r>
       <r>    10.5320     0.0000     8.5000 </r>
       <r>    10.6169     0.0000     8.5000 </r>
       <r>    10.7017     0.0000     8.5000 </r>
       <r>    10.7866     0.0000     8.5000 </r>
       <r>    10.8714     0.0000     8.5000 </r>
       <r>    10.9562     0.0001     8.5000 </r>
       <r>    11.0411     0.0014     8.5001 </r>
       <r>    11.1259     0.0104     8.5010 </r>
       <r>    11.2108     0.0555     8.5057 </r>
       <r>    11.2956     0.2090     8.5235 </r>
       <r>    11.3805     0.5547     8.5705 </r>
       <r>    11.4653     1.0377     8.6586 </r>
       <r>    11.5502     1.3689     8.7747 </r>
       <r>    11.6350     1.2735     8.8828 </r>
       <r>    11.7198     0.8354     8.9536 </r>
       <r>    11.8047     0.3867     8.9864 </r>
       <r>    11.8895     0.1293     8.9974 </r>
       <r>    11.9744     0.0536     9.0020 </r>
       <r>    12.0592     0.1322     9.0132 </r>
       <r>    12.1441     0.4652     9.0526 </r>
       <r>    12.2289     1.1936     9.1539 </r>
       <r>    12.3138     2.1615     9.3373 </r>
       <r>    12.3986     2.7612     9.5716 </r>
       <r>    12.4835     2.4967     9.7834 </r>
       <r>    12.5683     1.6464     9.9231 </r>
       <r>    12.6531     0.9937    10.0074 </r>
       <r>    12.7380     1.0737    10.0985 </r>
       <r>    12.8228     1.8328    10.2540 </r>
       <r>    12.9077     2.6801    10.4814 </r>
       <r>    12.9925     2.9819    10.7344 </r>
       <r>    13.0774     2.8055    10.9724 </r>
       <r>    13.1622     2.7637    11.2069 </r>
       <r>    13.2471     2.9617    11.4582 </r>
       <r>    13.3319     2.8101    11.6966 </r>
       <r>    13.4167     2.0237    11.8683 </r>
       <r>    13.5016     1.0478    11.9572 </r>
       <r>    13.5864     0.3843    11.9898 </r>
       <r>    13.6713     0.0994    11.9982 </r>
       <r>    13.7561     0.0181    11.9998 </r>
       <r>    13.8410     0.0023    12.0000 </r>
       <r>    13.9258     0.0002    12.0000 </r>
       <r>    14.0107     0.0000    12.0000 </r>
       <r>    14.0955     0.0000    12.0000 </r>
       <r>    14.1803     0.0000    12.0000 </r>
       <r>    14.2652     0.0000    12.0000 </r>
       <r>    14.3500     0.0000    12.0000 </r>
       <r>    14.4349     0.0001    12.0000 </r>
       <r>    14.5197     0.0012    12.0001 </r>
       <r>    14.6046     0.0103    12.0010 </r>
       <r>    14.6894     0.0624    12.0063 </r>
       <r>    14.7743     0.2674    12.0290 </r>
       <r>    14.8591     0.8071    12.0974 </r>
       <r>    14.9439     1.7170    12.2431 </r>
       <r>    15.0288     2.5753    12.4616 </r>
       <r>    15.1136     2.7239    12.6927 </r>
       <r>    15.1985     2.0317    12.8651 </r>
       <r>    15.2833     1.0685    12.9558 </r>
       <r>    15.3682     0.3962    12.9894 </r>
       <r>    15.4530     0.1035    12.9982 </r>
       <r>    15.5379     0.0191    12.9998 </r>
       <r>    15.6227     0.0027    13.0000 </r>
       <r>    15.7075     0.0023    13.0002 </r>
       <r>    15.7924     0.0167    13.0016 </r>
       <r>    15.8772     0.0929    13.0095 </r>
       <r>    15.9621     0.3645    13.0404 </r>
       <r>    16.0469     1.0077    13.1259 </r>
       <r>    16.1318     1.9639    13.2926 </r>
       <r>    16.2166     2.6988    13.5215 </r>
       <r>    16.3015     2.6153    13.7434 </r>
       <r>    16.3863     1.7872    13.8951 </r>
       <r>    16.4711     0.8611    13.9681 </r>
       <r>    16.5560     0.2925    13.9929 </r>
       <r>    16.6408     0.0700    13.9989 </r>
       <r>    16.7257     0.0118    13.9999 </r>
       <r>    16.8105     0.0017    14.0000 </r>
       <r>    16.8954     0.0033    14.0003 </r>
       <r>    16.9802     0.0237    14.0023 </r>
       <r>    17.0651     0.1234    14.0128 </r>
       <r>    17.1499     0.4533    14.0512 </r>
       <r>    17.2347     1.1735    14.1508 </r>
       <r>    17.3196     2.1414    14.3325 </r>
       <r>    17.4044     2.7554    14.5663 </r>
       <r>    17.4893     2.5003    14.7784 </r>
       <r>    17.5741     1.5999    14.9142 </r>
       <r>    17.6590     0.7218    14.9754 </r>
       <r>    17.7438     0.2302    14.9949 </r>
       <r>    17.8287     0.0574    14.9998 </r>
       <r>    17.9135     0.0480    15.0039 </r>
       <r>    17.9983     0.1886    15.0199 </r>
       <r>    18.0832     0.6220    15.0726 </r>
       <r>    18.1680     1.4525    15.1959 </r>
       <r>    18.2529     2.3915    15.3988 </r>
       <r>    18.3377     2.7767    15.6344 </r>
       <r>    18.4226     2.2734    15.8273 </r>
       <r>    18.5074     1.3125    15.9386 </r>
       <r>    18.5923     0.5342    15.9840 </r>
       <r>    18.6771     0.1533    15.9970 </r>
       <r>    18.7619     0.0310    15.9996 </r>
       <r>    18.8468     0.0044    16.0000 </r>
       <r>    18.9316     0.0004    16.0000 </r>
       <r>    19.0165     0.0000    16.0000 </r>
       <r>    19.1013     0.0000    16.0000 </r>
       <r>    19.1862     0.0000    16.0000 </r>
       <r>    19.2710     0.0000    16.0000 </r>
       <r>    19.3559     0.0000    16.0000 </r>
       <r>    19.4407     0.0000    16.0000 </r>
       <r>    19.5255     0.0000    16.0000 </r>
       <r>    19.6104     0.0000    16.0000 </r>
       <r>    19.6952     0.0000    16.0000 </r>
       <r>    19.7801     0.0000    16.0000 </r>
       <r>    19.8649     0.0000    16.0000 </r>
       <r>    19.9498     0.0000    16.0000 </r>
       <r>    20.0346     0.0000    16.0000 </r>
       <r>    20.1195     0.0000    16.0000 </r>
       <r>    20.2043     0.0000    16.0000 </r>
       <r>    20.2891     0.0000    16.0000 </r>
      </set>
     </set>
    </array>
   </total>
  </dos>
 </calculation>
 <structure name="finalpos" >
  <crystal>
   <varray name="basis" >
    <v>      -2.45000000       2.45000000       1.27400000 </v>
    <v>       2.45000000      -2.45000000       1.27400000 </v>
    <v>       2.45000000       2.45000000      -1.27400000 </v>
   </varray>
   <i name="volume">     30.58874000 </i>
   <varray name="rec_basis" >
    <v>       0.00000000       0.20408163       0.39246468 </v>
    <v>       0.20408163       0.00000000       0.39246468 </v>
    <v>       0.20408163       0.20408163      -0.00000000 </v>
   </varray>
  </crystal>
  <varray name="positions" >
   <v>       0.25000000       0.75000000       0.50000000 </v>
   <v>       0.00000000       0.00000000       0.00000000 </v>
  </varray>
 </structure>
</modeling>
