<?xml version="1.0" encoding="ISO-8859-1"?>
<modeling>
 <generator>
  <i name="program" type="string">vasp </i>
  <i name="version" type="string">5.4.4.18Apr17-6-g9f103f2a35  </i>
  <i name="subversion" type="string">(build Dec 09 2018 21:25:21) complex            parallel </i>
  <i name="platform" type="string">IFC18.0.1.163_CrayMPICH7.7.0_MKL18.0.1.163 </i>
  <i name="date" type="string">2019 03 19 </i>
  <i name="time" type="string">13:02:22 </i>
 </generator>
 <incar>
  <i type="string" name="PREC">normal</i>
  <i type="int" name="IBRION">     2</i>
  <i name="EDIFF">      0.00040000</i>
  <i name="EDIFFG">     -0.01000000</i>
  <i type="int" name="NSW">    15</i>
  <i type="int" name="ISIF">     2</i>
  <i name="ENCUT">    150.00000000</i>
  <i type="int" name="NBANDS">     8</i>
  <i type="logical" name="LREAL"> F  </i>
  <i type="int" name="ISMEAR">     0</i>
  <i name="SIGMA">      0.20000000</i>
  <v type="int" name="KPOINT_BSE">    -1     0     0     0</v>
 </incar>
 <structure name="primitive_cell" >
  <crystal>
   <varray name="basis" >
    <v>      -2.45000000       2.45000000       1.27400000 </v>
    <v>       2.45000000      -2.45000000       1.27400000 </v>
    <v>       2.45000000       2.45000000      -1.27400000 </v>
   </varray>
   <i name="volume">     30.58874000 </i>
   <varray name="rec_basis" >
    <v>       0.00000000       0.20408163       0.39246468 </v>
    <v>       0.20408163       0.00000000       0.39246468 </v>
    <v>       0.20408163       0.20408163      -0.00000000 </v>
   </varray>
  </crystal>
  <varray name="positions" >
   <v>       0.25000000      -0.25000000      -0.50000000 </v>
   <v>       0.00000000       0.00000000       0.00000000 </v>
  </varray>
 </structure>
 <varray name="primitive_index" >
  <v type="int" >        1 </v>
  <v type="int" >        2 </v>
 </varray>
 <kpoints>
  <generation param="Monkhorst-Pack">
   <v type="int" name="divisions">       2        2        2 </v>
   <v name="usershift">      0.00000000       0.00000000       0.00000000 </v>
   <v name="genvec1">      0.50000000       0.00000000      -0.00000000 </v>
   <v name="genvec2">      0.00000000       0.50000000      -0.00000000 </v>
   <v name="genvec3">      0.00000000      -0.00000000       0.50000000 </v>
   <v name="shift">      0.50000000       0.50000000       0.50000000 </v>
  </generation>
  <varray name="kpointlist" >
   <v>       0.25000000       0.25000000       0.25000000 </v>
   <v>      -0.25000000       0.25000000       0.25000000 </v>
   <v>      -0.25000000      -0.25000000       0.25000000 </v>
  </varray>
  <varray name="weights" >
   <v>       0.25000000 </v>
   <v>       0.50000000 </v>
   <v>       0.25000000 </v>
  </varray>
 </kpoints>
 <parameters>
  <separator name="general" >
   <i type="string" name="SYSTEM">unknown system</i>
   <i type="logical" name="LCOMPAT"> F  </i>
  </separator>
  <separator name="electronic" >
   <i type="string" name="PREC">normal</i>
   <i name="ENMAX">    150.00000000</i>
   <i name="ENAUG">    322.06900000</i>
   <i name="EDIFF">      0.00040000</i>
   <i type="int" name="IALGO">    38</i>
   <i type="int" name="IWAVPR">    11</i>
   <i type="int" name="NBANDS">     8</i>
   <i name="NELECT">      8.00000000</i>
   <i type="int" name="TURBO">     0</i>
   <i type="int" name="IRESTART">     0</i>
   <i type="int" name="NREBOOT">     0</i>
   <i type="int" name="NMIN">     0</i>
   <i name="EREF">      0.00000000</i>
   <separator name="electronic smearing" >
    <i type="int" name="ISMEAR">     0</i>
    <i name="SIGMA">      0.20000000</i>
    <i name="KSPACING">      0.50000000</i>
    <i type="logical" name="KGAMMA"> T  </i>
   </separator>
   <separator name="electronic projectors" >
    <i type="logical" name="LREAL"> F  </i>
    <v name="ROPT">      0.00000000</v>
    <i type="int" name="LMAXPAW">  -100</i>
    <i type="int" name="LMAXMIX">     2</i>
    <i type="logical" name="NLSPLINE"> F  </i>
   </separator>
   <separator name="electronic startup" >
    <i type="int" name="ISTART">     1</i>
    <i type="int" name="ICHARG">     0</i>
    <i type="int" name="INIWAV">     1</i>
   </separator>
   <separator name="electronic spin" >
    <i type="int" name="ISPIN">     1</i>
    <i type="logical" name="LNONCOLLINEAR"> F  </i>
    <v name="MAGMOM">      1.00000000      1.00000000</v>
    <i name="NUPDOWN">     -1.00000000</i>
    <i type="logical" name="LSORBIT"> F  </i>
    <v name="SAXIS">      0.00000000      0.00000000      1.00000000</v>
    <i type="logical" name="LSPIRAL"> F  </i>
    <v name="QSPIRAL">      0.00000000      0.00000000      0.00000000</v>
    <i type="logical" name="LZEROZ"> F  </i>
   </separator>
   <separator name="electronic exchange-correlation" >
    <i type="logical" name="LASPH"> F  </i>
    <i type="logical" name="LMETAGGA"> F  </i>
   </separator>
   <separator name="electronic convergence" >
    <i type="int" name="NELM">    60</i>
    <i type="int" name="NELMDL">     0</i>
    <i type="int" name="NELMIN">     2</i>
    <i name="ENINI">    150.00000000</i>
    <separator name="electronic convergence detail" >
     <i type="logical" name="LDIAG"> T  </i>
     <i type="logical" name="LSUBROT"> F  </i>
     <i name="WEIMIN">      0.00100000</i>
     <i name="EBREAK">      0.00001250</i>
     <i name="DEPER">      0.30000000</i>
     <i type="int" name="NRMM">     4</i>
     <i name="TIME">      0.40000000</i>
    </separator>
   </separator>
   <separator name="electronic mixer" >
    <i name="AMIX">      0.40000000</i>
    <i name="BMIX">      1.00000000</i>
    <i name="AMIN">      0.10000000</i>
    <i name="AMIX_MAG">      1.60000000</i>
    <i name="BMIX_MAG">      1.00000000</i>
    <separator name="electronic mixer details" >
     <i type="int" name="IMIX">     4</i>
     <i type="logical" name="MIXFIRST"> F  </i>
     <i type="int" name="MAXMIX">   -45</i>
     <i name="WC">    100.00000000</i>
     <i type="int" name="INIMIX">     1</i>
     <i type="int" name="MIXPRE">     1</i>
     <i type="int" name="MREMOVE">     5</i>
    </separator>
   </separator>
   <separator name="electronic dipolcorrection" >
    <i type="logical" name="LDIPOL"> F  </i>
    <i type="logical" name="LMONO"> F  </i>
    <i type="int" name="IDIPOL">     0</i>
    <i name="EPSILON">      1.00000000</i>
    <v name="DIPOL">   -100.00000000   -100.00000000   -100.00000000</v>
    <i name="EFIELD">      0.00000000</i>
   </separator>
  </separator>
  <separator name="grids" >
   <i type="int" name="NGX">    12</i>
   <i type="int" name="NGY">    12</i>
   <i type="int" name="NGZ">    12</i>
   <i type="int" name="NGXF">    24</i>
   <i type="int" name="NGYF">    24</i>
   <i type="int" name="NGZF">    24</i>
   <i type="logical" name="ADDGRID"> F  </i>
  </separator>
  <separator name="ionic" >
   <i type="int" name="NSW">    15</i>
   <i type="int" name="IBRION">     2</i>
   <i type="int" name="MDALGO">     0</i>
   <i type="int" name="ISIF">     2</i>
   <i name="PSTRESS">      0.00000000</i>
   <i name="EDIFFG">     -0.01000000</i>
   <i type="int" name="NFREE">     1</i>
   <i name="POTIM">      0.50000000</i>
   <i name="SMASS">     -3.00000000</i>
   <i name="SCALEE">      1.00000000</i>
  </separator>
  <separator name="ionic md" >
   <i name="TEBEG">      0.00010000</i>
   <i name="TEEND">      0.00010000</i>
   <i type="int" name="NBLOCK">     1</i>
   <i type="int" name="KBLOCK">    15</i>
   <i type="int" name="NPACO">   256</i>
   <i name="APACO">     16.00000000</i>
  </separator>
  <separator name="symmetry" >
   <i type="int" name="ISYM">     2</i>
   <i name="SYMPREC">      0.00001000</i>
  </separator>
  <separator name="dos" >
   <i type="int" name="LORBIT">     0</i>
   <v name="RWIGS">     -1.00000000</v>
   <i type="int" name="NEDOS">   301</i>
   <i name="EMIN">     10.00000000</i>
   <i name="EMAX">    -10.00000000</i>
   <i name="EFERMI">      0.00000000</i>
  </separator>
  <separator name="writing" >
   <i type="int" name="NWRITE">     2</i>
   <i type="logical" name="LWAVE"> T  </i>
   <i type="logical" name="LDOWNSAMPLE"> F  </i>
   <i type="logical" name="LCHARG"> T  </i>
   <i type="logical" name="LPARD"> F  </i>
   <i type="logical" name="LVTOT"> F  </i>
   <i type="logical" name="LVHAR"> F  </i>
   <i type="logical" name="LELF"> F  </i>
   <i type="logical" name="LOPTICS"> F  </i>
   <v name="STM">      0.00000000      0.00000000      0.00000000      0.00000000      0.00000000      0.00000000      0.00000000</v>
  </separator>
  <separator name="performance" >
   <i type="int" name="NPAR">     8</i>
   <i type="int" name="NSIM">     4</i>
   <i type="int" name="NBLK">    -1</i>
   <i type="logical" name="LPLANE"> T  </i>
   <i type="logical" name="LSCALAPACK"> T  </i>
   <i type="logical" name="LSCAAWARE"> F  </i>
   <i type="logical" name="LSCALU"> F  </i>
   <i type="logical" name="LASYNC"> F  </i>
   <i type="logical" name="LORBITALREAL"> F  </i>
  </separator>
  <separator name="miscellaneous" >
   <i type="int" name="IDIOT">     3</i>
   <i type="int" name="ISPECIAL">     0</i>
   <i type="logical" name="LMUSIC"> F  </i>
   <v name="POMASS">     28.08500000</v>
   <v name="DARWINR">      0.00000000</v>
   <v name="DARWINV">      1.00000000</v>
   <i type="logical" name="LCORR"> T  </i>
  </separator>
  <i type="logical" name="GGA_COMPAT"> T  </i>
  <i type="logical" name="LBERRY"> F  </i>
  <i type="int" name="ICORELEVEL">     0</i>
  <i type="logical" name="LDAU"> F  </i>
  <i type="int" name="I_CONSTRAINED_M">     0</i>
  <separator name="electronic exchange-correlation" >
   <i type="string" name="GGA">--</i>
   <i type="int" name="VOSKOWN">     0</i>
   <i type="logical" name="LHFCALC"> F  </i>
   <i type="string" name="PRECFOCK"></i>
   <i type="logical" name="LSYMGRAD"> F  </i>
   <i type="logical" name="LHFONE"> F  </i>
   <i type="logical" name="LRHFCALC"> F  </i>
   <i type="logical" name="LTHOMAS"> F  </i>
   <i type="logical" name="LMODELHF"> F  </i>
   <i name="ENCUT4O">     -1.00000000</i>
   <i type="int" name="EXXOEP">     0</i>
   <i type="int" name="FOURORBIT">     0</i>
   <i name="AEXX">      0.00000000</i>
   <i name="HFALPHA">      0.00000000</i>
   <i name="MCALPHA">      0.00000000</i>
   <i name="ALDAX">      1.00000000</i>
   <i name="AGGAX">      1.00000000</i>
   <i name="ALDAC">      1.00000000</i>
   <i name="AGGAC">      1.00000000</i>
   <i type="int" name="NKREDX">     1</i>
   <i type="int" name="NKREDY">     1</i>
   <i type="int" name="NKREDZ">     1</i>
   <i type="logical" name="SHIFTRED"> F  </i>
   <i type="logical" name="ODDONLY"> F  </i>
   <i type="logical" name="EVENONLY"> F  </i>
   <i type="int" name="LMAXFOCK">     0</i>
   <i type="int" name="NMAXFOCKAE">     0</i>
   <i type="logical" name="LFOCKAEDFT"> F  </i>
   <i name="HFSCREEN">      0.00000000</i>
   <i name="HFSCREENC">      0.00000000</i>
   <i type="int" name="NBANDSGWLOW">     0</i>
  </separator>
  <separator name="vdW DFT" >
   <i type="logical" name="LUSE_VDW"> F  </i>
   <i name="Zab_VDW">     -0.84910000</i>
   <i name="PARAM1">      0.12340000</i>
   <i name="PARAM2">      1.00000000</i>
   <i name="PARAM3">      0.00000000</i>
  </separator>
  <separator name="model GW" >
   <i type="int" name="MODEL_GW">     0</i>
   <i name="MODEL_EPS0">      9.17662200</i>
   <i name="MODEL_ALPHA">      1.00000000</i>
  </separator>
  <separator name="linear response parameters" >
   <i type="logical" name="LEPSILON"> F  </i>
   <i type="logical" name="LRPA"> F  </i>
   <i type="logical" name="LNABLA"> F  </i>
   <i type="logical" name="LVEL"> F  </i>
   <i type="int" name="KINTER">     0</i>
   <i name="CSHIFT">      0.10000000</i>
   <i name="OMEGAMAX">     -1.00000000</i>
   <i name="DEG_THRESHOLD">      0.00200000</i>
   <i name="RTIME">     -0.10000000</i>
   <i name="WPLASMAI">      0.00000000</i>
   <v name="DFIELD">      0.00000000      0.00000000      0.00000000</v>
   <v name="WPLASMA">      0.00000000      0.00000000      0.00000000      0.00000000      0.00000000      0.00000000      0.00000000      0.00000000      0.00000000</v>
  </separator>
  <separator name="orbital magnetization" >
   <i type="logical" name="NUCIND"> F  </i>
   <v name="MAGPOS">      0.00000000      0.00000000      0.00000000</v>
   <i type="logical" name="LNICSALL"> T  </i>
   <i type="logical" name="ORBITALMAG"> F  </i>
   <i type="logical" name="LMAGBLOCH"> F  </i>
   <i type="logical" name="LCHIMAG"> F  </i>
   <i type="logical" name="LGAUGE"> T  </i>
   <i type="int" name="MAGATOM">     0</i>
   <v name="MAGDIPOL">      0.00000000      0.00000000      0.00000000</v>
   <v name="AVECCONST">      0.00000000      0.00000000      0.00000000</v>
  </separator>
  <separator name="response functions" >
   <i type="logical" name="LADDER"> F  </i>
   <i type="logical" name="LRPAFORCE"> F  </i>
   <i type="logical" name="LFXC"> F  </i>
   <i type="logical" name="LHARTREE"> T  </i>
   <i type="int" name="IBSE">     0</i>
   <v type="int" name="KPOINT">    -1     0     0     0</v>
   <i type="logical" name="LTCTE"> F  </i>
   <i type="logical" name="LTETE"> F  </i>
   <i type="logical" name="LTRIPLET"> F  </i>
   <i type="logical" name="LFXCEPS"> F  </i>
   <i type="logical" name="LFXHEG"> F  </i>
   <i type="int" name="NATURALO">     2</i>
   <i type="logical" name="L2ORDER"> F  </i>
   <i type="logical" name="LMP2LT"> F  </i>
   <i type="logical" name="LUSEW"> F  </i>
   <i name="ENCUTGW">     -2.00000000</i>
   <i name="ENCUTGWSOFT">     -2.00000000</i>
   <i name="ENCUTLF">     -1.00000000</i>
   <i type="int" name="LMAXMP2">    -1</i>
   <i name="SCISSOR">      0.00000000</i>
   <i type="int" name="NOMEGA">     0</i>
   <i type="int" name="NOMEGAR">     0</i>
   <i type="int" name="NBANDSGW">    -1</i>
   <i type="int" name="NBANDSO">    -1</i>
   <i type="int" name="NBANDSV">    -1</i>
   <i type="int" name="NELM">     1</i>
   <i type="int" name="NELMHF">     1</i>
   <i type="int" name="DIM">     3</i>
   <i type="int" name="ANTIRES">     0</i>
   <i name="OMEGAMAX">    -30.00000000</i>
   <i name="OMEGAMIN">    -30.00000000</i>
   <i name="OMEGATL">   -200.00000000</i>
   <i type="int" name="OMEGAGRID">   140</i>
   <i name="CSHIFT">     -0.10000000</i>
   <i type="logical" name="SELFENERGY"> F  </i>
   <i type="logical" name="LSPECTRAL"> F  </i>
   <i type="logical" name="LSPECTRALGW"> F  </i>
   <i type="logical" name="LSINGLES"> F  </i>
   <i type="logical" name="LFERMIGW"> F  </i>
   <i type="logical" name="ODDONLYGW"> F  </i>
   <i type="logical" name="EVENONLYGW"> F  </i>
   <i type="int" name="NKREDLFX">     1</i>
   <i type="int" name="NKREDLFY">     1</i>
   <i type="int" name="NKREDLFZ">     1</i>
   <i type="int" name="MAXMEM">  2800</i>
   <i type="int" name="TELESCOPE">     0</i>
   <i type="int" name="TAUPAR">     1</i>
   <i type="int" name="OMEGAPAR">    -1</i>
   <i name="LAMBDA">      1.00000000</i>
  </separator>
  <separator name="External order field" >
   <i name="OFIELD_KAPPA">      0.00000000</i>
   <v name="OFIELD_K">      0.00000000      0.00000000      0.00000000</v>
   <i name="OFIELD_Q6_NEAR">      0.00000000</i>
   <i name="OFIELD_Q6_FAR">      0.00000000</i>
   <i name="OFIELD_A">      0.00000000</i>
  </separator>
 </parameters>
 <atominfo>
  <atoms>       2 </atoms>
  <types>       1 </types>
  <array name="atoms" >
   <dimension dim="1">ion</dimension>
   <field type="string">element</field>
   <field type="int">atomtype</field>
   <set>
    <rc><c>Si</c><c>   1</c></rc>
    <rc><c>Si</c><c>   1</c></rc>
   </set>
  </array>
  <array name="atomtypes" >
   <dimension dim="1">type</dimension>
   <field type="int">atomspertype</field>
   <field type="string">element</field>
   <field>mass</field>
   <field>valence</field>
   <field type="string">pseudopotential</field>
   <set>
    <rc><c>   2</c><c>Si</c><c>     28.08500000</c><c>      4.00000000</c><c> PAW_PBE Si 05Jan2001                   </c></rc>
   </set>
  </array>
 </atominfo>
 <structure name="initialpos" >
  <crystal>
   <varray name="basis" >
    <v>      -2.45000000       2.45000000       1.27400000 </v>
    <v>       2.45000000      -2.45000000       1.27400000 </v>
    <v>       2.45000000       2.45000000      -1.27400000 </v>
   </varray>
   <i name="volume">     30.58874000 </i>
   <varray name="rec_basis" >
    <v>       0.00000000       0.20408163       0.39246468 </v>
    <v>       0.20408163       0.00000000       0.39246468 </v>
    <v>       0.20408163       0.20408163      -0.00000000 </v>
   </varray>
  </crystal>
  <varray name="positions" >
   <v>       0.25000000       0.75000000       0.50000000 </v>
   <v>       0.00000000       0.00000000       0.00000000 </v>
  </varray>
 </structure>
 <calculation>
  <scstep>
   <time name="dav">    0.02    0.02</time>
   <time name="total">    0.05    0.07</time>
   <energy>
    <i name="alphaZ">      4.40202223 </i>
    <i name="ewald">   -265.18101312 </i>
    <i name="hartreedc">     -2.26613852 </i>
    <i name="XCdc">    -17.57399967 </i>
    <i name="pawpsdc">     71.91674505 </i>
    <i name="pawaedc">    -36.81931825 </i>
    <i name="eentropy">     -0.05641896 </i>
    <i name="bandstr">     27.58378072 </i>
    <i name="atom">    206.09183643 </i>
    <i name="e_fr_energy">    -11.90250408 </i>
    <i name="e_wo_entrp">    -11.84608512 </i>
    <i name="e_0_energy">    -11.87429460 </i>
   </energy>
  </scstep>
  <scstep>
   <time name="dav">    0.01    0.01</time>
   <time name="total">    0.03    0.05</time>
   <energy>
    <i name="alphaZ">      4.40202223 </i>
    <i name="ewald">   -265.18101312 </i>
    <i name="hartreedc">     -2.26620849 </i>
    <i name="XCdc">    -17.57397805 </i>
    <i name="pawpsdc">     71.91679608 </i>
    <i name="pawaedc">    -36.81936135 </i>
    <i name="eentropy">     -0.05641896 </i>
    <i name="bandstr">     27.58382114 </i>
    <i name="atom">    206.09183643 </i>
    <i name="e_fr_energy">    -11.90250409 </i>
    <i name="e_wo_entrp">    -11.84608513 </i>
    <i name="e_0_energy">    -11.87429461 </i>
   </energy>
  </scstep>
  <structure>
   <crystal>
    <varray name="basis" >
     <v>      -2.45000000       2.45000000       1.27400000 </v>
     <v>       2.45000000      -2.45000000       1.27400000 </v>
     <v>       2.45000000       2.45000000      -1.27400000 </v>
    </varray>
    <i name="volume">     30.58874000 </i>
    <varray name="rec_basis" >
     <v>       0.00000000       0.20408163       0.39246468 </v>
     <v>       0.20408163       0.00000000       0.39246468 </v>
     <v>       0.20408163       0.20408163      -0.00000000 </v>
    </varray>
   </crystal>
   <varray name="positions" >
    <v>       0.25000000       0.75000000       0.50000000 </v>
    <v>       0.00000000       0.00000000       0.00000000 </v>
   </varray>
  </structure>
  <varray name="forces" >
   <v>      -0.00000000       0.00000000       0.00000000 </v>
   <v>       0.00000000      -0.00000000      -0.00000000 </v>
  </varray>
  <varray name="stress" >
   <v>    -231.81244532       0.00000000       0.00000000 </v>
   <v>       0.00000000    -231.81244532      -0.00000000 </v>
   <v>       0.00000000      -0.00000000     243.85099589 </v>
  </varray>
  <energy>
   <i name="e_fr_energy">    -11.90250409 </i>
   <i name="e_wo_entrp">    -11.87429461 </i>
   <i name="e_0_energy">     -0.05641896 </i>
  </energy>
  <time name="totalsc">    0.43    0.80</time>
  <eigenvalues>
   <array>
    <dimension dim="1">band</dimension>
    <dimension dim="2">kpoint</dimension>
    <dimension dim="3">spin</dimension>
    <field>eigene</field>
    <field>occ</field>
    <set>
     <set comment="spin 1">
      <set comment="kpoint 1">
       <r>    3.3877    1.0000 </r>
       <r>    3.3877    1.0000 </r>
       <r>    4.0406    1.0000 </r>
       <r>    4.0406    1.0000 </r>
       <r>   13.2588    0.0000 </r>
       <r>   13.2588    0.0000 </r>
       <r>   15.0427    0.0000 </r>
       <r>   15.0427    0.0000 </r>
      </set>
      <set comment="kpoint 2">
       <r>   -3.1639    1.0000 </r>
       <r>    1.9016    1.0000 </r>
       <r>    3.6319    1.0000 </r>
       <r>    8.5714    0.5000 </r>
       <r>   12.9169    0.0000 </r>
       <r>   16.2093    0.0000 </r>
       <r>   17.3811    0.0000 </r>
       <r>   18.2895    0.0000 </r>
      </set>
      <set comment="kpoint 3">
       <r>    0.8371    1.0000 </r>
       <r>    5.7477    1.0000 </r>
       <r>    5.8407    1.0000 </r>
       <r>    7.2875    1.0000 </r>
       <r>    7.2875    1.0000 </r>
       <r>   11.5329    0.0000 </r>
       <r>   12.3734    0.0000 </r>
       <r>   12.3734    0.0000 </r>
      </set>
     </set>
    </set>
   </array>
  </eigenvalues>
  <separator name="orbital magnetization" >
   <v name="MAGDIPOLOUT">      0.00000000      0.00000000      0.00000000</v>
  </separator>
  <dos>
   <i name="efermi">      8.57140329 </i>
   <total>
    <array>
     <dimension dim="1">gridpoints</dimension>
     <dimension dim="2">spin</dimension>
     <field>energy</field>
     <field>total</field>
     <field>integrated</field>
     <set>
      <set comment="spin 1">
       <r>    -5.1639     0.0000     0.0000 </r>
       <r>    -5.0791     0.0000     0.0000 </r>
       <r>    -4.9942     0.0000     0.0000 </r>
       <r>    -4.9094     0.0000     0.0000 </r>
       <r>    -4.8245     0.0000     0.0000 </r>
       <r>    -4.7397     0.0000     0.0000 </r>
       <r>    -4.6549     0.0000     0.0000 </r>
       <r>    -4.5700     0.0000     0.0000 </r>
       <r>    -4.4852     0.0000     0.0000 </r>
       <r>    -4.4003     0.0000     0.0000 </r>
       <r>    -4.3155     0.0000     0.0000 </r>
       <r>    -4.2306     0.0000     0.0000 </r>
       <r>    -4.1458     0.0000     0.0000 </r>
       <r>    -4.0609     0.0000     0.0000 </r>
       <r>    -3.9761     0.0000     0.0000 </r>
       <r>    -3.8913     0.0000     0.0000 </r>
       <r>    -3.8064     0.0000     0.0000 </r>
       <r>    -3.7216     0.0004     0.0000 </r>
       <r>    -3.6367     0.0044     0.0004 </r>
       <r>    -3.5519     0.0310     0.0030 </r>
       <r>    -3.4670     0.1533     0.0160 </r>
       <r>    -3.3822     0.5343     0.0614 </r>
       <r>    -3.2973     1.3126     0.1727 </r>
       <r>    -3.2125     2.2734     0.3656 </r>
       <r>    -3.1277     2.7767     0.6012 </r>
       <r>    -3.0428     2.3915     0.8041 </r>
       <r>    -2.9580     1.4525     0.9274 </r>
       <r>    -2.8731     0.6220     0.9801 </r>
       <r>    -2.7883     0.1877     0.9960 </r>
       <r>    -2.7034     0.0399     0.9994 </r>
       <r>    -2.6186     0.0060     0.9999 </r>
       <r>    -2.5337     0.0006     1.0000 </r>
       <r>    -2.4489     0.0000     1.0000 </r>
       <r>    -2.3641     0.0000     1.0000 </r>
       <r>    -2.2792     0.0000     1.0000 </r>
       <r>    -2.1944     0.0000     1.0000 </r>
       <r>    -2.1095     0.0000     1.0000 </r>
       <r>    -2.0247     0.0000     1.0000 </r>
       <r>    -1.9398     0.0000     1.0000 </r>
       <r>    -1.8550     0.0000     1.0000 </r>
       <r>    -1.7701     0.0000     1.0000 </r>
       <r>    -1.6853     0.0000     1.0000 </r>
       <r>    -1.6004     0.0000     1.0000 </r>
       <r>    -1.5156     0.0000     1.0000 </r>
       <r>    -1.4308     0.0000     1.0000 </r>
       <r>    -1.3459     0.0000     1.0000 </r>
       <r>    -1.2611     0.0000     1.0000 </r>
       <r>    -1.1762     0.0000     1.0000 </r>
       <r>    -1.0914     0.0000     1.0000 </r>
       <r>    -1.0065     0.0000     1.0000 </r>
       <r>    -0.9217     0.0000     1.0000 </r>
       <r>    -0.8368     0.0000     1.0000 </r>
       <r>    -0.7520     0.0000     1.0000 </r>
       <r>    -0.6672     0.0000     1.0000 </r>
       <r>    -0.5823     0.0000     1.0000 </r>
       <r>    -0.4975     0.0000     1.0000 </r>
       <r>    -0.4126     0.0000     1.0000 </r>
       <r>    -0.3278     0.0000     1.0000 </r>
       <r>    -0.2429     0.0000     1.0000 </r>
       <r>    -0.1581     0.0000     1.0000 </r>
       <r>    -0.0732     0.0000     1.0000 </r>
       <r>     0.0116     0.0000     1.0000 </r>
       <r>     0.0964     0.0000     1.0000 </r>
       <r>     0.1813     0.0000     1.0000 </r>
       <r>     0.2661     0.0001     1.0000 </r>
       <r>     0.3510     0.0016     1.0001 </r>
       <r>     0.4358     0.0117     1.0011 </r>
       <r>     0.5207     0.0610     1.0063 </r>
       <r>     0.6055     0.2247     1.0254 </r>
       <r>     0.6904     0.5833     1.0749 </r>
       <r>     0.7752     1.0672     1.1654 </r>
       <r>     0.8600     1.3769     1.2822 </r>
       <r>     0.9449     1.2527     1.3885 </r>
       <r>     1.0297     0.8037     1.4567 </r>
       <r>     1.1146     0.3636     1.4876 </r>
       <r>     1.1994     0.1159     1.4974 </r>
       <r>     1.2843     0.0261     1.4996 </r>
       <r>     1.3691     0.0050     1.5000 </r>
       <r>     1.4540     0.0086     1.5008 </r>
       <r>     1.5388     0.0517     1.5052 </r>
       <r>     1.6236     0.2302     1.5247 </r>
       <r>     1.7085     0.7235     1.5861 </r>
       <r>     1.7933     1.6022     1.7220 </r>
       <r>     1.8782     2.5019     1.9343 </r>
       <r>     1.9630     2.7549     2.1680 </r>
       <r>     2.0479     2.1392     2.3495 </r>
       <r>     2.1327     1.1713     2.4489 </r>
       <r>     2.2176     0.4521     2.4873 </r>
       <r>     2.3024     0.1230     2.4977 </r>
       <r>     2.3872     0.0236     2.4997 </r>
       <r>     2.4721     0.0032     2.5000 </r>
       <r>     2.5569     0.0003     2.5000 </r>
       <r>     2.6418     0.0000     2.5000 </r>
       <r>     2.7266     0.0000     2.5000 </r>
       <r>     2.8115     0.0003     2.5000 </r>
       <r>     2.8963     0.0027     2.5003 </r>
       <r>     2.9812     0.0209     2.5020 </r>
       <r>     3.0660     0.1116     2.5115 </r>
       <r>     3.1509     0.4224     2.5473 </r>
       <r>     3.2357     1.1369     2.6438 </r>
       <r>     3.3205     2.2102     2.8313 </r>
       <r>     3.4054     3.2188     3.1044 </r>
       <r>     3.4902     3.7676     3.4241 </r>
       <r>     3.5751     3.8627     3.7518 </r>
       <r>     3.6599     3.5728     4.0549 </r>
       <r>     3.7448     2.8883     4.3000 </r>
       <r>     3.8296     2.1908     4.4859 </r>
       <r>     3.9145     2.0897     4.6632 </r>
       <r>     3.9993     2.5595     4.8803 </r>
       <r>     4.0841     2.8263     5.1201 </r>
       <r>     4.1690     2.3307     5.3179 </r>
       <r>     4.2538     1.3705     5.4342 </r>
       <r>     4.3387     0.5693     5.4825 </r>
       <r>     4.4235     0.1668     5.4966 </r>
       <r>     4.5084     0.0344     5.4995 </r>
       <r>     4.5932     0.0050     5.5000 </r>
       <r>     4.6781     0.0005     5.5000 </r>
       <r>     4.7629     0.0000     5.5000 </r>
       <r>     4.8477     0.0000     5.5000 </r>
       <r>     4.9326     0.0000     5.5000 </r>
       <r>     5.0174     0.0000     5.5000 </r>
       <r>     5.1023     0.0000     5.5000 </r>
       <r>     5.1871     0.0002     5.5000 </r>
       <r>     5.2720     0.0022     5.5002 </r>
       <r>     5.3568     0.0162     5.5016 </r>
       <r>     5.4417     0.0851     5.5088 </r>
       <r>     5.5265     0.3206     5.5360 </r>
       <r>     5.6113     0.8712     5.6099 </r>
       <r>     5.6962     1.7169     5.7556 </r>
       <r>     5.7810     2.4660     5.9648 </r>
       <r>     5.8659     2.5888     6.1845 </r>
       <r>     5.9507     1.9872     6.3531 </r>
       <r>     6.0356     1.1129     6.4475 </r>
       <r>     6.1204     0.4528     6.4859 </r>
       <r>     6.2053     0.1331     6.4972 </r>
       <r>     6.2901     0.0281     6.4996 </r>
       <r>     6.3749     0.0042     6.5000 </r>
       <r>     6.4598     0.0005     6.5000 </r>
       <r>     6.5446     0.0000     6.5000 </r>
       <r>     6.6295     0.0000     6.5000 </r>
       <r>     6.7143     0.0003     6.5000 </r>
       <r>     6.7992     0.0030     6.5003 </r>
       <r>     6.8840     0.0223     6.5022 </r>
       <r>     6.9689     0.1175     6.5121 </r>
       <r>     7.0537     0.4365     6.5492 </r>
       <r>     7.1386     1.1432     6.6462 </r>
       <r>     7.2234     2.1106     6.8252 </r>
       <r>     7.3082     2.7478     7.0584 </r>
       <r>     7.3931     2.5226     7.2724 </r>
       <r>     7.4779     1.6332     7.4110 </r>
       <r>     7.5628     0.7455     7.4742 </r>
       <r>     7.6476     0.2398     7.4946 </r>
       <r>     7.7325     0.0544     7.4992 </r>
       <r>     7.8173     0.0087     7.4999 </r>
       <r>     7.9022     0.0010     7.5000 </r>
       <r>     7.9870     0.0003     7.5000 </r>
       <r>     8.0718     0.0022     7.5002 </r>
       <r>     8.1567     0.0174     7.5017 </r>
       <r>     8.2415     0.0961     7.5098 </r>
       <r>     8.3264     0.3742     7.5416 </r>
       <r>     8.4112     1.0265     7.6287 </r>
       <r>     8.4961     1.9852     7.7971 </r>
       <r>     8.5809     2.7071     8.0268 </r>
       <r>     8.6658     2.6032     8.2477 </r>
       <r>     8.7506     1.7653     8.3974 </r>
       <r>     8.8354     0.8440     8.4691 </r>
       <r>     8.9203     0.2845     8.4932 </r>
       <r>     9.0051     0.0676     8.4989 </r>
       <r>     9.0900     0.0113     8.4999 </r>
       <r>     9.1748     0.0013     8.5000 </r>
       <r>     9.2597     0.0001     8.5000 </r>
       <r>     9.3445     0.0000     8.5000 </r>
       <r>     9.4294     0.0000     8.5000 </r>
       <r>     9.5142     0.0000     8.5000 </r>
       <r>     9.5990     0.0000     8.5000 </r>
       <r>     9.6839     0.0000     8.5000 </r>
       <r>     9.7687     0.0000     8.5000 </r>
       <r>     9.8536     0.0000     8.5000 </r>
       <r>     9.9384     0.0000     8.5000 </r>
       <r>    10.0233     0.0000     8.5000 </r>
       <r>    10.1081     0.0000     8.5000 </r>
       <r>    10.1930     0.0000     8.5000 </r>
       <r>    10.2778     0.0000     8.5000 </r>
       <r>    10.3626     0.0000     8.5000 </r>
       <r>    10.4475     0.0000     8.5000 </r>
       <r>    10.5323     0.0000     8.5000 </r>
       <r>    10.6172     0.0000     8.5000 </r>
       <r>    10.7020     0.0000     8.5000 </r>
       <r>    10.7869     0.0000     8.5000 </r>
       <r>    10.8717     0.0000     8.5000 </r>
       <r>    10.9566     0.0001     8.5000 </r>
       <r>    11.0414     0.0014     8.5001 </r>
       <r>    11.1263     0.0104     8.5010 </r>
       <r>    11.2111     0.0555     8.5057 </r>
       <r>    11.2959     0.2090     8.5235 </r>
       <r>    11.3808     0.5547     8.5705 </r>
       <r>    11.4656     1.0377     8.6586 </r>
       <r>    11.5505     1.3689     8.7747 </r>
       <r>    11.6353     1.2735     8.8828 </r>
       <r>    11.7202     0.8354     8.9536 </r>
       <r>    11.8050     0.3867     8.9864 </r>
       <r>    11.8899     0.1293     8.9974 </r>
       <r>    11.9747     0.0536     9.0020 </r>
       <r>    12.0595     0.1322     9.0132 </r>
       <r>    12.1444     0.4653     9.0527 </r>
       <r>    12.2292     1.1938     9.1539 </r>
       <r>    12.3141     2.1617     9.3373 </r>
       <r>    12.3989     2.7613     9.5716 </r>
       <r>    12.4838     2.4965     9.7834 </r>
       <r>    12.5686     1.6462     9.9231 </r>
       <r>    12.6535     0.9935    10.0074 </r>
       <r>    12.7383     1.0737    10.0985 </r>
       <r>    12.8231     1.8328    10.2540 </r>
       <r>    12.9080     2.6801    10.4814 </r>
       <r>    12.9928     2.9818    10.7344 </r>
       <r>    13.0777     2.8053    10.9724 </r>
       <r>    13.1625     2.7635    11.2069 </r>
       <r>    13.2474     2.9616    11.4582 </r>
       <r>    13.3322     2.8101    11.6966 </r>
       <r>    13.4171     2.0238    11.8683 </r>
       <r>    13.5019     1.0479    11.9572 </r>
       <r>    13.5867     0.3843    11.9898 </r>
       <r>    13.6716     0.0995    11.9982 </r>
       <r>    13.7564     0.0181    11.9998 </r>
       <r>    13.8413     0.0023    12.0000 </r>
       <r>    13.9261     0.0002    12.0000 </r>
       <r>    14.0110     0.0000    12.0000 </r>
       <r>    14.0958     0.0000    12.0000 </r>
       <r>    14.1807     0.0000    12.0000 </r>
       <r>    14.2655     0.0000    12.0000 </r>
       <r>    14.3503     0.0000    12.0000 </r>
       <r>    14.4352     0.0001    12.0000 </r>
       <r>    14.5200     0.0012    12.0001 </r>
       <r>    14.6049     0.0103    12.0010 </r>
       <r>    14.6897     0.0625    12.0063 </r>
       <r>    14.7746     0.2675    12.0290 </r>
       <r>    14.8594     0.8073    12.0975 </r>
       <r>    14.9443     1.7172    12.2432 </r>
       <r>    15.0291     2.5754    12.4617 </r>
       <r>    15.1139     2.7238    12.6928 </r>
       <r>    15.1988     2.0314    12.8651 </r>
       <r>    15.2836     1.0683    12.9558 </r>
       <r>    15.3685     0.3960    12.9894 </r>
       <r>    15.4533     0.1035    12.9982 </r>
       <r>    15.5382     0.0191    12.9998 </r>
       <r>    15.6230     0.0027    13.0000 </r>
       <r>    15.7079     0.0023    13.0002 </r>
       <r>    15.7927     0.0167    13.0016 </r>
       <r>    15.8776     0.0929    13.0095 </r>
       <r>    15.9624     0.3646    13.0404 </r>
       <r>    16.0472     1.0080    13.1260 </r>
       <r>    16.1321     1.9642    13.2926 </r>
       <r>    16.2169     2.6989    13.5216 </r>
       <r>    16.3018     2.6151    13.7435 </r>
       <r>    16.3866     1.7869    13.8951 </r>
       <r>    16.4715     0.8609    13.9681 </r>
       <r>    16.5563     0.2924    13.9929 </r>
       <r>    16.6412     0.0700    13.9989 </r>
       <r>    16.7260     0.0118    13.9999 </r>
       <r>    16.8108     0.0017    14.0000 </r>
       <r>    16.8957     0.0033    14.0003 </r>
       <r>    16.9805     0.0237    14.0023 </r>
       <r>    17.0654     0.1234    14.0128 </r>
       <r>    17.1502     0.4534    14.0512 </r>
       <r>    17.2351     1.1736    14.1508 </r>
       <r>    17.3199     2.1415    14.3325 </r>
       <r>    17.4048     2.7555    14.5663 </r>
       <r>    17.4896     2.5002    14.7784 </r>
       <r>    17.5744     1.5998    14.9142 </r>
       <r>    17.6593     0.7218    14.9754 </r>
       <r>    17.7441     0.2301    14.9949 </r>
       <r>    17.8290     0.0574    14.9998 </r>
       <r>    17.9138     0.0480    15.0039 </r>
       <r>    17.9987     0.1886    15.0199 </r>
       <r>    18.0835     0.6220    15.0726 </r>
       <r>    18.1684     1.4525    15.1959 </r>
       <r>    18.2532     2.3915    15.3988 </r>
       <r>    18.3380     2.7767    15.6344 </r>
       <r>    18.4229     2.2734    15.8273 </r>
       <r>    18.5077     1.3126    15.9386 </r>
       <r>    18.5926     0.5343    15.9840 </r>
       <r>    18.6774     0.1533    15.9970 </r>
       <r>    18.7623     0.0310    15.9996 </r>
       <r>    18.8471     0.0044    16.0000 </r>
       <r>    18.9320     0.0004    16.0000 </r>
       <r>    19.0168     0.0000    16.0000 </r>
       <r>    19.1016     0.0000    16.0000 </r>
       <r>    19.1865     0.0000    16.0000 </r>
       <r>    19.2713     0.0000    16.0000 </r>
       <r>    19.3562     0.0000    16.0000 </r>
       <r>    19.4410     0.0000    16.0000 </r>
       <r>    19.5259     0.0000    16.0000 </r>
       <r>    19.6107     0.0000    16.0000 </r>
       <r>    19.6956     0.0000    16.0000 </r>
       <r>    19.7804     0.0000    16.0000 </r>
       <r>    19.8653     0.0000    16.0000 </r>
       <r>    19.9501     0.0000    16.0000 </r>
       <r>    20.0349     0.0000    16.0000 </r>
       <r>    20.1198     0.0000    16.0000 </r>
       <r>    20.2046     0.0000    16.0000 </r>
       <r>    20.2895     0.0000    16.0000 </r>
      </set>
     </set>
    </array>
   </total>
  </dos>
 </calculation>
 <structure name="finalpos" >
  <crystal>
   <varray name="basis" >
    <v>      -2.45000000       2.45000000       1.27400000 </v>
    <v>       2.45000000      -2.45000000       1.27400000 </v>
    <v>       2.45000000       2.45000000      -1.27400000 </v>
   </varray>
   <i name="volume">     30.58874000 </i>
   <varray name="rec_basis" >
    <v>       0.00000000       0.20408163       0.39246468 </v>
    <v>       0.20408163       0.00000000       0.39246468 </v>
    <v>       0.20408163       0.20408163      -0.00000000 </v>
   </varray>
  </crystal>
  <varray name="positions" >
   <v>       0.25000000       0.75000000       0.50000000 </v>
   <v>       0.00000000       0.00000000       0.00000000 </v>
  </varray>
 </structure>
</modeling>
