 running on    8 total cores
 distrk:  each k-point on    8 cores,    1 groups
 distr:  one band on    1 cores,    8 groups
 using from now: INCAR     
 vasp.5.4.4.18Apr17-6-g9f103f2a35 (build Dec 09 2018 21:25:21) complex          
  
 POSCAR found type information on POSCAR  Si
 POSCAR found :  1 types and       2 ions
 scaLAPACK will be used

 ----------------------------------------------------------------------------- 
|                                                                             |
|           W    W    AA    RRRRR   N    N  II  N    N   GGGG   !!!           |
|           W    W   A  A   R    R  NN   N  II  NN   N  G    G  !!!           |
|           W    W  A    A  R    R  N N  N  II  N N  N  G       !!!           |
|           W WW W  AAAAAA  RRRRR   N  N N  II  N  N N  G  GGG   !            |
|           WW  WW  A    A  R   R   N   NN  II  N   NN  G    G                |
|           W    W  A    A  R    R  N    N  II  N    N   GGGG   !!!           |
|                                                                             |
|      For optimal performance we recommend to set                            |
|        NCORE= 4 - approx SQRT( number of cores)                             |
|      NCORE specifies how many cores store one orbital (NPAR=cpu/NCORE).     |
|      This setting can  greatly improve the performance of VASP for DFT.     |
|      The default,   NCORE=1            might be grossly inefficient         |
|      on modern multi-core architectures or massively parallel machines.     |
|      Do your own testing !!!!                                               |
|      Unfortunately you need to use the default for GW and RPA calculations. |
|      (for HF NCORE is supported but not extensively tested yet)             |
|                                                                             |
 ----------------------------------------------------------------------------- 

 LDA part: xc-table for Pade appr. of Perdew
 POSCAR, INCAR and KPOINTS ok, starting setup
 FFT: planning ...
 WAVECAR not read
 entering main loop
       N       E                     dE             d eps       ncg     rms          rms(c)
DAV:   1     0.421615262987E+01    0.42162E+01   -0.28782E+03   160   0.595E+02
DAV:   2    -0.108470685900E+02   -0.15063E+02   -0.14639E+02   256   0.732E+01
DAV:   3    -0.110199841601E+02   -0.17292E+00   -0.17292E+00   184   0.104E+01
DAV:   4    -0.110205451414E+02   -0.56098E-03   -0.56098E-03   280   0.677E-01
DAV:   5    -0.110205453283E+02   -0.18686E-06   -0.18697E-06   176   0.120E-02    0.301E+00
DAV:   6    -0.108954592175E+02    0.12509E+00   -0.82740E-02   200   0.150E+00    0.178E+00
DAV:   7    -0.108384124136E+02    0.57047E-01   -0.15185E-01   200   0.216E+00    0.154E-01
DAV:   8    -0.108397503295E+02   -0.13379E-02   -0.42337E-03   160   0.490E-01    0.248E-02
DAV:   9    -0.108398441352E+02   -0.93806E-04   -0.10101E-04   112   0.832E-02
   1 F= -.10839844E+02 E0= -.10839843E+02  d E =-.108398E+02
 curvature:   0.00 expect dE= 0.000E+00 dE for cont linesearch  0.000E+00
 trial: gam= 0.00000 g(F)=  0.460E-45 g(S)=  0.000E+00 ort = 0.000E+00 (trialstep = 0.100E+01)
 search vector abs. value=  0.100E-09
 reached required accuracy - stopping structural energy minimisation
 writing wavefunctions
