unknown system                          
   1.00000000000000     
     0.000000    2.715000    2.715000
     2.715000    0.000000    2.715000
     2.715000    2.715000    0.000000
   Si
     2
Direct
  0.500000  0.500000  0.500000
  0.750000  0.750000  0.750000
 
   36   36   36
 0.87616761248E+00 0.89251391049E+00 0.94260675851E+00 0.10294759765E+01 0.11577943602E+01
 0.13334039479E+01 0.15627653332E+01 0.18523010224E+01 0.22074756577E+01 0.26313866450E+01
 0.31227320291E+01 0.36733273730E+01 0.42657899214E+01 0.48723744408E+01 0.54559317565E+01
 0.59734191310E+01 0.63815130745E+01 0.66431123810E+01 0.67332419681E+01 0.66431024460E+01
 0.63815024786E+01 0.59734252182E+01 0.54559716915E+01 0.48724508208E+01 0.42658831575E+01
 0.36734048590E+01 0.31227687495E+01 0.26313797584E+01 0.22074419777E+01 0.18522627641E+01
 0.15627373400E+01 0.13333900753E+01 0.11577913897E+01 0.10294787231E+01 0.94261091717E+00
 0.89251668018E+00 0.89251391049E+00 0.92102080569E+00 0.97977780193E+00 0.10720799268E+01
 0.12024007112E+01 0.13758898299E+01 0.15977738977E+01 0.18726366403E+01 0.22034741434E+01
 0.25903903703E+01 0.30289024987E+01 0.35080954691E+01 0.40092153148E+01 0.45055064668E+01
 0.49639431255E+01 0.53489281446E+01 0.56272926601E+01 0.57734366722E+01 0.57734367742E+01
 0.56272955615E+01 0.53489422988E+01 0.49639791081E+01 0.45055651314E+01 0.40092792345E+01
 0.35081373227E+01 0.30289049012E+01 0.25903572830E+01 0.22034248286E+01 0.18725916873E+01
 0.15977455244E+01 0.13758795570E+01 0.12024019641E+01 0.10720834796E+01 0.97977794976E+00
 0.92101806961E+00 0.89251226941E+00 0.94260675851E+00 0.97977780193E+00 0.10441313299E+01
 0.11389850593E+01 0.12684153818E+01 0.14367334596E+01 0.16478659412E+01 0.19046269711E+01
 0.22078169878E+01 0.25550846179E+01 0.29396032938E+01 0.33488441356E+01 0.37639674693E+01
 0.41604236742E+01 0.45101017201E+01 0.47848354276E+01 0.49605408411E+01 0.50210138285E+01
 0.49605455557E+01 0.47848477994E+01 0.45101252172E+01 0.41604557471E+01 0.37639947347E+01
 0.33488485044E+01 0.29395762013E+01 0.25550343549E+01 0.22077620770E+01 0.19045843161E+01
 0.16478442219E+01 0.14367322386E+01 0.12684263276E+01 0.11389958810E+01 0.10441332939E+01
 0.97977139827E+00 0.94259987476E+00 0.93046201213E+00 0.10294759765E+01 0.10720799268E+01
 0.11389850593E+01 0.12333687596E+01 0.13587863560E+01 0.15186463478E+01 0.17156099129E+01
 0.19509067052E+01 0.22235317391E+01 0.25293145281E+01 0.28599696211E+01 0.32024173589E+01
 0.35387973443E+01 0.38475508998E+01 0.41056656017E+01 0.42917539325E+01 0.43892971049E+01
 0.43892985368E+01 0.42917590941E+01 0.41056746551E+01 0.38475591257E+01 0.35387950446E+01
 0.32023962630E+01 0.28599304209E+01 0.25292676440E+01 0.22234909008E+01 0.19508821461E+01
 0.17156058298E+01 0.15186606299E+01 0.13588102693E+01 0.12333893987E+01 0.11389924869E+01
 0.10720737633E+01 0.10294649746E+01 0.10087968762E+01 0.10088020793E+01 0.11577943602E+01
 0.12024007112E+01 0.12684153818E+01 0.13587863560E+01 0.14765021777E+01 0.16240945331E+01
 0.18030927483E+01 0.20134244661E+01 0.22527486149E+01 0.25157486974E+01 0.27935238937E+01
 0.30733432548E+01 0.33390752273E+01 0.35724938989E+01 0.37554027407E+01 0.38722104902E+01
 0.39123865997E+01 0.38722108208E+01 0.37554027283E+01 0.35724893403E+01 0.33390598508E+01
 0.30733156505E+01 0.27934913445E+01 0.25157223827E+01 0.22527362690E+01 0.20134282845E+01
 0.18031116364E+01 0.16241246696E+01 0.14765354172E+01 0.13588117127E+01 0.12684250523E+01
 0.12023951711E+01 0.11577816957E+01 0.11321166380E+01 0.11237575985E+01 0.11321262590E+01
 0.13334039479E+01 0.13758898299E+01 0.14367334596E+01 0.15186463478E+01 0.16240945331E+01
 0.17548533624E+01 0.19115441996E+01 0.20931472850E+01 0.22964888727E+01 0.25157486318E+01
 0.27421287438E+01 0.29639095527E+01 0.31671088884E+01 0.33368305019E+01 0.34591673828E+01
 0.35233005640E+01 0.35233005861E+01 0.34591662953E+01 0.33368247559E+01 0.31670948266E+01
 0.29638891335E+01 0.27421114740E+01 0.25157449893E+01 0.22965024815E+01 0.20931746974E+01
 0.19115798260E+01 0.17548912207E+01 0.16241268417E+01 0.15186653252E+01 0.14367362969E+01
 0.13758805966E+01 0.13333903416E+01 0.13067327652E+01 0.12939436563E+01 0.12939477954E+01
 0.13067437777E+01 0.15627653332E+01 0.15977738977E+01 0.16478659412E+01 0.17156099129E+01
 0.18030927483E+01 0.19115441996E+01 0.20409725406E+01 0.21898012166E+01 0.23545075954E+01
 0.25293145007E+01 0.27060650999E+01 0.28744648538E+01 0.30228404779E+01 0.31394336065E+01
 0.32140559542E+01 0.32397550515E+01 0.32140578972E+01 0.31394336202E+01 0.30228349582E+01
 0.28744557188E+01 0.27060604511E+01 0.25293227093E+01 0.23545308328E+01 0.21898350710E+01
 0.20410099123E+01 0.19115771091E+01 0.18031127337E+01 0.17156117811E+01 0.16478525721E+01
 0.15977548833E+01 0.15627496367E+01 0.15401769765E+01 0.15277074410E+01 0.15237421003E+01
 0.15277112572E+01 0.15401861740E+01 0.18523010224E+01 0.18726366403E+01 0.19046269711E+01
 0.19509067052E+01 0.20134244661E+01 0.20931472850E+01 0.21898012166E+01 0.23016290868E+01
 0.24251665445E+01 0.25550847900E+01 0.26842140192E+01 0.28038969832E+01 0.29047758666E+01
 0.29779815613E+01 0.30165211411E+01 0.30165245177E+01 0.29779886632E+01 0.29047812553E+01
 0.28038991504E+01 0.26842166330E+01 0.25550925269E+01 0.24251813220E+01 0.23016496651E+01
 0.21898234210E+01 0.20931631817E+01 0.20134245106E+01 0.19508868379E+01 0.19045941985E+01
 0.18726053826E+01 0.18522824513E+01 0.18406510119E+01 0.18348413273E+01 0.18325699691E+01
 0.18325683687E+01 0.18348393789E+01 0.18406559580E+01 0.22074756577E+01 0.22034741434E+01
 0.22078169878E+01 0.22235317391E+01 0.22527486149E+01 0.22964888727E+01 0.23545075954E+01
 0.24251665445E+01 0.25053393641E+01 0.25903905557E+01 0.26743211577E+01 0.27501965244E+01
 0.28109140688E+01 0.28502348457E+01 0.28638585621E+01 0.28502457920E+01 0.28109296802E+01
 0.27502101319E+01 0.26743293355E+01 0.25903921549E+01 0.25053350212E+01 0.24251595290E+01
 0.23545007901E+01 0.22964789565E+01 0.22527270385E+01 0.22234945823E+01 0.22077723957E+01
 0.22034377192E+01 0.22074586536E+01 0.22162099579E+01 0.22259313010E+01 0.22333016219E+01
 0.22360276392E+01 0.22332918173E+01 0.22259193755E+01 0.22162077507E+01 0.26313866450E+01
 0.25903903703E+01 0.25550846179E+01 0.25293145281E+01 0.25157486974E+01 0.25157486318E+01
 0.25293145007E+01 0.25550847900E+01 0.25903905557E+01 0.26313866736E+01 0.26733175996E+01
 0.27109867883E+01 0.27394395503E+01 0.27547566774E+01 0.27547651345E+01 0.27394606682E+01
 0.27110103672E+01 0.26733320601E+01 0.26313826942E+01 0.25903652710E+01 0.25550450000E+01
 0.25292721123E+01 0.25157097869E+01 0.25157102223E+01 0.25292731147E+01 0.25550460669E+01
 0.25903661954E+01 0.26313833657E+01 0.26733322025E+01 0.27110098856E+01 0.27394599281E+01
 0.27547645191E+01 0.27547561647E+01 0.27394390316E+01 0.27109864280E+01 0.26733175202E+01
 0.31227320291E+01 0.30289024987E+01 0.29396032938E+01 0.28599696211E+01 0.27935238937E+01
 0.27421287438E+01 0.27060650999E+01 0.26842140192E+01 0.26743211577E+01 0.26733175996E+01
 0.26776940032E+01 0.26839442444E+01 0.26890625324E+01 0.26910155414E+01 0.26890812844E+01
 0.26839721496E+01 0.26777139199E+01 0.26733111957E+01 0.26742795071E+01 0.26841454738E+01
 0.27059905850E+01 0.27420664492E+01 0.27934793574E+01 0.28599408466E+01 0.29395908797E+01
 0.30289092714E+01 0.31227557292E+01 0.32146075806E+01 0.32970719131E+01 0.33627016801E+01
 0.34050371636E+01 0.34196661794E+01 0.34050214685E+01 0.33626749217E+01 0.32970394983E+01
 0.32145752995E+01 0.36733273730E+01 0.35080954691E+01 0.33488441356E+01 0.32024173589E+01
 0.30733432548E+01 0.29639095527E+01 0.28744648538E+01 0.28038969832E+01 0.27501965244E+01
 0.27109867883E+01 0.26839442444E+01 0.26671012810E+01 0.26590500450E+01 0.26590601180E+01
 0.26671257603E+01 0.26839655282E+01 0.27109802754E+01 0.27501459836E+01 0.28038098372E+01
 0.28743696827E+01 0.29638361667E+01 0.30733055527E+01 0.32024137403E+01 0.33488678159E+01
 0.35081389092E+01 0.36733794855E+01 0.38356341105E+01 0.39844206938E+01 0.41087218681E+01
 0.41983235181E+01 0.42452959397E+01 0.42452924316E+01 0.41983126886E+01 0.41087015114E+01
 0.39843868579E+01 0.38355868304E+01 0.42657899214E+01 0.40092153148E+01 0.37639674693E+01
 0.35387973443E+01 0.33390752273E+01 0.31671088884E+01 0.30228404779E+01 0.29047758666E+01
 0.28109140688E+01 0.27394395503E+01 0.26890625324E+01 0.26590500450E+01 0.26490798374E+01
 0.26590656265E+01 0.26890795827E+01 0.27394321158E+01 0.28108600943E+01 0.29046797201E+01
 0.30227361472E+01 0.31670359790E+01 0.33390527271E+01 0.35388200729E+01 0.37640199315E+01
 0.40092815839E+01 0.42658545601E+01 0.45217574651E+01 0.47624696388E+01 0.49721746986E+01
 0.51354679115E+01 0.52393210144E+01 0.52749732550E+01 0.52393287123E+01 0.51354760593E+01
 0.49721716256E+01 0.47624450091E+01 0.45217088278E+01 0.48723744408E+01 0.45055064668E+01
 0.41604236742E+01 0.38475508998E+01 0.35724938989E+01 0.33368305019E+01 0.31394336065E+01
 0.29779815613E+01 0.28502348457E+01 0.27547566774E+01 0.26910155414E+01 0.26590601180E+01
 0.26590656265E+01 0.26910237685E+01 0.27547445538E+01 0.28501780383E+01 0.29778806574E+01
 0.31393250802E+01 0.33367618571E+01 0.35724867614E+01 0.38475920696E+01 0.41604864389E+01
 0.45055703275E+01 0.48724268348E+01 0.52457692669E+01 0.56062368896E+01 0.59319802676E+01
 0.62008495232E+01 0.63929249131E+01 0.64930690945E+01 0.64930800435E+01 0.63929519744E+01
 0.62008788128E+01 0.59319969592E+01 0.56062306626E+01 0.52457374775E+01 0.54559317565E+01
 0.49639431255E+01 0.45101017201E+01 0.41056656017E+01 0.37554027407E+01 0.34591673828E+01
 0.32140559542E+01 0.30165211411E+01 0.28638585621E+01 0.27547651345E+01 0.26890812844E+01
 0.26671257603E+01 0.26890795827E+01 0.27547445538E+01 0.28637965762E+01 0.30164158356E+01
 0.32139433558E+01 0.34591002951E+01 0.37554054971E+01 0.41057162885E+01 0.45101600246E+01
 0.49639846940E+01 0.54559528551E+01 0.59677990358E+01 0.64749910496E+01 0.69486819693E+01
 0.73584915399E+01 0.76757109549E+01 0.78765996840E+01 0.79454121958E+01 0.78766203463E+01
 0.76757451051E+01 0.73585286989E+01 0.69487118968E+01 0.64750061933E+01 0.59677964510E+01
 0.59734191310E+01 0.53489281446E+01 0.47848354276E+01 0.42917539325E+01 0.38722104902E+01
 0.35233005640E+01 0.32397550515E+01 0.30165245177E+01 0.28502457920E+01 0.27394606682E+01
 0.26839721496E+01 0.26839655282E+01 0.27394321158E+01 0.28501780383E+01 0.30164158356E+01
 0.32396394513E+01 0.35232326345E+01 0.38722177100E+01 0.42918093757E+01 0.47848861653E+01
 0.53489437513E+01 0.59734046452E+01 0.66381908049E+01 0.73141255722E+01 0.79651088609E+01
 0.85514941368E+01 0.90340183314E+01 0.93779082187E+01 0.95569369988E+01 0.95569361493E+01
 0.93779094619E+01 0.90340293025E+01 0.85515181537E+01 0.79651410160E+01 0.73141584365E+01
 0.66382190420E+01 0.63815130745E+01 0.56272926601E+01 0.49605408411E+01 0.43892971049E+01
 0.39123865997E+01 0.35233005861E+01 0.32140578972E+01 0.29779886632E+01 0.28109296802E+01
 0.27110103672E+01 0.26777139199E+01 0.27109802754E+01 0.28108600943E+01 0.29778806574E+01
 0.32139433558E+01 0.35232326345E+01 0.39123950031E+01 0.43893548896E+01 0.49605877042E+01
 0.56272911183E+01 0.63814721722E+01 0.72032600812E+01 0.80604914796E+01 0.89107529393E+01
 0.97051420486E+01 0.10392765021E+02 0.10925521553E+02 0.11263248488E+02 0.11378983956E+02
 0.11263201568E+02 0.10925457561E+02 0.10392720686E+02 0.97051350748E+01 0.89107774420E+01
 0.80605347619E+01 0.72033115964E+01 0.66431123810E+01 0.57734366722E+01 0.50210138285E+01
 0.43892985368E+01 0.38722108208E+01 0.34591662953E+01 0.31394336202E+01 0.29047812553E+01
 0.27502101319E+01 0.26733320601E+01 0.26733111957E+01 0.27501459836E+01 0.29046797201E+01
 0.31393250802E+01 0.34591002951E+01 0.38722177100E+01 0.43893548896E+01 0.50210589027E+01
 0.57734285102E+01 0.66430595925E+01 0.76128792164E+01 0.86504676646E+01 0.97094842787E+01
 0.10733404894E+02 0.11660163260E+02 0.12427080006E+02 0.12976679589E+02 0.13263949273E+02
 0.13263892756E+02 0.12976539171E+02 0.12426923721E+02 0.11660053332E+02 0.10733362964E+02
 0.97094961111E+01 0.86505125520E+01 0.76129411885E+01 0.67332419681E+01 0.57734367742E+01
 0.49605455557E+01 0.42917590941E+01 0.37554027283E+01 0.33368247559E+01 0.30228349582E+01
 0.28038991504E+01 0.26743293355E+01 0.26313826942E+01 0.26742795071E+01 0.28038098372E+01
 0.30227361472E+01 0.33367618571E+01 0.37554054971E+01 0.42918093757E+01 0.49605877042E+01
 0.57734285102E+01 0.67331899750E+01 0.78282613849E+01 0.90293185292E+01 0.10289677677E+02
 0.11548570066E+02 0.12735414066E+02 0.13774012612E+02 0.14587845576E+02 0.15108002605E+02
 0.15286773876E+02 0.15107856097E+02 0.14587614265E+02 0.13773786875E+02 0.12735261494E+02
 0.11548504175E+02 0.10289674865E+02 0.90293548608E+01 0.78283200690E+01 0.66431024460E+01
 0.56272955615E+01 0.47848477994E+01 0.41056746551E+01 0.35724893403E+01 0.31670948266E+01
 0.28744557188E+01 0.26842166330E+01 0.25903921549E+01 0.25903652710E+01 0.26841454738E+01
 0.28743696827E+01 0.31670359790E+01 0.35724867614E+01 0.41057162885E+01 0.47848861653E+01
 0.56272911183E+01 0.66430595925E+01 0.78282613849E+01 0.91599750188E+01 0.10595231958E+02
 0.12073523252E+02 0.13520429421E+02 0.14850345086E+02 0.15965950999E+02 0.16769144192E+02
 0.17189061494E+02 0.17188986829E+02 0.16768944230E+02 0.15965692200E+02 0.14850110041E+02
 0.13520272159E+02 0.12073446867E+02 0.10595212063E+02 0.91599940558E+01 0.78283068213E+01
 0.63815024786E+01 0.53489422988E+01 0.45101252172E+01 0.38475591257E+01 0.33390598508E+01
 0.29638891335E+01 0.27060604511E+01 0.25550925269E+01 0.25053350212E+01 0.25550450000E+01
 0.27059905850E+01 0.29638361667E+01 0.33390527271E+01 0.38475920696E+01 0.45101600246E+01
 0.53489437513E+01 0.63814721722E+01 0.76128792164E+01 0.90293185292E+01 0.10595231958E+02
 0.12254888598E+02 0.13935504682E+02 0.15547881936E+02 0.16974361661E+02 0.18091761946E+02
 0.18803843519E+02 0.19048414107E+02 0.18803746746E+02 0.18091583407E+02 0.16974144079E+02
 0.15547684369E+02 0.13935364848E+02 0.12254807176E+02 0.10595194617E+02 0.90293189196E+01
 0.76129088314E+01 0.59734252182E+01 0.49639791081E+01 0.41604557471E+01 0.35387950446E+01
 0.30733156505E+01 0.27421114740E+01 0.25293227093E+01 0.24251813220E+01 0.24251595290E+01
 0.25292721123E+01 0.27420664492E+01 0.30733055527E+01 0.35388200729E+01 0.41604864389E+01
 0.49639846940E+01 0.59734046452E+01 0.72032600812E+01 0.86504676646E+01 0.10289677677E+02
 0.12073523252E+02 0.13935504682E+02 0.15789489282E+02 0.17507382068E+02 0.18945163311E+02
 0.19981273483E+02 0.20524448777E+02 0.20524433964E+02 0.19981215711E+02 0.18945046502E+02
 0.17507223208E+02 0.15789332022E+02 0.13935380846E+02 0.12073438926E+02 0.10289629908E+02
 0.86504573100E+01 0.72032791274E+01 0.54559716915E+01 0.45055651314E+01 0.37639947347E+01
 0.32023962630E+01 0.27934913445E+01 0.25157449893E+01 0.23545308328E+01 0.23016496651E+01
 0.23545007901E+01 0.25157097869E+01 0.27934793574E+01 0.32024137403E+01 0.37640199315E+01
 0.45055703275E+01 0.54559528551E+01 0.66381908049E+01 0.80604914796E+01 0.97094842787E+01
 0.11548570066E+02 0.13520429421E+02 0.15547881936E+02 0.17507382068E+02 0.19240276923E+02
 0.20603339233E+02 0.21477108327E+02 0.21778477554E+02 0.21477129523E+02 0.20603332706E+02
 0.19240203103E+02 0.17507253834E+02 0.15547744845E+02 0.13520315782E+02 0.11548488914E+02
 0.97094376387E+01 0.80604825842E+01 0.66382097498E+01 0.48724508208E+01 0.40092792345E+01
 0.33488485044E+01 0.28599304209E+01 0.25157223827E+01 0.22965024815E+01 0.21898350710E+01
 0.21898234210E+01 0.22964789565E+01 0.25157102223E+01 0.28599408466E+01 0.33488678159E+01
 0.40092815839E+01 0.48724268348E+01 0.59677990358E+01 0.73141255722E+01 0.89107529393E+01
 0.10733404894E+02 0.12735414066E+02 0.14850345086E+02 0.16974361661E+02 0.18945163311E+02
 0.20603339233E+02 0.21806864141E+02 0.22441581562E+02 0.22441616801E+02 0.21806928333E+02
 0.20603354328E+02 0.18945094051E+02 0.16974239172E+02 0.14850219764E+02 0.12735312159E+02
 0.10733333061E+02 0.89107173750E+01 0.73141306540E+01 0.59678292566E+01 0.42658831575E+01
 0.35081373227E+01 0.29395762013E+01 0.25292676440E+01 0.22527362690E+01 0.20931746974E+01
 0.20410099123E+01 0.20931631817E+01 0.22527270385E+01 0.25292731147E+01 0.29395908797E+01
 0.35081389092E+01 0.42658545601E+01 0.52457692669E+01 0.64749910496E+01 0.79651088609E+01
 0.97051420486E+01 0.11660163260E+02 0.13774012612E+02 0.15965950999E+02 0.18091761946E+02
 0.19981273483E+02 0.21477108327E+02 0.22441581562E+02 0.22775391412E+02 0.22441660732E+02
 0.21477187598E+02 0.19981278073E+02 0.18091686198E+02 0.15965840401E+02 0.13773905706E+02
 0.11660075164E+02 0.97050839877E+01 0.79650957386E+01 0.64750224518E+01 0.52458167175E+01
 0.36734048590E+01 0.30289049012E+01 0.25550343549E+01 0.22234909008E+01 0.20134282845E+01
 0.19115798260E+01 0.19115771091E+01 0.20134245106E+01 0.22234945823E+01 0.25550460669E+01
 0.30289092714E+01 0.36733794855E+01 0.45217574651E+01 0.56062368896E+01 0.69486819693E+01
 0.85514941368E+01 0.10392765021E+02 0.12427080006E+02 0.14587845576E+02 0.16769144192E+02
 0.18803843519E+02 0.20524448777E+02 0.21778477554E+02 0.22441616801E+02 0.22441660732E+02
 0.21778569602E+02 0.20524512571E+02 0.18803839013E+02 0.16769086646E+02 0.14587765076E+02
 0.12426994373E+02 0.10392692854E+02 0.85514628836E+01 0.69487080409E+01 0.56063009358E+01
 0.45218166263E+01 0.31227687495E+01 0.25903572830E+01 0.22077620770E+01 0.19508821461E+01
 0.18031116364E+01 0.17548912207E+01 0.18031127337E+01 0.19508868379E+01 0.22077723957E+01
 0.25903661954E+01 0.31227557292E+01 0.38356341105E+01 0.47624696388E+01 0.59319802676E+01
 0.73584915399E+01 0.90340183314E+01 0.10925521553E+02 0.12976679589E+02 0.15108002605E+02
 0.17189061494E+02 0.19048414107E+02 0.20524433964E+02 0.21477129523E+02 0.21806928333E+02
 0.21477187598E+02 0.20524512571E+02 0.19048473183E+02 0.17189083820E+02 0.15107986496E+02
 0.12976627938E+02 0.10925454497E+02 0.90339763189E+01 0.73585099047E+01 0.59320544209E+01
 0.47625553473E+01 0.38356882087E+01 0.26313797584E+01 0.22034248286E+01 0.19045843161E+01
 0.17156058298E+01 0.16241246696E+01 0.16241268417E+01 0.17156117811E+01 0.19045941985E+01
 0.22034377192E+01 0.26313833657E+01 0.32146075806E+01 0.39844206938E+01 0.49721746986E+01
 0.62008495232E+01 0.76757109549E+01 0.93779082187E+01 0.11263248488E+02 0.13263949273E+02
 0.15286773876E+02 0.17188986829E+02 0.18803746746E+02 0.19981215711E+02 0.20603332706E+02
 0.20603354328E+02 0.19981278073E+02 0.18803839013E+02 0.17189083820E+02 0.15286839678E+02
 0.13263956664E+02 0.11263207396E+02 0.93778669801E+01 0.76757220304E+01 0.62009259884E+01
 0.49722783537E+01 0.39844992104E+01 0.32146379191E+01 0.22074419777E+01 0.18725916873E+01
 0.16478442219E+01 0.15186606299E+01 0.14765354172E+01 0.15186653252E+01 0.16478525721E+01
 0.18726053826E+01 0.22074586536E+01 0.26733322025E+01 0.32970719131E+01 0.41087218681E+01
 0.51354679115E+01 0.63929249131E+01 0.78765996840E+01 0.95569369988E+01 0.11378983956E+02
 0.13263892756E+02 0.15107856097E+02 0.16768944230E+02 0.18091583407E+02 0.18945046502E+02
 0.19240203103E+02 0.18945094051E+02 0.18091686198E+02 0.16769086646E+02 0.15107986496E+02
 0.13263956664E+02 0.11378974117E+02 0.95569019260E+01 0.78766030007E+01 0.63929947210E+01
 0.51355764400E+01 0.41088146970E+01 0.32971146081E+01 0.26733312916E+01 0.18522627641E+01
 0.15977455244E+01 0.14367322386E+01 0.13588102693E+01 0.13588117127E+01 0.14367362969E+01
 0.15977548833E+01 0.18522824513E+01 0.22162099579E+01 0.27110098856E+01 0.33627016801E+01
 0.41983235181E+01 0.52393210144E+01 0.64930690945E+01 0.79454121958E+01 0.95569361493E+01
 0.11263201568E+02 0.12976539171E+02 0.14587614265E+02 0.15965692200E+02 0.16974144079E+02
 0.17507223208E+02 0.17507253834E+02 0.16974239172E+02 0.15965840401E+02 0.14587765076E+02
 0.12976627938E+02 0.11263207396E+02 0.95569019260E+01 0.79454054577E+01 0.64931264911E+01
 0.52394237124E+01 0.41984199592E+01 0.33627508112E+01 0.27110090167E+01 0.22161865298E+01
 0.15627373400E+01 0.13758795570E+01 0.12684263276E+01 0.12333893987E+01 0.12684250523E+01
 0.13758805966E+01 0.15627496367E+01 0.18406510119E+01 0.22259313010E+01 0.27394599281E+01
 0.34050371636E+01 0.42452959397E+01 0.52749732550E+01 0.64930800435E+01 0.78766203463E+01
 0.93779094619E+01 0.10925457561E+02 0.12426923721E+02 0.13773786875E+02 0.14850110041E+02
 0.15547684369E+02 0.15789332022E+02 0.15547744845E+02 0.14850219764E+02 0.13773905706E+02
 0.12426994373E+02 0.10925454497E+02 0.93778669801E+01 0.78766030007E+01 0.64931264911E+01
 0.52750689121E+01 0.42453923522E+01 0.34050908545E+01 0.27394603449E+01 0.22259014754E+01
 0.18406226147E+01 0.13333900753E+01 0.12024019641E+01 0.11389958810E+01 0.11389924869E+01
 0.12023951711E+01 0.13333903416E+01 0.15401769765E+01 0.18348413273E+01 0.22333016219E+01
 0.27547645191E+01 0.34196661794E+01 0.42452924316E+01 0.52393287123E+01 0.63929519744E+01
 0.76757451051E+01 0.90340293025E+01 0.10392720686E+02 0.11660053332E+02 0.12735261494E+02
 0.13520272159E+02 0.13935364848E+02 0.13935380846E+02 0.13520315782E+02 0.12735312159E+02
 0.11660075164E+02 0.10392692854E+02 0.90339763189E+01 0.76757220304E+01 0.63929947210E+01
 0.52394237124E+01 0.42453923522E+01 0.34197267839E+01 0.27547705241E+01 0.22332701387E+01
 0.18348045697E+01 0.15401578194E+01 0.11577913897E+01 0.10720834796E+01 0.10441332939E+01
 0.10720737633E+01 0.11577816957E+01 0.13067327652E+01 0.15277074410E+01 0.18325699691E+01
 0.22360276392E+01 0.27547561647E+01 0.34050214685E+01 0.41983126886E+01 0.51354760593E+01
 0.62008788128E+01 0.73585286989E+01 0.85515181537E+01 0.97051350748E+01 0.10733362964E+02
 0.11548504175E+02 0.12073446867E+02 0.12254807176E+02 0.12073438926E+02 0.11548488914E+02
 0.10733333061E+02 0.97050839877E+01 0.85514628836E+01 0.73585099047E+01 0.62009259884E+01
 0.51355764400E+01 0.41984199592E+01 0.34050908545E+01 0.27547705241E+01 0.22359999322E+01
 0.18325291906E+01 0.15276798719E+01 0.13067278537E+01 0.10294787231E+01 0.97977794976E+00
 0.97977139827E+00 0.10294649746E+01 0.11321166380E+01 0.12939436563E+01 0.15237421003E+01
 0.18325683687E+01 0.22332918173E+01 0.27394390316E+01 0.33626749217E+01 0.41087015114E+01
 0.49721716256E+01 0.59319969592E+01 0.69487118968E+01 0.79651410160E+01 0.89107774420E+01
 0.97094961111E+01 0.10289674865E+02 0.10595212063E+02 0.10595194617E+02 0.10289629908E+02
 0.97094376387E+01 0.89107173750E+01 0.79650957386E+01 0.69487080409E+01 0.59320544209E+01
 0.49722783537E+01 0.41088146970E+01 0.33627508112E+01 0.27394603449E+01 0.22332701387E+01
 0.18325291906E+01 0.15237097342E+01 0.12939315815E+01 0.11321236542E+01 0.94261091717E+00
 0.92101806961E+00 0.94259987476E+00 0.10087968762E+01 0.11237575985E+01 0.12939477954E+01
 0.15277112572E+01 0.18348393789E+01 0.22259193755E+01 0.27109864280E+01 0.32970394983E+01
 0.39843868579E+01 0.47624450091E+01 0.56062306626E+01 0.64750061933E+01 0.73141584365E+01
 0.80605347619E+01 0.86505125520E+01 0.90293548608E+01 0.91599940558E+01 0.90293189196E+01
 0.86504573100E+01 0.80604825842E+01 0.73141306540E+01 0.64750224518E+01 0.56063009358E+01
 0.47625553473E+01 0.39844992104E+01 0.32971146081E+01 0.27110090167E+01 0.22259014754E+01
 0.18348045697E+01 0.15276798719E+01 0.12939315815E+01 0.11237590472E+01 0.10088092605E+01
 0.89251668018E+00 0.89251226941E+00 0.93046201213E+00 0.10088020793E+01 0.11321262590E+01
 0.13067437777E+01 0.15401861740E+01 0.18406559580E+01 0.22162077507E+01 0.26733175202E+01
 0.32145752995E+01 0.38355868304E+01 0.45217088278E+01 0.52457374775E+01 0.59677964510E+01
 0.66382190420E+01 0.72033115964E+01 0.76129411885E+01 0.78283200690E+01 0.78283068213E+01
 0.76129088314E+01 0.72032791274E+01 0.66382097498E+01 0.59678292566E+01 0.52458167175E+01
 0.45218166263E+01 0.38356882087E+01 0.32146379191E+01 0.26733312916E+01 0.22161865298E+01
 0.18406226147E+01 0.15401578194E+01 0.13067278537E+01 0.11321236542E+01 0.10088092605E+01
 0.93047175056E+00 0.89251401067E+00 0.92102080806E+00 0.97977785024E+00 0.10720800112E+01
 0.12024007130E+01 0.13758897558E+01 0.15977738661E+01 0.18726366654E+01 0.22034741487E+01
 0.25903903824E+01 0.30289025981E+01 0.35080955612E+01 0.40092151693E+01 0.45055059842E+01
 0.49639423833E+01 0.53489272381E+01 0.56272917286E+01 0.57734360416E+01 0.57734367973E+01
 0.56272962615E+01 0.53489433268E+01 0.49639800254E+01 0.45055655717E+01 0.40092789074E+01
 0.35081361733E+01 0.30289033070E+01 0.25903558685E+01 0.22034240332E+01 0.18725916238E+01
 0.15977461472E+01 0.13758807069E+01 0.12024032868E+01 0.10720845813E+01 0.97977869137E+00
 0.92101854973E+00 0.89251255967E+00 0.92102080806E+00 0.95757502592E+00 0.10208008067E+01
 0.11139071984E+01 0.12408846869E+01 0.14060139976E+01 0.16132544240E+01 0.18654953835E+01
 0.21636198227E+01 0.25053391795E+01 0.28838726980E+01 0.32867598043E+01 0.36953154949E+01
 0.40852889946E+01 0.44290268110E+01 0.46989258519E+01 0.48714562586E+01 0.49308208845E+01
 0.48714604723E+01 0.46989375246E+01 0.44290506924E+01 0.40853249059E+01 0.36953519958E+01
 0.32867782411E+01 0.28838608392E+01 0.25053006221E+01 0.21635703367E+01 0.18654521781E+01
 0.16132283913E+01 0.14060071106E+01 0.12408904298E+01 0.11139144072E+01 0.10208010906E+01
 0.95756838237E+00 0.92101417032E+00 0.90907053693E+00 0.97977785024E+00 0.10208008067E+01
 0.10850955775E+01 0.11756687340E+01 0.12959876397E+01 0.14494923579E+01 0.16389793502E+01
 0.18658574522E+01 0.21292766005E+01 0.24251664669E+01 0.27453228808E+01 0.30768244123E+01
 0.34021605895E+01 0.37003876107E+01 0.39493493861E+01 0.41286157793E+01 0.42225035167E+01
 0.42225041261E+01 0.41286191571E+01 0.39493581197E+01 0.37004008399E+01 0.34021712234E+01
 0.30768222470E+01 0.27453019918E+01 0.24251301319E+01 0.21292354285E+01 0.18658234803E+01
 0.16389610731E+01 0.14494918497E+01 0.12959993122E+01 0.11756815534E+01 0.10850997762E+01
 0.10207945117E+01 0.97976774295E+00 0.95983232760E+00 0.95983707593E+00 0.10720800112E+01
 0.11139071984E+01 0.11756687340E+01 0.12601596024E+01 0.13703625834E+01 0.15089609964E+01
 0.16777356574E+01 0.18768688484E+01 0.21041986079E+01 0.23545076338E+01 0.26190031565E+01
 0.28852192738E+01 0.31375823782E+01 0.33587624730E+01 0.35316999367E+01 0.36419480403E+01
 0.36798311069E+01 0.36419466258E+01 0.35316987999E+01 0.33587611297E+01 0.31375766890E+01
 0.28852052164E+01 0.26189810221E+01 0.23544819466E+01 0.21041752965E+01 0.18768535022E+01
 0.16777327438E+01 0.15089716012E+01 0.13703818473E+01 0.12601779332E+01 0.11756775222E+01
 0.11139043287E+01 0.10720706435E+01 0.10479373349E+01 0.10400618968E+01 0.10479449480E+01
 0.12024007130E+01 0.12408846869E+01 0.12959876397E+01 0.13703625834E+01 0.14665983947E+01
 0.15867413610E+01 0.17317362240E+01 0.19008287199E+01 0.20909944276E+01 0.22964888818E+01
 0.25086561330E+01 0.27161584843E+01 0.29057533700E+01 0.30636249134E+01 0.31771078836E+01
 0.32364872339E+01 0.32364863012E+01 0.31771052689E+01 0.30636198595E+01 0.29057435327E+01
 0.27161433402E+01 0.25086398498E+01 0.22964776720E+01 0.20909917903E+01 0.19008349129E+01
 0.17317507364E+01 0.15867627553E+01 0.14666219611E+01 0.13703811132E+01 0.12959959802E+01
 0.12408829941E+01 0.12023934872E+01 0.11781934626E+01 0.11665544147E+01 0.11665573071E+01
 0.11782006172E+01 0.13758897558E+01 0.14060139976E+01 0.14494923579E+01 0.15089609964E+01
 0.15867413610E+01 0.16843932118E+01 0.18022409844E+01 0.19389188778E+01 0.20909944151E+01
 0.22527485631E+01 0.24162141243E+01 0.25715773838E+01 0.27080017819E+01 0.28148330363E+01
 0.28830183851E+01 0.29064642612E+01 0.28830188885E+01 0.28148316974E+01 0.27079958625E+01
 0.25715673392E+01 0.24162052388E+01 0.22527476248E+01 0.20910045191E+01 0.19389382729E+01
 0.18022657211E+01 0.16844185970E+01 0.15867616774E+01 0.15089712911E+01 0.14494920928E+01
 0.14060075274E+01 0.13758824668E+01 0.13565607708E+01 0.13459140940E+01 0.13425309471E+01
 0.13459166531E+01 0.13565659841E+01 0.15977738661E+01 0.16132544240E+01 0.16389793502E+01
 0.16777356574E+01 0.17317362240E+01 0.18022409844E+01 0.18892080200E+01 0.19910022427E+01
 0.21041985935E+01 0.22235317597E+01 0.23420646443E+01 0.24516498428E+01 0.25437162473E+01
 0.26103232226E+01 0.26453140721E+01 0.26453161799E+01 0.26103270399E+01 0.25437170822E+01
 0.24516462044E+01 0.23420602008E+01 0.22235322945E+01 0.21042076767E+01 0.19910195721E+01
 0.18892299052E+01 0.18022609663E+01 0.17317467784E+01 0.16777324898E+01 0.16389653930E+01
 0.16132383095E+01 0.15977632705E+01 0.15895671199E+01 0.15859024123E+01 0.15846485344E+01
 0.15846478543E+01 0.15859018731E+01 0.15895705345E+01 0.18726366654E+01 0.18654953835E+01
 0.18658574522E+01 0.18768688484E+01 0.19008287199E+01 0.19389188778E+01 0.19910022427E+01
 0.20554880688E+01 0.21292766204E+01 0.22078171071E+01 0.22853384515E+01 0.23553176275E+01
 0.24112053308E+01 0.24473351116E+01 0.24598396909E+01 0.24473413854E+01 0.24112125067E+01
 0.23553205258E+01 0.22853361900E+01 0.22078123791E+01 0.21292732650E+01 0.20554895043E+01
 0.19910090863E+01 0.19389262757E+01 0.19008280199E+01 0.18768546072E+01 0.18658331720E+01
 0.18654714149E+01 0.18726223913E+01 0.18836406121E+01 0.18948392408E+01 0.19030215300E+01
 0.19060053261E+01 0.19030163302E+01 0.18948340443E+01 0.18836428267E+01 0.22034741487E+01
 0.21636198227E+01 0.21292766005E+01 0.21041986079E+01 0.20909944276E+01 0.20909944151E+01
 0.21041985935E+01 0.21292766204E+01 0.21636198819E+01 0.22034742182E+01 0.22442094756E+01
 0.22807824392E+01 0.23083952211E+01 0.23232554331E+01 0.23232602027E+01 0.23084059855E+01
 0.22807913524E+01 0.22442095347E+01 0.22034626386E+01 0.21635994363E+01 0.21292550357E+01
 0.21041835493E+01 0.20909864213E+01 0.20909859602E+01 0.21041823560E+01 0.21292536094E+01
 0.21635983753E+01 0.22034623625E+01 0.22442101153E+01 0.22807925541E+01 0.23084074308E+01
 0.23232615232E+01 0.23232563758E+01 0.23083957186E+01 0.22807825960E+01 0.22442094580E+01
 0.25903903824E+01 0.25053391795E+01 0.24251664669E+01 0.23545076338E+01 0.22964888818E+01
 0.22527485631E+01 0.22235317597E+01 0.22078171071E+01 0.22034742182E+01 0.22074756335E+01