   2   2   0   0
  0.1529437E+02  0.3691622E-09  0.3691622E-09  0.3691622E-09  0.5000000E-15
  1.000000000000000E-004
  CAR 
 unknown system                          
     21.14711413     -6.61540848  301      8.75881234      1.00000000
     -6.615  0.0000E+00  0.0000E+00
     -6.523  0.0000E+00  0.0000E+00
     -6.430  0.0000E+00  0.0000E+00
     -6.338  0.0000E+00  0.0000E+00
     -6.245  0.0000E+00  0.0000E+00
     -6.153  0.0000E+00  0.0000E+00
     -6.060  0.0000E+00  0.0000E+00
     -5.968  0.0000E+00  0.0000E+00
     -5.875  0.0000E+00  0.0000E+00
     -5.783  0.2962E-17  0.2741E-18
     -5.690  0.7968E-15  0.7401E-16
     -5.597  0.1008E-12  0.9406E-14
     -5.505  0.8385E-11  0.7853E-12
     -5.412  0.4577E-09  0.4314E-10
     -5.320  0.1641E-07  0.1562E-08
     -5.227  0.3871E-06  0.3739E-07
     -5.135  0.6011E-05  0.5937E-06
     -5.042  0.6151E-04  0.6286E-05
     -4.950  0.4151E-03  0.4470E-04
     -4.857  0.1850E-02  0.2159E-03
     -4.765  0.5446E-02  0.7198E-03
     -4.672  0.1060E-01  0.1701E-02
     -4.579  0.1365E-01  0.2964E-02
     -4.487  0.1163E-01  0.4040E-02
     -4.394  0.6552E-02  0.4647E-02
     -4.302  0.2441E-02  0.4873E-02
     -4.209  0.6012E-03  0.4928E-02
     -4.117  0.9775E-04  0.4937E-02
     -4.024  0.1051E-04  0.4938E-02
     -3.932  0.1472E-05  0.4938E-02
     -3.839  0.1263E-04  0.4940E-02
     -3.747  0.1430E-03  0.4953E-02
     -3.654  0.1071E-02  0.5052E-02
     -3.562  0.5293E-02  0.5542E-02
     -3.469  0.1729E-01  0.7141E-02
     -3.376  0.3732E-01  0.1059E-01
     -3.284  0.5328E-01  0.1553E-01
     -3.191  0.5033E-01  0.2018E-01
     -3.099  0.3145E-01  0.2309E-01
     -3.006  0.1300E-01  0.2430E-01
     -2.914  0.3550E-02  0.2462E-01
     -2.821  0.6404E-03  0.2468E-01
     -2.729  0.7627E-04  0.2469E-01
     -2.636  0.6934E-05  0.2469E-01
     -2.544  0.1611E-04  0.2469E-01
     -2.451  0.1730E-03  0.2471E-01
     -2.358  0.1250E-02  0.2482E-01
     -2.266  0.5961E-02  0.2538E-01
     -2.173  0.1878E-01  0.2711E-01
     -2.081  0.3913E-01  0.3074E-01
     -1.988  0.5401E-01  0.3573E-01
     -1.896  0.5016E-01  0.4038E-01
     -1.803  0.3566E-01  0.4368E-01
     -1.711  0.3492E-01  0.4691E-01
     -1.618  0.6153E-01  0.5260E-01
     -1.526  0.9821E-01  0.6169E-01
     -1.433  0.1081E+00  0.7169E-01
     -1.341  0.7903E-01  0.7900E-01
     -1.248  0.3824E-01  0.8254E-01
     -1.155  0.1223E-01  0.8367E-01
     -1.063  0.2586E-02  0.8391E-01
     -0.970  0.3608E-03  0.8395E-01
     -0.878  0.3320E-04  0.8395E-01
     -0.785  0.2013E-05  0.8395E-01
     -0.693  0.8034E-07  0.8395E-01
     -0.600  0.2108E-08  0.8395E-01
     -0.508  0.3635E-10  0.8395E-01
     -0.415  0.7053E-12  0.8395E-01
     -0.323  0.2516E-10  0.8395E-01
     -0.230  0.1413E-08  0.8395E-01
     -0.137  0.5214E-07  0.8395E-01
     -0.045  0.1265E-05  0.8395E-01
      0.048  0.2021E-04  0.8395E-01
      0.140  0.2128E-03  0.8397E-01
      0.233  0.1477E-02  0.8411E-01
      0.325  0.6771E-02  0.8474E-01
      0.418  0.2051E-01  0.8663E-01
      0.510  0.4110E-01  0.9044E-01
      0.603  0.5489E-01  0.9552E-01
      0.695  0.5163E-01  0.1003E+00
      0.788  0.4830E-01  0.1048E+00
      0.880  0.8196E-01  0.1123E+00
      0.973  0.1669E+00  0.1278E+00
      1.066  0.2530E+00  0.1512E+00
      1.158  0.2598E+00  0.1753E+00
      1.251  0.1792E+00  0.1918E+00
      1.343  0.8293E-01  0.1995E+00
      1.436  0.2579E-01  0.2019E+00
      1.528  0.5388E-02  0.2024E+00
      1.621  0.7565E-03  0.2025E+00
      1.713  0.7130E-04  0.2025E+00
      1.806  0.4504E-05  0.2025E+00
      1.898  0.1904E-06  0.2025E+00
      1.991  0.6470E-08  0.2025E+00
      2.084  0.3950E-07  0.2025E+00
      2.176  0.9361E-06  0.2025E+00
      2.269  0.1485E-04  0.2025E+00
      2.361  0.1587E-03  0.2025E+00
      2.454  0.1154E-02  0.2026E+00
      2.546  0.5786E-02  0.2031E+00
      2.639  0.2022E-01  0.2050E+00
      2.731  0.4962E-01  0.2096E+00
      2.824  0.8565E-01  0.2175E+00
      2.916  0.1034E+00  0.2271E+00
      3.009  0.8639E-01  0.2351E+00
      3.101  0.4941E-01  0.2397E+00
      3.194  0.1915E-01  0.2414E+00
      3.287  0.4987E-02  0.2419E+00
      3.379  0.8677E-03  0.2420E+00
      3.472  0.1004E-03  0.2420E+00
      3.564  0.7702E-05  0.2420E+00
      3.657  0.3907E-06  0.2420E+00
      3.749  0.1314E-07  0.2420E+00
      3.842  0.3331E-08  0.2420E+00
      3.934  0.1031E-06  0.2420E+00
      4.027  0.2298E-05  0.2420E+00
      4.119  0.3373E-04  0.2420E+00
      4.212  0.3262E-03  0.2420E+00
      4.305  0.2082E-02  0.2422E+00
      4.397  0.8770E-02  0.2430E+00
      4.490  0.2442E-01  0.2453E+00
      4.582  0.4495E-01  0.2494E+00
      4.675  0.5475E-01  0.2545E+00
      4.767  0.4421E-01  0.2586E+00
      4.860  0.2430E-01  0.2608E+00
      4.952  0.1231E-01  0.2620E+00
      5.045  0.1641E-01  0.2635E+00
      5.137  0.3868E-01  0.2671E+00
      5.230  0.7673E-01  0.2742E+00
      5.322  0.1144E+00  0.2848E+00
      5.415  0.1233E+00  0.2962E+00
      5.508  0.9299E-01  0.3048E+00
      5.600  0.4853E-01  0.3093E+00
      5.693  0.2087E-01  0.3112E+00
      5.785  0.1915E-01  0.3130E+00
      5.878  0.3644E-01  0.3163E+00
      5.970  0.5894E-01  0.3218E+00
      6.063  0.7763E-01  0.3290E+00
      6.155  0.1018E+00  0.3384E+00
      6.248  0.1362E+00  0.3510E+00
      6.340  0.1518E+00  0.3651E+00
      6.433  0.1223E+00  0.3764E+00
      6.526  0.7223E-01  0.3831E+00
      6.618  0.4805E-01  0.3875E+00
      6.711  0.6585E-01  0.3936E+00
      6.803  0.9975E-01  0.4028E+00
      6.896  0.1076E+00  0.4128E+00
      6.988  0.7748E-01  0.4200E+00
      7.081  0.3758E-01  0.4234E+00
      7.173  0.1645E-01  0.4250E+00
      7.266  0.2378E-01  0.4272E+00
      7.358  0.6301E-01  0.4330E+00
      7.451  0.1228E+00  0.4444E+00
      7.543  0.1608E+00  0.4592E+00
      7.636  0.1411E+00  0.4723E+00
      7.729  0.8295E-01  0.4800E+00
      7.821  0.3300E-01  0.4830E+00
      7.914  0.1102E-01  0.4840E+00
      8.006  0.1304E-01  0.4853E+00
      8.099  0.3685E-01  0.4887E+00
      8.191  0.7720E-01  0.4958E+00
      8.284  0.1075E+00  0.5058E+00
      8.376  0.9912E-01  0.5149E+00
      8.469  0.6152E-01  0.5206E+00
      8.561  0.3114E-01  0.5235E+00
      8.654  0.3178E-01  0.5264E+00
      8.747  0.6300E-01  0.5323E+00
      8.839  0.1001E+00  0.5415E+00
      8.932  0.1070E+00  0.5514E+00
      9.024  0.7625E-01  0.5585E+00
      9.117  0.3876E-01  0.5621E+00
      9.209  0.2343E-01  0.5643E+00
      9.302  0.3290E-01  0.5673E+00
      9.394  0.5013E-01  0.5719E+00
      9.487  0.5359E-01  0.5769E+00
      9.579  0.3809E-01  0.5804E+00
      9.672  0.1792E-01  0.5821E+00
      9.764  0.5598E-02  0.5826E+00
      9.857  0.1452E-02  0.5827E+00
      9.950  0.2427E-02  0.5830E+00
     10.042  0.1109E-01  0.5840E+00
     10.135  0.3570E-01  0.5873E+00
     10.227  0.7606E-01  0.5943E+00
     10.320  0.1074E+00  0.6043E+00
     10.412  0.1013E+00  0.6136E+00
     10.505  0.6641E-01  0.6198E+00
     10.597  0.3561E-01  0.6231E+00
     10.690  0.2403E-01  0.6253E+00
     10.782  0.2963E-01  0.6280E+00
     10.875  0.5435E-01  0.6331E+00
     10.968  0.9410E-01  0.6418E+00
     11.060  0.1236E+00  0.6532E+00
     11.153  0.1227E+00  0.6646E+00
     11.245  0.1003E+00  0.6739E+00
     11.338  0.7095E-01  0.6804E+00
     11.430  0.4097E-01  0.6842E+00
     11.523  0.1746E-01  0.6858E+00
     11.615  0.5146E-02  0.6863E+00
     11.708  0.1019E-02  0.6864E+00
     11.800  0.1339E-03  0.6864E+00
     11.893  0.1164E-04  0.6864E+00
     11.985  0.6712E-06  0.6864E+00
     12.078  0.1933E-06  0.6864E+00
     12.171  0.3846E-05  0.6864E+00
     12.263  0.5790E-04  0.6864E+00
     12.356  0.5746E-03  0.6865E+00
     12.448  0.3763E-02  0.6868E+00
     12.541  0.1629E-01  0.6883E+00
     12.633  0.4685E-01  0.6927E+00
     12.726  0.9083E-01  0.7011E+00
     12.818  0.1249E+00  0.7126E+00
     12.911  0.1400E+00  0.7256E+00
     13.003  0.1562E+00  0.7400E+00
     13.096  0.1724E+00  0.7560E+00
     13.189  0.1550E+00  0.7703E+00
     13.281  0.9991E-01  0.7796E+00
     13.374  0.4420E-01  0.7837E+00
     13.466  0.1326E-01  0.7849E+00
     13.559  0.2773E-02  0.7852E+00
     13.651  0.1173E-02  0.7853E+00
     13.744  0.4964E-02  0.7857E+00
     13.836  0.1990E-01  0.7876E+00
     13.929  0.5305E-01  0.7925E+00
     14.021  0.9355E-01  0.8011E+00
     14.114  0.1091E+00  0.8112E+00
     14.206  0.8420E-01  0.8190E+00
     14.299  0.4298E-01  0.8230E+00
     14.392  0.1450E-01  0.8243E+00
     14.484  0.3234E-02  0.8246E+00
     14.577  0.4775E-03  0.8247E+00
     14.669  0.6678E-04  0.8247E+00
     14.762  0.2112E-03  0.8247E+00
     14.854  0.1428E-02  0.8248E+00
     14.947  0.6679E-02  0.8255E+00
     15.039  0.2148E-01  0.8275E+00
     15.132  0.4806E-01  0.8319E+00
     15.224  0.7668E-01  0.8390E+00
     15.317  0.9399E-01  0.8477E+00
     15.410  0.1041E+00  0.8573E+00
     15.502  0.1171E+00  0.8682E+00
     15.595  0.1186E+00  0.8791E+00
     15.687  0.9078E-01  0.8875E+00
     15.780  0.5021E-01  0.8922E+00
     15.872  0.2764E-01  0.8947E+00
     15.965  0.3219E-01  0.8977E+00
     16.057  0.4883E-01  0.9022E+00
     16.150  0.5488E-01  0.9073E+00
     16.242  0.4451E-01  0.9114E+00
     16.335  0.3898E-01  0.9150E+00
     16.427  0.6523E-01  0.9211E+00
     16.520  0.1220E+00  0.9324E+00
     16.613  0.1678E+00  0.9479E+00
     16.705  0.1645E+00  0.9631E+00
     16.798  0.1273E+00  0.9749E+00
     16.890  0.9217E-01  0.9834E+00
     16.983  0.6669E-01  0.9896E+00
     17.075  0.4520E-01  0.9938E+00
     17.168  0.3032E-01  0.9966E+00
     17.260  0.2592E-01  0.9990E+00
     17.353  0.2847E-01  0.1002E+01
     17.445  0.2826E-01  0.1004E+01
     17.538  0.2034E-01  0.1006E+01
     17.631  0.9983E-02  0.1007E+01
     17.723  0.3832E-02  0.1007E+01
     17.816  0.4154E-02  0.1008E+01
     17.908  0.1287E-01  0.1009E+01
     18.001  0.3112E-01  0.1012E+01
     18.093  0.5012E-01  0.1016E+01
     18.186  0.5341E-01  0.1021E+01
     18.278  0.3765E-01  0.1025E+01
     18.371  0.1756E-01  0.1027E+01
     18.463  0.5496E-02  0.1027E+01
     18.556  0.1802E-02  0.1027E+01
     18.648  0.3981E-02  0.1028E+01
     18.741  0.1403E-01  0.1029E+01
     18.834  0.3479E-01  0.1032E+01
     18.926  0.6066E-01  0.1038E+01
     19.019  0.7912E-01  0.1045E+01
     19.111  0.8290E-01  0.1053E+01
     19.204  0.7115E-01  0.1059E+01
     19.296  0.4738E-01  0.1064E+01
     19.389  0.2277E-01  0.1066E+01
     19.481  0.7528E-02  0.1066E+01
     19.574  0.1672E-02  0.1067E+01
     19.666  0.2467E-03  0.1067E+01
     19.759  0.2407E-04  0.1067E+01
     19.852  0.1549E-05  0.1067E+01
     19.944  0.6567E-07  0.1067E+01
     20.037  0.1831E-08  0.1067E+01
     20.129  0.3354E-10  0.1067E+01
     20.222  0.4034E-12  0.1067E+01
     20.314  0.3199E-14  0.1067E+01
     20.407  0.0000E+00  0.1067E+01
     20.499  0.0000E+00  0.1067E+01
     20.592  0.0000E+00  0.1067E+01
     20.684  0.0000E+00  0.1067E+01
     20.777  0.0000E+00  0.1067E+01
     20.869  0.0000E+00  0.1067E+01
     20.962  0.0000E+00  0.1067E+01
     21.055  0.0000E+00  0.1067E+01
     21.147  0.0000E+00  0.1067E+01
