       N       E                     dE             d eps       ncg     rms          rms(c)
DAV:   1     0.318696506408E+01    0.31870E+01   -0.26365E+03   320   0.527E+02
DAV:   2    -0.108541687390E+02   -0.14041E+02   -0.13266E+02   504   0.692E+01
DAV:   3    -0.110099368291E+02   -0.15577E+00   -0.15577E+00   400   0.962E+00
DAV:   4    -0.110105133093E+02   -0.57648E-03   -0.57648E-03   544   0.603E-01
DAV:   5    -0.110105135158E+02   -0.20655E-06   -0.20631E-06   384   0.892E-03    0.302E+00
DAV:   6    -0.108848235362E+02    0.12569E+00   -0.82826E-02   416   0.150E+00    0.179E+00
DAV:   7    -0.108273831021E+02    0.57440E-01   -0.15204E-01   392   0.216E+00    0.155E-01
DAV:   8    -0.108287350905E+02   -0.13520E-02   -0.41811E-03   360   0.482E-01    0.247E-02
DAV:   9    -0.108288268777E+02   -0.91787E-04   -0.96690E-05   304   0.792E-02
   1 F= -.10828827E+02 E0= -.10828647E+02  d E =-.108288E+02
