       N       E                     dE             d eps       ncg     rms          rms(c)
DAV:   1    -0.120370036947E+02   -0.12037E+02   -0.20685E-06    48   0.133E-02    0.403E-04
DAV:   2    -0.120370036873E+02    0.74222E-08   -0.13694E-07    48   0.260E-03
   1 F= -.12037004E+02 E0= -.12008794E+02  d E =-.120370E+02
