unknown system                          
   1.00000000000000     
     0.000000    2.706956    2.706956
     2.706956    0.000000    2.706956
     2.706956    2.706956    0.000000
   Si
     2
Direct
  0.000000  0.000000  0.000000
  0.250000  0.250000  0.250000
 
   36   36   36
 -7.3964     -6.0368     -2.3172      2.8152      8.1551      12.620      15.531      16.717      16.447      15.260    
  13.741      12.198      10.762      9.5159      8.5002      7.7253      7.1847      6.8667      6.7619      6.8668    
  7.1847      7.7253      8.5002      9.5159      10.762      12.198      13.741      15.260      16.447      16.717    
  15.531      12.620      8.1549      2.8153     -2.3171     -6.0367     -6.0368     -3.3161      1.3878      6.8818    
  11.936      15.650      17.629      17.977      17.144      15.727      14.180      12.673      11.308      10.147    
  9.2193      8.5311      8.0782      7.8539      7.8539      8.0782      8.5311      9.2193      10.147      11.308    
  12.673      14.180      15.727      17.144      17.977      17.629      15.649      11.936      6.8818      1.3878    
 -3.3161     -6.0368     -2.3172      1.3878      6.4182      11.530      15.669      18.240      19.157      18.743    
  17.535      16.061      14.559      13.139      11.879      10.824      9.9969      9.4049      9.0497      8.9313    
  9.0498      9.4050      9.9969      10.824      11.879      13.139      14.559      16.061      17.535      18.743    
  19.157      18.239      15.669      11.530      6.4182      1.3878     -2.3172     -3.6828      2.8152      6.8818    
  11.530      15.667      18.547      19.905      19.908      18.995      17.681      16.269      14.876      13.585    
  12.452      11.515      10.793      10.303      10.055      10.055      10.303      10.793      11.515      12.452    
  13.585      14.876      16.270      17.681      18.995      19.908      19.905      18.547      15.667      11.530    
  6.8819      2.8153     0.43340     0.43338      8.1551      11.936      15.669      18.547      20.162      20.523    
  19.945      18.878      17.645      16.368      15.129      13.989      12.992      12.170      11.553      11.169    
  11.038      11.169      11.553      12.170      12.992      13.989      15.129      16.368      17.645      18.878    
  19.946      20.523      20.162      18.547      15.669      11.936      8.1551      5.3218      4.2689      5.3218    
  12.620      15.650      18.240      19.905      20.523      20.276      19.515      18.538      17.465      16.368    
  15.304      14.318      13.446      12.731      12.216      11.945      11.945      12.216      12.731      13.446    
  14.318      15.304      16.368      17.465      18.539      19.515      20.276      20.523      19.905      18.239    
  15.650      12.620      9.9070      8.2985      8.2986      9.9072      15.531      17.629      19.157      19.908    
  19.945      19.515      18.849      18.046      17.171      16.269      15.376      14.525      13.761      13.139    
  12.728      12.583      12.728      13.139      13.761      14.526      15.376      16.269      17.171      18.047    
  18.849      19.515      19.945      19.908      19.157      17.629      15.531      13.339      11.668      11.043    
  11.669      13.339      16.717      17.977      18.743      18.995      18.878      18.538      18.046      17.450    
  16.781      16.061      15.312      14.567      13.884      13.341      13.037      13.037      13.341      13.884    
  14.567      15.312      16.061      16.781      17.450      18.047      18.539      18.878      18.995      18.743    
  17.977      16.717      15.192      13.798      12.962      12.962      13.798      15.192      16.447      17.144    
  17.535      17.681      17.645      17.465      17.171      16.781      16.298      15.727      15.082      14.400    
  13.762      13.297      13.126      13.297      13.762      14.400      15.082      15.727      16.299      16.781    
  17.172      17.465      17.645      17.681      17.535      17.144      16.447      15.500      14.505      13.741    
  13.453      13.741      14.505      15.500      15.260      15.727      16.061      16.269      16.368      16.368    
  16.269      16.061      15.727      15.260      14.663      13.999      13.410      13.059      13.060      13.410    
  13.999      14.663      15.259      15.727      16.061      16.270      16.368      16.368      16.270      16.061    
  15.727      15.259      14.663      13.999      13.410      13.060      13.059      13.410      13.999      14.663    
  13.741      14.180      14.559      14.876      15.129      15.304      15.376      15.312      15.082      14.663    
  14.075      13.442      12.949      12.763      12.949      13.442      14.075      14.663      15.082      15.312    
  15.376      15.305      15.130      14.877      14.559      14.180      13.741      13.252      12.750      12.294    
  11.966      11.846      11.966      12.293      12.750      13.252      12.198      12.673      13.139      13.585    
  13.989      14.318      14.525      14.567      14.400      13.999      13.442      12.899      12.563      12.563    
  12.899      13.442      13.999      14.400      14.567      14.525      14.318      13.989      13.585      13.139    
  12.673      12.198      11.724      11.265      10.854      10.537      10.363      10.363      10.537      10.854    
  11.265      11.724      10.762      11.308      11.879      12.452      12.992      13.446      13.761      13.884    
  13.762      13.410      12.949      12.563      12.413      12.563      12.949      13.410      13.762      13.883    
  13.760      13.446      12.992      12.452      11.879      11.308      10.762      10.254      9.7924      9.3910    
  9.0719      8.8635      8.7908      8.8636      9.0719      9.3910      9.7924      10.254      9.5159      10.147    
  10.824      11.515      12.170      12.731      13.139      13.341      13.297      13.059      12.763      12.563    
  12.563      12.763      13.060      13.297      13.341      13.139      12.731      12.170      11.514      10.824    
  10.147      9.5159      8.9480      8.4516      8.0317      7.6966      7.4596      7.3359      7.3359      7.4596    
  7.6967      8.0318      8.4516      8.9481      8.5002      9.2193      9.9969      10.793      11.553      12.216    
  12.728      13.037      13.126      13.060      12.949      12.899      12.949      13.060      13.126      13.037    
  12.728      12.216      11.553      10.793      9.9969      9.2193      8.5002      7.8623      7.3145      6.8584    
  6.4946      6.2263      6.0605      6.0043      6.0606      6.2264      6.4947      6.8586      7.3146      7.8623    
  7.7253      8.5311      9.4049      10.303      11.169      11.945      12.583      13.037      13.297      13.410    
  13.442      13.442      13.410      13.297      13.037      12.583      11.945      11.169      10.303      9.4049    
  8.5311      7.7253      7.0141      6.4080      5.9069      5.5065      5.2039      4.9995      4.8960      4.8960    
  4.9996      5.2040      5.5066      5.9069      6.4079      7.0140      7.1847      8.0782      9.0497      10.055    
  11.038      11.945      12.728      13.341      13.762      13.999      14.075      13.999      13.762      13.341    
  12.728      11.945      11.038      10.055      9.0498      8.0782      7.1847      6.3978      5.7292      5.1780    
  4.7369      4.3982      4.1569      4.0117      3.9632      4.0117      4.1569      4.3982      4.7369      5.1779    
  5.7291      6.3978      6.8667      7.8539      8.9313      10.055      11.169      12.216      13.139      13.884    
  14.400      14.663      14.663      14.400      13.883      13.139      12.216      11.169      10.055      8.9315    
  7.8540      6.8667      5.9988      5.2624      4.6559      4.1698      3.7927      3.5153      3.3322      3.2409    
  3.2409      3.3321      3.5153      3.7926      4.1697      4.6558      5.2624      5.9989      6.7619      7.8539    
  9.0498      10.303      11.553      12.731      13.761      14.567      15.082      15.259      15.082      14.567    
  13.760      12.731      11.553      10.303      9.0498      7.8540      6.7620      5.8034      4.9905      4.3209    
  3.7835      3.3639      3.0490      2.8294      2.6994      2.6563      2.6993      2.8293      3.0489      3.3638    
  3.7835      4.3210      4.9905      5.8034      6.8668      8.0782      9.4050      10.793      12.170      13.446    
  14.526      15.312      15.727      15.727      15.312      14.525      13.446      12.170      10.793      9.4049    
  8.0782      6.8667      5.8034      4.9013      4.1576      3.5596      3.0903      2.7336      2.4763      2.3093    
  2.2271      2.2271      2.3093      2.4762      2.7335      3.0903      3.5596      4.1577      4.9014      5.8034    
  7.1847      8.5311      9.9969      11.515      12.992      14.318      15.376      16.061      16.299      16.061    
  15.376      14.318      12.992      11.514      9.9969      8.5311      7.1847      5.9988      4.9905      4.1576    
  3.4863      2.9572      2.5513      2.2520      2.0469      1.9272      1.8879      1.9272      2.0469      2.2520    
  2.5513      2.9573      3.4863      4.1577      4.9906      5.9989      7.7253      9.2193      10.824      12.452    
  13.989      15.304      16.269      16.781      16.781      16.270      15.305      13.989      12.452      10.824    
  9.2193      7.7253      6.3978      5.2624      4.3209      3.5596      2.9572      2.4916      2.1431      1.8957    
  1.7375      1.6604      1.6604      1.7375      1.8958      2.1432      2.4917      2.9572      3.5596      4.3210    
  5.2624      6.3978      8.5002      10.147      11.879      13.585      15.129      16.368      17.171      17.450    
  17.172      16.368      15.130      13.585      11.879      10.147      8.5002      7.0141      5.7292      4.6559    
  3.7835      3.0903      2.5513      2.1431      1.8463      1.6456      1.5298      1.4919      1.5298      1.6456    
  1.8464      2.1432      2.5513      3.0903      3.7835      4.6558      5.7291      7.0140      9.5159      11.308    
  13.139      14.876      16.368      17.465      18.047      18.047      17.465      16.368      14.877      13.139    
  11.308      9.5159      7.8623      6.4080      5.1780      4.1698      3.3639      2.7336      2.2520      1.8957    
  1.6456      1.4872      1.4105      1.4106      1.4872      1.6456      1.8958      2.2520      2.7335      3.3638    
  4.1697      5.1779      6.4079      7.8623      10.762      12.673      14.559      16.270      17.645      18.539    
  18.849      18.539      17.645      16.270      14.559      12.673      10.762      8.9480      7.3145      5.9069    
  4.7369      3.7927      3.0490      2.4763      2.0469      1.7375      1.5298      1.4105      1.3717      1.4106    
  1.5298      1.7375      2.0469      2.4762      3.0489      3.7926      4.7369      5.9069      7.3145      8.9481    
  12.198      14.180      16.061      17.681      18.878      19.515      19.515      18.878      17.681      16.061    
  14.180      12.198      10.254      8.4516      6.8584      5.5065      4.3982      3.5153      2.8294      2.3093    
  1.9272      1.6604      1.4919      1.4106      1.4106      1.4919      1.6604      1.9272      2.3093      2.8293    
  3.5153      4.3982      5.5066      6.8586      8.4517      10.254      13.741      15.727      17.535      18.995    
  19.946      20.276      19.945      18.995      17.535      15.727      13.741      11.724      9.7924      8.0317    
  6.4946      5.2039      4.1569      3.3322      2.6994      2.2271      1.8879      1.6604      1.5298      1.4872    
  1.5298      1.6604      1.8879      2.2271      2.6994      3.3322      4.1569      5.2040      6.4947      8.0318    
  9.7924      11.724      15.260      17.144      18.743      19.908      20.523      20.523      19.908      18.743    
  17.144      15.259      13.252      11.265      9.3910      7.6966      6.2263      4.9995      4.0117      3.2409    
  2.6563      2.2271      1.9272      1.7375      1.6456      1.6456      1.7375      1.9272      2.2271      2.6563    
  3.2409      4.0118      4.9996      6.2264      7.6966      9.3910      11.265      13.252      16.447      17.977    
  19.157      19.905      20.162      19.905      19.157      17.977      16.447      14.663      12.750      10.854    
  9.0719      7.4596      6.0605      4.8960      3.9632      3.2409      2.6993      2.3093      2.0469      1.8958    
  1.8464      1.8958      2.0469      2.3093      2.6994      3.2409      3.9632      4.8960      6.0605      7.4596    
  9.0719      10.854      12.750      14.663      16.717      17.629      18.239      18.547      18.547      18.239    
  17.629      16.717      15.500      13.999      12.294      10.537      8.8635      7.3359      6.0043      4.8960    
  4.0117      3.3321      2.8293      2.4762      2.2520      2.1432      2.1432      2.2520      2.4762      2.8293    
  3.3322      4.0118      4.8960      6.0043      7.3359      8.8635      10.537      12.293      13.999      15.500    
  15.531      15.649      15.669      15.667      15.669      15.650      15.531      15.192      14.505      13.410    
  11.966      10.363      8.7908      7.3359      6.0606      4.9996      4.1569      3.5153      3.0489      2.7335    
  2.5513      2.4917      2.5513      2.7335      3.0489      3.5153      4.1569      4.9996      6.0605      7.3359    
  8.7907      10.363      11.966      13.410      14.505      15.191      12.620      11.936      11.530      11.530    
  11.936      12.620      13.339      13.798      13.741      13.060      11.846      10.363      8.8636      7.4596    
  6.2264      5.2040      4.3982      3.7926      3.3638      3.0903      2.9573      2.9572      3.0903      3.3638    
  3.7926      4.3982      5.2040      6.2264      7.4596      8.8635      10.363      11.846      13.060      13.741    
  13.798      13.339      8.1549      6.8818      6.4182      6.8819      8.1551      9.9070      11.668      12.962    
  13.453      13.059      11.966      10.537      9.0719      7.6967      6.4947      5.5066      4.7369      4.1697    
  3.7835      3.5596      3.4863      3.5596      3.7835      4.1697      4.7369      5.5066      6.4947      7.6966    
  9.0719      10.537      11.966      13.060      13.453      12.962      11.668      9.9069      2.8153      1.3878    
  1.3878      2.8153      5.3218      8.2985      11.043      12.962      13.741      13.410      12.293      10.854    
  9.3910      8.0318      6.8586      5.9069      5.1779      4.6558      4.3210      4.1577      4.1577      4.3210    
  4.6558      5.1779      5.9069      6.8586      8.0318      9.3910      10.854      12.293      13.410      13.741    
  12.962      11.043      8.2985      5.3217     -2.3171     -3.3161     -2.3172     0.43340      4.2689      8.2986    
  11.669      13.798      14.505      13.999      12.750      11.265      9.7924      8.4516      7.3146      6.4079    
  5.7291      5.2624      4.9905      4.9014      4.9906      5.2624      5.7291      6.4079      7.3145      8.4517    
  9.7924      11.265      12.750      13.999      14.505      13.798      11.668      8.2985      4.2689     0.43352    
 -6.0367     -6.0368     -3.6828     0.43338      5.3218      9.9072      13.339      15.192      15.500      14.663    
  13.252      11.724      10.254      8.9481      7.8623      7.0140      6.3978      5.9989      5.8034      5.8034    
  5.9989      6.3978      7.0140      7.8623      8.9481      10.254      11.724      13.252      14.663      15.500    
  15.191      13.339      9.9069      5.3217     0.43352     -3.6826     -6.0368     -3.3161      1.3878      6.8818    
  11.936      15.650      17.629      17.977      17.144      15.727      14.180      12.673      11.308      10.147    
  9.2193      8.5311      8.0782      7.8539      7.8539      8.0782      8.5311      9.2193      10.147      11.308    
  12.673      14.180      15.727      17.144      17.977      17.629      15.649      11.936      6.8818      1.3878    
 -3.3161     -6.0368     -3.3161     0.56624      5.8409      11.210      15.577      18.319      19.346      18.984    
  17.786      16.298      14.778      13.339      12.059      10.986      10.144      9.5416      9.1800      9.0595    
  9.1801      9.5417      10.144      10.986      12.059      13.339      14.778      16.299      17.786      18.984    
  19.346      18.318      15.576      11.210      5.8408     0.56614     -3.3162     -4.7467      1.3878      5.8409    
  10.942      15.507      18.729      20.319      20.444      19.565      18.229      16.781      15.347      14.013    
  12.840      11.867      11.117      10.607      10.349      10.349      10.607      11.117      11.867      12.840    
  14.013      15.347      16.781      18.229      19.565      20.444      20.319      18.729      15.507      10.942    
  5.8408      1.3878     -1.2183     -1.2183      6.8818      11.210      15.507      18.867      20.826      21.386    
  20.879      19.790      18.507      17.171      15.869      14.665      13.607      12.733      12.075      11.665    
  11.526      11.665      12.075      12.733      13.607      14.665      15.869      17.171      18.507      19.790    
  20.879      21.386      20.826      18.867      15.507      11.210      6.8818      3.6460      2.4445      3.6459    
  11.936      15.577      18.729      20.826      21.712      21.578      20.810      19.780      18.639      17.465    
  16.318      15.246      14.295      13.511      12.945      12.647      12.647      12.945      13.511      14.295    
  15.246      16.318      17.464      18.639      19.780      20.810      21.578      21.712      20.826      18.730    
  15.577      11.936      8.6956      6.7784      6.7784      8.6956      15.650      18.319      20.319      21.386    
  21.578      21.165      20.457      19.593      18.639      17.645      16.650      15.694      14.830      14.121    
  13.647      13.479      13.647      14.121      14.830      15.694      16.650      17.644      18.638      19.592    
  20.457      21.165      21.578      21.386      20.319      18.319      15.650      12.896      10.809      10.029    
  10.809      12.896      17.629      19.346      20.444      20.879      20.810      20.457      19.924      19.262    
  18.507      17.681      16.811      15.934      15.109      14.445      14.069      14.069      14.445      15.109    
  15.934      16.811      17.681      18.507      19.262      19.924      20.457      20.810      20.879      20.444    
  19.346      17.629      15.599      13.764      12.670      12.670      13.764      15.599      17.977      18.984    
  19.565      19.790      19.780      19.593      19.262      18.806      18.229      17.535      16.729      15.845    
  15.005      14.391      14.164      14.391      15.006      15.845      16.729      17.535      18.229      18.806    
  19.262      19.593      19.780      19.790      19.565      18.984      17.977      16.643      15.260      14.207    
  13.812      14.207      15.260      16.643      17.144      17.786      18.229      18.507      18.639      18.639    
  18.507      18.229      17.786      17.144      16.296      15.345      14.502      14.002      14.002      14.502    
  15.345      16.296      17.144      17.786      18.229      18.507      18.639      18.639      18.507      18.229    
  17.786      17.144      16.296      15.345      14.502      14.002      14.002      14.502      15.345      16.296    
  15.727      16.298      16.781      17.171      17.465      17.645      17.681      17.535      17.144      16.447    
  15.500      14.505      13.741      13.453      13.741      14.505      15.500      16.447      17.144      17.535    
  17.681      17.645      17.465      17.172      16.781      16.299      15.727      15.082      14.400      13.762    
  13.297      13.126      13.297      13.762      14.400      15.082      14.180      14.778      15.347      15.869    
  16.318      16.650      16.811      16.729      16.296      15.500      14.494      13.553      12.984      12.984    
  13.553      14.494      15.500      16.295      16.729      16.811      16.650      16.318      15.870      15.347    
  14.778      14.180      13.568      12.968      12.424      12.002      11.768      11.768      12.002      12.424    
  12.967      13.568      12.673      13.339      14.013      14.665      15.246      15.694      15.934      15.845    
  15.345      14.505      13.553      12.801      12.514      12.801      13.553      14.505      15.345      15.845    
  15.934      15.694      15.246      14.665      14.013      13.339      12.673      12.037      11.449      10.930    
  10.515      10.242      10.146      10.242      10.515      10.930      11.449      12.037      11.308      12.059    
  12.840      13.607      14.295      14.830      15.109      15.005      14.502      13.741      12.984      12.514    
  12.514      12.984      13.741      14.502      15.005      15.109      14.829      14.295      13.607      12.840    
  12.059      11.308      10.617      10.001      9.4739      9.0495      8.7478      8.5900      8.5900      8.7479    
  9.0495      9.4739      10.001      10.617      10.147      10.986      11.867      12.733      13.511      14.121    
  14.445      14.391      14.002      13.453      12.984      12.801      12.984      13.453      14.002      14.391    
  14.445      14.121      13.511      12.732      11.867      10.986      10.147      9.3860      8.7217      8.1626    
  7.7135      7.3812      7.1755      7.1056      7.1755      7.3813      7.7136      8.1627      8.7218      9.3861    
  9.2193      10.144      11.117      12.075      12.945      13.647      14.069      14.164      14.002      13.741    
  13.553      13.553      13.741      14.002      14.164      14.069      13.647      12.945      12.075      11.117    
  10.144      9.2193      8.3845      7.6618      7.0584      6.5738      6.2067      5.9586      5.8330      5.8330    
  5.9587      6.2069      6.5739      7.0584      7.6618      8.3845      8.5311      9.5416      10.607      11.665    
  12.647      13.479      14.069      14.391      14.502      14.505      14.494      14.505      14.502      14.391    
  14.069      13.479      12.647      11.666      10.607      9.5416      8.5311      7.6209      6.8355      6.1818    
  5.6560      5.2517      4.9636      4.7904      4.7325      4.7905      4.9637      5.2517      5.6560      6.1817    
  6.8354      7.6209      8.0782      9.1800      10.349      11.526      12.647      13.647      14.445      15.006    
  15.345      15.500      15.500      15.345      15.005      14.445      13.647      12.647      11.526      10.349    
  9.1801      8.0782      7.0883      6.2356      5.5268      4.9560      4.5125      4.1861      3.9706      3.8632    
  3.8632      3.9706      4.1861      4.5124      4.9559      5.5267      6.2356      7.0883      7.8539      9.0595    
  10.349      11.665      12.945      14.121      15.109      15.845      16.296      16.447      16.295      15.845    
  15.109      14.121      12.945      11.666      10.349      9.0596      7.8539      6.7751      5.8474      5.0767    
  4.4555      3.9696      3.6047      3.3501      3.1992      3.1492      3.1992      3.3500      3.6046      3.9694    
  4.4554      5.0767      5.8474      6.7751      7.8539      9.1801      10.607      12.075      13.511      14.830    
  15.934      16.729      17.144      17.144      16.729      15.934      14.829      13.511      12.075      10.607    
  9.1801      7.8539      6.6719      5.6572      4.8146      4.1345      3.6002      3.1939      2.9004      2.7096    
  2.6155      2.6155      2.7096      2.9003      3.1938      3.6002      4.1346      4.8146      5.6572      6.6718    
  8.0782      9.5417      11.117      12.733      14.295      15.694      16.811      17.535      17.786      17.535    
  16.811      15.694      14.295      12.732      11.117      9.5416      8.0782      6.7751      5.6572      4.7286    
  3.9780      3.3862      2.9320      2.5968      2.3665      2.2318      2.1874      2.2317      2.3665      2.5968    
  2.9321      3.3863      3.9781      4.7286      5.6572      6.7751      8.5311      10.144      11.867      13.607    
  15.246      16.650      17.681      18.229      18.229      17.681      16.650      15.246      13.607      11.867    
  10.144      8.5311      7.0883      5.8474      4.8146      3.9780      3.3162      2.8047      2.4215      2.1489    
  1.9740      1.8885      1.8885      1.9740      2.1489      2.4216      2.8048      3.3162      3.9781      4.8146    
  5.8474      7.0884      9.2193      10.986      12.840      14.665      16.318      17.644      18.507      18.806    
  18.507      17.645      16.318      14.665      12.840      10.986      9.2193      7.6209      6.2356      5.0767    
  4.1345      3.3862      2.8047      2.3642      2.0433      1.8256      1.6996      1.6583      1.6996      1.8256    
  2.0434      2.3643      2.8048      3.3863      4.1345      5.0767      6.2356      7.6209      10.147      12.059    
  14.013      15.869      17.464      18.638      19.262      19.262      18.639      17.465      15.870      14.013    
  12.059      10.147      8.3845      6.8355      5.5268      4.4555      3.6002      2.9320      2.4215      2.0433    
  1.7772      1.6082      1.5262      1.5262      1.6082      1.7772      2.0434      2.4216      2.9321      3.6002    
  4.4554      5.5267      6.8354      8.3845      11.308      13.339      15.347      17.171      18.639      19.592    
  19.924      19.593      18.639      17.172      15.347      13.339      11.308      9.3860      7.6618      6.1818    
  4.9560      3.9696      3.1939      2.5968      2.1489      1.8256      1.6082      1.4831      1.4424      1.4832    
  1.6082      1.8256      2.1489      2.5968      3.1938      3.9695      4.9559      6.1817      7.6618      9.3861    
  12.673      14.778      16.781      18.507      19.780      20.457      20.457      19.780      18.507      16.781    
  14.778      12.673      10.617      8.7217      7.0584      5.6560      4.5125      3.6047      2.9004      2.3665    
  1.9740      1.6996      1.5262      1.4424      1.4424      1.5262      1.6996      1.9739      2.3665      2.9003    
  3.6046      4.5124      5.6560      7.0584      8.7218      10.617      14.180      16.299      18.229      19.790    
  20.810      21.165      20.810      19.790      18.229      16.299      14.180      12.037      10.001      8.1626    
  6.5738      5.2517      4.1861      3.3501      2.7096      2.2318      1.8885      1.6583      1.5262      1.4832    
  1.5262      1.6583      1.8885      2.2317      2.7096      3.3500      4.1861      5.2517      6.5739      8.1627    
  10.001      12.037      15.727      17.786      19.565      20.879      21.578      21.578      20.879      19.565    
  17.786      15.727      13.568      11.449      9.4739      7.7135      6.2067      4.9636      3.9706      3.1992    
  2.6155      2.1874      1.8885      1.6996      1.6082      1.6082      1.6996      1.8885      2.1873      2.6155    
  3.1992      3.9707      4.9637      6.2069      7.7135      9.4739      11.449      13.568      17.144      18.984    
  20.444      21.386      21.712      21.386      20.444      18.984      17.144      15.082      12.968      10.930    
  9.0495      7.3812      5.9586      4.7904      3.8632      3.1492      2.6155      2.2317      1.9740      1.8256    
  1.7772      1.8256      1.9739      2.2317      2.6155      3.1492      3.8633      4.7905      5.9587      7.3812    
  9.0495      10.930      12.967      15.082      17.977      19.346      20.319      20.826      20.826      20.319    
  19.346      17.977      16.296      14.400      12.424      10.515      8.7478      7.1755      5.8330      4.7325    
  3.8632      3.1992      2.7096      2.3665      2.1489      2.0434      2.0434      2.1489      2.3665      2.7096    
  3.1992      3.8633      4.7326      5.8330      7.1755      8.7478      10.515      12.424      14.400      16.295    
  17.629      18.318      18.729      18.867      18.730      18.319      17.629      16.643      15.345      13.762    
  12.002      10.242      8.5900      7.1056      5.8330      4.7905      3.9706      3.3500      2.9003      2.5968    
  2.4216      2.3643      2.4216      2.5968      2.9003      3.3500      3.9707      4.7905      5.8330      7.1056    
  8.5900      10.242      12.002      13.762      15.345      16.643      15.649      15.576      15.507      15.507    
  15.577      15.650      15.599      15.260      14.502      13.297      11.768      10.146      8.5900      7.1755    
  5.9587      4.9637      4.1861      3.6046      3.1938      2.9321      2.8048      2.8048      2.9321      3.1938    
  3.6046      4.1861      4.9637      5.9587      7.1755      8.5900      10.146      11.768      13.297      14.502    
  15.260      15.598      11.936      11.210      10.942      11.210      11.936      12.896      13.764      14.207    
  14.002      13.126      11.768      10.242      8.7479      7.3813      6.2069      5.2517      4.5124      3.9694    
  3.6002      3.3863      3.3162      3.3863      3.6002      3.9695      4.5124      5.2517      6.2069      7.3812    
  8.7478      10.242      11.768      13.126      14.002      14.207      13.764      12.896      6.8818      5.8408    