unknown system                          
   1.00000000000000     
     0.000000    2.706956    2.706956
     2.706956    0.000000    2.706956
     2.706956    2.706956    0.000000
   Si
     2
Direct
  0.000000  0.000000  0.000000
  0.250000  0.250000  0.250000
 
   36   36   36
 -.73963594351E+01 -.60367954398E+01 -.23171899766E+01 0.28152486574E+01 0.81551264668E+01
 0.12619971778E+02 0.15531373201E+02 0.16717298769E+02 0.16446743898E+02 0.15259529084E+02
 0.13740704509E+02 0.12198137640E+02 0.10762177478E+02 0.95159319952E+01 0.85002116276E+01
 0.77252908307E+01 0.71847079290E+01 0.68667398207E+01 0.67619272611E+01 0.68667711421E+01
 0.71847376819E+01 0.77252909187E+01 0.85001899758E+01 0.95159291841E+01 0.10762238143E+02
 0.12198271848E+02 0.13740851109E+02 0.15259557924E+02 0.16446532566E+02 0.16716843761E+02
 0.15530826079E+02 0.12619543814E+02 0.81549414125E+01 0.28152780589E+01 -.23170696013E+01
 -.60367039116E+01 -.60367954398E+01 -.33160829839E+01 0.13878310169E+01 0.68818331388E+01
 0.11936468162E+02 0.15649878041E+02 0.17629452605E+02 0.17977451574E+02 0.17144348743E+02
 0.15726859423E+02 0.14179885206E+02 0.12672956558E+02 0.11308055777E+02 0.10147223142E+02
 0.92193485979E+01 0.85311219450E+01 0.80782080640E+01 0.78538825913E+01 0.78539012523E+01
 0.80782432844E+01 0.85311363185E+01 0.92193306651E+01 0.10147200590E+02 0.11308076923E+02
 0.12673060418E+02 0.14180061247E+02 0.15727013971E+02 0.17144334497E+02 0.17977182180E+02
 0.17629003799E+02 0.15649448527E+02 0.11936215818E+02 0.68817595689E+01 0.13878314350E+01
 -.33160865807E+01 -.60368021210E+01 -.23171899766E+01 0.13878310169E+01 0.64181779188E+01
 0.11529973351E+02 0.15669274138E+02 0.18239584801E+02 0.19157169260E+02 0.18742741623E+02
 0.17534946778E+02 0.16061150956E+02 0.14558758085E+02 0.13139161533E+02 0.11879050315E+02
 0.10824223324E+02 0.99969229143E+01 0.94049339328E+01 0.90497323141E+01 0.89313444208E+01
 0.90497586578E+01 0.94049574300E+01 0.99969196514E+01 0.10824199638E+02 0.11879038019E+02
 0.13139201250E+02 0.14558877135E+02 0.16061327654E+02 0.17535090496E+02 0.18742740918E+02
 0.19156991031E+02 0.18239318772E+02 0.15669058628E+02 0.11529876230E+02 0.64181639368E+01
 0.13878338073E+01 -.23171943998E+01 -.36827718553E+01 0.28152486574E+01 0.68818331388E+01
 0.11529973351E+02 0.15667319971E+02 0.18547161270E+02 0.19904999954E+02 0.19907646150E+02
 0.18994672950E+02 0.17681269782E+02 0.16269468267E+02 0.14876419231E+02 0.13585118230E+02
 0.12452481248E+02 0.11514514098E+02 0.10793140336E+02 0.10302901869E+02 0.10054573249E+02
 0.10054584437E+02 0.10302924125E+02 0.10793153442E+02 0.11514510099E+02 0.12452469092E+02
 0.13585118461E+02 0.14876460559E+02 0.16269573488E+02 0.17681425549E+02 0.18994819196E+02
 0.19907713527E+02 0.19904966155E+02 0.18547067701E+02 0.15667236167E+02 0.11529947299E+02
 0.68818658704E+01 0.28153013537E+01 0.43339971468E+00 0.43337511227E+00 0.81551264668E+01
 0.11936468162E+02 0.15669274138E+02 0.18547161270E+02 0.20161761732E+02 0.20522973371E+02
 0.19945343637E+02 0.18877542430E+02 0.17644543142E+02 0.16367884599E+02 0.15129434053E+02
 0.13989391300E+02 0.12991633360E+02 0.12169792198E+02 0.11553132485E+02 0.11168784460E+02
 0.11037930225E+02 0.11168799933E+02 0.11553154166E+02 0.12169811905E+02 0.12991647365E+02
 0.13989397874E+02 0.15129440485E+02 0.16367916001E+02 0.17644628502E+02 0.18877683195E+02
 0.19945501809E+02 0.20523092910E+02 0.20161801642E+02 0.18547117837E+02 0.15669183754E+02
 0.11936385940E+02 0.81550857465E+01 0.53217580668E+01 0.42689196375E+01 0.53217660561E+01
 0.12619971778E+02 0.15649878041E+02 0.18239584801E+02 0.19904999954E+02 0.20522973371E+02
 0.20275569562E+02 0.19514516179E+02 0.18538473623E+02 0.17464559835E+02 0.16367884530E+02
 0.15304424186E+02 0.14317757851E+02 0.13446368865E+02 0.12730709632E+02 0.12215781958E+02
 0.11944655555E+02 0.11944667142E+02 0.12215811143E+02 0.12730747591E+02 0.13446410082E+02
 0.14317794092E+02 0.15304443572E+02 0.16367890986E+02 0.17464584385E+02 0.18538550364E+02
 0.19514644620E+02 0.20275709190E+02 0.20523068768E+02 0.19905005332E+02 0.18239477168E+02
 0.15649669794E+02 0.12619721097E+02 0.99069738087E+01 0.82985266583E+01 0.82986054239E+01
 0.99071784538E+01 0.15531373201E+02 0.17629452605E+02 0.19157169260E+02 0.19907646150E+02
 0.19945343637E+02 0.19514516179E+02 0.18848793573E+02 0.18046474693E+02 0.17171383104E+02
 0.16269467290E+02 0.15376113009E+02 0.14525440853E+02 0.13760533074E+02 0.13139319363E+02
 0.12727754371E+02 0.12582740132E+02 0.12727798362E+02 0.13139382596E+02 0.13760596272E+02
 0.14525500705E+02 0.15376162996E+02 0.16269495583E+02 0.17171398072E+02 0.18046509791E+02
 0.18848870450E+02 0.19514611990E+02 0.19945409861E+02 0.19907646525E+02 0.19157084068E+02
 0.17629266281E+02 0.15531091162E+02 0.13339012933E+02 0.11668464178E+02 0.11043041633E+02
 0.11668671774E+02 0.13339321529E+02 0.16717298769E+02 0.17977451574E+02 0.18742741623E+02
 0.18994672950E+02 0.18877542430E+02 0.18538473623E+02 0.18046474693E+02 0.17449984158E+02
 0.16781035457E+02 0.16061148787E+02 0.15311603303E+02 0.14567177477E+02 0.13883550685E+02
 0.13341221937E+02 0.13036793450E+02 0.13036837998E+02 0.13341322109E+02 0.13883646725E+02
 0.14567247187E+02 0.15311662419E+02 0.16061207205E+02 0.16781087891E+02 0.17450037871E+02
 0.18046547283E+02 0.18538557172E+02 0.18877591304E+02 0.18994647035E+02 0.18742646348E+02
 0.17977319640E+02 0.16717152871E+02 0.15191554851E+02 0.13797573686E+02 0.12962065276E+02
 0.12962114443E+02 0.13797696389E+02 0.15191703671E+02 0.16446743898E+02 0.17144348743E+02
 0.17534946778E+02 0.17681269782E+02 0.17644543142E+02 0.17464559835E+02 0.17171383104E+02
 0.16781035457E+02 0.16298467069E+02 0.15726858040E+02 0.15082451259E+02 0.14399905501E+02
 0.13761531286E+02 0.13297053887E+02 0.13126101032E+02 0.13297168245E+02 0.13761670714E+02
 0.14399990981E+02 0.15082485252E+02 0.15726893296E+02 0.16298536068E+02 0.16781136034E+02
 0.17171505768E+02 0.17464691711E+02 0.17644649662E+02 0.17681301799E+02 0.17534884531E+02
 0.17144237805E+02 0.16446667459E+02 0.15500475941E+02 0.14505069024E+02 0.13740634711E+02
 0.13453161678E+02 0.13740558217E+02 0.14504985245E+02 0.15500462648E+02 0.15259529084E+02
 0.15726859423E+02 0.16061150956E+02 0.16269468267E+02 0.16367884599E+02 0.16367884530E+02
 0.16269467290E+02 0.16061148787E+02 0.15726858040E+02 0.15259530091E+02 0.14662865270E+02
 0.13999102160E+02 0.13409562590E+02 0.13059439447E+02 0.13059514209E+02 0.13409722780E+02
 0.13999223016E+02 0.14662884976E+02 0.15259492499E+02 0.15726850776E+02 0.16061221004E+02
 0.16269611668E+02 0.16368066243E+02 0.16368065707E+02 0.16269611175E+02 0.16061221686E+02
 0.15726851557E+02 0.15259492261E+02 0.14662884729E+02 0.13999223668E+02 0.13409722967E+02
 0.13059512590E+02 0.13059437056E+02 0.13409560761E+02 0.13999100336E+02 0.14662863038E+02
 0.13740704509E+02 0.14179885206E+02 0.14558758085E+02 0.14876419231E+02 0.15129434053E+02
 0.15304424186E+02 0.15376113009E+02 0.15311603303E+02 0.15082451259E+02 0.14662865270E+02
 0.14074996555E+02 0.13442006167E+02 0.12949226179E+02 0.12762832823E+02 0.12949358137E+02
 0.13442161231E+02 0.14075057155E+02 0.14662803159E+02 0.15082338119E+02 0.15311542718E+02
 0.15376160322E+02 0.15304563697E+02 0.15129612229E+02 0.14876593969E+02 0.14558912837E+02
 0.14180008703E+02 0.13740786066E+02 0.13252335290E+02 0.12749665614E+02 0.12293506607E+02
 0.11966159134E+02 0.11846215153E+02 0.11966085976E+02 0.12293418182E+02 0.12749604068E+02
 0.13252283365E+02 0.12198137640E+02 0.12672956558E+02 0.13139161533E+02 0.13585118230E+02
 0.13989391300E+02 0.14317757851E+02 0.14525440853E+02 0.14567177477E+02 0.14399905501E+02
 0.13999102160E+02 0.13442006167E+02 0.12898674745E+02 0.12562952420E+02 0.12563018512E+02
 0.12898824178E+02 0.13442130215E+02 0.13999113207E+02 0.14399795244E+02 0.14567018650E+02
 0.14525332552E+02 0.14317753357E+02 0.13989470048E+02 0.13585222121E+02 0.13139259518E+02
 0.12673059075E+02 0.12198254421E+02 0.11723701091E+02 0.11265341903E+02 0.10854418256E+02
 0.10537207404E+02 0.10362635062E+02 0.10362634108E+02 0.10537199204E+02 0.10854385738E+02
 0.11265267650E+02 0.11723590579E+02 0.10762177478E+02 0.11308055777E+02 0.11879050315E+02
 0.12452481248E+02 0.12991633360E+02 0.13446368865E+02 0.13760533074E+02 0.13883550685E+02
 0.13761531286E+02 0.13409562590E+02 0.12949226179E+02 0.12562952420E+02 0.12412728989E+02
 0.12563047196E+02 0.12949361129E+02 0.13409659455E+02 0.13761530784E+02 0.13883445345E+02
 0.13760376515E+02 0.13446241098E+02 0.12991581792E+02 0.12452488773E+02 0.11879065243E+02
 0.11308054274E+02 0.10762179533E+02 0.10253945468E+02 0.97924428342E+01 0.93910347967E+01
 0.90719202302E+01 0.88635421602E+01 0.87907737443E+01 0.88635636131E+01 0.90719333845E+01
 0.93910153401E+01 0.97924022785E+01 0.10253917476E+02 0.95159319952E+01 0.10147223142E+02
 0.10824223324E+02 0.11514514098E+02 0.12169792198E+02 0.12730709632E+02 0.13139319363E+02
 0.13341221937E+02 0.13297053887E+02 0.13059439447E+02 0.12762832823E+02 0.12563018512E+02
 0.12563047196E+02 0.12762909770E+02 0.13059537718E+02 0.13297134180E+02 0.13341243443E+02
 0.13139263509E+02 0.12730599431E+02 0.12169681452E+02 0.11514448021E+02 0.10824201307E+02
 0.10147206778E+02 0.95158870993E+01 0.89479865666E+01 0.84515575026E+01 0.80317180288E+01
 0.76966145721E+01 0.74595807725E+01 0.73358807693E+01 0.73358992129E+01 0.74596287101E+01
 0.76966791742E+01 0.80317936523E+01 0.84516401387E+01 0.89480607765E+01 0.85002116276E+01
 0.92193485979E+01 0.99969229143E+01 0.10793140336E+02 0.11553132485E+02 0.12215781958E+02
 0.12727754371E+02 0.13036793450E+02 0.13126101032E+02 0.13059514209E+02 0.12949358137E+02
 0.12898824178E+02 0.12949361129E+02 0.13059537718E+02 0.13126158830E+02 0.13036874473E+02
 0.12727822748E+02 0.12215800595E+02 0.11553089701E+02 0.10793065891E+02 0.99968683591E+01
 0.92193446816E+01 0.85002381929E+01 0.78622670182E+01 0.73144863904E+01 0.68584464904E+01
 0.64945624387E+01 0.62262937649E+01 0.60605075921E+01 0.60042661890E+01 0.60605699129E+01
 0.62264110210E+01 0.64947085879E+01 0.68585747479E+01 0.73145528408E+01 0.78622658655E+01
 0.77252908307E+01 0.85311219450E+01 0.94049339328E+01 0.10302901869E+02 0.11168784460E+02
 0.11944655555E+02 0.12582740132E+02 0.13036837998E+02 0.13297168245E+02 0.13409722780E+02
 0.13442161231E+02 0.13442130215E+02 0.13409659455E+02 0.13297134180E+02 0.13036874473E+02
 0.12582841894E+02 0.11944780798E+02 0.11168876874E+02 0.10302922308E+02 0.94048925302E+01
 0.85310802510E+01 0.77253131168E+01 0.70141173569E+01 0.64080083417E+01 0.59068665628E+01
 0.55065151273E+01 0.52039257181E+01 0.49994643449E+01 0.48959717701E+01 0.48960096685E+01
 0.49995655812E+01 0.52040483810E+01 0.55065939935E+01 0.59068537875E+01 0.64079199077E+01
 0.70140283988E+01 0.71847079290E+01 0.80782080640E+01 0.90497323141E+01 0.10054573249E+02
 0.11037930225E+02 0.11944667142E+02 0.12727798362E+02 0.13341322109E+02 0.13761670714E+02
 0.13999223016E+02 0.14075057155E+02 0.13999113207E+02 0.13761530784E+02 0.13341243443E+02
 0.12727822748E+02 0.11944780798E+02 0.11038085851E+02 0.10054709248E+02 0.90497950987E+01
 0.80781907868E+01 0.71846687622E+01 0.63977766738E+01 0.57292266875E+01 0.51780444575E+01
 0.47369468744E+01 0.43981696640E+01 0.41568795867E+01 0.40116990930E+01 0.39631658431E+01
 0.40117381856E+01 0.41569185965E+01 0.43981541615E+01 0.47368512965E+01 0.51779054376E+01
 0.57291226675E+01 0.63977581007E+01 0.68667398207E+01 0.78538825913E+01 0.89313444208E+01
 0.10054584437E+02 0.11168799933E+02 0.12215811143E+02 0.13139382596E+02 0.13883646725E+02
 0.14399990981E+02 0.14662884976E+02 0.14662803159E+02 0.14399795244E+02 0.13883445345E+02
 0.13139263509E+02 0.12215800595E+02 0.11168876874E+02 0.10054709248E+02 0.89314684877E+01
 0.78539562476E+01 0.68667409076E+01 0.59988292734E+01 0.52623932013E+01 0.46558825332E+01
 0.41698109637E+01 0.37927212463E+01 0.35153432978E+01 0.33321659873E+01 0.32408755516E+01
 0.32408698399E+01 0.33321342426E+01 0.35152617396E+01 0.37925956711E+01 0.41696898528E+01
 0.46558227874E+01 0.52624072517E+01 0.59988694589E+01 0.67619272611E+01 0.78539012523E+01
 0.90497586578E+01 0.10302924125E+02 0.11553154166E+02 0.12730747591E+02 0.13760596272E+02
 0.14567247187E+02 0.15082485252E+02 0.15259492499E+02 0.15082338119E+02 0.14567018650E+02
 0.13760376515E+02 0.12730599431E+02 0.11553089701E+02 0.10302922308E+02 0.90497950987E+01
 0.78539562476E+01 0.67619739066E+01 0.58034395359E+01 0.49905033353E+01 0.43209194754E+01
 0.37834846507E+01 0.33638523461E+01 0.30489781015E+01 0.28293793790E+01 0.26993948033E+01
 0.26563072479E+01 0.26993470779E+01 0.28292906255E+01 0.30488779604E+01 0.33637889986E+01
 0.37834871401E+01 0.43209666857E+01 0.49905417685E+01 0.58034323167E+01 0.68667711421E+01
 0.80782432844E+01 0.94049574300E+01 0.10793153442E+02 0.12169811905E+02 0.13446410082E+02
 0.14525500705E+02 0.15311662419E+02 0.15726893296E+02 0.15726850776E+02 0.15311542718E+02
 0.14525332552E+02 0.13446241098E+02 0.12169681452E+02 0.10793065891E+02 0.94048925302E+01
 0.80781907868E+01 0.68667409076E+01 0.58034395359E+01 0.49013452505E+01 0.41576498695E+01
 0.35595589104E+01 0.30902716856E+01 0.27335525799E+01 0.24762976991E+01 0.23093301185E+01
 0.22271066186E+01 0.22270824813E+01 0.23092720041E+01 0.24762434089E+01 0.27335422601E+01
 0.30903146143E+01 0.35596219511E+01 0.41576900810E+01 0.49013541301E+01 0.58034458351E+01
 0.71847376819E+01 0.85311363185E+01 0.99969196514E+01 0.11514510099E+02 0.12991647365E+02
 0.14317794092E+02 0.15376162996E+02 0.16061207205E+02 0.16298536068E+02 0.16061221004E+02
 0.15376160322E+02 0.14317753357E+02 0.12991581792E+02 0.11514448021E+02 0.99968683591E+01
 0.85310802510E+01 0.71846687622E+01 0.59988292734E+01 0.49905033353E+01 0.41576498695E+01
 0.34862607182E+01 0.29571929862E+01 0.25512527501E+01 0.22520270254E+01 0.20469222298E+01
 0.19272285127E+01 0.18878736548E+01 0.19272058388E+01 0.20469055334E+01 0.22520460718E+01
 0.25513090464E+01 0.29572591295E+01 0.34863112678E+01 0.41576882082E+01 0.49905518851E+01
 0.59988961548E+01 0.77252909187E+01 0.92193306651E+01 0.10824199638E+02 0.12452469092E+02
 0.13989397874E+02 0.15304443572E+02 0.16269495583E+02 0.16781087891E+02 0.16781136034E+02
 0.16269611668E+02 0.15304563697E+02 0.13989470048E+02 0.12452488773E+02 0.10824201307E+02
 0.92193446816E+01 0.77253131168E+01 0.63977766738E+01 0.52623932013E+01 0.43209194754E+01
 0.35595589104E+01 0.29571929862E+01 0.24916253599E+01 0.21431203887E+01 0.18957313347E+01
 0.17374986549E+01 0.16604018734E+01 0.16604002760E+01 0.17375042682E+01 0.18957610268E+01
 0.21431744170E+01 0.24916872769E+01 0.29572497625E+01 0.35596101695E+01 0.43209639770E+01
 0.52624179142E+01 0.63977715774E+01 0.85001899758E+01 0.10147200590E+02 0.11879038019E+02
 0.13585118461E+02 0.15129440485E+02 0.16367890986E+02 0.17171398072E+02 0.17450037871E+02
 0.17171505768E+02 0.16368066243E+02 0.15129612229E+02 0.13585222121E+02 0.11879065243E+02
 0.10147206778E+02 0.85002381929E+01 0.70141173569E+01 0.57292266875E+01 0.46558825332E+01
 0.37834846507E+01 0.30902716856E+01 0.25512527501E+01 0.21431203887E+01 0.18463490674E+01
 0.16456182701E+01 0.15297721762E+01 0.14919387815E+01 0.15297864799E+01 0.16456490100E+01
 0.18463925042E+01 0.21431666063E+01 0.25512933383E+01 0.30902979735E+01 0.37834782294E+01
 0.46558234464E+01 0.57291238738E+01 0.70140186424E+01 0.95159291841E+01 0.11308076923E+02
 0.13139201250E+02 0.14876460559E+02 0.16367916001E+02 0.17464584385E+02 0.18046509791E+02
 0.18046547283E+02 0.17464691711E+02 0.16368065707E+02 0.14876593969E+02 0.13139259518E+02
 0.11308054274E+02 0.95158870993E+01 0.78622670182E+01 0.64080083417E+01 0.51780444575E+01
 0.41698109637E+01 0.33638523461E+01 0.27335525799E+01 0.22520270254E+01 0.18957313347E+01
 0.16456182701E+01 0.14871984900E+01 0.14105459804E+01 0.14105563272E+01 0.14872242810E+01
 0.16456472462E+01 0.18957518749E+01 0.22520310801E+01 0.27335295645E+01 0.33637858186E+01
 0.41696948775E+01 0.51779083147E+01 0.64079118891E+01 0.78622517926E+01 0.10762238143E+02
 0.12673060418E+02 0.14558877135E+02 0.16269573488E+02 0.17644628502E+02 0.18538550364E+02
 0.18848870450E+02 0.18538557172E+02 0.17644649662E+02 0.16269611175E+02 0.14558912837E+02
 0.12673059075E+02 0.10762179533E+02 0.89479865666E+01 0.73144863904E+01 0.59068665628E+01
 0.47369468744E+01 0.37927212463E+01 0.30489781015E+01 0.24762976991E+01 0.20469222298E+01
 0.17374986549E+01 0.15297721762E+01 0.14105459804E+01 0.13717264876E+01 0.14105621946E+01
 0.15297889021E+01 0.17374983595E+01 0.20468949427E+01 0.24762380524E+01 0.30488852563E+01
 0.37926120240E+01 0.47368635507E+01 0.59068531895E+01 0.73145481399E+01 0.89480770910E+01
 0.12198271848E+02 0.14180061247E+02 0.16061327654E+02 0.17681425549E+02 0.18877683195E+02
 0.19514644620E+02 0.19514611990E+02 0.18877591304E+02 0.17681301799E+02 0.16061221686E+02
 0.14180008703E+02 0.12198254421E+02 0.10253945468E+02 0.84515575026E+01 0.68584464904E+01
 0.55065151273E+01 0.43981696640E+01 0.35153432978E+01 0.28293793790E+01 0.23093301185E+01
 0.19272285127E+01 0.16604018734E+01 0.14919387815E+01 0.14105563272E+01 0.14105621946E+01
 0.14919474517E+01 0.16603953969E+01 0.19271946584E+01 0.23092687928E+01 0.28293046489E+01
 0.35152871451E+01 0.43981728144E+01 0.55065939342E+01 0.68585659926E+01 0.84516531744E+01
 0.10253985483E+02 0.13740851109E+02 0.15727013971E+02 0.17535090496E+02 0.18994819196E+02
 0.19945501809E+02 0.20275709190E+02 0.19945409861E+02 0.18994647035E+02 0.17534884531E+02
 0.15726851557E+02 0.13740786066E+02 0.11723701091E+02 0.97924428342E+01 0.80317180288E+01
 0.64945624387E+01 0.52039257181E+01 0.41568795867E+01 0.33321659873E+01 0.26993948033E+01
 0.22271066186E+01 0.18878736548E+01 0.16604002760E+01 0.15297864799E+01 0.14872242810E+01
 0.15297889021E+01 0.16603953969E+01 0.18878516461E+01 0.22270686400E+01 0.26993593914E+01
 0.33321659072E+01 0.41569423439E+01 0.52040430181E+01 0.64946806790E+01 0.80317761955E+01
 0.97924342315E+01 0.11723689814E+02 0.15259557924E+02 0.17144334497E+02 0.18742740918E+02
 0.19907713527E+02 0.20523092910E+02 0.20523068768E+02 0.19907646525E+02 0.18742646348E+02
 0.17144237805E+02 0.15259492261E+02 0.13252335290E+02 0.11265341903E+02 0.93910347967E+01
 0.76966145721E+01 0.62262937649E+01 0.49994643449E+01 0.40116990930E+01 0.32408755516E+01
 0.26563072479E+01 0.22270824813E+01 0.19272058388E+01 0.17375042682E+01 0.16456490100E+01
 0.16456472462E+01 0.17374983595E+01 0.19271946584E+01 0.22270686400E+01 0.26563042529E+01
 0.32409059962E+01 0.40117750947E+01 0.49995645634E+01 0.62263689614E+01 0.76966269167E+01
 0.93909956829E+01 0.11265302746E+02 0.13252343928E+02 0.16446532566E+02 0.17977182180E+02
 0.19156991031E+02 0.19904966155E+02 0.20161801642E+02 0.19905005332E+02 0.19157084068E+02
 0.17977319640E+02 0.16446667459E+02 0.14662884729E+02 0.12749665614E+02 0.10854418256E+02
 0.90719202302E+01 0.74595807725E+01 0.60605075921E+01 0.48959717701E+01 0.39631658431E+01
 0.32408698399E+01 0.26993470779E+01 0.23092720041E+01 0.20469055334E+01 0.18957610268E+01
 0.18463925042E+01 0.18957518749E+01 0.20468949427E+01 0.23092687928E+01 0.26993593914E+01
 0.32409059962E+01 0.39632251022E+01 0.48960319934E+01 0.60605361122E+01 0.74595661318E+01
 0.90718843504E+01 0.10854383316E+02 0.12749620265E+02 0.14662795836E+02 0.16716843761E+02
 0.17629003799E+02 0.18239318772E+02 0.18547067701E+02 0.18547117837E+02 0.18239477168E+02
 0.17629266281E+02 0.16717152871E+02 0.15500475941E+02 0.13999223668E+02 0.12293506607E+02
 0.10537207404E+02 0.88635421602E+01 0.73358807693E+01 0.60042661890E+01 0.48960096685E+01
 0.40117381856E+01 0.33321342426E+01 0.28292906255E+01 0.24762434089E+01 0.22520460718E+01
 0.21431744170E+01 0.21431666063E+01 0.22520310801E+01 0.24762380524E+01 0.28293046489E+01
 0.33321659072E+01 0.40117750947E+01 0.48960319934E+01 0.60042586030E+01 0.73358518300E+01
 0.88635189453E+01 0.10537195878E+02 0.12293461256E+02 0.13999078442E+02 0.15500216393E+02
 0.15530826079E+02 0.15649448527E+02 0.15669058628E+02 0.15667236167E+02 0.15669183754E+02
 0.15649669794E+02 0.15531091162E+02 0.15191554851E+02 0.14505069024E+02 0.13409722967E+02
 0.11966159134E+02 0.10362635062E+02 0.87907737443E+01 0.73358992129E+01 0.60605699129E+01
 0.49995655812E+01 0.41569185965E+01 0.35152617396E+01 0.30488779604E+01 0.27335422601E+01
 0.25513090464E+01 0.24916872769E+01 0.25512933383E+01 0.27335295645E+01 0.30488852563E+01
 0.35152871451E+01 0.41569423439E+01 0.49995645634E+01 0.60605361122E+01 0.73358518300E+01
 0.87907467046E+01 0.10362640353E+02 0.11966161030E+02 0.13409660003E+02 0.14504906325E+02
 0.15191311545E+02 0.12619543814E+02 0.11936215818E+02 0.11529876230E+02 0.11529947299E+02
 0.11936385940E+02 0.12619721097E+02 0.13339012933E+02 0.13797573686E+02 0.13740634711E+02
 0.13059512590E+02 0.11846215153E+02 0.10362634108E+02 0.88635636131E+01 0.74596287101E+01
 0.62264110210E+01 0.52040483810E+01 0.43981541615E+01 0.37925956711E+01 0.33637889986E+01
 0.30903146143E+01 0.29572591295E+01 0.29572497625E+01 0.30902979735E+01 0.33637858186E+01
 0.37926120240E+01 0.43981728144E+01 0.52040430181E+01 0.62263689614E+01 0.74595661318E+01
 0.88635189453E+01 0.10362640353E+02 0.11846272043E+02 0.13059586146E+02 0.13740678561E+02
 0.13797548806E+02 0.13338901277E+02 0.81549414125E+01 0.68817595689E+01 0.64181639368E+01
 0.68818658704E+01 0.81550857465E+01 0.99069738087E+01 0.11668464178E+02 0.12962065276E+02
 0.13453161678E+02 0.13059437056E+02 0.11966085976E+02 0.10537199204E+02 0.90719333845E+01
 0.76966791742E+01 0.64947085879E+01 0.55065939935E+01 0.47368512965E+01 0.41696898528E+01
 0.37834871401E+01 0.35596219511E+01 0.34863112678E+01 0.35596101695E+01 0.37834782294E+01
 0.41696948775E+01 0.47368635507E+01 0.55065939342E+01 0.64946806790E+01 0.76966269167E+01
 0.90718843504E+01 0.10537195878E+02 0.11966161030E+02 0.13059586146E+02 0.13453335154E+02
 0.12962189844E+02 0.11668483110E+02 0.99068823477E+01 0.28152780589E+01 0.13878314350E+01
 0.13878338073E+01 0.28153013537E+01 0.53217580668E+01 0.82985266583E+01 0.11043041633E+02
 0.12962114443E+02 0.13740558217E+02 0.13409560761E+02 0.12293418182E+02 0.10854385738E+02
 0.93910153401E+01 0.80317936523E+01 0.68585747479E+01 0.59068537875E+01 0.51779054376E+01
 0.46558227874E+01 0.43209666857E+01 0.41576900810E+01 0.41576882082E+01 0.43209639770E+01
 0.46558234464E+01 0.51779083147E+01 0.59068531895E+01 0.68585659926E+01 0.80317761955E+01
 0.93909956829E+01 0.10854383316E+02 0.12293461256E+02 0.13409660003E+02 0.13740678561E+02
 0.12962189844E+02 0.11043033183E+02 0.82984617412E+01 0.53216984565E+01 -.23170696013E+01
 -.33160865807E+01 -.23171943998E+01 0.43339971468E+00 0.42689196375E+01 0.82986054239E+01
 0.11668671774E+02 0.13797696389E+02 0.14504985245E+02 0.13999100336E+02 0.12749604068E+02
 0.11265267650E+02 0.97924022785E+01 0.84516401387E+01 0.73145528408E+01 0.64079199077E+01
 0.57291226675E+01 0.52624072517E+01 0.49905417685E+01 0.49013541301E+01 0.49905518851E+01
 0.52624179142E+01 0.57291238738E+01 0.64079118891E+01 0.73145481399E+01 0.84516531744E+01
 0.97924342315E+01 0.11265302746E+02 0.12749620265E+02 0.13999078442E+02 0.14504906325E+02
 0.13797548806E+02 0.11668483110E+02 0.82984617412E+01 0.42689104969E+01 0.43351942827E+00
 -.60367039116E+01 -.60368021210E+01 -.36827718553E+01 0.43337511227E+00 0.53217660561E+01
 0.99071784538E+01 0.13339321529E+02 0.15191703671E+02 0.15500462648E+02 0.14662863038E+02
 0.13252283365E+02 0.11723590579E+02 0.10253917476E+02 0.89480607765E+01 0.78622658655E+01
 0.70140283988E+01 0.63977581007E+01 0.59988694589E+01 0.58034323167E+01 0.58034458351E+01
 0.59988961548E+01 0.63977715774E+01 0.70140186424E+01 0.78622517926E+01 0.89480770910E+01
 0.10253985483E+02 0.11723689814E+02 0.13252343928E+02 0.14662795836E+02 0.15500216393E+02
 0.15191311545E+02 0.13338901277E+02 0.99068823477E+01 0.53216984565E+01 0.43351942827E+00
 -.36825596617E+01 -.60367951434E+01 -.33160850850E+01 0.13878288387E+01 0.68818324218E+01
 0.11936467858E+02 0.15649877676E+02 0.17629453563E+02 0.17977453774E+02 0.17144349649E+02
 0.15726857954E+02 0.14179883272E+02 0.12672955387E+02 0.11308054213E+02 0.10147220913E+02
 0.92193475947E+01 0.85311227417E+01 0.80782086518E+01 0.78538820418E+01 0.78539011875E+01
 0.80782443508E+01 0.85311367574E+01 0.92193298098E+01 0.10147200238E+02 0.11308077788E+02
 0.12673060724E+02 0.14180060272E+02 0.15727013474E+02 0.17144335211E+02 0.17977182442E+02
 0.17629003087E+02 0.15649448819E+02 0.11936217969E+02 0.68817617908E+01 0.13878327415E+01
 -.33160849535E+01 -.60368000762E+01 -.33160850850E+01 0.56623831070E+00 0.58408624885E+01
 0.11210241583E+02 0.15576657906E+02 0.18318718634E+02 0.19345840534E+02 0.18984400840E+02
 0.17785775942E+02 0.16298467119E+02 0.14778121047E+02 0.13338635111E+02 0.12058778742E+02
 0.10986141865E+02 0.10144257537E+02 0.95416338014E+01 0.91800251320E+01 0.90595056891E+01
 0.91800555614E+01 0.95416589341E+01 0.10144249662E+02 0.10986110649E+02 0.12058761141E+02
 0.13338674674E+02 0.14778249066E+02 0.16298666319E+02 0.17785952014E+02 0.18984427487E+02
 0.19345670522E+02 0.18318439561E+02 0.15576411018E+02 0.11210089076E+02 0.58407622156E+01
 0.56613956064E+00 -.33161612732E+01 -.47467327397E+01 0.13878288387E+01 0.58408624885E+01
 0.10941958442E+02 0.15507419032E+02 0.18729468555E+02 0.20318518076E+02 0.20444125485E+02
 0.19565276594E+02 0.18228927217E+02 0.16781035853E+02 0.15347069558E+02 0.14013351913E+02
 0.12840191598E+02 0.11866655634E+02 0.11116991701E+02 0.10607230832E+02 0.10348967724E+02
 0.10348985069E+02 0.10607262216E+02 0.11117000570E+02 0.11866629784E+02 0.12840149364E+02
 0.14013324037E+02 0.15347090979E+02 0.16781139083E+02 0.18229113843E+02 0.19565492639E+02
 0.20444286907E+02 0.20318573241E+02 0.18729430489E+02 0.15507337736E+02 0.10941874026E+02
 0.58407914250E+01 0.13877793433E+01 -.12183351816E+01 -.12183169118E+01 0.68818324218E+01
 0.11210241583E+02 0.15507419032E+02 0.18866638356E+02 0.20826253294E+02 0.21386003633E+02
 0.20878989562E+02 0.19789657014E+02 0.18506633127E+02 0.17171383478E+02 0.15869436862E+02
 0.14665111918E+02 0.13606817434E+02 0.12732566853E+02 0.12075402943E+02 0.11665429591E+02
 0.11525806115E+02 0.11665461069E+02 0.12075433545E+02 0.12732566767E+02 0.13606783053E+02
 0.14665057292E+02 0.15869382652E+02 0.17171362717E+02 0.18506692737E+02 0.19789831173E+02
 0.20879263113E+02 0.21386302103E+02 0.20826478965E+02 0.18866733240E+02 0.15507406616E+02
 0.11210200195E+02 0.68818204113E+01 0.36459514589E+01 0.24444552055E+01 0.36459401377E+01
 0.11936467858E+02 0.15576657906E+02 0.18729468555E+02 0.20826253294E+02 0.21712000701E+02
 0.21577800932E+02 0.20809693190E+02 0.19779925576E+02 0.18638598142E+02 0.17464559806E+02
 0.16317656753E+02 0.15246401240E+02 0.14295192169E+02 0.13510983990E+02 0.12945370657E+02
 0.12647173800E+02 0.12647195423E+02 0.12945417015E+02 0.13511018484E+02 0.14295190915E+02
 0.15246360518E+02 0.16317583776E+02 0.17464473442E+02 0.18638540746E+02 0.19779959368E+02
 0.20809865456E+02 0.21578098533E+02 0.21712332912E+02 0.20826494468E+02 0.18729542044E+02
 0.15576590942E+02 0.11936356178E+02 0.86955711876E+01 0.67783648119E+01 0.67783899737E+01
 0.86956499677E+01 0.15649877676E+02 0.18318718634E+02 0.20318518076E+02 0.21386003633E+02
 0.21577800932E+02 0.21164907748E+02 0.20457313876E+02 0.19592544404E+02 0.18638598080E+02
 0.17644542996E+02 0.16649780114E+02 0.15694335668E+02 0.14829540810E+02 0.14121235813E+02
 0.13647080397E+02 0.13479167979E+02 0.13647134653E+02 0.14121305271E+02 0.14829583676E+02
 0.15694332775E+02 0.16649729096E+02 0.17644450648E+02 0.18638491252E+02 0.19592475309E+02
 0.20457340976E+02 0.21165057386E+02 0.21578040042E+02 0.21386241089E+02 0.20318644744E+02
 0.18318669864E+02 0.15649679206E+02 0.12895799751E+02 0.10808738761E+02 0.10029002159E+02
 0.10808900008E+02 0.12896042241E+02 0.17629453563E+02 0.19345840534E+02 0.20444125485E+02
 0.20878989562E+02 0.20809693190E+02 0.20457313876E+02 0.19923688808E+02 0.19262000218E+02
 0.18506633893E+02 0.17681269944E+02 0.16811154265E+02 0.15934385154E+02 0.15109383543E+02
 0.14444810241E+02 0.14069037205E+02 0.14069082732E+02 0.14444913444E+02 0.15109478681E+02
 0.15934430179E+02 0.16811144389E+02 0.17681213647E+02 0.18506543099E+02 0.19261905824E+02
 0.19923635861E+02 0.20457332988E+02 0.20809777598E+02 0.20879099725E+02 0.20444204671E+02
 0.19345831238E+02 0.17629325587E+02 0.15598640272E+02 0.13763716903E+02 0.12669522123E+02
 0.12669607791E+02 0.13763923785E+02 0.15598856335E+02 0.17977453774E+02 0.18984400840E+02
 0.19565276594E+02 0.19789657014E+02 0.19779925576E+02 0.19592544404E+02 0.19262000218E+02
 0.18805823568E+02 0.18228929358E+02 0.17534947102E+02 0.16729060578E+02 0.15845211982E+02
 0.15005494049E+02 0.14390798491E+02 0.14164085781E+02 0.14390906781E+02 0.15005632154E+02
 0.15845301290E+02 0.16729082151E+02 0.17534926246E+02 0.18228891228E+02 0.18805779604E+02
 0.19261965976E+02 0.19592535513E+02 0.19779939549E+02 0.19789670540E+02 0.19565267634E+02
 0.18984366842E+02 0.17977406382E+02 0.16643377235E+02 0.15260421660E+02 0.14207014978E+02
 0.13812339684E+02 0.14207034869E+02 0.15260457791E+02 0.16643423682E+02 0.17144349649E+02
 0.17785775942E+02 0.18228927217E+02 0.18506633127E+02 0.18638598142E+02 0.18638598080E+02
 0.18506633893E+02 0.18228929358E+02 0.17785777498E+02 0.17144348958E+02 0.16295514790E+02
 0.15344888528E+02 0.14501824980E+02 0.14002216232E+02 0.14002277647E+02 0.14501958910E+02
 0.15344995340E+02 0.16295538748E+02 0.17144313506E+02 0.17785742033E+02 0.18228932124E+02
 0.18506673503E+02 0.18638656649E+02 0.18638657262E+02 0.18506674103E+02 0.18228931459E+02
 0.17785741317E+02 0.17144313980E+02 0.16295539245E+02 0.15344994761E+02 0.14501958660E+02
 0.14002279114E+02 0.14002218225E+02 0.14501826088E+02 0.15344889569E+02 0.16295516470E+02
 0.15726857954E+02 0.16298467119E+02 0.16781035853E+02 0.17171383478E+02 0.17464559806E+02
 0.17644542996E+02 0.17681269944E+02 0.17534947102E+02 0.17144348958E+02 0.16446744231E+02