<?xml version="1.0" encoding="ISO-8859-1"?>
<modeling>
 <generator>
  <i name="program" type="string">vasp </i>
  <i name="version" type="string">5.4.4.18Apr17-6-g9f103f2a35  </i>
  <i name="subversion" type="string">(build Dec 09 2018 21:25:21) complex            parallel </i>
  <i name="platform" type="string">IFC18.0.1.163_CrayMPICH7.7.0_MKL18.0.1.163 </i>
  <i name="date" type="string">2019 04 01 </i>
  <i name="time" type="string">15:59:20 </i>
 </generator>
 <incar>
  <i type="string" name="PREC">normal</i>
  <i type="int" name="IBRION">     2</i>
  <i name="EDIFF">      0.00040000</i>
  <i name="EDIFFG">     -0.01000000</i>
  <i type="int" name="NSW">    15</i>
  <i type="int" name="ISIF">     2</i>
  <i name="ENCUT">    350.00000000</i>
  <i type="int" name="NBANDS">     8</i>
  <i type="logical" name="LREAL"> F  </i>
  <i type="int" name="ISMEAR">     0</i>
  <i name="SIGMA">      0.20000000</i>
  <v type="int" name="KPOINT_BSE">    -1     0     0     0</v>
 </incar>
 <structure name="primitive_cell" >
  <crystal>
   <varray name="basis" >
    <v>       0.00000000       2.70695600       2.70695600 </v>
    <v>       2.70695600       0.00000000       2.70695600 </v>
    <v>       2.70695600       2.70695600       0.00000000 </v>
   </varray>
   <i name="volume">     39.67103997 </i>
   <varray name="rec_basis" >
    <v>      -0.18470932       0.18470932       0.18470932 </v>
    <v>       0.18470932      -0.18470932       0.18470932 </v>
    <v>       0.18470932       0.18470932      -0.18470932 </v>
   </varray>
  </crystal>
  <varray name="positions" >
   <v>       0.00000000       0.00000000       0.00000000 </v>
   <v>       0.25000000       0.25000000       0.25000000 </v>
  </varray>
 </structure>
 <varray name="primitive_index" >
  <v type="int" >        1 </v>
  <v type="int" >        2 </v>
 </varray>
 <kpoints>
  <generation param="Monkhorst-Pack">
   <v type="int" name="divisions">       8        8        8 </v>
   <v name="usershift">      0.00000000       0.00000000       0.00000000 </v>
   <v name="genvec1">      0.12500000      -0.00000000       0.00000000 </v>
   <v name="genvec2">     -0.00000000       0.12500000      -0.00000000 </v>
   <v name="genvec3">      0.00000000       0.00000000       0.12500000 </v>
   <v name="shift">      0.50000000       0.50000000       0.50000000 </v>
  </generation>
  <varray name="kpointlist" >
   <v>       0.06250000       0.06250000       0.06250000 </v>
   <v>       0.18750000       0.06250000       0.06250000 </v>
   <v>       0.31250000       0.06250000       0.06250000 </v>
   <v>       0.43750000       0.06250000       0.06250000 </v>
   <v>      -0.43750000       0.06250000       0.06250000 </v>
   <v>      -0.31250000       0.06250000       0.06250000 </v>
   <v>      -0.18750000       0.06250000       0.06250000 </v>
   <v>      -0.06250000       0.06250000       0.06250000 </v>
   <v>       0.18750000       0.18750000       0.06250000 </v>
   <v>       0.31250000       0.18750000       0.06250000 </v>
   <v>       0.43750000       0.18750000       0.06250000 </v>
   <v>      -0.43750000       0.18750000       0.06250000 </v>
   <v>      -0.31250000       0.18750000       0.06250000 </v>
   <v>      -0.18750000       0.18750000       0.06250000 </v>
   <v>      -0.06250000       0.18750000       0.06250000 </v>
   <v>       0.31250000       0.31250000       0.06250000 </v>
   <v>       0.43750000       0.31250000       0.06250000 </v>
   <v>      -0.43750000       0.31250000       0.06250000 </v>
   <v>      -0.31250000       0.31250000       0.06250000 </v>
   <v>      -0.18750000       0.31250000       0.06250000 </v>
   <v>      -0.06250000       0.31250000       0.06250000 </v>
   <v>       0.43750000       0.43750000       0.06250000 </v>
   <v>      -0.43750000       0.43750000       0.06250000 </v>
   <v>      -0.31250000       0.43750000       0.06250000 </v>
   <v>      -0.18750000       0.43750000       0.06250000 </v>
   <v>      -0.06250000       0.43750000       0.06250000 </v>
   <v>      -0.43750000      -0.43750000       0.06250000 </v>
   <v>      -0.31250000      -0.43750000       0.06250000 </v>
   <v>      -0.18750000      -0.43750000       0.06250000 </v>
   <v>      -0.31250000      -0.31250000       0.06250000 </v>
   <v>      -0.18750000      -0.31250000       0.06250000 </v>
   <v>      -0.18750000      -0.18750000       0.06250000 </v>
   <v>       0.18750000       0.18750000       0.18750000 </v>
   <v>       0.31250000       0.18750000       0.18750000 </v>
   <v>       0.43750000       0.18750000       0.18750000 </v>
   <v>      -0.43750000       0.18750000       0.18750000 </v>
   <v>      -0.31250000       0.18750000       0.18750000 </v>
   <v>      -0.18750000       0.18750000       0.18750000 </v>
   <v>       0.31250000       0.31250000       0.18750000 </v>
   <v>       0.43750000       0.31250000       0.18750000 </v>
   <v>      -0.43750000       0.31250000       0.18750000 </v>
   <v>      -0.31250000       0.31250000       0.18750000 </v>
   <v>      -0.18750000       0.31250000       0.18750000 </v>
   <v>       0.43750000       0.43750000       0.18750000 </v>
   <v>      -0.43750000       0.43750000       0.18750000 </v>
   <v>      -0.31250000       0.43750000       0.18750000 </v>
   <v>      -0.18750000       0.43750000       0.18750000 </v>
   <v>      -0.43750000      -0.43750000       0.18750000 </v>
   <v>      -0.31250000      -0.43750000       0.18750000 </v>
   <v>      -0.31250000      -0.31250000       0.18750000 </v>
   <v>       0.31250000       0.31250000       0.31250000 </v>
   <v>       0.43750000       0.31250000       0.31250000 </v>
   <v>      -0.43750000       0.31250000       0.31250000 </v>
   <v>      -0.31250000       0.31250000       0.31250000 </v>
   <v>       0.43750000       0.43750000       0.31250000 </v>
   <v>      -0.43750000       0.43750000       0.31250000 </v>
   <v>      -0.31250000       0.43750000       0.31250000 </v>
   <v>      -0.43750000      -0.43750000       0.31250000 </v>
   <v>       0.43750000       0.43750000       0.43750000 </v>
   <v>      -0.43750000       0.43750000       0.43750000 </v>
  </varray>
  <varray name="weights" >
   <v>       0.00390625 </v>
   <v>       0.01171875 </v>
   <v>       0.01171875 </v>
   <v>       0.01171875 </v>
   <v>       0.01171875 </v>
   <v>       0.01171875 </v>
   <v>       0.01171875 </v>
   <v>       0.01171875 </v>
   <v>       0.01171875 </v>
   <v>       0.02343750 </v>
   <v>       0.02343750 </v>
   <v>       0.02343750 </v>
   <v>       0.02343750 </v>
   <v>       0.02343750 </v>
   <v>       0.02343750 </v>
   <v>       0.01171875 </v>
   <v>       0.02343750 </v>
   <v>       0.02343750 </v>
   <v>       0.02343750 </v>
   <v>       0.02343750 </v>
   <v>       0.02343750 </v>
   <v>       0.01171875 </v>
   <v>       0.02343750 </v>
   <v>       0.02343750 </v>
   <v>       0.02343750 </v>
   <v>       0.02343750 </v>
   <v>       0.01171875 </v>
   <v>       0.02343750 </v>
   <v>       0.02343750 </v>
   <v>       0.01171875 </v>
   <v>       0.02343750 </v>
   <v>       0.01171875 </v>
   <v>       0.00390625 </v>
   <v>       0.01171875 </v>
   <v>       0.01171875 </v>
   <v>       0.01171875 </v>
   <v>       0.01171875 </v>
   <v>       0.01171875 </v>
   <v>       0.01171875 </v>
   <v>       0.02343750 </v>
   <v>       0.02343750 </v>
   <v>       0.02343750 </v>
   <v>       0.02343750 </v>
   <v>       0.01171875 </v>
   <v>       0.02343750 </v>
   <v>       0.02343750 </v>
   <v>       0.02343750 </v>
   <v>       0.01171875 </v>
   <v>       0.02343750 </v>
   <v>       0.01171875 </v>
   <v>       0.00390625 </v>
   <v>       0.01171875 </v>
   <v>       0.01171875 </v>
   <v>       0.01171875 </v>
   <v>       0.01171875 </v>
   <v>       0.02343750 </v>
   <v>       0.02343750 </v>
   <v>       0.01171875 </v>
   <v>       0.00390625 </v>
   <v>       0.01171875 </v>
  </varray>
 </kpoints>
 <parameters>
  <separator name="general" >
   <i type="string" name="SYSTEM">unknown system</i>
   <i type="logical" name="LCOMPAT"> F  </i>
  </separator>
  <separator name="electronic" >
   <i type="string" name="PREC">normal</i>
   <i name="ENMAX">    350.00000000</i>
   <i name="ENAUG">    322.06900000</i>
   <i name="EDIFF">      0.00040000</i>
   <i type="int" name="IALGO">    38</i>
   <i type="int" name="IWAVPR">    11</i>
   <i type="int" name="NBANDS">     8</i>
   <i name="NELECT">      8.00000000</i>
   <i type="int" name="TURBO">     0</i>
   <i type="int" name="IRESTART">     0</i>
   <i type="int" name="NREBOOT">     0</i>
   <i type="int" name="NMIN">     0</i>
   <i name="EREF">      0.00000000</i>
   <separator name="electronic smearing" >
    <i type="int" name="ISMEAR">     0</i>
    <i name="SIGMA">      0.20000000</i>
    <i name="KSPACING">      0.50000000</i>
    <i type="logical" name="KGAMMA"> T  </i>
   </separator>
   <separator name="electronic projectors" >
    <i type="logical" name="LREAL"> F  </i>
    <v name="ROPT">      0.00000000</v>
    <i type="int" name="LMAXPAW">  -100</i>
    <i type="int" name="LMAXMIX">     2</i>
    <i type="logical" name="NLSPLINE"> F  </i>
   </separator>
   <separator name="electronic startup" >
    <i type="int" name="ISTART">     0</i>
    <i type="int" name="ICHARG">     2</i>
    <i type="int" name="INIWAV">     1</i>
   </separator>
   <separator name="electronic spin" >
    <i type="int" name="ISPIN">     1</i>
    <i type="logical" name="LNONCOLLINEAR"> F  </i>
    <v name="MAGMOM">      1.00000000      1.00000000</v>
    <i name="NUPDOWN">     -1.00000000</i>
    <i type="logical" name="LSORBIT"> F  </i>
    <v name="SAXIS">      0.00000000      0.00000000      1.00000000</v>
    <i type="logical" name="LSPIRAL"> F  </i>
    <v name="QSPIRAL">      0.00000000      0.00000000      0.00000000</v>
    <i type="logical" name="LZEROZ"> F  </i>
   </separator>
   <separator name="electronic exchange-correlation" >
    <i type="logical" name="LASPH"> F  </i>
    <i type="logical" name="LMETAGGA"> F  </i>
   </separator>
   <separator name="electronic convergence" >
    <i type="int" name="NELM">    60</i>
    <i type="int" name="NELMDL">    -5</i>
    <i type="int" name="NELMIN">     2</i>
    <i name="ENINI">    350.00000000</i>
    <separator name="electronic convergence detail" >
     <i type="logical" name="LDIAG"> T  </i>
     <i type="logical" name="LSUBROT"> F  </i>
     <i name="WEIMIN">      0.00100000</i>
     <i name="EBREAK">      0.00001250</i>
     <i name="DEPER">      0.30000000</i>
     <i type="int" name="NRMM">     4</i>
     <i name="TIME">      0.40000000</i>
    </separator>
   </separator>
   <separator name="electronic mixer" >
    <i name="AMIX">      0.40000000</i>
    <i name="BMIX">      1.00000000</i>
    <i name="AMIN">      0.10000000</i>
    <i name="AMIX_MAG">      1.60000000</i>
    <i name="BMIX_MAG">      1.00000000</i>
    <separator name="electronic mixer details" >
     <i type="int" name="IMIX">     4</i>
     <i type="logical" name="MIXFIRST"> F  </i>
     <i type="int" name="MAXMIX">   -45</i>
     <i name="WC">    100.00000000</i>
     <i type="int" name="INIMIX">     1</i>
     <i type="int" name="MIXPRE">     1</i>
     <i type="int" name="MREMOVE">     5</i>
    </separator>
   </separator>
   <separator name="electronic dipolcorrection" >
    <i type="logical" name="LDIPOL"> F  </i>
    <i type="logical" name="LMONO"> F  </i>
    <i type="int" name="IDIPOL">     0</i>
    <i name="EPSILON">      1.00000000</i>
    <v name="DIPOL">   -100.00000000   -100.00000000   -100.00000000</v>
    <i name="EFIELD">      0.00000000</i>
   </separator>
  </separator>
  <separator name="grids" >
   <i type="int" name="NGX">    18</i>
   <i type="int" name="NGY">    18</i>
   <i type="int" name="NGZ">    18</i>
   <i type="int" name="NGXF">    36</i>
   <i type="int" name="NGYF">    36</i>
   <i type="int" name="NGZF">    36</i>
   <i type="logical" name="ADDGRID"> F  </i>
  </separator>
  <separator name="ionic" >
   <i type="int" name="NSW">    15</i>
   <i type="int" name="IBRION">     2</i>
   <i type="int" name="MDALGO">     0</i>
   <i type="int" name="ISIF">     2</i>
   <i name="PSTRESS">      0.00000000</i>
   <i name="EDIFFG">     -0.01000000</i>
   <i type="int" name="NFREE">     1</i>
   <i name="POTIM">      0.50000000</i>
   <i name="SMASS">     -3.00000000</i>
   <i name="SCALEE">      1.00000000</i>
  </separator>
  <separator name="ionic md" >
   <i name="TEBEG">      0.00010000</i>
   <i name="TEEND">      0.00010000</i>
   <i type="int" name="NBLOCK">     1</i>
   <i type="int" name="KBLOCK">    15</i>
   <i type="int" name="NPACO">   256</i>
   <i name="APACO">     16.00000000</i>
  </separator>
  <separator name="symmetry" >
   <i type="int" name="ISYM">     2</i>
   <i name="SYMPREC">      0.00001000</i>
  </separator>
  <separator name="dos" >
   <i type="int" name="LORBIT">     0</i>
   <v name="RWIGS">     -1.00000000</v>
   <i type="int" name="NEDOS">   301</i>
   <i name="EMIN">     10.00000000</i>
   <i name="EMAX">    -10.00000000</i>
   <i name="EFERMI">      0.00000000</i>
  </separator>
  <separator name="writing" >
   <i type="int" name="NWRITE">     2</i>
   <i type="logical" name="LWAVE"> T  </i>
   <i type="logical" name="LDOWNSAMPLE"> F  </i>
   <i type="logical" name="LCHARG"> T  </i>
   <i type="logical" name="LPARD"> F  </i>
   <i type="logical" name="LVTOT"> F  </i>
   <i type="logical" name="LVHAR"> F  </i>
   <i type="logical" name="LELF"> F  </i>
   <i type="logical" name="LOPTICS"> F  </i>
   <v name="STM">      0.00000000      0.00000000      0.00000000      0.00000000      0.00000000      0.00000000      0.00000000</v>
  </separator>
  <separator name="performance" >
   <i type="int" name="NPAR">     8</i>
   <i type="int" name="NSIM">     4</i>
   <i type="int" name="NBLK">    -1</i>
   <i type="logical" name="LPLANE"> T  </i>
   <i type="logical" name="LSCALAPACK"> T  </i>
   <i type="logical" name="LSCAAWARE"> F  </i>
   <i type="logical" name="LSCALU"> F  </i>
   <i type="logical" name="LASYNC"> F  </i>
   <i type="logical" name="LORBITALREAL"> F  </i>
  </separator>
  <separator name="miscellaneous" >
   <i type="int" name="IDIOT">     3</i>
   <i type="int" name="ISPECIAL">     0</i>
   <i type="logical" name="LMUSIC"> F  </i>
   <v name="POMASS">     28.08500000</v>
   <v name="DARWINR">      0.00000000</v>
   <v name="DARWINV">      1.00000000</v>
   <i type="logical" name="LCORR"> T  </i>
  </separator>
  <i type="logical" name="GGA_COMPAT"> T  </i>
  <i type="logical" name="LBERRY"> F  </i>
  <i type="int" name="ICORELEVEL">     0</i>
  <i type="logical" name="LDAU"> F  </i>
  <i type="int" name="I_CONSTRAINED_M">     0</i>
  <separator name="electronic exchange-correlation" >
   <i type="string" name="GGA">--</i>
   <i type="int" name="VOSKOWN">     0</i>
   <i type="logical" name="LHFCALC"> F  </i>
   <i type="string" name="PRECFOCK"></i>
   <i type="logical" name="LSYMGRAD"> F  </i>
   <i type="logical" name="LHFONE"> F  </i>
   <i type="logical" name="LRHFCALC"> F  </i>
   <i type="logical" name="LTHOMAS"> F  </i>
   <i type="logical" name="LMODELHF"> F  </i>
   <i name="ENCUT4O">     -1.00000000</i>
   <i type="int" name="EXXOEP">     0</i>
   <i type="int" name="FOURORBIT">     0</i>
   <i name="AEXX">      0.00000000</i>
   <i name="HFALPHA">      0.00000000</i>
   <i name="MCALPHA">      0.00000000</i>
   <i name="ALDAX">      1.00000000</i>
   <i name="AGGAX">      1.00000000</i>
   <i name="ALDAC">      1.00000000</i>
   <i name="AGGAC">      1.00000000</i>
   <i type="int" name="NKREDX">     1</i>
   <i type="int" name="NKREDY">     1</i>
   <i type="int" name="NKREDZ">     1</i>
   <i type="logical" name="SHIFTRED"> F  </i>
   <i type="logical" name="ODDONLY"> F  </i>
   <i type="logical" name="EVENONLY"> F  </i>
   <i type="int" name="LMAXFOCK">     0</i>
   <i type="int" name="NMAXFOCKAE">     0</i>
   <i type="logical" name="LFOCKAEDFT"> F  </i>
   <i name="HFSCREEN">      0.00000000</i>
   <i name="HFSCREENC">      0.00000000</i>
   <i type="int" name="NBANDSGWLOW">     0</i>
  </separator>
  <separator name="vdW DFT" >
   <i type="logical" name="LUSE_VDW"> F  </i>
   <i name="Zab_VDW">     -0.84910000</i>
   <i name="PARAM1">      0.12340000</i>
   <i name="PARAM2">      1.00000000</i>
   <i name="PARAM3">      0.00000000</i>
  </separator>
  <separator name="model GW" >
   <i type="int" name="MODEL_GW">     0</i>
   <i name="MODEL_EPS0">     11.90131199</i>
   <i name="MODEL_ALPHA">      1.00000000</i>
  </separator>
  <separator name="linear response parameters" >
   <i type="logical" name="LEPSILON"> F  </i>
   <i type="logical" name="LRPA"> F  </i>
   <i type="logical" name="LNABLA"> F  </i>
   <i type="logical" name="LVEL"> F  </i>
   <i type="int" name="KINTER">     0</i>
   <i name="CSHIFT">      0.10000000</i>
   <i name="OMEGAMAX">     -1.00000000</i>
   <i name="DEG_THRESHOLD">      0.00200000</i>
   <i name="RTIME">     -0.10000000</i>
   <i name="WPLASMAI">      0.00000000</i>
   <v name="DFIELD">      0.00000000      0.00000000      0.00000000</v>
   <v name="WPLASMA">      0.00000000      0.00000000      0.00000000      0.00000000      0.00000000      0.00000000      0.00000000      0.00000000      0.00000000</v>
  </separator>
  <separator name="orbital magnetization" >
   <i type="logical" name="NUCIND"> F  </i>
   <v name="MAGPOS">      0.00000000      0.00000000      0.00000000</v>
   <i type="logical" name="LNICSALL"> T  </i>
   <i type="logical" name="ORBITALMAG"> F  </i>
   <i type="logical" name="LMAGBLOCH"> F  </i>
   <i type="logical" name="LCHIMAG"> F  </i>
   <i type="logical" name="LGAUGE"> T  </i>
   <i type="int" name="MAGATOM">     0</i>
   <v name="MAGDIPOL">      0.00000000      0.00000000      0.00000000</v>
   <v name="AVECCONST">      0.00000000      0.00000000      0.00000000</v>
  </separator>
  <separator name="response functions" >
   <i type="logical" name="LADDER"> F  </i>
   <i type="logical" name="LRPAFORCE"> F  </i>
   <i type="logical" name="LFXC"> F  </i>
   <i type="logical" name="LHARTREE"> T  </i>
   <i type="int" name="IBSE">     0</i>
   <v type="int" name="KPOINT">    -1     0     0     0</v>
   <i type="logical" name="LTCTE"> F  </i>
   <i type="logical" name="LTETE"> F  </i>
   <i type="logical" name="LTRIPLET"> F  </i>
   <i type="logical" name="LFXCEPS"> F  </i>
   <i type="logical" name="LFXHEG"> F  </i>
   <i type="int" name="NATURALO">     2</i>
   <i type="logical" name="L2ORDER"> F  </i>
   <i type="logical" name="LMP2LT"> F  </i>
   <i type="logical" name="LUSEW"> F  </i>
   <i name="ENCUTGW">     -2.00000000</i>
   <i name="ENCUTGWSOFT">     -2.00000000</i>
   <i name="ENCUTLF">     -1.00000000</i>
   <i type="int" name="LMAXMP2">    -1</i>
   <i name="SCISSOR">      0.00000000</i>
   <i type="int" name="NOMEGA">     0</i>
   <i type="int" name="NOMEGAR">     0</i>
   <i type="int" name="NBANDSGW">    -1</i>
   <i type="int" name="NBANDSO">    -1</i>
   <i type="int" name="NBANDSV">    -1</i>
   <i type="int" name="NELM">     1</i>
   <i type="int" name="NELMHF">     1</i>
   <i type="int" name="DIM">     3</i>
   <i type="int" name="ANTIRES">     0</i>
   <i name="OMEGAMAX">    -30.00000000</i>
   <i name="OMEGAMIN">    -30.00000000</i>
   <i name="OMEGATL">   -200.00000000</i>
   <i type="int" name="OMEGAGRID">   140</i>
   <i name="CSHIFT">     -0.10000000</i>
   <i type="logical" name="SELFENERGY"> F  </i>
   <i type="logical" name="LSPECTRAL"> F  </i>
   <i type="logical" name="LSPECTRALGW"> F  </i>
   <i type="logical" name="LSINGLES"> F  </i>
   <i type="logical" name="LFERMIGW"> F  </i>
   <i type="logical" name="ODDONLYGW"> F  </i>
   <i type="logical" name="EVENONLYGW"> F  </i>
   <i type="int" name="NKREDLFX">     1</i>
   <i type="int" name="NKREDLFY">     1</i>
   <i type="int" name="NKREDLFZ">     1</i>
   <i type="int" name="MAXMEM">  2800</i>
   <i type="int" name="TELESCOPE">     0</i>
   <i type="int" name="TAUPAR">     1</i>
   <i type="int" name="OMEGAPAR">    -1</i>
   <i name="LAMBDA">      1.00000000</i>
  </separator>
  <separator name="External order field" >
   <i name="OFIELD_KAPPA">      0.00000000</i>
   <v name="OFIELD_K">      0.00000000      0.00000000      0.00000000</v>
   <i name="OFIELD_Q6_NEAR">      0.00000000</i>
   <i name="OFIELD_Q6_FAR">      0.00000000</i>
   <i name="OFIELD_A">      0.00000000</i>
  </separator>
 </parameters>
 <atominfo>
  <atoms>       2 </atoms>
  <types>       1 </types>
  <array name="atoms" >
   <dimension dim="1">ion</dimension>
   <field type="string">element</field>
   <field type="int">atomtype</field>
   <set>
    <rc><c>Si</c><c>   1</c></rc>
    <rc><c>Si</c><c>   1</c></rc>
   </set>
  </array>
  <array name="atomtypes" >
   <dimension dim="1">type</dimension>
   <field type="int">atomspertype</field>
   <field type="string">element</field>
   <field>mass</field>
   <field>valence</field>
   <field type="string">pseudopotential</field>
   <set>
    <rc><c>   2</c><c>Si</c><c>     28.08500000</c><c>      4.00000000</c><c> PAW_PBE Si 05Jan2001                   </c></rc>
   </set>
  </array>
 </atominfo>
 <structure name="initialpos" >
  <crystal>
   <varray name="basis" >
    <v>       0.00000000       2.70695600       2.70695600 </v>
    <v>       2.70695600       0.00000000       2.70695600 </v>
    <v>       2.70695600       2.70695600       0.00000000 </v>
   </varray>
   <i name="volume">     39.67103997 </i>
   <varray name="rec_basis" >
    <v>      -0.18470932       0.18470932       0.18470932 </v>
    <v>       0.18470932      -0.18470932       0.18470932 </v>
    <v>       0.18470932       0.18470932      -0.18470932 </v>
   </varray>
  </crystal>
  <varray name="positions" >
   <v>       0.00000000       0.00000000       0.00000000 </v>
   <v>       0.25000000       0.25000000       0.25000000 </v>
  </varray>
 </structure>
 <calculation>
  <scstep>
   <time name="dav">    0.79    0.80</time>
   <time name="total">    0.84    0.86</time>
   <energy>
    <i name="alphaZ">      3.39422192 </i>
    <i name="ewald">   -229.24272510 </i>
    <i name="hartreedc">    -10.86790090 </i>
    <i name="XCdc">    -18.56674392 </i>
    <i name="pawpsdc">     65.95520812 </i>
    <i name="pawaedc">    -30.76852678 </i>
    <i name="eentropy">     -0.01412172 </i>
    <i name="bandstr">     17.19539254 </i>
    <i name="atom">    206.13125414 </i>
    <i name="e_fr_energy">      3.21605830 </i>
    <i name="e_wo_entrp">      3.23018002 </i>
    <i name="e_0_energy">      3.22311916 </i>
   </energy>
  </scstep>
  <scstep>
   <time name="dav">    1.19    1.20</time>
   <time name="total">    1.19    1.20</time>
   <energy>
    <i name="e_fr_energy">    -10.83987730 </i>
    <i name="e_wo_entrp">    -10.83987580 </i>
    <i name="e_0_energy">    -10.83987655 </i>
   </energy>
  </scstep>
  <scstep>
   <time name="dav">    0.99    0.99</time>
   <time name="total">    0.99    1.00</time>
   <energy>
    <i name="e_fr_energy">    -11.02186080 </i>
    <i name="e_wo_entrp">    -11.02185945 </i>
    <i name="e_0_energy">    -11.02186012 </i>
   </energy>
  </scstep>
  <scstep>
   <time name="dav">    1.28    1.28</time>
   <time name="total">    1.28    1.29</time>
   <energy>
    <i name="e_fr_energy">    -11.02263076 </i>
    <i name="e_wo_entrp">    -11.02262941 </i>
    <i name="e_0_energy">    -11.02263009 </i>
   </energy>
  </scstep>
  <scstep>
   <time name="dav">    0.95    0.95</time>
   <time name="total">    1.02    1.02</time>
   <energy>
    <i name="e_fr_energy">    -11.02263162 </i>
    <i name="e_wo_entrp">    -11.02263027 </i>
    <i name="e_0_energy">    -11.02263095 </i>
   </energy>
  </scstep>
  <scstep>
   <time name="dav">    0.97    0.97</time>
   <time name="total">    1.07    1.08</time>
   <energy>
    <i name="e_fr_energy">    -10.89403908 </i>
    <i name="e_wo_entrp">    -10.89402996 </i>
    <i name="e_0_energy">    -10.89403452 </i>
   </energy>
  </scstep>
  <scstep>
   <time name="dav">    0.98    0.98</time>
   <time name="total">    1.08    1.09</time>
   <energy>
    <i name="e_fr_energy">    -10.83578121 </i>
    <i name="e_wo_entrp">    -10.83570948 </i>
    <i name="e_0_energy">    -10.83574534 </i>
   </energy>
  </scstep>
  <scstep>
   <time name="dav">    0.92    0.92</time>
   <time name="total">    1.02    1.03</time>
   <energy>
    <i name="e_fr_energy">    -10.83710131 </i>
    <i name="e_wo_entrp">    -10.83704492 </i>
    <i name="e_0_energy">    -10.83707312 </i>
   </energy>
  </scstep>
  <scstep>
   <time name="dav">    0.71    0.71</time>
   <time name="total">    0.75    0.76</time>
   <energy>
    <i name="alphaZ">      3.39422192 </i>
    <i name="ewald">   -229.24272510 </i>
    <i name="hartreedc">    -14.80079249 </i>
    <i name="XCdc">    -17.92002184 </i>
    <i name="pawpsdc">     74.66196600 </i>
    <i name="pawaedc">    -39.70777984 </i>
    <i name="eentropy">     -0.00005599 </i>
    <i name="bandstr">      6.64674189 </i>
    <i name="atom">    206.13125414 </i>
    <i name="e_fr_energy">    -10.83719131 </i>
    <i name="e_wo_entrp">    -10.83713532 </i>
    <i name="e_0_energy">    -10.83716332 </i>
   </energy>
  </scstep>
  <structure>
   <crystal>
    <varray name="basis" >
     <v>       0.00000000       2.70695600       2.70695600 </v>
     <v>       2.70695600       0.00000000       2.70695600 </v>
     <v>       2.70695600       2.70695600       0.00000000 </v>
    </varray>
    <i name="volume">     39.67103997 </i>
    <varray name="rec_basis" >
     <v>      -0.18470932       0.18470932       0.18470932 </v>
     <v>       0.18470932      -0.18470932       0.18470932 </v>
     <v>       0.18470932       0.18470932      -0.18470932 </v>
    </varray>
   </crystal>
   <varray name="positions" >
    <v>       0.00000000       0.00000000       0.00000000 </v>
    <v>       0.25000000       0.25000000       0.25000000 </v>
   </varray>
  </structure>
  <varray name="forces" >
   <v>       0.00000000       0.00000000       0.00000000 </v>
   <v>      -0.00000000      -0.00000000      -0.00000000 </v>
  </varray>
  <varray name="stress" >
   <v>      28.36496347      -0.00000000       0.00000000 </v>
   <v>       0.00000000      28.36496347       0.00000000 </v>
   <v>      -0.00000000       0.00000000      28.36496347 </v>
  </varray>
  <energy>
   <i name="e_fr_energy">    -10.83719131 </i>
   <i name="e_wo_entrp">    -10.83716332 </i>
   <i name="e_0_energy">     -0.00005599 </i>
  </energy>
  <time name="totalsc">   10.92   11.47</time>
  <eigenvalues>
   <array>
    <dimension dim="1">band</dimension>
    <dimension dim="2">kpoint</dimension>
    <dimension dim="3">spin</dimension>
    <field>eigene</field>
    <field>occ</field>
    <set>
     <set comment="spin 1">
      <set comment="kpoint 1">
       <r>   -6.0512    1.0000 </r>
       <r>    5.3903    1.0000 </r>
       <r>    5.8342    0.9964 </r>
       <r>    5.8342    0.9964 </r>
       <r>    8.5631    0.0000 </r>
       <r>    8.6163    0.0000 </r>
       <r>    8.6163    0.0000 </r>
       <r>    9.7675    0.0000 </r>
      </set>
      <set comment="kpoint 2">
       <r>   -5.7778    1.0000 </r>
       <r>    3.8785    1.0000 </r>
       <r>    5.0079    1.0000 </r>
       <r>    5.7174    0.9998 </r>
       <r>    8.6600    0.0000 </r>
       <r>    8.8637    0.0000 </r>
       <r>    9.1783    0.0000 </r>
       <r>   11.1693    0.0000 </r>
      </set>
      <set comment="kpoint 3">
       <r>   -5.1171    1.0000 </r>
       <r>    1.6156    1.0000 </r>
       <r>    4.5165    1.0000 </r>
       <r>    5.2476    1.0000 </r>
       <r>    8.2266    0.0000 </r>
       <r>    9.3504    0.0000 </r>
       <r>    9.6422    0.0000 </r>
       <r>   12.6077    0.0000 </r>
      </set>
      <set comment="kpoint 4">
       <r>   -4.1915    1.0000 </r>
       <r>   -0.3101    1.0000 </r>
       <r>    4.3011    1.0000 </r>
       <r>    4.8334    1.0000 </r>
       <r>    7.9126    0.0000 </r>
       <r>    9.3898    0.0000 </r>
       <r>    9.4029    0.0000 </r>
       <r>   13.7900    0.0000 </r>
      </set>
      <set comment="kpoint 5">
       <r>   -3.7269    1.0000 </r>
       <r>   -1.0309    1.0000 </r>
       <r>    4.3551    1.0000 </r>
       <r>    4.6097    1.0000 </r>
       <r>    7.8307    0.0000 </r>
       <r>    9.1870    0.0000 </r>
       <r>    9.4633    0.0000 </r>
       <r>   13.8331    0.0000 </r>
      </set>
      <set comment="kpoint 6">
       <r>   -4.5094    1.0000 </r>
       <r>    0.2607    1.0000 </r>
       <r>    4.6276    1.0000 </r>
       <r>    4.6476    1.0000 </r>
       <r>    7.9936    0.0000 </r>
       <r>    9.2081    0.0000 </r>
       <r>    9.7390    0.0000 </r>
       <r>   12.8959    0.0000 </r>
      </set>
      <set comment="kpoint 7">
       <r>   -5.3763    1.0000 </r>
       <r>    2.3584    1.0000 </r>
       <r>    4.9056    1.0000 </r>
       <r>    5.1190    1.0000 </r>
       <r>    8.3344    0.0000 </r>
       <r>    9.1100    0.0000 </r>
       <r>    9.8250    0.0000 </r>
       <r>   11.7257    0.0000 </r>
      </set>
      <set comment="kpoint 8">
       <r>   -5.9138    1.0000 </r>
       <r>    4.6415    1.0000 </r>
       <r>    5.3955    1.0000 </r>
       <r>    5.5674    1.0000 </r>
       <r>    8.3253    0.0000 </r>
       <r>    8.9621    0.0000 </r>
       <r>    9.2112    0.0000 </r>
       <r>   10.4626    0.0000 </r>
      </set>
      <set comment="kpoint 9">
       <r>   -5.6403    1.0000 </r>
       <r>    3.7519    1.0000 </r>
       <r>    4.8248    1.0000 </r>
       <r>    4.9213    1.0000 </r>
       <r>    7.8920    0.0000 </r>
       <r>    9.7518    0.0000 </r>
       <r>   10.0879    0.0000 </r>
       <r>   10.6437    0.0000 </r>
      </set>
      <set comment="kpoint 10">
       <r>   -5.1050    1.0000 </r>
       <r>    2.2309    1.0000 </r>
       <r>    3.8359    1.0000 </r>
       <r>    4.6559    1.0000 </r>
       <r>    8.0643    0.0000 </r>
       <r>    9.8735    0.0000 </r>
       <r>   10.3575    0.0000 </r>
       <r>   10.8939    0.0000 </r>
      </set>
      <set comment="kpoint 11">
       <r>   -4.2402    1.0000 </r>
       <r>    0.3287    1.0000 </r>
       <r>    3.3437    1.0000 </r>
       <r>    4.2324    1.0000 </r>
       <r>    8.2683    0.0000 </r>
       <r>    9.7394    0.0000 </r>
       <r>   10.9242    0.0000 </r>
       <r>   11.1434    0.0000 </r>
      </set>
      <set comment="kpoint 12">
       <r>   -3.4535    1.0000 </r>
       <r>   -0.9156    1.0000 </r>
       <r>    3.0529    1.0000 </r>
       <r>    4.1358    1.0000 </r>
       <r>    8.3537    0.0000 </r>
       <r>    9.3967    0.0000 </r>
       <r>   10.7491    0.0000 </r>
       <r>   13.2270    0.0000 </r>
      </set>
      <set comment="kpoint 13">
       <r>   -3.9276    1.0000 </r>
       <r>   -0.2044    1.0000 </r>
       <r>    2.9724    1.0000 </r>
       <r>    4.4293    1.0000 </r>
       <r>    8.6668    0.0000 </r>
       <r>    9.2848    0.0000 </r>
       <r>   10.7002    0.0000 </r>
       <r>   12.4539    0.0000 </r>
      </set>
      <set comment="kpoint 14">
       <r>   -4.8513    1.0000 </r>
       <r>    1.5665    1.0000 </r>
       <r>    3.2671    1.0000 </r>
       <r>    4.9509    1.0000 </r>
       <r>    8.9729    0.0000 </r>
       <r>    9.2721    0.0000 </r>
       <r>   10.5844    0.0000 </r>
       <r>   11.0235    0.0000 </r>
      </set>
      <set comment="kpoint 15">
       <r>   -5.5072    1.0000 </r>
       <r>    3.0579    1.0000 </r>
       <r>    4.4183    1.0000 </r>
       <r>    5.3339    1.0000 </r>
       <r>    8.4783    0.0000 </r>
       <r>    9.2259    0.0000 </r>
       <r>    9.8937    0.0000 </r>
       <r>   11.1500    0.0000 </r>
      </set>
      <set comment="kpoint 16">
       <r>   -4.6966    1.0000 </r>
       <r>    1.7400    1.0000 </r>
       <r>    3.6911    1.0000 </r>
       <r>    3.8158    1.0000 </r>
       <r>    7.0585    0.0000 </r>
       <r>    8.7211    0.0000 </r>
       <r>   11.9980    0.0000 </r>
       <r>   12.1266    0.0000 </r>
      </set>
      <set comment="kpoint 17">
       <r>   -3.9285    1.0000 </r>
       <r>    0.4819    1.0000 </r>
       <r>    2.8831    1.0000 </r>
       <r>    3.4593    1.0000 </r>
       <r>    7.3745    0.0000 </r>
       <r>    8.5597    0.0000 </r>
       <r>   11.9539    0.0000 </r>
       <r>   13.1398    0.0000 </r>
      </set>
      <set comment="kpoint 18">
       <r>   -3.0056    1.0000 </r>
       <r>   -0.7474    1.0000 </r>
       <r>    2.0225    1.0000 </r>
       <r>    3.4277    1.0000 </r>
       <r>    7.6072    0.0000 </r>
       <r>   10.2518    0.0000 </r>
       <r>   11.5200    0.0000 </r>
       <r>   13.0551    0.0000 </r>
      </set>
      <set comment="kpoint 19">
       <r>   -3.0766    1.0000 </r>
       <r>   -0.6528    1.0000 </r>
       <r>    1.6571    1.0000 </r>
       <r>    3.7814    1.0000 </r>
       <r>    8.0243    0.0000 </r>
       <r>   11.0189    0.0000 </r>
       <r>   12.3691    0.0000 </r>
       <r>   12.5973    0.0000 </r>
      </set>
      <set comment="kpoint 20">
       <r>   -3.9970    1.0000 </r>
       <r>    0.3101    1.0000 </r>
       <r>    2.2818    1.0000 </r>
       <r>    4.3828    1.0000 </r>
       <r>    8.6926    0.0000 </r>
       <r>    9.9007    0.0000 </r>
       <r>   11.3800    0.0000 </r>
       <r>   11.6128    0.0000 </r>
      </set>
      <set comment="kpoint 21">
       <r>   -4.7351    1.0000 </r>
       <r>    0.9346    1.0000 </r>
       <r>    3.9650    1.0000 </r>
       <r>    4.8508    1.0000 </r>
       <r>    8.4612    0.0000 </r>
       <r>    9.2590    0.0000 </r>
       <r>   10.1203    0.0000 </r>
       <r>   11.8117    0.0000 </r>
      </set>
      <set comment="kpoint 22">
       <r>   -3.2624    1.0000 </r>
       <r>   -0.3939    1.0000 </r>
       <r>    2.9859    1.0000 </r>
       <r>    3.2121    1.0000 </r>
       <r>    6.6453    0.0011 </r>
       <r>    7.3528    0.0000 </r>
       <r>   14.3231    0.0000 </r>
       <r>   14.3378    0.0000 </r>
      </set>
      <set comment="kpoint 23">
       <r>   -2.3312    1.0000 </r>
       <r>   -1.4016    1.0000 </r>
       <r>    2.4081    1.0000 </r>
       <r>    2.9590    1.0000 </r>
       <r>    7.0802    0.0000 </r>
       <r>    7.8251    0.0000 </r>
       <r>   14.0636    0.0000 </r>
       <r>   15.1423    0.0000 </r>
      </set>
      <set comment="kpoint 24">
       <r>   -2.4218    1.0000 </r>
       <r>   -1.2384    1.0000 </r>
       <r>    1.6544    1.0000 </r>
       <r>    3.2814    1.0000 </r>
       <r>    7.4547    0.0000 </r>
       <r>   10.0990    0.0000 </r>
       <r>   12.5090    0.0000 </r>
       <r>   13.6913    0.0000 </r>
      </set>
      <set comment="kpoint 25">
       <r>   -3.1929    1.0000 </r>
       <r>   -0.8545    1.0000 </r>
       <r>    2.2442    1.0000 </r>
       <r>    3.8977    1.0000 </r>
       <r>    8.1531    0.0000 </r>
       <r>   10.1605    0.0000 </r>
       <r>   11.7329    0.0000 </r>
       <r>   12.9783    0.0000 </r>
      </set>
      <set comment="kpoint 26">
       <r>   -3.8170    1.0000 </r>
       <r>   -0.7209    1.0000 </r>
       <r>    3.7943    1.0000 </r>
       <r>    4.5053    1.0000 </r>
       <r>    8.2735    0.0000 </r>
       <r>    9.1175    0.0000 </r>
       <r>    9.9257    0.0000 </r>
       <r>   13.5395    0.0000 </r>
      </set>
      <set comment="kpoint 27">
       <r>   -2.3858    1.0000 </r>
       <r>   -1.4212    1.0000 </r>
       <r>    2.8452    1.0000 </r>
       <r>    3.0889    1.0000 </r>
       <r>    6.6335    0.0015 </r>
       <r>    6.9990    0.0000 </r>
       <r>   15.4328    0.0000 </r>
       <r>   15.5253    0.0000 </r>
      </set>
      <set comment="kpoint 28">
       <r>   -3.1736    1.0000 </r>
       <r>   -0.4580    1.0000 </r>
       <r>    2.5708    1.0000 </r>
       <r>    3.1215    1.0000 </r>
       <r>    7.1751    0.0000 </r>
       <r>    8.0751    0.0000 </r>
       <r>   12.9779    0.0000 </r>
       <r>   14.3289    0.0000 </r>
      </set>
      <set comment="kpoint 29">
       <r>   -3.6510    1.0000 </r>
       <r>   -0.2193    1.0000 </r>
       <r>    2.6493    1.0000 </r>
       <r>    3.7352    1.0000 </r>
       <r>    7.8963    0.0000 </r>
       <r>   10.4316    0.0000 </r>
       <r>   10.7423    0.0000 </r>
       <r>   11.9511    0.0000 </r>
      </set>
      <set comment="kpoint 30">
       <r>   -4.0367    1.0000 </r>
       <r>    0.6709    1.0000 </r>
       <r>    3.2677    1.0000 </r>
       <r>    3.4563    1.0000 </r>
       <r>    6.7855    0.0000 </r>
       <r>    7.9367    0.0000 </r>
       <r>   13.1511    0.0000 </r>
       <r>   13.2089    0.0000 </r>
      </set>
      <set comment="kpoint 31">
       <r>   -4.5762    1.0000 </r>
       <r>    1.3801    1.0000 </r>
       <r>    3.3154    1.0000 </r>
       <r>    3.9841    1.0000 </r>
       <r>    7.6777    0.0000 </r>
       <r>    9.2559    0.0000 </r>
       <r>   10.9954    0.0000 </r>
       <r>   11.9855    0.0000 </r>
      </set>
      <set comment="kpoint 32">
       <r>   -5.2331    1.0000 </r>
       <r>    2.7777    1.0000 </r>
       <r>    4.2524    1.0000 </r>
       <r>    4.2797    1.0000 </r>
       <r>    7.4420    0.0000 </r>
       <r>    9.6382    0.0000 </r>
       <r>   10.9155    0.0000 </r>
       <r>   11.0801    0.0000 </r>
      </set>
      <set comment="kpoint 33">
       <r>   -5.6434    1.0000 </r>
       <r>    3.1380    1.0000 </r>
       <r>    5.3843    1.0000 </r>
       <r>    5.3843    1.0000 </r>
       <r>    8.2229    0.0000 </r>
       <r>    9.2432    0.0000 </r>
       <r>    9.2432    0.0000 </r>
       <r>   11.8331    0.0000 </r>
      </set>
      <set comment="kpoint 34">
       <r>   -5.2428    1.0000 </r>
       <r>    2.3005    1.0000 </r>
       <r>    3.8325    1.0000 </r>
       <r>    5.4087    1.0000 </r>
       <r>    8.8778    0.0000 </r>
       <r>    9.3647    0.0000 </r>
       <r>    9.6685    0.0000 </r>
       <r>   11.7577    0.0000 </r>
      </set>
      <set comment="kpoint 35">
       <r>   -4.4784    1.0000 </r>
       <r>    0.9163    1.0000 </r>
       <r>    2.7260    1.0000 </r>
       <r>    4.8913    1.0000 </r>
       <r>    8.6727    0.0000 </r>
       <r>   10.1307    0.0000 </r>
       <r>   10.3514    0.0000 </r>
       <r>   12.0443    0.0000 </r>
      </set>
      <set comment="kpoint 36">
       <r>   -3.5576    1.0000 </r>
       <r>   -0.6158    1.0000 </r>
       <r>    2.5834    1.0000 </r>
       <r>    4.3465    1.0000 </r>
       <r>    8.1356    0.0000 </r>
       <r>   10.3434    0.0000 </r>
       <r>   10.5016    0.0000 </r>
       <r>   13.9042    0.0000 </r>
      </set>
      <set comment="kpoint 37">
       <r>   -3.5422    1.0000 </r>
       <r>   -0.6442    1.0000 </r>
       <r>    2.8940    1.0000 </r>
       <r>    4.0193    1.0000 </r>
       <r>    7.8376    0.0000 </r>
       <r>   10.4279    0.0000 </r>
       <r>   10.8510    0.0000 </r>
       <r>   11.8813    0.0000 </r>
      </set>
      <set comment="kpoint 38">
       <r>   -4.4619    1.0000 </r>
       <r>    0.9120    1.0000 </r>
       <r>    3.5179    1.0000 </r>
       <r>    3.9922    1.0000 </r>
       <r>    7.7663    0.0000 </r>
       <r>    9.9989    0.0000 </r>
       <r>   10.7074    0.0000 </r>
       <r>   11.2503    0.0000 </r>
      </set>
      <set comment="kpoint 39">
       <r>   -4.9803    1.0000 </r>
       <r>    1.6187    1.0000 </r>
       <r>    4.3700    1.0000 </r>
       <r>    4.4196    1.0000 </r>
       <r>    8.1903    0.0000 </r>
       <r>    9.6508    0.0000 </r>
       <r>   10.5011    0.0000 </r>
       <r>   10.8253    0.0000 </r>
      </set>
      <set comment="kpoint 40">
       <r>   -4.3397    1.0000 </r>
       <r>    0.8574    1.0000 </r>
       <r>    2.7839    1.0000 </r>
       <r>    4.2215    1.0000 </r>
       <r>    8.6753    0.0000 </r>
       <r>    9.7735    0.0000 </r>
       <r>   10.2052    0.0000 </r>
       <r>   11.7965    0.0000 </r>
      </set>
      <set comment="kpoint 41">
       <r>   -3.4254    1.0000 </r>
       <r>   -0.2584    1.0000 </r>
       <r>    1.9709    1.0000 </r>
       <r>    3.6337    1.0000 </r>
       <r>    9.1305    0.0000 </r>
       <r>    9.6290    0.0000 </r>
       <r>   10.9346    0.0000 </r>
       <r>   12.9029    0.0000 </r>
      </set>
      <set comment="kpoint 42">
       <r>   -2.9217    1.0000 </r>
       <r>   -0.8928    1.0000 </r>
       <r>    1.9814    1.0000 </r>
       <r>    3.3102    1.0000 </r>
       <r>    8.6442    0.0000 </r>
       <r>    9.9639    0.0000 </r>
       <r>   11.7242    0.0000 </r>
       <r>   13.0868    0.0000 </r>
      </set>
      <set comment="kpoint 43">
       <r>   -3.7193    1.0000 </r>
       <r>    0.1455    1.0000 </r>
       <r>    2.4089    1.0000 </r>
       <r>    3.4957    1.0000 </r>
       <r>    8.3739    0.0000 </r>
       <r>    9.5835    0.0000 </r>
       <r>   10.5435    0.0000 </r>
       <r>   13.0466    0.0000 </r>
      </set>
      <set comment="kpoint 44">
       <r>   -3.8317    1.0000 </r>
       <r>    0.1973    1.0000 </r>
       <r>    2.7567    1.0000 </r>
       <r>    3.6548    1.0000 </r>
       <r>    7.3663    0.0000 </r>
       <r>    9.4255    0.0000 </r>
       <r>   11.8319    0.0000 </r>
       <r>   12.0832    0.0000 </r>
      </set>
      <set comment="kpoint 45">
       <r>   -3.0084    1.0000 </r>
       <r>   -0.6017    1.0000 </r>
       <r>    2.1544    1.0000 </r>
       <r>    2.9418    1.0000 </r>
       <r>    8.1589    0.0000 </r>
       <r>    9.1802    0.0000 </r>
       <r>   11.4380    0.0000 </r>
       <r>   14.3149    0.0000 </r>
      </set>
      <set comment="kpoint 46">
       <r>   -2.1774    1.0000 </r>
       <r>   -1.3685    1.0000 </r>
       <r>    1.8206    1.0000 </r>
       <r>    2.4232    1.0000 </r>
       <r>    9.2941    0.0000 </r>
       <r>   10.2172    0.0000 </r>
       <r>   10.9965    0.0000 </r>
       <r>   11.9961    0.0000 </r>
      </set>
      <set comment="kpoint 47">
       <r>   -2.7950    1.0000 </r>
       <r>   -0.8161    1.0000 </r>
       <r>    1.8184    1.0000 </r>
       <r>    2.9134    1.0000 </r>
       <r>    9.3890    0.0000 </r>
       <r>    9.8376    0.0000 </r>
       <r>   10.6510    0.0000 </r>
       <r>   13.1666    0.0000 </r>
      </set>
      <set comment="kpoint 48">
       <r>   -2.3480    1.0000 </r>
       <r>   -1.3529    1.0000 </r>
       <r>    1.9297    1.0000 </r>
       <r>    3.3058    1.0000 </r>
       <r>    6.9154    0.0000 </r>
       <r>    8.8624    0.0000 </r>
       <r>   13.9616    0.0000 </r>
       <r>   14.2227    0.0000 </r>
      </set>
      <set comment="kpoint 49">
       <r>   -2.2456    1.0000 </r>
       <r>   -1.3789    1.0000 </r>
       <r>    2.0262    1.0000 </r>
       <r>    2.6492    1.0000 </r>
       <r>    8.0477    0.0000 </r>
       <r>    8.9790    0.0000 </r>
       <r>   12.4508    0.0000 </r>
       <r>   13.5818    0.0000 </r>
      </set>
      <set comment="kpoint 50">
       <r>   -3.1087    1.0000 </r>
       <r>   -0.5674    1.0000 </r>
       <r>    2.2080    1.0000 </r>
       <r>    3.4233    1.0000 </r>
       <r>    7.0707    0.0000 </r>
       <r>    9.0476    0.0000 </r>
       <r>   13.0049    0.0000 </r>
       <r>   13.0141    0.0000 </r>
      </set>
      <set comment="kpoint 51">
       <r>   -4.8696    1.0000 </r>
       <r>    0.8954    1.0000 </r>
       <r>    4.9654    1.0000 </r>
       <r>    4.9654    1.0000 </r>
       <r>    7.7757    0.0000 </r>
       <r>    9.4529    0.0000 </r>
       <r>    9.4529    0.0000 </r>
       <r>   13.6885    0.0000 </r>
      </set>
      <set comment="kpoint 52">
       <r>   -4.3782    1.0000 </r>
       <r>    0.3147    1.0000 </r>
       <r>    3.4712    1.0000 </r>
       <r>    4.8776    1.0000 </r>
       <r>    8.4711    0.0000 </r>
       <r>    9.6869    0.0000 </r>
       <r>    9.7258    0.0000 </r>
       <r>   13.0520    0.0000 </r>
      </set>
      <set comment="kpoint 53">
       <r>   -3.5658    1.0000 </r>
       <r>   -0.2001    1.0000 </r>
       <r>    1.8895    1.0000 </r>
       <r>    4.2801    1.0000 </r>
       <r>    8.0451    0.0000 </r>
       <r>   11.1680    0.0000 </r>
       <r>   11.3610    0.0000 </r>
       <r>   12.8375    0.0000 </r>
      </set>
      <set comment="kpoint 54">
       <r>   -2.7209    1.0000 </r>
       <r>   -0.9886    1.0000 </r>
       <r>    1.5342    1.0000 </r>
       <r>    3.7195    1.0000 </r>
       <r>    7.3989    0.0000 </r>
       <r>   11.3410    0.0000 </r>
       <r>   12.4630    0.0000 </r>
       <r>   12.8147    0.0000 </r>
      </set>
      <set comment="kpoint 55">
       <r>   -4.0547    1.0000 </r>
       <r>   -0.2576    1.0000 </r>
       <r>    3.8243    1.0000 </r>
       <r>    4.2973    1.0000 </r>
       <r>    8.1334    0.0000 </r>
       <r>    9.4990    0.0000 </r>
       <r>   10.2109    0.0000 </r>
       <r>   12.2951    0.0000 </r>
      </set>
      <set comment="kpoint 56">
       <r>   -3.4182    1.0000 </r>
       <r>   -0.6086    1.0000 </r>
       <r>    2.4747    1.0000 </r>
       <r>    3.8036    1.0000 </r>
       <r>    8.8920    0.0000 </r>
       <r>    9.2290    0.0000 </r>
       <r>   11.8635    0.0000 </r>
       <r>   12.0155    0.0000 </r>
      </set>
      <set comment="kpoint 57">
       <r>   -2.5804    1.0000 </r>
       <r>   -1.0491    1.0000 </r>
       <r>    1.6281    1.0000 </r>
       <r>    3.0684    1.0000 </r>
       <r>    8.5104    0.0000 </r>
       <r>   10.7872    0.0000 </r>
       <r>   11.6245    0.0000 </r>
       <r>   12.1794    0.0000 </r>
      </set>
      <set comment="kpoint 58">
       <r>   -3.0489    1.0000 </r>
       <r>   -0.8871    1.0000 </r>
       <r>    2.0625    1.0000 </r>
       <r>    3.8217    1.0000 </r>
       <r>    7.5539    0.0000 </r>
       <r>   11.3011    0.0000 </r>
       <r>   11.6338    0.0000 </r>
       <r>   11.8413    0.0000 </r>
      </set>
      <set comment="kpoint 59">
       <r>   -3.9528    1.0000 </r>
       <r>   -0.7889    1.0000 </r>
       <r>    4.7424    1.0000 </r>
       <r>    4.7424    1.0000 </r>
       <r>    7.5246    0.0000 </r>
       <r>    9.2910    0.0000 </r>
       <r>    9.2910    0.0000 </r>
       <r>   13.7068    0.0000 </r>
      </set>
      <set comment="kpoint 60">
       <r>   -3.5911    1.0000 </r>
       <r>   -0.9640    1.0000 </r>
       <r>    3.4982    1.0000 </r>
       <r>    4.4655    1.0000 </r>
       <r>    8.1865    0.0000 </r>
       <r>    9.4660    0.0000 </r>
       <r>    9.8850    0.0000 </r>
       <r>   14.1666    0.0000 </r>
      </set>
     </set>
    </set>
   </array>
  </eigenvalues>
  <separator name="orbital magnetization" >
   <v name="MAGDIPOLOUT">      0.00000000      0.00000000      0.00000000</v>
  </separator>
  <dos>
   <i name="efermi">      6.21365124 </i>
   <total>
    <array>
     <dimension dim="1">gridpoints</dimension>
     <dimension dim="2">spin</dimension>
     <field>energy</field>
     <field>total</field>
     <field>integrated</field>
     <set>
      <set comment="spin 1">
       <r>    -8.0512     0.0000     0.0000 </r>
       <r>    -7.9660     0.0000     0.0000 </r>
       <r>    -7.8807     0.0000     0.0000 </r>
       <r>    -7.7955     0.0000     0.0000 </r>
       <r>    -7.7102     0.0000     0.0000 </r>
       <r>    -7.6250     0.0000     0.0000 </r>
       <r>    -7.5397     0.0000     0.0000 </r>
       <r>    -7.4545     0.0000     0.0000 </r>
       <r>    -7.3692     0.0000     0.0000 </r>
       <r>    -7.2839     0.0000     0.0000 </r>
       <r>    -7.1987     0.0000     0.0000 </r>
       <r>    -7.1134     0.0000     0.0000 </r>
       <r>    -7.0282     0.0000     0.0000 </r>
       <r>    -6.9429     0.0000     0.0000 </r>
       <r>    -6.8577     0.0000     0.0000 </r>
       <r>    -6.7724     0.0000     0.0000 </r>
       <r>    -6.6872     0.0000     0.0000 </r>
       <r>    -6.6019     0.0000     0.0000 </r>
       <r>    -6.5166     0.0000     0.0000 </r>
       <r>    -6.4314     0.0003     0.0000 </r>
       <r>    -6.3461     0.0016     0.0002 </r>
       <r>    -6.2609     0.0064     0.0007 </r>
       <r>    -6.1756     0.0185     0.0023 </r>
       <r>    -6.0904     0.0421     0.0059 </r>
       <r>    -6.0051     0.0767     0.0124 </r>
       <r>    -5.9199     0.1159     0.0223 </r>
       <r>    -5.8346     0.1520     0.0353 </r>
       <r>    -5.7494     0.1837     0.0509 </r>
       <r>    -5.6641     0.2149     0.0692 </r>
       <r>    -5.5788     0.2445     0.0901 </r>
       <r>    -5.4936     0.2645     0.1126 </r>
       <r>    -5.4083     0.2741     0.1360 </r>
       <r>    -5.3231     0.2893     0.1607 </r>
       <r>    -5.2378     0.3231     0.1882 </r>
       <r>    -5.1526     0.3612     0.2190 </r>
       <r>    -5.0673     0.3772     0.2512 </r>
       <r>    -4.9821     0.3713     0.2828 </r>
       <r>    -4.8968     0.3723     0.3146 </r>
       <r>    -4.8115     0.3961     0.3483 </r>
       <r>    -4.7263     0.4299     0.3850 </r>
       <r>    -4.6410     0.4608     0.4243 </r>
       <r>    -4.5558     0.4905     0.4661 </r>
       <r>    -4.4705     0.5177     0.5102 </r>
       <r>    -4.3853     0.5302     0.5554 </r>
       <r>    -4.3000     0.5214     0.5999 </r>
       <r>    -4.2148     0.5062     0.6431 </r>
       <r>    -4.1295     0.5221     0.6876 </r>
       <r>    -4.0442     0.5968     0.7384 </r>
       <r>    -3.9590     0.7021     0.7983 </r>
       <r>    -3.8737     0.7751     0.8644 </r>
       <r>    -3.7885     0.7935     0.9320 </r>
       <r>    -3.7032     0.7897     0.9994 </r>
       <r>    -3.6180     0.7940     1.0671 </r>
       <r>    -3.5327     0.7990     1.1352 </r>
       <r>    -3.4475     0.7754     1.2013 </r>
       <r>    -3.3622     0.7185     1.2625 </r>
       <r>    -3.2770     0.6794     1.3205 </r>
       <r>    -3.1917     0.7132     1.3813 </r>
       <r>    -3.1064     0.7938     1.4489 </r>
       <r>    -3.0212     0.8288     1.5196 </r>
       <r>    -2.9359     0.7599     1.5844 </r>
       <r>    -2.8507     0.6176     1.6370 </r>
       <r>    -2.7654     0.4762     1.6776 </r>
       <r>    -2.6802     0.3853     1.7105 </r>
       <r>    -2.5949     0.3593     1.7411 </r>
       <r>    -2.5097     0.3990     1.7751 </r>
       <r>    -2.4244     0.4853     1.8165 </r>
       <r>    -2.3391     0.5628     1.8645 </r>
       <r>    -2.2539     0.5646     1.9126 </r>
       <r>    -2.1686     0.4671     1.9524 </r>
       <r>    -2.0834     0.3100     1.9789 </r>
       <r>    -1.9981     0.1609     1.9926 </r>
       <r>    -1.9129     0.0637     1.9980 </r>
       <r>    -1.8276     0.0205     1.9998 </r>
       <r>    -1.7424     0.0154     2.0011 </r>
       <r>    -1.6571     0.0497     2.0053 </r>
       <r>    -1.5718     0.1504     2.0182 </r>
       <r>    -1.4866     0.3299     2.0463 </r>
       <r>    -1.4013     0.5250     2.0910 </r>
       <r>    -1.3161     0.6233     2.1442 </r>
       <r>    -1.2308     0.5961     2.1950 </r>
       <r>    -1.1456     0.5514     2.2420 </r>
       <r>    -1.0603     0.6116     2.2942 </r>
       <r>    -0.9751     0.7852     2.3611 </r>
       <r>    -0.8898     0.9799     2.4446 </r>
       <r>    -0.8046     1.1090     2.5392 </r>
       <r>    -0.7193     1.1492     2.6372 </r>
       <r>    -0.6340     1.1041     2.7313 </r>
       <r>    -0.5488     0.9769     2.8146 </r>
       <r>    -0.4635     0.8166     2.8842 </r>
       <r>    -0.3783     0.7162     2.9453 </r>
       <r>    -0.2930     0.7020     3.0051 </r>
       <r>    -0.2078     0.6817     3.0632 </r>
       <r>    -0.1225     0.5642     3.1113 </r>
       <r>    -0.0373     0.3948     3.1450 </r>
       <r>     0.0480     0.3026     3.1708 </r>
       <r>     0.1333     0.3473     3.2004 </r>
       <r>     0.2185     0.4702     3.2405 </r>
       <r>     0.3038     0.5615     3.2883 </r>
       <r>     0.3890     0.5495     3.3352 </r>
       <r>     0.4743     0.4468     3.3733 </r>
       <r>     0.5595     0.3251     3.4010 </r>
       <r>     0.6448     0.2529     3.4226 </r>
       <r>     0.7300     0.2639     3.4451 </r>
       <r>     0.8153     0.3434     3.4743 </r>
       <r>     0.9006     0.4174     3.5099 </r>
       <r>     0.9858     0.4000     3.5440 </r>
       <r>     1.0711     0.2881     3.5686 </r>
       <r>     1.1563     0.1690     3.5830 </r>
       <r>     1.2416     0.1252     3.5937 </r>
       <r>     1.3268     0.1770     3.6088 </r>
       <r>     1.4121     0.3121     3.6354 </r>
       <r>     1.4973     0.5162     3.6794 </r>
       <r>     1.5826     0.7444     3.7428 </r>
       <r>     1.6679     0.9082     3.8203 </r>
       <r>     1.7531     0.9619     3.9023 </r>
       <r>     1.8384     0.9638     3.9844 </r>
       <r>     1.9236     0.9867     4.0686 </r>
       <r>     2.0089     1.0237     4.1558 </r>
       <r>     2.0941     1.0385     4.2444 </r>
       <r>     2.1794     1.0455     4.3335 </r>
       <r>     2.2646     1.0731     4.4250 </r>
       <r>     2.3499     1.1009     4.5189 </r>
       <r>     2.4351     1.0888     4.6117 </r>
       <r>     2.5204     1.0374     4.7001 </r>
       <r>     2.6057     0.9919     4.7847 </r>
       <r>     2.6909     1.0006     4.8700 </r>
       <r>     2.7762     1.0876     4.9627 </r>
       <r>     2.8614     1.2413     5.0686 </r>
       <r>     2.9467     1.3965     5.1876 </r>
       <r>     3.0319     1.4641     5.3124 </r>
       <r>     3.1172     1.4308     5.4344 </r>
       <r>     3.2024     1.3878     5.5527 </r>
       <r>     3.2877     1.4079     5.6728 </r>
       <r>     3.3730     1.4424     5.7957 </r>
       <r>     3.4582     1.4029     5.9153 </r>
       <r>     3.5435     1.3033     6.0264 </r>
       <r>     3.6287     1.2664     6.1344 </r>
       <r>     3.7140     1.3737     6.2515 </r>
       <r>     3.7992     1.5283     6.3818 </r>
       <r>     3.8845     1.5412     6.5132 </r>
       <r>     3.9697     1.3577     6.6290 </r>
       <r>     4.0550     1.1187     6.7243 </r>
       <r>     4.1403     1.0079     6.8103 </r>
       <r>     4.2255     1.0855     6.9028 </r>
       <r>     4.3108     1.2513     7.0095 </r>
       <r>     4.3960     1.3466     7.1243 </r>
       <r>     4.4813     1.2919     7.2344 </r>
       <r>     4.5665     1.1324     7.3310 </r>
       <r>     4.6518     0.9715     7.4138 </r>
       <r>     4.7370     0.8835     7.4891 </r>
       <r>     4.8223     0.8730     7.5636 </r>
       <r>     4.9075     0.8662     7.6374 </r>
       <r>     4.9928     0.7721     7.7032 </r>
       <r>     5.0781     0.5961     7.7541 </r>
       <r>     5.1633     0.4421     7.7917 </r>
       <r>     5.2486     0.3884     7.8249 </r>
       <r>     5.3338     0.4074     7.8596 </r>
       <r>     5.4191     0.4114     7.8947 </r>
       <r>     5.5043     0.3544     7.9249 </r>
       <r>     5.5896     0.2673     7.9477 </r>
       <r>     5.6748     0.1977     7.9645 </r>
       <r>     5.7601     0.1543     7.9777 </r>
       <r>     5.8454     0.1183     7.9878 </r>
       <r>     5.9306     0.0787     7.9945 </r>
       <r>     6.0159     0.0417     7.9980 </r>
       <r>     6.1011     0.0169     7.9995 </r>
       <r>     6.1864     0.0054     7.9999 </r>
       <r>     6.2716     0.0033     8.0002 </r>
       <r>     6.3569     0.0105     8.0011 </r>
       <r>     6.4421     0.0342     8.0040 </r>
       <r>     6.5274     0.0811     8.0109 </r>
       <r>     6.6127     0.1419     8.0230 </r>
       <r>     6.6979     0.1929     8.0395 </r>
       <r>     6.7832     0.2270     8.0588 </r>
       <r>     6.8684     0.2706     8.0819 </r>
       <r>     6.9537     0.3500     8.1117 </r>
       <r>     7.0389     0.4469     8.1498 </r>
       <r>     7.1242     0.5121     8.1935 </r>
       <r>     7.2094     0.5370     8.2393 </r>
       <r>     7.2947     0.5718     8.2880 </r>
       <r>     7.3799     0.6406     8.3427 </r>
       <r>     7.4652     0.6953     8.4019 </r>
       <r>     7.5505     0.6981     8.4614 </r>
       <r>     7.6357     0.6887     8.5202 </r>
       <r>     7.7210     0.7354     8.5829 </r>
       <r>     7.8062     0.8659     8.6567 </r>
       <r>     7.8915     1.0575     8.7468 </r>
       <r>     7.9767     1.2679     8.8549 </r>
       <r>     8.0620     1.4503     8.9786 </r>
       <r>     8.1472     1.5503     9.1107 </r>
       <r>     8.2325     1.5403     9.2421 </r>
       <r>     8.3178     1.4574     9.3663 </r>
       <r>     8.4030     1.3731     9.4834 </r>
       <r>     8.4883     1.3343     9.5971 </r>
       <r>     8.5735     1.3318     9.7107 </r>
       <r>     8.6588     1.3060     9.8220 </r>
       <r>     8.7440     1.2117     9.9253 </r>
       <r>     8.8293     1.0955    10.0187 </r>
       <r>     8.9145     1.0585    10.1090 </r>
       <r>     8.9998     1.1623    10.2081 </r>
       <r>     9.0851     1.4182    10.3290 </r>
       <r>     9.1703     1.7720    10.4800 </r>
       <r>     9.2556     2.0539    10.6551 </r>
       <r>     9.3408     2.0813    10.8326 </r>
       <r>     9.4261     1.8536    10.9906 </r>
       <r>     9.5113     1.5619    11.1238 </r>
       <r>     9.5966     1.4049    11.2436 </r>
       <r>     9.6818     1.4280    11.3653 </r>
       <r>     9.7671     1.5292    11.4957 </r>
       <r>     9.8523     1.5799    11.6304 </r>
       <r>     9.9376     1.5255    11.7604 </r>
       <r>    10.0229     1.4141    11.8810 </r>
       <r>    10.1081     1.3325    11.9946 </r>
       <r>    10.1934     1.2934    12.1049 </r>
       <r>    10.2786     1.2422    12.2108 </r>
       <r>    10.3639     1.1686    12.3104 </r>
       <r>    10.4491     1.1184    12.4057 </r>
       <r>    10.5344     1.1226    12.5014 </r>
       <r>    10.6196     1.1777    12.6018 </r>
       <r>    10.7049     1.2623    12.7095 </r>
       <r>    10.7902     1.3505    12.8246 </r>
       <r>    10.8754     1.4252    12.9461 </r>
       <r>    10.9607     1.4611    13.0707 </r>
       <r>    11.0459     1.4105    13.1909 </r>
       <r>    11.1312     1.2574    13.2981 </r>
       <r>    11.2164     1.0592    13.3884 </r>
       <r>    11.3017     0.8988    13.4651 </r>
       <r>    11.3869     0.8160    13.5346 </r>
       <r>    11.4722     0.8083    13.6035 </r>
       <r>    11.5575     0.8778    13.6784 </r>
       <r>    11.6427     1.0318    13.7663 </r>
       <r>    11.7280     1.2379    13.8719 </r>
       <r>    11.8132     1.4217    13.9931 </r>
       <r>    11.8985     1.5100    14.1218 </r>
       <r>    11.9837     1.4561    14.2460 </r>
       <r>    12.0690     1.2522    14.3527 </r>
       <r>    12.1542     0.9673    14.4352 </r>
       <r>    12.2395     0.7353    14.4979 </r>
       <r>    12.3247     0.6545    14.5537 </r>
       <r>    12.4100     0.6993    14.6133 </r>
       <r>    12.4953     0.7465    14.6769 </r>
       <r>    12.5805     0.6981    14.7364 </r>
       <r>    12.6658     0.5837    14.7862 </r>
       <r>    12.7510     0.5325    14.8316 </r>
       <r>    12.8363     0.6487    14.8869 </r>
       <r>    12.9215     0.9141    14.9648 </r>
       <r>    13.0068     1.1906    15.0663 </r>
       <r>    13.0920     1.3090    15.1779 </r>
       <r>    13.1773     1.1842    15.2789 </r>
       <r>    13.2626     0.8782    15.3538 </r>
       <r>    13.3478     0.5576    15.4013 </r>
       <r>    13.4331     0.3737    15.4332 </r>
       <r>    13.5183     0.3581    15.4637 </r>
       <r>    13.6036     0.4250    15.4999 </r>
       <r>    13.6888     0.4729    15.5403 </r>
       <r>    13.7741     0.4670    15.5801 </r>
       <r>    13.8593     0.4310    15.6168 </r>
       <r>    13.9446     0.3989    15.6508 </r>
       <r>    14.0299     0.3905    15.6841 </r>
       <r>    14.1151     0.4165    15.7196 </r>
       <r>    14.2004     0.4754    15.7602 </r>
       <r>    14.2856     0.5279    15.8052 </r>
       <r>    14.3709     0.5017    15.8479 </r>
       <r>    14.4561     0.3715    15.8796 </r>
       <r>    14.5414     0.2037    15.8970 </r>
       <r>    14.6266     0.0807    15.9039 </r>
       <r>    14.7119     0.0233    15.9059 </r>
       <r>    14.7971     0.0079    15.9065 </r>
       <r>    14.8824     0.0148    15.9078 </r>
       <r>    14.9677     0.0416    15.9113 </r>
       <r>    15.0529     0.0863    15.9187 </r>
       <r>    15.1382     0.1284    15.9296 </r>
       <r>    15.2234     0.1433    15.9419 </r>
       <r>    15.3087     0.1358    15.9534 </r>
       <r>    15.3939     0.1318    15.9647 </r>
       <r>    15.4792     0.1349    15.9762 </r>
       <r>    15.5644     0.1228    15.9866 </r>
       <r>    15.6497     0.0873    15.9941 </r>
       <r>    15.7350     0.0459    15.9980 </r>
       <r>    15.8202     0.0176    15.9995 </r>
       <r>    15.9055     0.0048    15.9999 </r>
       <r>    15.9907     0.0010    16.0000 </r>
       <r>    16.0760     0.0001    16.0000 </r>
       <r>    16.1612     0.0000    16.0000 </r>
       <r>    16.2465     0.0000    16.0000 </r>
       <r>    16.3317     0.0000    16.0000 </r>
       <r>    16.4170     0.0000    16.0000 </r>
       <r>    16.5023     0.0000    16.0000 </r>
       <r>    16.5875     0.0000    16.0000 </r>
       <r>    16.6728     0.0000    16.0000 </r>
       <r>    16.7580     0.0000    16.0000 </r>
       <r>    16.8433     0.0000    16.0000 </r>
       <r>    16.9285     0.0000    16.0000 </r>
       <r>    17.0138     0.0000    16.0000 </r>
       <r>    17.0990     0.0000    16.0000 </r>
       <r>    17.1843     0.0000    16.0000 </r>
       <r>    17.2695     0.0000    16.0000 </r>
       <r>    17.3548     0.0000    16.0000 </r>
       <r>    17.4401     0.0000    16.0000 </r>
       <r>    17.5253     0.0000    16.0000 </r>
      </set>
     </set>
    </array>
   </total>
  </dos>
 </calculation>
 <structure name="finalpos" >
  <crystal>
   <varray name="basis" >
    <v>       0.00000000       2.70695600       2.70695600 </v>
    <v>       2.70695600       0.00000000       2.70695600 </v>
    <v>       2.70695600       2.70695600       0.00000000 </v>
   </varray>
   <i name="volume">     39.67103997 </i>
   <varray name="rec_basis" >
    <v>      -0.18470932       0.18470932       0.18470932 </v>
    <v>       0.18470932      -0.18470932       0.18470932 </v>
    <v>       0.18470932       0.18470932      -0.18470932 </v>
   </varray>
  </crystal>
  <varray name="positions" >
   <v>       0.00000000       0.00000000       0.00000000 </v>
   <v>       0.25000000       0.25000000       0.25000000 </v>
  </varray>
 </structure>
</modeling>
