unknown system                          
   1.00000000000000     
    -2.431523    2.431523    1.339206
     2.431523   -2.431523    1.339206
     2.431523    2.431523   -1.339206
   Si
     2
Direct
  0.750000  0.250000  0.500000
  0.500000  0.500000  0.000000
 
   36   36   36
 0.97138556350E+01 0.96442661934E+01 0.94417585508E+01 0.91237377758E+01 0.87151020032E+01
 0.82434241152E+01 0.77344834702E+01 0.72095051939E+01 0.66847236434E+01 0.61728209683E+01
 0.56849585107E+01 0.52320448371E+01 0.48246321839E+01 0.44718402673E+01 0.41802406546E+01
 0.39534163612E+01 0.37923572207E+01 0.36964406231E+01 0.36646257375E+01 0.36964398175E+01
 0.37923571951E+01 0.39534191490E+01 0.41802461202E+01 0.44718450153E+01 0.48246336390E+01
 0.52320457380E+01 0.56849635079E+01 0.61728295481E+01 0.66847304704E+01 0.72095068779E+01
 0.77344813977E+01 0.82434212221E+01 0.87151003192E+01 0.91237389690E+01 0.94417628969E+01
 0.96442704844E+01 0.96442704844E+01 0.97991834517E+01 0.98128558397E+01 0.96882998288E+01
 0.94399223316E+01 0.90898707401E+01 0.86632619414E+01 0.81838821029E+01 0.76717257804E+01
 0.71428941426E+01 0.66112348816E+01 0.60902935934E+01 0.55941905400E+01 0.51369366433E+01
 0.47307995017E+01 0.43848258258E+01 0.41042775787E+01 0.38910708509E+01 0.37448765059E+01
 0.36644713774E+01 0.36489279569E+01 0.36982204391E+01 0.38130572574E+01 0.39940816691E+01
 0.42408501115E+01 0.45510316238E+01 0.49201451701E+01 0.53419537046E+01 0.58092486937E+01
 0.63143331479E+01 0.68484438075E+01 0.73999584680E+01 0.79521749131E+01 0.84820305043E+01
 0.89609124912E+01 0.93578376731E+01 0.94417628969E+01 0.98128588078E+01 0.10049451193E+02
 0.10138748440E+02 0.10081379368E+02 0.98899224898E+01 0.95850040168E+01 0.91902988917E+01
 0.87281913092E+01 0.82175509044E+01 0.76740681446E+01 0.71123167400E+01 0.65478757986E+01
 0.59980011950E+01 0.54804229908E+01 0.50110842104E+01 0.46021445547E+01 0.42611201702E+01
 0.39912511617E+01 0.37926963043E+01 0.36640768607E+01 0.36039202867E+01 0.36115306302E+01
 0.36870536589E+01 0.38308857443E+01 0.40428620789E+01 0.43216771665E+01 0.46647841442E+01
 0.50687367227E+01 0.55295807175E+01 0.60426416915E+01 0.66011783142E+01 0.71940339421E+01
 0.78032493562E+01 0.84030050088E+01 0.89609124912E+01 0.91237389690E+01 0.96883020010E+01
 0.10138749513E+02 0.10447133573E+02 0.10598735592E+02 0.10593403620E+02 0.10443636101E+02
 0.10170028492E+02 0.97956787026E+01 0.93416276176E+01 0.88249690234E+01 0.82599609408E+01
 0.76609451232E+01 0.70449942277E+01 0.64325336700E+01 0.58455548861E+01 0.53045037181E+01
 0.48254909917E+01 0.44189192611E+01 0.40896788004E+01 0.38384679686E+01 0.36636286846E+01
 0.35629303424E+01 0.35347643547E+01 0.35784805824E+01 0.36940387772E+01 0.38814404223E+01
 0.41403821966E+01 0.44702790956E+01 0.48704597134E+01 0.53400421033E+01 0.58769281246E+01
 0.64756575850E+01 0.71245496223E+01 0.78032493562E+01 0.84820305043E+01 0.87151003192E+01
 0.94399221142E+01 0.10081379539E+02 0.10598735052E+02 0.10962209808E+02 0.11157231556E+02
 0.11185288149E+02 0.11060874563E+02 0.10806299256E+02 0.10444599681E+02 0.99941620961E+01
 0.94688150977E+01 0.88796616460E+01 0.82395384990E+01 0.75665522256E+01 0.68846464311E+01
 0.62209751506E+01 0.56015702990E+01 0.50474201090E+01 0.45723786964E+01 0.41831580111E+01
 0.38808776273E+01 0.36633399190E+01 0.35272699606E+01 0.34698978696E+01 0.34896088107E+01
 0.35858680074E+01 0.37589058188E+01 0.40095668060E+01 0.43393580551E+01 0.47503512031E+01
 0.52443993138E+01 0.58212582086E+01 0.64756575850E+01 0.71940339421E+01 0.79521749131E+01
 0.82434212221E+01 0.90898688714E+01 0.98899220360E+01 0.10593402798E+02 0.11157230078E+02
 0.11551819443E+02 0.11760461431E+02 0.11789392629E+02 0.11666485922E+02 0.11423682721E+02
 0.11082317214E+02 0.10648795913E+02 0.10122574607E+02 0.95109590016E+01 0.88288840715E+01
 0.80956254029E+01 0.73394692050E+01 0.65939676882E+01 0.58919438620E+01 0.52601180311E+01
 0.47161740865E+01 0.42686133022E+01 0.39186984818E+01 0.36633470757E+01 0.34979428625E+01
 0.34183626183E+01 0.34219719169E+01 0.35078368750E+01 0.36766366196E+01 0.39306247529E+01
 0.42735593625E+01 0.47101363481E+01 0.52443993138E+01 0.58769281246E+01 0.66011783142E+01
 0.73999584680E+01 0.77344813977E+01 0.86632593191E+01 0.95850033838E+01 0.10443636625E+02
 0.11185287279E+02 0.11760459658E+02 0.12125770222E+02 0.12280174256E+02 0.12261001846E+02
 0.12120515939E+02 0.11899575159E+02 0.11610230845E+02 0.11235591295E+02 0.10747220395E+02
 0.10131450733E+02 0.94091722658E+01 0.86142890273E+01 0.77811487002E+01 0.69511406227E+01
 0.61650069246E+01 0.54558162964E+01 0.48451880193E+01 0.43431656349E+01 0.39507636984E+01
 0.36636470660E+01 0.34756078850E+01 0.33810802793E+01 0.33764956594E+01 0.34607648278E+01
 0.36353546224E+01 0.39042434250E+01 0.42735593625E+01 0.47503512031E+01 0.53400421033E+01
 0.60426416915E+01 0.68484438075E+01 0.72095068779E+01 0.81838804792E+01 0.91902974993E+01
 0.10170029911E+02 0.11060876586E+02 0.11789392322E+02 0.12280172860E+02 0.12516215318E+02
 0.12541362490E+02 0.12435879718E+02 0.12279328263E+02 0.12115477187E+02 0.11934568119E+02
 0.11681641268E+02 0.11287781057E+02 0.10709995142E+02 0.99610863580E+01 0.91046139740E+01
 0.81937758097E+01 0.72792306677E+01 0.64104843967E+01 0.56272012303E+01 0.49547287910E+01
 0.44042169175E+01 0.39759823115E+01 0.36641011674E+01 0.34606168847E+01 0.33585615887E+01
 0.33536615978E+01 0.34450376290E+01 0.36353546224E+01 0.39306247529E+01 0.43393580551E+01
 0.48704597134E+01 0.55295807175E+01 0.63143331479E+01 0.66847304704E+01 0.76717281569E+01
 0.87281902405E+01 0.97956789698E+01 0.10806302867E+02 0.11666489472E+02 0.12261002694E+02
 0.12541362390E+02 0.12544957854E+02 0.12377369003E+02 0.12169962796E+02 0.12027129529E+02
 0.11983566680E+02 0.11990400080E+02 0.11937630861E+02 0.11703859481E+02 0.11211619675E+02
 0.10464595946E+02 0.95496834596E+01 0.85623439246E+01 0.75659032832E+01 0.66190269979E+01
 0.57677847928E+01 0.50407358049E+01 0.44495572959E+01 0.39934030088E+01 0.36644995194E+01
 0.34531059237E+01 0.33510353143E+01 0.33536615978E+01 0.34607648278E+01 0.36766366196E+01
 0.40095668060E+01 0.44702790956E+01 0.50687367227E+01 0.58092486937E+01 0.61728295481E+01
 0.71429009898E+01 0.82175532240E+01 0.93416272333E+01 0.10444602103E+02 0.11423688586E+02
 0.12120521078E+02 0.12435882665E+02 0.12377371364E+02 0.12058181507E+02 0.11659502599E+02
 0.11366515320E+02 0.11299164058E+02 0.11464883111E+02 0.11754793434E+02 0.11986845159E+02
 0.11978021142E+02 0.11615311600E+02 0.10897644343E+02 0.99344726118E+01 0.88735880477E+01
 0.78004345852E+01 0.67826976308E+01 0.58722139610E+01 0.50999690342E+01 0.44774838360E+01
 0.40023084868E+01 0.36646567234E+01 0.34531059237E+01 0.33585615887E+01 0.33764956594E+01
 0.35078368750E+01 0.37589058188E+01 0.41403821966E+01 0.46647841442E+01 0.53419537046E+01
 0.56849635079E+01 0.66112415919E+01 0.76740743604E+01 0.88249710915E+01 0.99941633206E+01
 0.11082322734E+02 0.11899583426E+02 0.12279335224E+02 0.12169969028E+02 0.11659508518E+02
 0.10955799946E+02 0.10324210648E+02 0.99990886034E+01 0.10099056269E+02 0.10580790380E+02
 0.11253296691E+02 0.11848315917E+02 0.12117267858E+02 0.11915806988E+02 0.11246168685E+02
 0.10246453555E+02 0.91165917475E+01 0.79742031735E+01 0.68953198658E+01 0.59365075816E+01
 0.51301670921E+01 0.44869163816E+01 0.40023084868E+01 0.36644995194E+01 0.34606168847E+01
 0.33810802793E+01 0.34219719169E+01 0.35858680074E+01 0.38814404223E+01 0.43216771665E+01
 0.49201451701E+01 0.52320457380E+01 0.60902953366E+01 0.71123227890E+01 0.82599666924E+01
 0.94688176708E+01 0.10648800384E+02 0.11610240458E+02 0.12115487751E+02 0.12027138458E+02
 0.11366525645E+02 0.10324220531E+02 0.92164933914E+01 0.83937854024E+01 0.81261297456E+01
 0.85067246490E+01 0.94150423993E+01 0.10558113654E+02 0.11573320663E+02 0.12149630513E+02
 0.12121234529E+02 0.11504849533E+02 0.10475550792E+02 0.92831242165E+01 0.80809669432E+01
 0.69526917156E+01 0.59582146488E+01 0.51301670921E+01 0.44774838360E+01 0.39934030088E+01
 0.36641011674E+01 0.34756078850E+01 0.34183626183E+01 0.34896088107E+01 0.36940387772E+01
 0.40428620789E+01 0.45510316238E+01 0.48246336390E+01 0.55941886813E+01 0.65478779525E+01
 0.76609521751E+01 0.88796672687E+01 0.10122578779E+02 0.11235600464E+02 0.11934582034E+02
 0.11983578815E+02 0.11299174631E+02 0.99991026643E+01 0.83937982657E+01 0.69139351826E+01
 0.59860830440E+01 0.58932649116E+01 0.66739644935E+01 0.81049091250E+01 0.97775842141E+01
 0.11235617358E+02 0.12116556768E+02 0.12248072544E+02 0.11674358241E+02 0.10615101582E+02
 0.93677389267E+01 0.81169715501E+01 0.69526917156E+01 0.59365075816E+01 0.50999690342E+01
 0.44495572959E+01 0.39759823115E+01 0.36636470660E+01 0.34979428625E+01 0.34698978696E+01
 0.35784805824E+01 0.38308857443E+01 0.42408501115E+01 0.44718450153E+01 0.51369374525E+01
 0.59980008826E+01 0.70449999779E+01 0.82395470487E+01 0.95109643042E+01 0.10747226866E+02
 0.11681655460E+02 0.11990417100E+02 0.11464895361E+02 0.10099067375E+02 0.81261454394E+01
 0.59860961805E+01 0.42195045258E+01 0.33090863853E+01 0.35203689316E+01 0.48065403707E+01
 0.68217325923E+01 0.90383233458E+01 0.10917096445E+02 0.12062688795E+02 0.12314702812E+02
 0.11757859005E+02 0.10661919169E+02 0.93677389267E+01 0.80809669432E+01 0.68953198658E+01
 0.58722139610E+01 0.50407358049E+01 0.44042169175E+01 0.39507636984E+01 0.36633470757E+01
 0.35272699606E+01 0.35347643547E+01 0.36870536589E+01 0.39940816691E+01 0.41802461202E+01
 0.47308065333E+01 0.54804252340E+01 0.64325378277E+01 0.75665623997E+01 0.88288928185E+01
 0.10131454813E+02 0.11287789644E+02 0.11937648641E+02 0.11754810954E+02 0.10580800770E+02
 0.85067342839E+01 0.58932783029E+01 0.33090957256E+01 0.13878934565E+01 0.63819481494E+00
 0.12733314468E+01 0.31345249333E+01 0.57437584248E+01 0.84631187344E+01 0.10691627916E+02
 0.12025230669E+02 0.12335171341E+02 0.11757859005E+02 0.10615101582E+02 0.92831242165E+01
 0.79742031735E+01 0.67826976308E+01 0.57677847928E+01 0.49547287910E+01 0.43431656349E+01
 0.39186984818E+01 0.36633399190E+01 0.35629303424E+01 0.36115306302E+01 0.38130572574E+01
 0.39534191490E+01 0.43848366085E+01 0.50110924034E+01 0.58455594682E+01 0.68846559415E+01
 0.80956383380E+01 0.94091786261E+01 0.10709996681E+02 0.11703868825E+02 0.11986863284E+02
 0.11253311218E+02 0.94150487584E+01 0.66739698391E+01 0.35203749052E+01 0.63819603686E+00
 -.12747831693E+01 -.17218749497E+01 -.57559008517E+00 0.18758511687E+01 0.50262259025E+01
 0.81488544017E+01 0.10610381341E+02 0.12025230669E+02 0.12314702812E+02 0.11674358241E+02
 0.10475550792E+02 0.91165917475E+01 0.78004345852E+01 0.66190269979E+01 0.56272012303E+01
 0.48451880193E+01 0.42686133022E+01 0.38808776273E+01 0.36636286846E+01 0.36039202867E+01
 0.36982204391E+01 0.37923571951E+01 0.41042868612E+01 0.46021577787E+01 0.53045117747E+01
 0.62209825123E+01 0.73394827149E+01 0.86143010160E+01 0.99610873579E+01 0.11211617535E+02
 0.11978028974E+02 0.11848330036E+02 0.10558121444E+02 0.81049092373E+01 0.48065381585E+01
 0.12733252924E+01 -.17218847600E+01 -.34560283500E+01 -.34841356866E+01 -.17914257212E+01
 0.12001667724E+01 0.47746051548E+01 0.81488544017E+01 0.10691627916E+02 0.12062688795E+02
 0.12248072544E+02 0.11504849533E+02 0.10246453555E+02 0.88735880477E+01 0.75659032832E+01
 0.64104843967E+01 0.54558162964E+01 0.47161740865E+01 0.41831580111E+01 0.38384679686E+01
 0.36640768607E+01 0.36489279569E+01 0.36964398175E+01 0.38910748710E+01 0.42611340176E+01
 0.48255051100E+01 0.56015784530E+01 0.65939773075E+01 0.77811623776E+01 0.91046200900E+01
 0.10464589558E+02 0.11615305513E+02 0.12117271724E+02 0.11573326257E+02 0.97775818435E+01
 0.68217243217E+01 0.31345125327E+01 -.57561043167E+00 -.34841562983E+01 -.48866302123E+01
 -.44259644342E+01 -.22153896315E+01 0.12001667724E+01 0.50262259025E+01 0.84631187344E+01
 0.10917096445E+02 0.12116556768E+02 0.12121234529E+02 0.11246168685E+02 0.99344726118E+01
 0.85623439246E+01 0.72792306677E+01 0.61650069246E+01 0.52601180311E+01 0.45723786964E+01
 0.40896788004E+01 0.37926963043E+01 0.36644713774E+01 0.36646257375E+01 0.37448752882E+01
 0.39912599773E+01 0.44189377129E+01 0.50474350718E+01 0.58919519029E+01 0.69511495663E+01
 0.81937837996E+01 0.95496796152E+01 0.10897630819E+02 0.11915797897E+02 0.12149628241E+02
 0.11235610746E+02 0.90383085188E+01 0.57437406531E+01 0.18758283943E+01 -.17914577471E+01
 -.44259917811E+01 -.53848694377E+01 -.44259644342E+01 -.17914257212E+01 0.18758511687E+01
 0.57437584248E+01 0.90383233458E+01 0.11235617358E+02 0.12149630513E+02 0.11915806988E+02
 0.10897644343E+02 0.95496834596E+01 0.81937758097E+01 0.69511406227E+01 0.58919438620E+01
 0.50474201090E+01 0.44189192611E+01 0.39912511617E+01 0.37448765059E+01 0.36964406231E+01
 0.36644691350E+01 0.37926985230E+01 0.40896955596E+01 0.45724017217E+01 0.52601322832E+01
 0.61650121514E+01 0.72792335927E+01 0.85623406699E+01 0.99344575475E+01 0.11246150669E+02
 0.12121223857E+02 0.12116546829E+02 0.10917076142E+02 0.84630918356E+01 0.50262001585E+01
 0.12001372926E+01 -.22154262108E+01 -.44259917811E+01 -.48866302123E+01 -.34841356866E+01
 -.57559008517E+00 0.31345249333E+01 0.68217325923E+01 0.97775842141E+01 0.11573320663E+02
 0.12117267858E+02 0.11615311600E+02 0.10464595946E+02 0.91046139740E+01 0.77811487002E+01
 0.65939676882E+01 0.56015702990E+01 0.48254909917E+01 0.42611201702E+01 0.38910708509E+01
 0.37923572207E+01 0.36489297859E+01 0.36640782540E+01 0.38384799131E+01 0.41831837572E+01
 0.47161983920E+01 0.54558259315E+01 0.64104825691E+01 0.75658953834E+01 0.88735709172E+01
 0.10246429130E+02 0.11504830258E+02 0.12248061167E+02 0.12062671186E+02 0.10691596390E+02
 0.81488198364E+01 0.47745762507E+01 0.12001372926E+01 -.17914577471E+01 -.34841562983E+01
 -.34560283500E+01 -.17218749497E+01 0.12733314468E+01 0.48065403707E+01 0.81049091250E+01
 0.10558113654E+02 0.11848315917E+02 0.11978021142E+02 0.11211619675E+02 0.99610863580E+01
 0.86142890273E+01 0.73394692050E+01 0.62209751506E+01 0.53045037181E+01 0.46021445547E+01
 0.41042775787E+01 0.39534163612E+01 0.36982268281E+01 0.36039283226E+01 0.36636399132E+01
 0.38809007070E+01 0.42686432966E+01 0.48452071334E+01 0.56272017790E+01 0.66190153219E+01
 0.78004141594E+01 0.91165618416E+01 0.10475520239E+02 0.11674339620E+02 0.12314690935E+02
 0.12025208079E+02 0.10610345420E+02 0.81488198364E+01 0.50262001585E+01 0.18758283943E+01
 -.57561043167E+00 -.17218847600E+01 -.12747831693E+01 0.63819481494E+00 0.35203689316E+01
 0.66739644935E+01 0.94150423993E+01 0.11253296691E+02 0.11986845159E+02 0.11703859481E+02
 0.10709995142E+02 0.94091722658E+01 0.80956254029E+01 0.68846464311E+01 0.58455548861E+01
 0.50110842104E+01 0.43848258258E+01 0.41802406546E+01 0.38130630138E+01 0.36115452472E+01
 0.35629468671E+01 0.36633612973E+01 0.39187279755E+01 0.43431919253E+01 0.49547369213E+01
 0.57677744167E+01 0.67826762290E+01 0.79741718819E+01 0.92830850173E+01 0.10615067857E+02
 0.11757841190E+02 0.12335159227E+02 0.12025208079E+02 0.10691596390E+02 0.84630918356E+01
 0.57437406531E+01 0.31345125327E+01 0.12733252924E+01 0.63819603686E+00 0.13878934565E+01
 0.33090863853E+01 0.58932649116E+01 0.85067246490E+01 0.10580790380E+02 0.11754793434E+02
 0.11937630861E+02 0.11287781057E+02 0.10131450733E+02 0.88288840715E+01 0.75665522256E+01
 0.64325336700E+01 0.54804229908E+01 0.47307995017E+01 0.44718402673E+01 0.39940823944E+01
 0.36870669069E+01 0.35347850368E+01 0.35272928123E+01 0.36633745410E+01 0.39507928319E+01
 0.44042337632E+01 0.50407315154E+01 0.58721942847E+01 0.68952912316E+01 0.80809285033E+01
 0.93676949130E+01 0.10661884496E+02 0.11757841190E+02 0.12314690935E+02 0.12062671186E+02
 0.10917076142E+02 0.90383085188E+01 0.68217243217E+01 0.48065381585E+01 0.35203749052E+01
 0.33090957256E+01 0.42195045258E+01 0.59860830440E+01 0.81261297456E+01 0.10099056269E+02
 0.11464883111E+02 0.11990400080E+02 0.11681641268E+02 0.10747220395E+02 0.95109590016E+01
 0.82395384990E+01 0.70449942277E+01 0.59980011950E+01 0.51369366433E+01 0.48246321839E+01
 0.42408466142E+01 0.38308904188E+01 0.35784969164E+01 0.34699201087E+01 0.34979683748E+01
 0.36636762682E+01 0.39760068999E+01 0.44495637192E+01 0.50999550081E+01 0.59364821591E+01
 0.69526593742E+01 0.81169306323E+01 0.93676949130E+01 0.10615067857E+02 0.11674339620E+02
 0.12248061167E+02 0.12116546829E+02 0.11235610746E+02 0.97775818435E+01 0.81049092373E+01
 0.66739698391E+01 0.58932783029E+01 0.59860961805E+01 0.69139351826E+01 0.83937854024E+01
 0.99990886034E+01 0.11299164058E+02 0.11983566680E+02 0.11934568119E+02 0.11235591295E+02
 0.10122574607E+02 0.88796616460E+01 0.76609451232E+01 0.65478757986E+01 0.55941905400E+01
 0.52320448371E+01 0.45510263808E+01 0.40428573670E+01 0.36940436317E+01 0.34896237391E+01
 0.34183834826E+01 0.34756340753E+01 0.36641300288E+01 0.39934225352E+01 0.44774827334E+01
 0.51301479654E+01 0.59581873483E+01 0.69526593742E+01 0.80809285033E+01 0.92830850173E+01
 0.10475520239E+02 0.11504830258E+02 0.12121223857E+02 0.12149628241E+02 0.11573326257E+02
 0.10558121444E+02 0.94150487584E+01 0.85067342839E+01 0.81261454394E+01 0.83937982657E+01
 0.92164933914E+01 0.10324210648E+02 0.11366515320E+02 0.12027129529E+02 0.12115477187E+02
 0.11610230845E+02 0.10648795913E+02 0.94688150977E+01 0.82599609408E+01 0.71123167400E+01
 0.60902935934E+01 0.56849585107E+01 0.49201379657E+01 0.43216662203E+01 0.38814330514E+01
 0.35858708096E+01 0.34219839308E+01 0.33810995424E+01 0.34606434429E+01 0.36645277619E+01
 0.40023249511E+01 0.44869125982E+01 0.51301479654E+01 0.59364821591E+01 0.68952912316E+01
 0.79741718819E+01 0.91165618416E+01 0.10246429130E+02 0.11246150669E+02 0.11915797897E+02
 0.12117271724E+02 0.11848330036E+02 0.11253311218E+02 0.10580800770E+02 0.10099067375E+02
 0.99991026643E+01 0.10324220531E+02 0.10955799946E+02 0.11659502599E+02 0.12169962796E+02
 0.12279328263E+02 0.11899575159E+02 0.11082317214E+02 0.99941620961E+01 0.88249690234E+01
 0.76740681446E+01 0.66112348816E+01 0.61728209683E+01 0.53419435898E+01 0.46647698532E+01
 0.41403662025E+01 0.37588962040E+01 0.35078377482E+01 0.33765056531E+01 0.33585801702E+01
 0.34531328476E+01 0.36646847262E+01 0.40023249511E+01 0.44774827334E+01 0.50999550081E+01
 0.58721942847E+01 0.67826762290E+01 0.78004141594E+01 0.88735709172E+01 0.99344575475E+01
 0.10897630819E+02 0.11615305513E+02 0.11978028974E+02 0.11986863284E+02 0.11754810954E+02
 0.11464895361E+02 0.11299174631E+02 0.11366525645E+02 0.11659508518E+02 0.12058181507E+02
 0.12377369003E+02 0.12435879718E+02 0.12120515939E+02 0.11423682721E+02 0.10444599681E+02
 0.93416276176E+01 0.82175509044E+01 0.71428941426E+01 0.66847236434E+01 0.58092385748E+01
 0.50687221770E+01 0.44702596366E+01 0.40095480152E+01 0.36766260554E+01 0.34607648402E+01
 0.33536708260E+01 0.33510537922E+01 0.34531328476E+01 0.36645277619E+01 0.39934225352E+01
 0.44495637192E+01 0.50407315154E+01 0.57677744167E+01 0.66190153219E+01 0.75658953834E+01
 0.85623406699E+01 0.95496796152E+01 0.10464589558E+02 0.11211617535E+02 0.11703868825E+02
 0.11937648641E+02 0.11990417100E+02 0.11983578815E+02 0.12027138458E+02 0.12169969028E+02
 0.12377371364E+02 0.12544957854E+02 0.12541362490E+02 0.12261001846E+02 0.11666485922E+02
 0.10806299256E+02 0.97956787026E+01 0.87281913092E+01 0.76717257804E+01 0.72095051939E+01
 0.63143273519E+01 0.55295702083E+01 0.48704426017E+01 0.43393360031E+01 0.39306050599E+01
 0.36353439513E+01 0.34450374734E+01 0.33536708260E+01 0.33585801702E+01 0.34606434429E+01
 0.36641300288E+01 0.39760068999E+01 0.44042337632E+01 0.49547369213E+01 0.56272017790E+01
 0.64104825691E+01 0.72792335927E+01 0.81937837996E+01 0.91046200900E+01 0.99610873579E+01
 0.10709996681E+02 0.11287789644E+02 0.11681655460E+02 0.11934582034E+02 0.12115487751E+02
 0.12279335224E+02 0.12435882665E+02 0.12541362390E+02 0.12516215318E+02 0.12280174256E+02
 0.11789392629E+02 0.11060874563E+02 0.10170028492E+02 0.91902988917E+01 0.81838821029E+01
 0.77344834702E+01 0.68484431133E+01 0.60426373273E+01 0.53400319514E+01 0.47503330688E+01
 0.42735364399E+01 0.39042236053E+01 0.36353439513E+01 0.34607648402E+01 0.33765056531E+01
 0.33810995424E+01 0.34756340753E+01 0.36636762682E+01 0.39507928319E+01 0.43431919253E+01
 0.48452071334E+01 0.54558259315E+01 0.61650121514E+01 0.69511495663E+01 0.77811623776E+01
 0.86143010160E+01 0.94091786261E+01 0.10131454813E+02 0.10747226866E+02 0.11235600464E+02
 0.11610240458E+02 0.11899583426E+02 0.12120521078E+02 0.12261002694E+02 0.12280172860E+02
 0.12125770222E+02 0.11760461431E+02 0.11185288149E+02 0.10443636101E+02 0.95850040168E+01
 0.86632619414E+01 0.82434241152E+01 0.73999603140E+01 0.66011781075E+01 0.58769247254E+01
 0.52443895051E+01 0.47101179828E+01 0.42735364399E+01 0.39306050599E+01 0.36766260554E+01
 0.35078377482E+01 0.34219839308E+01 0.34183834826E+01 0.34979683748E+01 0.36633745410E+01
 0.39187279755E+01 0.42686432966E+01 0.47161983920E+01 0.52601322832E+01 0.58919519029E+01
 0.65939773075E+01 0.73394827149E+01 0.80956383380E+01 0.88288928185E+01 0.95109643042E+01
 0.10122578779E+02 0.10648800384E+02 0.11082322734E+02 0.11423688586E+02 0.11666489472E+02
 0.11789392322E+02 0.11760459658E+02 0.11551819443E+02 0.11157231556E+02 0.10593403620E+02
 0.98899224898E+01 0.90898707401E+01 0.87151020032E+01 0.79521769512E+01 0.71940349547E+01
 0.64756573699E+01 0.58212550997E+01 0.52443895051E+01 0.47503330688E+01 0.43393360031E+01
 0.40095480152E+01 0.37588962040E+01 0.35858708096E+01 0.34896237391E+01 0.34699201087E+01
 0.35272928123E+01 0.36633612973E+01 0.38809007070E+01 0.41831837572E+01 0.45724017217E+01
 0.50474350718E+01 0.56015784530E+01 0.62209825123E+01 0.68846559415E+01 0.75665623997E+01
 0.82395470487E+01 0.88796672687E+01 0.94688176708E+01 0.99941633206E+01 0.10444602103E+02
 0.10806302867E+02 0.11060876586E+02 0.11185287279E+02 0.11157230078E+02 0.10962209808E+02
 0.10598735592E+02 0.10081379368E+02 0.94399223316E+01 0.91237377758E+01 0.84820310779E+01
 0.78032503414E+01 0.71245501504E+01 0.64756573699E+01 0.58769247254E+01 0.53400319514E+01
 0.48704426017E+01 0.44702596366E+01 0.41403662025E+01 0.38814330514E+01 0.36940436317E+01
 0.35784969164E+01 0.35347850368E+01 0.35629468671E+01 0.36636399132E+01 0.38384799131E+01
 0.40896955596E+01 0.44189377129E+01 0.48255051100E+01 0.53045117747E+01 0.58455594682E+01
 0.64325378277E+01 0.70449999779E+01 0.76609521751E+01 0.82599666924E+01 0.88249710915E+01
 0.93416272333E+01 0.97956789698E+01 0.10170029911E+02 0.10443636625E+02 0.10593402798E+02
 0.10598735052E+02 0.10447133573E+02 0.10138748440E+02 0.96882998288E+01 0.94417585508E+01
 0.89609099323E+01 0.84030049564E+01 0.78032503414E+01 0.71940349547E+01 0.66011781075E+01
 0.60426373273E+01 0.55295702083E+01 0.50687221770E+01 0.46647698532E+01 0.43216662203E+01
 0.40428573670E+01 0.38308904188E+01 0.36870669069E+01 0.36115452472E+01 0.36039283226E+01
 0.36640782540E+01 0.37926985230E+01 0.39912599773E+01 0.42611340176E+01 0.46021577787E+01
 0.50110924034E+01 0.54804252340E+01 0.59980008826E+01 0.65478779525E+01 0.71123227890E+01
 0.76740743604E+01 0.82175532240E+01 0.87281902405E+01 0.91902974993E+01 0.95850033838E+01
 0.98899220360E+01 0.10081379539E+02 0.10138749513E+02 0.10049451193E+02 0.98128558397E+01
 0.96442661934E+01 0.93578323649E+01 0.89609099323E+01 0.84820310779E+01 0.79521769512E+01
 0.73999603140E+01 0.68484431133E+01 0.63143273519E+01 0.58092385748E+01 0.53419435898E+01
 0.49201379657E+01 0.45510263808E+01 0.42408466142E+01 0.39940823944E+01 0.38130630138E+01
 0.36982268281E+01 0.36489297859E+01 0.36644691350E+01 0.37448752882E+01 0.38910748710E+01
 0.41042868612E+01 0.43848366085E+01 0.47308065333E+01 0.51369374525E+01 0.55941886813E+01
 0.60902953366E+01 0.66112415919E+01 0.71429009898E+01 0.76717281569E+01 0.81838804792E+01
 0.86632593191E+01 0.90898688714E+01 0.94399221142E+01 0.96883020010E+01 0.98128588078E+01
 0.97991834517E+01 0.96442706872E+01 0.95341453086E+01 0.93042127819E+01 0.89720721769E+01
 0.85620558407E+01 0.81007556253E+01 0.76127635763E+01 0.71179217520E+01 0.66307731525E+01
 0.61619249157E+01 0.57201758223E+01 0.53140706557E+01 0.49521608910E+01 0.46422027158E+01
 0.43901114564E+01 0.41993992791E+01 0.40713586588E+01 0.40058409129E+01 0.40022842265E+01
 0.40605467387E+01 0.41811513295E+01 0.43648086600E+01 0.46113840163E+01 0.49187042393E+01
 0.52816218474E+01 0.56917316094E+01 0.61380235047E+01 0.66083112668E+01 0.70906628494E+01
 0.75738094226E+01 0.80460555711E+01 0.84932659386E+01 0.88972918291E+01 0.92361411141E+01
 0.94863640934E+01 0.96270698029E+01 0.95341486645E+01 0.96442702171E+01 0.96270659733E+01
 0.94863604884E+01 0.92361402125E+01 0.88972929855E+01 0.84932670889E+01 0.80460556979E+01
 0.75738090712E+01 0.70906637927E+01 0.66083166119E+01 0.61380362956E+01 0.56917507837E+01
 0.52816398864E+01 0.49187117015E+01 0.46113793281E+01 0.43648010165E+01 0.41811507196E+01
 0.40605530319E+01 0.40022896634E+01 0.40058418996E+01 0.40713592696E+01 0.41994026359E+01
 0.43901127530E+01 0.46421952818E+01 0.49521460554E+01 0.53140565006E+01 0.57201678688E+01
 0.61619223663E+01 0.66307728436E+01 0.71179219096E+01 0.76127633234E+01 0.81007542477E+01
 0.85620543557E+01 0.89720730865E+01 0.93042165395E+01 0.92880949753E+01 0.96105291271E+01
 0.98128584872E+01 0.98839613156E+01 0.98244813546E+01 0.96456139874E+01 0.93657276230E+01
 0.90059446719E+01 0.85862294833E+01 0.81233309369E+01 0.76310538642E+01 0.71221599916E+01
 0.66103862216E+01 0.61111591634E+01 0.56405670123E+01 0.52133037996E+01 0.48408003769E+01
 0.45303663254E+01 0.42854569143E+01 0.41067219392E+01 0.39933890783E+01 0.39445361295E+01
 0.39598090476E+01 0.40393962282E+01 0.41834129443E+01 0.43910960913E+01 0.46602350473E+01
 0.49871089015E+01 0.53669608756E+01 0.57946516127E+01 0.62647994040E+01 0.67707979937E+01
 0.73027501764E+01 0.78451981841E+01 0.83759636073E+01 0.88671000942E+01 0.89254323518E+01
 0.94377329475E+01 0.98505966187E+01 0.10138749912E+02 0.10288216667E+02 0.10297622355E+02
 0.10176686165E+02 0.99424102912E+01 0.96143247104E+01 0.92105724193E+01 0.87462598709E+01
 0.82343863224E+01 0.76883319037E+01 0.71240935400E+01 0.65607308007E+01 0.60187007102E+01
 0.55170536776E+01 0.50709493222E+01 0.46904329250E+01 0.43805986627E+01 0.41427423480E+01
 0.39759738211E+01 0.38787852530E+01 0.38500723133E+01 0.38893792672E+01 0.39965318059E+01
 0.41710745311E+01 0.44119245325E+01 0.47174238912E+01 0.50856778593E+01 0.55147324560E+01
 0.60019817582E+01 0.65424428233E+01 0.71261985540E+01 0.77360254554E+01 0.83464945887E+01
 0.84732095827E+01 0.91421182809E+01 0.97425070770E+01 0.10237398553E+02 0.10598738166E+02
 0.10811266702E+02 0.10873472876E+02 0.10795356921E+02 0.10593756516E+02 0.10286986568E+02
 0.98909304526E+01 0.94180831961E+01 0.88795707581E+01 0.82886237852E+01 0.76632610909E+01
 0.70264924690E+01 0.64038723343E+01 0.58197079516E+01 0.52937058932E+01 0.48392001749E+01
 0.44631431163E+01 0.41674115694E+01 0.39507650295E+01 0.38108098003E+01 0.37453948321E+01
 0.37531773642E+01 0.38335366226E+01 0.39862635680E+01 0.42114103801E+01 0.45093858520E+01
 0.48810524711E+01 0.53273254518E+01 0.58477901067E+01 0.64382396639E+01 0.70876815780E+01
 0.77759510136E+01 0.79613210899E+01 0.87477637600E+01 0.95026716276E+01 0.10180784693E+02
 0.10741941619E+02 0.11157237451E+02 0.11412572266E+02 0.11507339385E+02 0.11454604729E+02
 0.11275024154E+02 0.10985575378E+02 0.10595519360E+02 0.10111583479E+02 0.95431009759E+01
 0.89024809977E+01 0.82097540946E+01 0.74925290877E+01 0.67824680845E+01 0.61101757485E+01
 0.55006984262E+01 0.49710574189E+01 0.45300717918E+01 0.41799424958E+01 0.39187130421E+01
 0.37427499030E+01 0.36485838400E+01 0.36338371175E+01 0.36974316006E+01 0.38395065082E+01
 0.40613934918E+01 0.43656427251E+01 0.47557470091E+01 0.52350497041E+01 0.58045198364E+01
 0.64595714721E+01 0.71867164902E+01 0.74178779856E+01 0.82818781266E+01 0.91533495745E+01
 0.99823872264E+01 0.10719432231E+02 0.11323166083E+02 0.11760469776E+02 0.12014370552E+02
 0.12099813857E+02 0.12048843198E+02 0.11890107517E+02 0.11634593913E+02 0.11274601990E+02
 0.10796488287E+02 0.10200469750E+02 0.95080275913E+01 0.87440372154E+01 0.79417599220E+01
 0.71401706606E+01 0.63771909926E+01 0.56838191745E+01 0.50809065213E+01 0.45789126761E+01
 0.41799466351E+01 0.38809014661E+01 0.36765674731E+01 0.35619743455E+01 0.35336992774E+01
 0.35903506980E+01 0.37326560459E+01 0.39634609318E+01 0.42875504834E+01 0.47108481368E+01
 0.52385082351E+01 0.58717907918E+01 0.66041915806E+01 0.68661675366E+01 0.77704431925E+01
 0.87201935235E+01 0.96641875333E+01 0.10546284781E+02 0.11312841507E+02 0.11902760229E+02
 0.12280182236E+02 0.12460277688E+02 0.12492842234E+02 0.12433456439E+02 0.12315119276E+02
 0.12133118242E+02 0.11850508856E+02 0.11422035017E+02 0.10825234169E+02 0.10083258031E+02
 0.92462638693E+01 0.83569642955E+01 0.74628786654E+01 0.66100552355E+01 0.58357397524E+01
 0.51644496584E+01 0.46078427027E+01 0.41674192086E+01 0.38384911750E+01 0.36140155321E+01
 0.34874708235E+01 0.34545320774E+01 0.35137792347E+01 0.36668674956E+01 0.39184339304E+01
 0.42755571071E+01 0.47462569108E+01 0.53366252667E+01 0.60467400362E+01 0.63238645858E+01
 0.72355033662E+01 0.82279216837E+01 0.92514338030E+01 0.10245979280E+02 0.11146425723E+02
 0.11860793136E+02 0.12323923712E+02 0.12541367856E+02 0.12579225897E+02 0.12531373431E+02
 0.12476725060E+02 0.12443726150E+02 0.12397717831E+02 0.12257648427E+02 0.11935291144E+02
 0.11379669428E+02 0.10607118485E+02 0.96975035529E+01 0.87219259988E+01 0.77376715070E+01
 0.67993547078E+01 0.59503680143E+01 0.52184257242E+01 0.46157711793E+01 0.41427450375E+01
 0.37927113608E+01 0.35566646637E+01 0.34266359473E+01 0.33976872416E+01 0.34687626286E+01
 0.36428437060E+01 0.39266284567E+01 0.43294511251E+01 0.48608738083E+01 0.55266975440E+01
 0.58041754064E+01 0.66946579749E+01 0.76977790734E+01 0.87680569629E+01 0.98442092295E+01
 0.10853618883E+02 0.11676716771E+02 0.12204906684E+02 0.12415574284E+02 0.12377372965E+02