    2    2   15    1
  0.1583559E+02  0.3690268E-09  0.3690268E-09  0.3690268E-09  0.5000000E-15
  1.000000000000000E-004
  CAR 
 unknown system                          
      8     56      8
 
  0.6250000E-01  0.6250000E-01  0.6250000E-01  0.1562500E-01
    1       -4.233310   1.000000
    2        4.409375   1.000000
    3        6.674989   1.000000
    4        8.192588   0.999463
    5       11.831112   0.000000
    6       13.679810   0.000000
    7       14.246941   0.000000
    8       16.110235   0.000000
 
  0.1875000E+00  0.6250000E-01  0.6250000E-01  0.3125000E-01
    1       -3.018129   1.000000
    2        4.164365   1.000000
    3        6.973307   1.000000
    4        9.134547   0.000349
    5       10.786810   0.000000
    6       10.891584   0.000000
    7       13.654653   0.000000
    8       14.404664   0.000000
 
  0.3125000E+00  0.6250000E-01  0.6250000E-01  0.3125000E-01
    1       -1.023144   1.000000
    2        4.458654   1.000000
    3        5.539559   1.000000
    4        7.243495   1.000000
    5        8.589740   0.678079
    6       11.719145   0.000000
    7       13.156523   0.000000
    8       13.554271   0.000000
 
  0.4375000E+00  0.6250000E-01  0.6250000E-01  0.1562500E-01
    1        1.305779   1.000000
    2        2.226326   1.000000
    3        5.759116   1.000000
    4        6.153490   1.000000
    5        8.472386   0.901848
    6       10.558044   0.000000
    7       13.069633   0.000000
    8       14.015881   0.000000
 
 -0.6250000E-01  0.6250000E-01  0.6250000E-01  0.7812500E-02
    1       -4.640772   1.000000
    2        5.013213   1.000000
    3        5.870929   1.000000
    4        7.860514   1.000000
    5       10.965677   0.000000
    6       14.831940   0.000000
    7       17.294188   0.000000
    8       17.395805   0.000000
 
  0.1875000E+00  0.1875000E+00  0.6250000E-01  0.1562500E-01
    1       -1.205858   1.000000
    2        4.450296   1.000000
    3        6.419121   1.000000
    4        6.614414   1.000000
    5        9.559987   0.000000
    6       11.545081   0.000000
    7       12.850570   0.000000
    8       13.042635   0.000000
 
  0.3125000E+00  0.1875000E+00  0.6250000E-01  0.3125000E-01
    1        1.253592   1.000000
    2        2.952548   1.000000
    3        4.297696   1.000000
    4        5.773014   1.000000
    5        9.814118   0.000000
    6       11.550354   0.000000
    7       12.571758   0.000000
    8       14.606227   0.000000
 
  0.4375000E+00  0.1875000E+00  0.6250000E-01  0.3125000E-01
    1       -0.109918   1.000000
    2        2.720228   1.000000
    3        4.899380   1.000000
    4        7.246261   1.000000
    5        9.061405   0.002034
    6       11.718304   0.000000
    7       13.636224   0.000000
    8       14.512397   0.000000
 
 -0.4375000E+00  0.1875000E+00  0.6250000E-01  0.3125000E-01
    1       -2.270848   1.000000
    2        2.101957   1.000000
    3        7.516536   1.000000
    4        8.794968   0.161369
    5       10.320050   0.000000
    6       11.441351   0.000000
    7       12.651838   0.000000
    8       14.987752   0.000000
 
 -0.3125000E+00  0.1875000E+00  0.6250000E-01  0.1562500E-01
    1       -3.667850   1.000000
    2        2.191107   1.000000
    3        7.181345   1.000000
    4        9.117163   0.000543
    5       12.106972   0.000000
    6       13.619034   0.000000
    7       14.172657   0.000000
    8       14.789839   0.000000
 
 -0.1875000E+00  0.1875000E+00  0.6250000E-01  0.1562500E-01
    1       -4.262746   1.000000
    2        3.002707   1.000000
    3        5.986760   1.000000
    4        9.096501   0.000901
    5       12.761471   0.000000
    6       12.926783   0.000000
    7       15.838054   0.000000
    8       17.182512   0.000000
 
 -0.6250000E-01  0.1875000E+00  0.6250000E-01  0.1562500E-01
    1       -4.044775   1.000000
    2        4.126178   1.000000
    3        5.355550   1.000000
    4        9.676168   0.000000
    5       12.554984   0.000000
    6       12.670335   0.000000
    7       13.711435   0.000000
    8       15.682834   0.000000
 
  0.3125000E+00  0.3125000E+00  0.6250000E-01  0.1562500E-01
    1        1.116362   1.000000
    2        1.184017   1.000000
    3        4.707229   1.000000
    4        7.188804   1.000000
    5        9.800916   0.000000
    6       10.625259   0.000000
    7       14.659533   0.000000
    8       15.509092   0.000000
 
  0.4375000E+00  0.3125000E+00  0.6250000E-01  0.3125000E-01
    1       -1.158236   1.000000
    2        0.307416   1.000000
    3        8.041364   0.999993
    4        8.652314   0.507928
    5        9.972930   0.000000
    6       11.362294   0.000000
    7       12.457919   0.000000
    8       13.847944   0.000000
 
 -0.4375000E+00  0.3125000E+00  0.6250000E-01  0.1562500E-01
    1       -2.730345   1.000000
    2        0.220905   1.000000
    3        8.016737   0.999997
    4       10.081807   0.000000
    5       10.599545   0.000000
    6       12.683874   0.000000
    7       13.720563   0.000000
    8       13.812116   0.000000
 
 -0.3125000E+00  0.3125000E+00  0.6250000E-01  0.1562500E-01
    1       -3.509618   1.000000
    2        0.906608   1.000000
    3        6.670025   1.000000
    4       10.035201   0.000000
    5       10.790191   0.000000
    6       14.120143   0.000000
    7       15.824671   0.000000
    8       16.875893   0.000000
 
 -0.1875000E+00  0.3125000E+00  0.6250000E-01  0.3125000E-01
    1       -3.480673   1.000000
    2        2.314870   1.000000
    3        5.474538   1.000000
    4       10.631268   0.000000
    5       11.025489   0.000000
    6       12.930856   0.000000
    7       14.704873   0.000000
    8       15.601934   0.000000
 
 -0.6250000E-01  0.3125000E+00  0.6250000E-01  0.1562500E-01
    1       -2.644841   1.000000
    2        3.988007   1.000000
    3        5.362676   1.000000
    4        8.437410   0.938156
    5       11.064965   0.000000
    6       12.606368   0.000000
    7       13.263808   0.000000
    8       13.639289   0.000000
 
  0.4375000E+00  0.4375000E+00  0.6250000E-01  0.7812500E-02
    1       -1.429206   1.000000
    2       -1.429206   1.000000
    3        9.160135   0.000178
    4        9.160135   0.000178
    5       11.331640   0.000000
    6       11.331642   0.000000
    7       13.526691   0.000000
    8       13.526693   0.000000
 
 -0.4375000E+00  0.4375000E+00  0.6250000E-01  0.1562500E-01
    1       -2.387733   1.000000
    2       -0.908442   1.000000
    3        7.712231   1.000000
    4        9.092696   0.000987
    5       11.146507   0.000000
    6       12.517867   0.000000
    7       16.582802   0.000000
    8       16.680653   0.000000
 
 -0.3125000E+00  0.4375000E+00  0.6250000E-01  0.3125000E-01
    1       -2.545885   1.000000
    2        0.387948   1.000000
    3        6.306722   1.000000
    4        9.034047   0.003688
    5       11.382303   0.000000
    6       12.853415   0.000000
    7       14.789990   0.000000
    8       15.313730   0.000000
 
 -0.1875000E+00  0.4375000E+00  0.6250000E-01  0.3125000E-01
    1       -1.901853   1.000000
    2        2.385230   1.000000
    3        5.566989   1.000000
    4        7.799175   1.000000
    5        9.657685   0.000000
    6       12.466964   0.000000
    7       13.959578   0.000000
    8       15.297645   0.000000
 
 -0.6250000E-01  0.4375000E+00  0.6250000E-01  0.1562500E-01
    1       -0.477988   1.000000
    2        4.034046   1.000000
    3        5.189368   1.000000
    4        5.978819   1.000000
    5        9.120327   0.000502
    6       11.538094   0.000000
    7       11.846188   0.000000
    8       15.127760   0.000000
 
 -0.4375000E+00 -0.4375000E+00  0.6250000E-01  0.1562500E-01
    1       -1.253321   1.000000
    2       -1.246644   1.000000
    3        7.503559   1.000000
    4        7.517903   1.000000
    5       11.473674   0.000000
    6       13.359915   0.000000
    7       14.197903   0.000000
    8       14.800230   0.000000
 
 -0.3125000E+00 -0.4375000E+00  0.6250000E-01  0.3125000E-01
    1       -0.797707   1.000000
    2        0.649788   1.000000
    3        6.463096   1.000000
    4        7.378630   1.000000
    5        8.241700   0.998269
    6       12.119809   0.000000
    7       15.053172   0.000000
    8       16.354723   0.000000
 
 -0.1875000E+00 -0.4375000E+00  0.6250000E-01  0.3125000E-01
    1        0.418016   1.000000
    2        3.031633   1.000000
    3        4.202040   1.000000
    4        6.410415   1.000000
    5        8.634574   0.557767
    6       10.565685   0.000000
    7       13.069095   0.000000
    8       16.438233   0.000000
 
 -0.6250000E-01 -0.4375000E+00  0.6250000E-01  0.1562500E-01
    1        0.902558   1.000000
    2        2.630667   1.000000
    3        6.212049   1.000000
    4        6.945384   1.000000
    5        7.558319   1.000000
    6       10.174915   0.000000
    7       11.605700   0.000000
    8       15.346339   0.000000
 
 -0.3125000E+00 -0.3125000E+00  0.6250000E-01  0.1562500E-01
    1        1.549185   1.000000
    2        1.726463   1.000000
    3        3.902635   1.000000
    4        7.280420   1.000000
    5        7.687779   1.000000
    6       10.188975   0.000000
    7       14.918342   0.000000
    8       15.579787   0.000000
 
 -0.1875000E+00 -0.3125000E+00  0.6250000E-01  0.3125000E-01
    1        0.590442   1.000000
    2        3.626822   1.000000
    3        4.966091   1.000000
    4        7.139836   1.000000
    5        8.246642   0.998064
    6       10.053562   0.000000
    7       11.645387   0.000000
    8       14.040911   0.000000
 
 -0.6250000E-01 -0.3125000E+00  0.6250000E-01  0.1562500E-01
    1       -1.575560   1.000000
    2        5.803258   1.000000
    3        6.815771   1.000000
    4        7.185960   1.000000
    5        8.417655   0.953440
    6       10.903307   0.000000
    7       11.616903   0.000000
    8       13.296951   0.000000
 
 -0.1875000E+00 -0.1875000E+00  0.6250000E-01  0.1562500E-01
    1       -1.760374   1.000000
    2        6.433155   1.000000
    3        7.101861   1.000000
    4        7.400189   1.000000
    5        8.756236   0.237313
    6       10.401568   0.000000
    7       11.599617   0.000000
    8       11.822194   0.000000
 
 -0.6250000E-01 -0.1875000E+00  0.6250000E-01  0.1562500E-01
    1       -3.393270   1.000000
    2        6.121171   1.000000
    3        6.869945   1.000000
    4        8.716102   0.333168
    5       10.841896   0.000000
    6       11.270583   0.000000
    7       12.074139   0.000000
    8       13.810353   0.000000
 
 -0.6250000E-01 -0.6250000E-01  0.6250000E-01  0.3906250E-02
    1       -4.422283   1.000000
    2        6.505454   1.000000
    3        6.505454   1.000000
    4        6.769544   1.000000
    5       10.721302   0.000000
    6       14.472796   0.000000
    7       14.589502   0.000000
    8       16.467034   0.000000
 
  0.1875000E+00  0.1875000E+00  0.1875000E+00  0.1562500E-01
    1       -0.288098   1.000000
    2        2.578852   1.000000
    3        5.989035   1.000000
    4        6.079322   1.000000
    5       10.552161   0.000000
    6       12.389225   0.000000
    7       13.617150   0.000000
    8       14.056014   0.000000
 
  0.3125000E+00  0.1875000E+00  0.1875000E+00  0.1562500E-01
    1        2.011269   1.000000
    2        2.760142   1.000000
    3        3.789711   1.000000
    4        4.440492   1.000000
    5       11.474137   0.000000
    6       13.394039   0.000000
    7       13.699236   0.000000
    8       13.879685   0.000000
 
 -0.1875000E+00  0.1875000E+00  0.1875000E+00  0.7812500E-02
    1       -3.886522   1.000000
    2        2.823392   1.000000
    3        4.252177   1.000000
    4       10.641969   0.000000
    5       11.216490   0.000000
    6       14.000208   0.000000
    7       16.233365   0.000000
    8       16.746024   0.000000
 
  0.3125000E+00  0.3125000E+00  0.1875000E+00  0.7812500E-02
    1        0.981323   1.000000
    2        0.981323   1.000000
    3        5.869266   1.000000
    4        5.869267   1.000000
    5       11.801373   0.000000
    6       11.801376   0.000000
    7       13.600422   0.000000
    8       13.600427   0.000000
 
 -0.3125000E+00  0.3125000E+00  0.1875000E+00  0.1562500E-01
    1       -3.137476   1.000000
    2        1.194980   1.000000
    3        4.470367   1.000000
    4        8.615275   0.610941
    5       12.555383   0.000000
    6       15.464883   0.000000
    7       16.065674   0.000000
    8       16.843558   0.000000
 
 -0.1875000E+00  0.3125000E+00  0.1875000E+00  0.1562500E-01
    1       -2.921113   1.000000
    2        2.288354   1.000000
    3        3.807571   1.000000
    4        8.770403   0.207495
    5       11.366856   0.000000
    6       13.989740   0.000000
    7       16.013311   0.000000
    8       16.314589   0.000000
 
 -0.4375000E+00  0.4375000E+00  0.1875000E+00  0.1562500E-01
    1       -2.023589   1.000000
    2       -0.562025   1.000000
    3        5.477421   1.000000
    4        6.876782   1.000000
    5       13.602358   0.000000
    6       14.602763   0.000000
    7       16.155743   0.000000
    8       16.537674   0.000000
 
 -0.3125000E+00  0.4375000E+00  0.1875000E+00  0.3125000E-01
    1       -1.995775   1.000000
    2        0.851946   1.000000
    3        4.166667   1.000000
    4        6.900762   1.000000
    5       11.005744   0.000000
    6       15.304351   0.000000
    7       16.368201   0.000000
    8       17.814421   0.000000
 
 -0.1875000E+00  0.4375000E+00  0.1875000E+00  0.1562500E-01
    1       -1.169241   1.000000
    2        2.520535   1.000000
    3        4.082261   1.000000
    4        6.993071   1.000000
    5        7.904086   1.000000
    6       13.706136   0.000000
    7       15.124654   0.000000
    8       16.449003   0.000000
 
 -0.4375000E+00 -0.4375000E+00  0.1875000E+00  0.1562500E-01
    1       -0.727668   1.000000
    2       -0.713515   1.000000
    3        5.328465   1.000000
    4        5.351136   1.000000
    5       10.861134   0.000000
    6       15.971432   0.000000
    7       16.641793   0.000000
    8       16.951206   0.000000
 
 -0.3125000E+00 -0.4375000E+00  0.1875000E+00  0.3125000E-01
    1       -0.088606   1.000000
    2        1.288207   1.000000
    3        4.578719   1.000000
    4        5.840387   1.000000
    5        7.030672   1.000000
    6       13.891456   0.000000
    7       16.650588   0.000000
    8       17.686118   0.000000
 
 -0.1875000E+00 -0.4375000E+00  0.1875000E+00  0.1562500E-01
    1        1.261881   1.000000
    2        2.985589   1.000000
    3        4.155098   1.000000
    4        5.066808   1.000000
    5        7.251830   1.000000
    6       11.674653   0.000000
    7       13.010575   0.000000
    8       16.610911   0.000000
 
 -0.3125000E+00 -0.3125000E+00  0.1875000E+00  0.1562500E-01
    1        2.095255   1.000000
    2        2.568180   1.000000
    3        3.638954   1.000000
    4        5.755165   1.000000
    5        5.871596   1.000000
    6       11.923577   0.000000
    7       14.384895   0.000000
    8       15.186165   0.000000
 
 -0.1875000E+00 -0.3125000E+00  0.1875000E+00  0.1562500E-01
    1        0.243909   1.000000
    2        4.620141   1.000000
    3        5.546439   1.000000
    4        6.620208   1.000000
    5        7.417112   1.000000
    6       10.428505   0.000000
    7       11.500339   0.000000
    8       12.981226   0.000000
 
 -0.1875000E+00 -0.1875000E+00  0.1875000E+00  0.3906250E-02
    1       -1.945811   1.000000
    2        7.785628   1.000000
    3        7.785628   1.000000
    4        7.881648   1.000000
    5        8.096608   0.999961
    6        9.372128   0.000000
    7       11.320498   0.000000
    8       11.320501   0.000000
 
 -0.3125000E+00  0.3125000E+00  0.3125000E+00  0.7812500E-02
    1       -2.398287   1.000000
    2        1.334480   1.000000
    3        2.929918   1.000000
    4        6.553584   1.000000
    5       14.214652   0.000000
    6       15.095615   0.000000
    7       16.651151   0.000000
    8       18.084445   0.000000
 
 -0.4375000E+00  0.4375000E+00  0.3125000E+00  0.1562500E-01
    1       -1.306775   1.000000
    2        0.084679   1.000000
    3        3.448521   1.000000
    4        4.803982   1.000000
    5       14.546015   0.000000
    6       14.733330   0.000000
    7       17.631331   0.000000
    8       18.699926   0.000000
 
 -0.3125000E+00  0.4375000E+00  0.3125000E+00  0.1562500E-01
    1       -1.093320   1.000000
    2        1.167920   1.000000
    3        2.793372   1.000000
    4        5.001213   1.000000
    5       10.552067   0.000000
    6       17.458759   0.000000
    7       17.822354   0.000000
    8       18.836235   0.000000
 
 -0.4375000E+00 -0.4375000E+00  0.3125000E+00  0.1562500E-01
    1        0.097249   1.000000
    2        0.121828   1.000000
    3        3.470622   1.000000
    4        3.485667   1.000000
    5       10.391556   0.000000
    6       17.701273   0.000000
    7       18.987776   0.000000
    8       19.608806   0.000000
 
 -0.3125000E+00 -0.4375000E+00  0.3125000E+00  0.1562500E-01
    1        0.915796   1.000000
    2        1.779272   1.000000
    3        3.407692   1.000000
    4        4.240826   1.000000
    5        6.599538   1.000000
    6       15.555855   0.000000
    7       16.791737   0.000000
    8       17.962917   0.000000
 
 -0.3125000E+00 -0.3125000E+00  0.3125000E+00  0.3906250E-02
    1        2.309604   1.000000
    2        3.279923   1.000000
    3        4.034819   1.000000
    4        4.745172   1.000000
    5        4.745172   1.000000
    6       13.635185   0.000000
    7       14.203796   0.000000
    8       14.203801   0.000000
 
 -0.4375000E+00  0.4375000E+00  0.4375000E+00  0.7812500E-02
    1       -0.288652   1.000000
    2        0.581805   1.000000
    3        2.241098   1.000000
    4        3.099791   1.000000
    5       14.446941   0.000000
    6       14.484672   0.000000
    7       19.868680   0.000000
    8       20.633387   0.000000
 
 -0.4375000E+00 -0.4375000E+00  0.4375000E+00  0.3906250E-02
    1        0.771688   1.000000
    2        0.811474   1.000000
    3        2.447856   1.000000
    4        2.447856   1.000000
    5       10.228177   0.000000
    6       18.213640   0.000000
    7       20.151147   0.000000
    8       20.202033   0.000000
