unknown system                          
           1
    -2.431523    2.431523    1.339206
     2.431523   -2.431523    1.339206
     2.431523    2.431523   -1.339206
   Si
   2
Direct configuration=     1
   0.75000000  0.25000000  0.50000000
   0.50000000  0.50000000  0.00000000
