unknown system                          
   1.00000000000000     
    -2.421413    2.421413    1.305049
     2.421413   -2.421413    1.305049
     2.421413    2.421413   -1.305049
   Si
     2
Direct
  0.250000  0.750000  0.500000
  0.000000  0.000000 -0.000000
 
   28   28   28
 -.54811973360E+01 -.39651209805E+01 -.12704414854E-01 0.48909505163E+01 0.90888886245E+01
 0.11467797325E+02 0.11811245767E+02 0.10687730149E+02 0.90139130165E+01 0.73959191841E+01
 0.60197138010E+01 0.49597436956E+01 0.42255115515E+01 0.37980857698E+01 0.36579995206E+01
 0.37980142730E+01 0.42255660656E+01 0.49599138740E+01 0.60197776862E+01 0.73958503842E+01
 0.90139015265E+01 0.10687801303E+02 0.11811247829E+02 0.11467751877E+02 0.90889530713E+01
 0.48910526992E+01 -.12780594976E-01 -.39653024604E+01 -.39653024604E+01 -.47039127304E+01
 -.25439105641E+01 0.16587574631E+01 0.63415368266E+01 0.99767200531E+01 0.11700121268E+02
 0.11533047711E+02 0.10170900012E+02 0.84946543359E+01 0.69448240951E+01 0.56634658247E+01
 0.47032439377E+01 0.40622159595E+01 0.37192733117E+01 0.36578988583E+01 0.38751102952E+01
 0.43821503291E+01 0.51998858995E+01 0.63430536176E+01 0.77899821428E+01 0.94465840084E+01
 0.11074390262E+02 0.11952136867E+02 0.11207369827E+02 0.84358077205E+01 0.40715530461E+01
 -.61240961889E+00 -.12780594976E-01 -.25440388144E+01 -.25285125421E+01 0.11344576666E-01
 0.40547837621E+01 0.80994668358E+01 0.10861769291E+02 0.11776580881E+02 0.11085168672E+02
 0.95503724092E+01 0.79165684967E+01 0.64617618901E+01 0.52936140286E+01 0.44434057863E+01
 0.39000734068E+01 0.36424267601E+01 0.36576721110E+01 0.39468289130E+01 0.45241035686E+01
 0.54105593648E+01 0.66155837186E+01 0.81055926070E+01 0.97708317510E+01 0.11325577384E+02
 0.12006649322E+02 0.11040460596E+02 0.81959920309E+01 0.40715530461E+01 0.48910526992E+01
 0.16587233857E+01 0.11300557957E-01 0.61740115779E+00 0.32029205842E+01 0.67016312922E+01
 0.97951242531E+01 0.11517559215E+02 0.11606662478E+02 0.10473420089E+02 0.88695666519E+01
 0.73118898388E+01 0.59735098862E+01 0.49297575383E+01 0.41932542916E+01 0.37469699617E+01
 0.35713889105E+01 0.36575415152E+01 0.40097212699E+01 0.46440103227E+01 0.55803473845E+01
 0.68221481588E+01 0.83257303298E+01 0.99713284577E+01 0.11447761844E+02 0.12019038968E+02
 0.11040460596E+02 0.84358077205E+01 0.90889530713E+01 0.63415817402E+01 0.40547975822E+01
 0.32029593951E+01 0.41472443661E+01 0.64516833447E+01 0.91216777744E+01 0.11109938088E+02
 0.11791304515E+02 0.11167799755E+02 0.97490778742E+01 0.81686551627E+01 0.67146510406E+01
 0.55064454638E+01 0.45904423833E+01 0.39650076394E+01 0.36104037784E+01 0.35098400988E+01
 0.36576758865E+01 0.40605170963E+01 0.47352071461E+01 0.56995187268E+01 0.69510373953E+01
 0.84387572772E+01 0.10039100639E+02 0.11447761844E+02 0.12006649322E+02 0.11207369827E+02
 0.11467751877E+02 0.99767009248E+01 0.80994506561E+01 0.67016795001E+01 0.64517770119E+01
 0.74630321973E+01 0.92387442803E+01 0.10947437971E+02 0.11851452655E+02 0.11640888130E+02
 0.10513549431E+02 0.89936684028E+01 0.74879958478E+01 0.61574563093E+01 0.50843497424E+01
 0.42919396723E+01 0.37694259578E+01 0.34970340226E+01 0.34609522527E+01 0.36580492691E+01
 0.40962957273E+01 0.47923000563E+01 0.57609814885E+01 0.69948462533E+01 0.84387572772E+01
 0.99713284577E+01 0.11325577384E+02 0.11952136867E+02 0.11811247829E+02 0.11700094379E+02
 0.10861686353E+02 0.97950616596E+01 0.91217373590E+01 0.92388543582E+01 0.10093496805E+02
 0.11217696667E+02 0.11994627832E+02 0.11986492266E+02 0.11137185477E+02 0.97580562718E+01
 0.82661408176E+01 0.68657180445E+01 0.56685100831E+01 0.47267164395E+01 0.40473878280E+01
 0.36152773925E+01 0.34122433631E+01 0.34271134999E+01 0.36584471746E+01 0.41148041079E+01
 0.48117440933E+01 0.57609814885E+01 0.69510373953E+01 0.83257303298E+01 0.97708317510E+01
 0.11074390262E+02 0.10687801303E+02 0.11533129601E+02 0.11776581151E+02 0.11517451428E+02
 0.11109854742E+02 0.10947488248E+02 0.11217790504E+02 0.11784016134E+02 0.12268636023E+02
 0.12278452054E+02 0.11628195432E+02 0.10435058623E+02 0.90208509908E+01 0.76107237175E+01
 0.63340805298E+01 0.52697035183E+01 0.44479715213E+01 0.38664649070E+01 0.35090475980E+01
 0.33598719078E+01 0.34098387136E+01 0.36586166890E+01 0.41148041079E+01 0.47923000563E+01
 0.56995187268E+01 0.68221481588E+01 0.81055926070E+01 0.94465840084E+01 0.90139015265E+01
 0.10170981907E+02 0.11085293531E+02 0.11606691083E+02 0.11791210561E+02 0.11851374424E+02
 0.11994657531E+02 0.12268695865E+02 0.12519308789E+02 0.12487471065E+02 0.11977511403E+02
 0.10987654083E+02 0.97162490934E+01 0.83638349470E+01 0.70647862135E+01 0.59174397623E+01
 0.49761478367E+01 0.42576597535E+01 0.37555592670E+01 0.34549201837E+01 0.33421699719E+01
 0.34098387136E+01 0.36584471746E+01 0.40962957273E+01 0.47352071461E+01 0.55803473845E+01
 0.66155837186E+01 0.77899821428E+01 0.73958503842E+01 0.84945975510E+01 0.95504311543E+01
 0.10473544891E+02 0.11167848579E+02 0.11640831629E+02 0.11986436343E+02 0.12278459942E+02
 0.12487494743E+02 0.12483978281E+02 0.12125184612E+02 0.11364637242E+02 0.10302787649E+02
 0.90833783396E+01 0.78318369426E+01 0.66565130329E+01 0.56320621234E+01 0.47969786407E+01
 0.41612847064E+01 0.37182156842E+01 0.34549201837E+01 0.33598719078E+01 0.34271134999E+01
 0.36580492691E+01 0.40605170963E+01 0.46440103227E+01 0.54105593648E+01 0.63430536176E+01
 0.60197776862E+01 0.69447572406E+01 0.79164833230E+01 0.88695833005E+01 0.97491699264E+01
 0.10513604733E+02 0.11137170535E+02 0.11628166900E+02 0.11977503028E+02 0.12125180882E+02
 0.11983687636E+02 0.11502965091E+02 0.10718958071E+02 0.97133839432E+01 0.85909388680E+01
 0.74587531104E+01 0.64046604088E+01 0.54873147699E+01 0.47368005255E+01 0.41612847064E+01
 0.37555592670E+01 0.35090475980E+01 0.34122433631E+01 0.34609522527E+01 0.36576758865E+01
 0.40097212699E+01 0.45241035686E+01 0.51998858995E+01 0.49599138740E+01 0.56635553876E+01
 0.64617187090E+01 0.73118010594E+01 0.81686312646E+01 0.89937143439E+01 0.97581047240E+01
 0.10435074354E+02 0.10987648175E+02 0.11364621077E+02 0.11502947310E+02 0.11353253836E+02
 0.10903922138E+02 0.10189447494E+02 0.92835348259E+01 0.82791298948E+01 0.72667807695E+01
 0.63196155543E+01 0.54873147699E+01 0.47969786407E+01 0.42576597535E+01 0.38664649070E+01
 0.36152773925E+01 0.34970340226E+01 0.35098400988E+01 0.36575415152E+01 0.39468289130E+01
 0.43821503291E+01 0.42255660656E+01 0.47033615155E+01 0.52937015185E+01 0.59734993696E+01
 0.67145810801E+01 0.74879479849E+01 0.82661455991E+01 0.90208838574E+01 0.97162782013E+01
 0.10302795242E+02 0.10718942402E+02 0.10903902443E+02 0.10816659940E+02 0.10451794128E+02
 0.98436126674E+01 0.90572903106E+01 0.81724549918E+01 0.72667807695E+01 0.64046604088E+01
 0.56320621234E+01 0.49761478367E+01 0.44479715213E+01 0.40473878280E+01 0.37694259578E+01
 0.36104037784E+01 0.35713889105E+01 0.36576721110E+01 0.38751102952E+01 0.37980142730E+01
 0.40621647247E+01 0.44434347965E+01 0.49298184735E+01 0.55064627131E+01 0.61574171495E+01
 0.68656671340E+01 0.76107025207E+01 0.83638489474E+01 0.90834052902E+01 0.97133968233E+01
 0.10189437819E+02 0.10451779263E+02 0.10460980759E+02 0.10209385060E+02 0.97235413576E+01
 0.90572903106E+01 0.82791298948E+01 0.74587531104E+01 0.66565130329E+01 0.59174397623E+01
 0.52697035183E+01 0.47267164395E+01 0.42919396723E+01 0.39650076394E+01 0.37469699617E+01
 0.36424267601E+01 0.36578988583E+01 0.36579995206E+01 0.37191458844E+01 0.38999311653E+01
 0.41931972520E+01 0.45904657885E+01 0.50843812405E+01 0.56685016664E+01 0.63340427695E+01
 0.70647550953E+01 0.78318331818E+01 0.85909551150E+01 0.92835483419E+01 0.98436097887E+01
 0.10209374967E+02 0.10336656579E+02 0.10209385060E+02 0.98436126674E+01 0.92835348259E+01
 0.85909388680E+01 0.78318369426E+01 0.70647862135E+01 0.63340805298E+01 0.56685100831E+01
 0.50843497424E+01 0.45904423833E+01 0.41932542916E+01 0.39000734068E+01 0.37192733117E+01
 0.37980857698E+01 0.36578767304E+01 0.36422793758E+01 0.37467881970E+01 0.39649011139E+01
 0.42919304215E+01 0.47267479891E+01 0.52697181797E+01 0.59174225658E+01 0.66564827143E+01
 0.74587357741E+01 0.82791353300E+01 0.90573032290E+01 0.97235414065E+01 0.10209374967E+02
 0.10460980759E+02 0.10451794128E+02 0.10189447494E+02 0.97133839432E+01 0.90833783396E+01
 0.83638349470E+01 0.76107237175E+01 0.68657180445E+01 0.61574563093E+01 0.55064454638E+01
 0.49297575383E+01 0.44434057863E+01 0.40622159595E+01 0.42255115515E+01 0.38751119754E+01
 0.36576364446E+01 0.35712662214E+01 0.36102480715E+01 0.37693205147E+01 0.40473607361E+01
 0.44479944171E+01 0.49761763864E+01 0.56320642145E+01 0.64046344001E+01 0.72667561050E+01
 0.81724560197E+01 0.90573032290E+01 0.98436097887E+01 0.10451779263E+02 0.10816659940E+02
 0.10903922138E+02 0.10718958071E+02 0.10302787649E+02 0.97162490934E+01 0.90208509908E+01
 0.82661408176E+01 0.74879958478E+01 0.67146510406E+01 0.59735098862E+01 0.52936140286E+01
 0.47032439377E+01 0.49597436956E+01 0.43820184432E+01 0.39467733208E+01 0.36575068989E+01
 0.35097795495E+01 0.34969568840E+01 0.36152132561E+01 0.38664349725E+01 0.42576725573E+01
 0.47970139528E+01 0.54873282929E+01 0.63195916892E+01 0.72667561050E+01 0.82791353300E+01
 0.92835483419E+01 0.10189437819E+02 0.10903902443E+02 0.11353253836E+02 0.11502965091E+02
 0.11364637242E+02 0.10987654083E+02 0.10435058623E+02 0.97580562718E+01 0.89936684028E+01
 0.81686551627E+01 0.73118898388E+01 0.64617618901E+01 0.56634658247E+01 0.60197138010E+01
 0.51997231821E+01 0.45239520577E+01 0.40096397996E+01 0.36576577620E+01 0.34609718221E+01
 0.34122644816E+01 0.35090376979E+01 0.37555339105E+01 0.41612912962E+01 0.47368377983E+01
 0.54873282929E+01 0.64046344001E+01 0.74587357741E+01 0.85909551150E+01 0.97133968233E+01
 0.10718942402E+02 0.11502947310E+02 0.11983687636E+02 0.12125184612E+02 0.11977511403E+02
 0.11628195432E+02 0.11137185477E+02 0.10513549431E+02 0.97490778742E+01 0.88695666519E+01
 0.79165684967E+01 0.69448240951E+01 0.73959191841E+01 0.63430343896E+01 0.54104627518E+01
 0.46438991471E+01 0.40604434808E+01 0.36580570687E+01 0.34272062359E+01 0.33599723375E+01
 0.34549471243E+01 0.37181931910E+01 0.41612912962E+01 0.47970139528E+01 0.56320642145E+01
 0.66564827143E+01 0.78318331818E+01 0.90834052902E+01 0.10302795242E+02 0.11364621077E+02
 0.12125180882E+02 0.12483978281E+02 0.12487471065E+02 0.12278452054E+02 0.11986492266E+02
 0.11640888130E+02 0.11167799755E+02 0.10473420089E+02 0.95503724092E+01 0.84946543359E+01
 0.90139130165E+01 0.77900267768E+01 0.66156130518E+01 0.55803504510E+01 0.47351710157E+01
 0.40962487095E+01 0.36584786825E+01 0.34099748668E+01 0.33423006117E+01 0.34549471243E+01
 0.37555339105E+01 0.42576725573E+01 0.49761763864E+01 0.59174225658E+01 0.70647550953E+01
 0.83638489474E+01 0.97162782013E+01 0.10987648175E+02 0.11977503028E+02 0.12487494743E+02
 0.12519308789E+02 0.12268636023E+02 0.11994627832E+02 0.11851452655E+02 0.11791304515E+02
 0.11606662478E+02 0.11085168672E+02 0.10170900012E+02 0.10687730149E+02 0.94465473217E+01
 0.81055945169E+01 0.68222169864E+01 0.56996180358E+01 0.47923334093E+01 0.41147790353E+01
 0.36586577934E+01 0.34099748668E+01 0.33599723375E+01 0.35090376979E+01 0.38664349725E+01
 0.44479944171E+01 0.52697181797E+01 0.63340427695E+01 0.76107025207E+01 0.90208838574E+01
 0.10435074354E+02 0.11628166900E+02 0.12278459942E+02 0.12268695865E+02 0.11784016134E+02
 0.11217696667E+02 0.10947437971E+02 0.11109938088E+02 0.11517559215E+02 0.11776580881E+02
 0.11533047711E+02 0.11811245767E+02 0.11074362409E+02 0.97707565906E+01 0.83256877054E+01
 0.69511303940E+01 0.57611391058E+01 0.48118053842E+01 0.41147790353E+01 0.36584786825E+01
 0.34272062359E+01 0.34122644816E+01 0.36152132561E+01 0.40473607361E+01 0.47267479891E+01
 0.56685016664E+01 0.68656671340E+01 0.82661455991E+01 0.97581047240E+01 0.11137170535E+02
 0.11986436343E+02 0.11994657531E+02 0.11217790504E+02 0.10093496805E+02 0.92387442803E+01
 0.91216777744E+01 0.97951242531E+01 0.10861769291E+02 0.11700121268E+02 0.11467797325E+02
 0.11952228375E+02 0.11325605219E+02 0.99712303939E+01 0.84386865920E+01 0.69949471867E+01
 0.57611391058E+01 0.47923334093E+01 0.40962487095E+01 0.36580570687E+01 0.34609718221E+01
 0.34969568840E+01 0.37693205147E+01 0.42919304215E+01 0.50843812405E+01 0.61574171495E+01
 0.74879479849E+01 0.89937143439E+01 0.10513604733E+02 0.11640831629E+02 0.11851374424E+02
 0.10947488248E+02 0.92388543582E+01 0.74630321973E+01 0.64516833447E+01 0.67016312922E+01
 0.80994668358E+01 0.99767200531E+01 0.90888886245E+01 0.11207423812E+02 0.12006815950E+02
 0.11447828291E+02 0.10038995251E+02 0.84386865920E+01 0.69511303940E+01 0.56996180358E+01
 0.47351710157E+01 0.40604434808E+01 0.36576577620E+01 0.35097795495E+01 0.36102480715E+01
 0.39649011139E+01 0.45904657885E+01 0.55064627131E+01 0.67145810801E+01 0.81686312646E+01
 0.97491699264E+01 0.11167848579E+02 0.11791210561E+02 0.11109854742E+02 0.91217373590E+01
 0.64517770119E+01 0.41472443661E+01 0.32029205842E+01 0.40547837621E+01 0.63415368266E+01
 0.48909505163E+01 0.84356724204E+01 0.11040516833E+02 0.12019234322E+02 0.11447828291E+02
 0.99712303939E+01 0.83256877054E+01 0.68222169864E+01 0.55803504510E+01 0.46438991471E+01
 0.40096397996E+01 0.36575068989E+01 0.35712662214E+01 0.37467881970E+01 0.41931972520E+01
 0.49298184735E+01 0.59734993696E+01 0.73118010594E+01 0.88695833005E+01 0.10473544891E+02
 0.11606691083E+02 0.11517451428E+02 0.97950616596E+01 0.67016795001E+01 0.32029593951E+01
 0.61740115779E+00 0.11344576666E-01 0.16587574631E+01 -.12704414854E-01 0.40714163374E+01
 0.81958289917E+01 0.11040516833E+02 0.12006815950E+02 0.11325605219E+02 0.97707565906E+01
 0.81055945169E+01 0.66156130518E+01 0.54104627518E+01 0.45239520577E+01 0.39467733208E+01
 0.36576364446E+01 0.36422793758E+01 0.38999311653E+01 0.44434347965E+01 0.52937015185E+01
 0.64617187090E+01 0.79164833230E+01 0.95504311543E+01 0.11085293531E+02 0.11776581151E+02
 0.10861686353E+02 0.80994506561E+01 0.40547975822E+01 0.11300557957E-01 -.25285125421E+01
 -.25439105641E+01 -.39651209805E+01 -.61231666040E+00 0.40714163374E+01 0.84356724204E+01
 0.11207423812E+02 0.11952228375E+02 0.11074362409E+02 0.94465473217E+01 0.77900267768E+01
 0.63430343896E+01 0.51997231821E+01 0.43820184432E+01 0.38751119754E+01 0.36578767304E+01
 0.37191458844E+01 0.40621647247E+01 0.47033615155E+01 0.56635553876E+01 0.69447572406E+01
 0.84945975510E+01 0.10170981907E+02 0.11533129601E+02 0.11700094379E+02 0.99767009248E+01
 0.63415817402E+01 0.16587233857E+01 -.25440388144E+01 -.47039127304E+01 -.39647869231E+01
 -.28849432868E+01 0.54561948247E+00 0.50178518625E+01 0.89710261540E+01 0.11283319456E+02
 0.11660182935E+02 0.10582643276E+02 0.89187934728E+01 0.72898606095E+01 0.58923653606E+01
 0.48065694310E+01 0.40447685618E+01 0.35868123597E+01 0.34096038319E+01 0.35024351254E+01
 0.38710846123E+01 0.45356144477E+01 0.55189385578E+01 0.68207227046E+01 0.83812347453E+01
 0.10046453127E+02 0.11334213159E+02 0.11376692302E+02 0.95571406768E+01 0.59582202355E+01
 0.15133896210E+01 -.22726804060E+01 -.28851121837E+01 -.39648223807E+01 -.22725902792E+01
 0.15134237077E+01 0.59582076455E+01 0.95572346839E+01 0.11376856607E+02 0.11334284052E+02
 0.10046463655E+02 0.83813387756E+01 0.68208684283E+01 0.55189510062E+01 0.45355304557E+01
 0.38710791610E+01 0.35024915141E+01 0.34095788178E+01 0.35867436477E+01 0.40447923386E+01
 0.48066188888E+01 0.58922757608E+01 0.72896862720E+01 0.89187021177E+01 0.10582596031E+02
 0.11660043477E+02 0.11283169794E+02 0.89710323048E+01 0.50179208982E+01 0.54554055502E+00
 0.67615334182E+00 -.21299307326E+01 -.25436727149E+01 -.42288227848E+00 0.33638089246E+01
 0.73765204889E+01 0.10285065768E+02 0.11412137815E+02 0.10890138139E+02 0.94267040474E+01
 0.78002990118E+01 0.63334850880E+01 0.51457463284E+01 0.42757257956E+01 0.37137953808E+01
 0.34361831561E+01 0.34269367151E+01 0.36856724784E+01 0.42273619005E+01 0.50760470511E+01
 0.62470573431E+01 0.77162352815E+01 0.93861763423E+01 0.11015225376E+02 0.11901871134E+02
 0.11243710335E+02 0.87163955350E+01 0.47892240070E+01 0.53411830597E+01 0.18852435487E+01
 -.15932576332E+00 0.11504980592E-01 0.22866183893E+01 0.57044288131E+01 0.89415931591E+01
 0.10932666733E+02 0.11285101037E+02 0.10316183029E+02 0.87595193499E+01 0.72041840043E+01
 0.58520078011E+01 0.47905532417E+01 0.40386114172E+01 0.35793340511E+01 0.33904814643E+01
 0.34609343607E+01 0.37948864481E+01 0.44101369323E+01 0.53301621561E+01 0.65643811937E+01
 0.80775884605E+01 0.97598925528E+01 0.11336334311E+02 0.12094124673E+02 0.11336995441E+02
 0.88918719610E+01 0.94732545507E+01 0.65580309069E+01 0.39225547041E+01 0.26332702172E+01
 0.32029878659E+01 0.53315356055E+01 0.80721771419E+01 0.10316961348E+02 0.11312964912E+02
 0.10938369286E+02 0.96384001243E+01 0.80804097883E+01 0.66224098831E+01 0.53996998290E+01
 0.44694229377E+01 0.38340876980E+01 0.34730409398E+01 0.33671831421E+01 0.35099974364E+01
 0.39090936705E+01 0.45835978136E+01 0.55549516600E+01 0.68262369329E+01 0.83532763755E+01
 0.10019218367E+02 0.11540176903E+02 0.12250563521E+02 0.11577954701E+02 0.11910110171E+02
 0.10319786990E+02 0.81719087737E+01 0.63758325673E+01 0.57173749192E+01 0.64516505619E+01
 0.81751850154E+01 0.10051861277E+02 0.11248764445E+02 0.11326104795E+02 0.10383045999E+02
 0.89203123604E+01 0.74229323338E+01 0.60834575361E+01 0.49974187093E+01 0.41960173809E+01
 0.36703646295E+01 0.33991810294E+01 0.33672194282E+01 0.35716836602E+01 0.40222458228E+01
 0.47379535586E+01 0.57371259581E+01 0.70167462946E+01 0.85263153072E+01 0.10147482902E+02
 0.11615999481E+02 0.12353535456E+02 0.12357803069E+02 0.12223098940E+02 0.11215967496E+02
 0.98374736953E+01 0.87797953342E+01 0.85599372578E+01 0.92386267399E+01 0.10395622908E+02
 0.11371562432E+02 0.11622692824E+02 0.10981911053E+02 0.96972614632E+01 0.82233580456E+01
 0.68204564821E+01 0.56127507458E+01 0.46624370867E+01 0.39812023333E+01 0.35538764370E+01
 0.33608528606E+01 0.33905734096E+01 0.36427925073E+01 0.41280002388E+01 0.48640048217E+01
 0.58653138981E+01 0.71235136779E+01 0.85845399375E+01 0.10133367493E+02 0.11547010278E+02
 0.11316495423E+02 0.12207633930E+02 0.12389094448E+02 0.11934718928E+02 0.11224351671E+02
 0.10731880602E+02 0.10749289714E+02 0.11217533790E+02 0.11768930413E+02 0.11948979287E+02
 0.11476238916E+02 0.10388390630E+02 0.89970567899E+01 0.75878802316E+01 0.63030831019E+01
 0.52309121988E+01 0.44078055550E+01 0.38329662533E+01 0.34892617863E+01 0.33598983134E+01
 0.34362809791E+01 0.37196383804E+01 0.42203298695E+01 0.49540643573E+01 0.59311983229E+01
 0.71388493573E+01 0.85219258094E+01 0.99726946704E+01 0.96701601193E+01 0.10918667951E+02
 0.11860691971E+02 0.12305417769E+02 0.12301370357E+02 0.12098962607E+02 0.11980773296E+02
 0.12074072156E+02 0.12268475452E+02 0.12290437631E+02 0.11882134800E+02 0.10968838581E+02
 0.97128681354E+01 0.83577188417E+01 0.70501410024E+01 0.58951989070E+01 0.49529460972E+01
 0.42424151207E+01 0.37566401304E+01 0.34794047036E+01 0.33968578031E+01 0.35025222670E+01
 0.37983832554E+01 0.42940861476E+01 0.50026904842E+01 0.59303273783E+01 0.70606149403E+01
 0.83396450083E+01 0.80466192309E+01 0.92404207593E+01 0.10369499002E+02 0.11309653277E+02
 0.11928931129E+02 0.12238789328E+02 0.12372713699E+02 0.12465411047E+02 0.12540716291E+02
 0.12487346726E+02 0.12138072736E+02 0.11396422570E+02 0.10324768252E+02 0.90902388259E+01
 0.78247643016E+01 0.66399060515E+01 0.56143752007E+01 0.47884932171E+01 0.41716069239E+01
 0.37552430959E+01 0.35254607760E+01 0.34709290707E+01 0.35867079895E+01 0.38752837686E+01
 0.43453597115E+01 0.50070786016E+01 0.58624538803E+01 0.68925514904E+01 0.66440984250E+01
 0.76593936426E+01 0.87079943387E+01 0.97097969503E+01 0.10593325696E+02 0.11291278509E+02
 0.11781617575E+02 0.12106537383E+02 0.12300517705E+02 0.12334746104E+02 0.12125106075E+02
 0.11598750607E+02 0.10769592488E+02 0.97298590729E+01 0.85826123507E+01 0.74355841229E+01
 0.63788050118E+01 0.54716734862E+01 0.47428305927E+01 0.41979316994E+01 0.38297037847E+01
 0.36267537416E+01 0.35798402736E+01 0.36854635396E+01 0.39467798059E+01 0.43715997153E+01
 0.49670982051E+01 0.57314247066E+01 0.55447720689E+01 0.63297866722E+01 0.72011966780E+01
 0.81056195101E+01 0.89854896228E+01 0.97917455356E+01 0.10491130220E+02 0.11058592107E+02
 0.11476583075E+02 0.11721606071E+02 0.11746859662E+02 0.11502922955E+02 0.10979317438E+02
 0.10209430806E+02 0.92640729504E+01 0.82361178870E+01 0.72172392597E+01 0.62803808056E+01
 0.54728105854E+01 0.48179754934E+01 0.43216124320E+01 0.39787642740E+01 0.37804812512E+01
 0.37196137689E+01 0.37945211670E+01 0.40094734746E+01 0.43715666687E+01 0.48850895207E+01
 0.47655870390E+01 0.53131683498E+01 0.59682550036E+01 0.67001183689E+01 0.74711181261E+01
 0.82429890746E+01 0.89822532650E+01 0.96608774767E+01 0.10250810940E+02 0.10716168009E+02
 0.11010500902E+02 0.11084705965E+02 0.10903899857E+02 0.10464450479E+02 0.98011461944E+01
 0.89802960204E+01 0.80828012377E+01 0.71859214262E+01 0.63510156918E+01 0.56192989889E+01
 0.50132359950E+01 0.45404147701E+01 0.41985277850E+01 0.39812959162E+01 0.38843309255E+01
 0.39086563739E+01 0.40601328684E+01 0.43452546118E+01 0.42938927055E+01 0.46150796245E+01
 0.50497987117E+01 0.55808813696E+01 0.61865230213E+01 0.68433083286E+01 0.75281020158E+01
 0.82178136983E+01 0.88864056762E+01 0.95000675252E+01 0.10013953263E+02 0.10374902749E+02
 0.10532012205E+02 0.10451776790E+02 0.10130665862E+02 0.95986458882E+01 0.89119996345E+01
 0.81393364575E+01 0.73472735277E+01 0.65907014752E+01 0.59087519476E+01 0.53248163977E+01
 0.48488886505E+01 0.44817856889E+01 0.42209551597E+01 0.40661039357E+01 0.40218433320E+01
 0.40958457845E+01 0.41143405515E+01 0.42200312568E+01 0.44417834490E+01 0.47695874172E+01
 0.51900643494E+01 0.56900980920E+01 0.62579139911E+01 0.68811647849E+01 0.75431565107E+01
 0.82185992499E+01 0.88703101436E+01 0.94489290864E+01 0.98978405405E+01 0.10163658516E+02
 0.10209363920E+02 0.10024881594E+02 0.96304521959E+01 0.90713851293E+01 0.84067192063E+01
 0.76966319770E+01 0.69928836232E+01 0.63339929189E+01 0.57445147499E+01 0.52372193866E+01
 0.48174010490E+01 0.44882858481E+01 0.42554258094E+01 0.41277048327E+01 0.42201530921E+01
 0.41143572237E+01 0.41276011927E+01 0.42552973843E+01 0.44882031090E+01 0.48173465269E+01
 0.52371618696E+01 0.57444596528E+01 0.63339439743E+01 0.69928285311E+01 0.76965831035E+01
 0.84067073762E+01 0.90714032979E+01 0.96304610012E+01 0.10024872185E+02 0.10209359658E+02
 0.10163659802E+02 0.98978282620E+01 0.94489175934E+01 0.88703363747E+01 0.82186638809E+01
 0.75432304601E+01 0.68812403981E+01 0.62579936068E+01 0.56901562551E+01 0.51900890887E+01
 0.47696322629E+01 0.44418968696E+01 0.46151291461E+01 0.42939968008E+01 0.40958929975E+01
 0.40217944432E+01 0.40660188329E+01 0.42208821207E+01 0.44817195983E+01 0.48488306016E+01
 0.53247846572E+01 0.59087335529E+01 0.65906679334E+01 0.73472395196E+01 0.81393359380E+01
 0.89120175871E+01 0.95986409740E+01 0.10130642849E+02 0.10451769752E+02 0.10532017906E+02
 0.10374898652E+02 0.10013957495E+02 0.95001129737E+01 0.88864802688E+01 0.82178902284E+01
 0.75281909856E+01 0.68434122303E+01 0.61865843041E+01 0.55808612461E+01 0.50497667251E+01
 0.53130556873E+01 0.47655604936E+01 0.43453210255E+01 0.40602006031E+01 0.39086787776E+01
 0.38843232117E+01 0.39812600964E+01 0.41984622082E+01 0.45403612856E+01 0.50132298834E+01
 0.56193071531E+01 0.63509970736E+01 0.71859016438E+01 0.80828157339E+01 0.89803139287E+01
 0.98011265354E+01 0.10464419896E+02 0.10903900498E+02 0.11084721956E+02 0.11010507682E+02
 0.10716193658E+02 0.10250877459E+02 0.96609472481E+01 0.89823045254E+01 0.82430679049E+01
 0.74712355867E+01 0.67001793199E+01 0.59681880868E+01 0.63296871775E+01 0.55446151941E+01
 0.48850138151E+01 0.43715924696E+01 0.40095427882E+01 0.37946007236E+01 0.37196757871E+01
 0.37804778842E+01 0.39787030443E+01 0.43215750866E+01 0.48179988411E+01 0.54728354217E+01
 0.62803691935E+01 0.72172393993E+01 0.82361573295E+01 0.92640957692E+01 0.10209402777E+02
 0.10979289841E+02 0.11502933610E+02 0.11746875027E+02 0.11721613988E+02 0.11476630198E+02
 0.11058675981E+02 0.10491174716E+02 0.97917410044E+01 0.89855286748E+01 0.81057246126E+01
 0.72012437415E+01 0.76594058818E+01 0.66439900772E+01 0.57312806548E+01 0.49670172599E+01
 0.43715895418E+01 0.39468265782E+01 0.36855630256E+01 0.35799308833E+01 0.36267554766E+01
 0.38296480504E+01 0.41979251181E+01 0.47428838919E+01 0.54717024564E+01 0.63787978871E+01
 0.74356151100E+01 0.85826841603E+01 0.97298881544E+01 0.10769562800E+02 0.11598732427E+02
 0.12125115263E+02 0.12334735710E+02 0.12300509485E+02 0.12106599532E+02 0.11781707794E+02
 0.11291279048E+02 0.10593246774E+02 0.97097724215E+01 0.87080526989E+01 0.92404052247E+01
 0.80465777131E+01 0.68924570422E+01 0.58623704731E+01 0.50070250150E+01 0.43453170225E+01
 0.38752888455E+01 0.35867876020E+01 0.34709991519E+01 0.35254399217E+01 0.37551992486E+01
 0.41716436151E+01 0.47885697585E+01 0.56143968926E+01 0.66399078933E+01 0.78248345514E+01
 0.90903376863E+01 0.10324795617E+02 0.11396394719E+02 0.12138064566E+02 0.12487335668E+02
 0.12540654553E+02 0.12465370870E+02 0.12372777234E+02 0.12238867460E+02 0.11928879807E+02
 0.11309507713E+02 0.10369408024E+02 0.10918535384E+02 0.96700657080E+01 0.83395452909E+01
 0.70605507117E+01 0.59303234101E+01 0.50026702391E+01 0.42940126374E+01 0.37983435576E+01
 0.35025594528E+01 0.33968756321E+01 0.34793523603E+01 0.37566226425E+01 0.42424994299E+01
 0.49530311919E+01 0.58952067254E+01 0.70501609146E+01 0.83578265001E+01 0.97129726756E+01
 0.10968849106E+02 0.11882111067E+02 0.12290438812E+02 0.12268431880E+02 0.12073950614E+02
 0.11980696502E+02 0.12099008916E+02 0.12301414101E+02 0.12305323126E+02 0.11860517715E+02
 0.12207486489E+02 0.11316365396E+02 0.99725438097E+01 0.85217869657E+01 0.71388268606E+01
 0.59312625090E+01 0.49540610630E+01 0.42202318852E+01 0.37195715668E+01 0.34362780499E+01
 0.33598608857E+01 0.34891926786E+01 0.38329919880E+01 0.44079287214E+01 0.52309865835E+01
 0.63030784455E+01 0.75879277294E+01 0.89971862925E+01 0.10388468553E+02 0.11476217621E+02
 0.11948963693E+02 0.11768943958E+02 0.11217464439E+02 0.10749130229E+02 0.10731781269E+02
 0.11224363411E+02 0.11934708453E+02 0.12388979092E+02 0.12222990927E+02 0.12357732405E+02
 0.11546926376E+02 0.10133202244E+02 0.85844027769E+01 0.71235421694E+01 0.58654170225E+01
 0.48639960737E+01 0.41278949179E+01 0.36427308287E+01 0.33905500452E+01 0.33607802432E+01
 0.35538192088E+01 0.39812800845E+01 0.46625765620E+01 0.56127969142E+01 0.68204488220E+01
 0.82234369418E+01 0.96973845304E+01 0.10981929401E+02 0.11622632249E+02 0.11371560768E+02
 0.10395655914E+02 0.92385601631E+01 0.85597916314E+01 0.87797054091E+01 0.98374411195E+01
 0.11215892210E+02 0.10319652033E+02 0.11910034913E+02 0.12353565513E+02 0.11615984813E+02
 0.10147348084E+02 0.85262278073E+01 0.70168300409E+01 0.57372351029E+01 0.47379264891E+01
 0.40221596549E+01 0.35716584642E+01 0.33671963349E+01 0.33991012033E+01 0.36703459660E+01
 0.41961395527E+01 0.49975427075E+01 0.60834650080E+01 0.74229336889E+01 0.89204139199E+01
 0.10383127490E+02 0.11326042870E+02 0.11248670125E+02 0.10051877909E+02 0.81752421800E+01
 0.64516242016E+01 0.57173046579E+01 0.63757881887E+01 0.81718326583E+01 0.65579224199E+01
 0.94730852867E+01 0.11577931272E+02 0.12250684511E+02 0.11540225015E+02 0.10019144657E+02
 0.83532731451E+01 0.68263682636E+01 0.55550393900E+01 0.45835546411E+01 0.39090517803E+01
 0.35100217591E+01 0.33671678566E+01 0.34729758372E+01 0.38341194798E+01 0.44695639238E+01
 0.53997753058E+01 0.66223765073E+01 0.80804258189E+01 0.96385005972E+01 0.10938379273E+02
 0.11312827155E+02 0.10316853601E+02 0.80722093447E+01 0.53316075664E+01 0.32030232414E+01
 0.26333136510E+01 0.39225758497E+01 0.18853207735E+01 0.53410621521E+01 0.88917120009E+01
 0.11337035023E+02 0.12094299499E+02 0.11336415210E+02 0.97598883666E+01 0.80776757418E+01
 0.65645360847E+01 0.53302098658E+01 0.44100896557E+01 0.37948987118E+01 0.34609940042E+01
 0.33904652274E+01 0.35792935523E+01 0.40386859614E+01 0.47906754994E+01 0.58520097205E+01
 0.72041145057E+01 0.87595436599E+01 0.10316250025E+02 0.11285029345E+02 0.10932488066E+02
 0.89415018776E+01 0.57044618845E+01 0.22866746149E+01 0.11588082610E-01 -.15917845537E+00
 -.21297358548E+01 0.67625186287E+00 0.47891162872E+01 0.87162944799E+01 0.11243812859E+02
 0.11902050624E+02 0.11015302433E+02 0.93862307518E+01 0.77163886939E+01 0.62471988228E+01
 0.50760455379E+01 0.42273228314E+01 0.36857267567E+01 0.34269968412E+01 0.34361504015E+01
 0.37137796131E+01 0.42758197235E+01 0.51458125863E+01 0.63334055133E+01 0.78002039933E+01
 0.94267201606E+01 0.10890143028E+02 0.11412001166E+02 0.10284902072E+02 0.73764736975E+01
 0.33638187443E+01 -.42288446649E+00 -.25435881025E+01 -.11794960700E-01 0.67684207330E+00
 0.33197221871E+01 0.68673958360E+01 0.10003000080E+02 0.11747140858E+02 0.11824292809E+02
 0.10645999059E+02 0.89784506035E+01 0.73555662660E+01 0.59553873454E+01 0.48561054633E+01
 0.40709150016E+01 0.35802159026E+01 0.33599415442E+01 0.33969707658E+01 0.36938066818E+01
 0.42678717616E+01 0.51431073326E+01 0.63276397750E+01 0.77804242248E+01 0.93818241152E+01
 0.10827623957E+02 0.11401427128E+02 0.10478180354E+02 0.79868042927E+01 0.45935586482E+01
 0.15138930506E+01 0.54615400624E+00 -.61130146132E+00 0.54625821330E+00 0.35398642309E+01
 0.71780821874E+01 0.10142704276E+02 0.11575160280E+02 0.11364521885E+02 0.10044229099E+02
 0.83937337046E+01 0.68437492798E+01 0.55418742905E+01 0.45487023343E+01 0.38661593430E+01
 0.34711999721E+01 0.33421768371E+01 0.34711044871E+01 0.38661275854E+01 0.45487384645E+01
 0.55418266257E+01 0.68436265797E+01 0.83937081049E+01 0.10044313101E+02 0.11364549253E+02
 0.11575098629E+02 0.10142684616E+02 0.71781120876E+01 0.35398165970E+01 0.33196627151E+01
 0.67676445041E+00 -.11750598667E-01 0.15139886877E+01 0.45935674107E+01 0.79867854694E+01