unknown system                          
   1.00000000000000     
    -0.000000    2.744770    2.744770
     2.744770    0.000000    2.744770
     2.744770    2.744770   -0.000000
   Si
     2
Direct
  0.500000  0.500000  0.500000
  0.750000  0.750000  0.750000
 
   32   32   32
 0.87687     0.89849     0.96453      1.0786      1.2469      1.4775      1.7801      2.1640      2.6351      3.1922    
  3.8223      4.4973      5.1734      5.7939      6.2966      6.6251      6.7394      6.6251      6.2965      5.7937    
  5.1733      4.4972      3.8222      3.1922      2.6352      2.1641      1.7803      1.4776      1.2469      1.0786    
 0.96447     0.89845     0.89849     0.93581      1.0124      1.1322      1.3006      1.5244      1.8103      2.1639    
  2.5868      3.0735      3.6077      4.1605      4.6911      5.1512      5.4918      5.6732      5.6732      5.4917    
  5.1511      4.6911      4.1604      3.6077      3.0736      2.5870      2.1640      1.8104      1.5244      1.3006    
  1.1322      1.0124     0.93577     0.89847     0.96453      1.0124      1.0949      1.2156      1.3793      1.5909    
  1.8550      2.1740      2.5459      2.9621      3.4044      3.8449      4.2476      4.5731      4.7853      4.8591    
  4.7853      4.5731      4.2476      3.8449      3.4045      2.9622      2.5461      2.1741      1.8551      1.5909    
  1.3793      1.2156      1.0948      1.0124     0.96451     0.94883      1.0786      1.1322      1.2156      1.3323    
  1.4859      1.6804      1.9181      2.1990      2.5186      2.8661      3.2229      3.5633      3.8569      4.0737    
  4.1889      4.1889      4.0737      3.8569      3.5633      3.2230      2.8662      2.5187      2.1990      1.9181    
  1.6803      1.4859      1.3322      1.2156      1.1322      1.0786      1.0525      1.0525      1.2469      1.3006    
  1.3793      1.4859      1.6238      1.7957      2.0025      2.2424      2.5091      2.7905      3.0689      3.3217    
  3.5251      3.6572      3.7030      3.6572      3.5250      3.3217      3.0689      2.7906      2.5091      2.2425    
  2.0025      1.7956      1.6237      1.4858      1.3792      1.3006      1.2469      1.2157      1.2054      1.2156    
  1.4775      1.5244      1.5909      1.6804      1.7957      1.9389      2.1100      2.3057      2.5186      2.7368    
  2.9440      3.1218      3.2525      3.3217      3.3217      3.2525      3.1218      2.9440      2.7368      2.5187    
  2.3057      2.1099      1.9388      1.7956      1.6803      1.5909      1.5244      1.4776      1.4478      1.4334    
  1.4333      1.4478      1.7801      1.8103      1.8550      1.9181      2.0025      2.1100      2.2396      2.3875    
  2.5459      2.7036      2.8470      2.9620      3.0366      3.0624      3.0366      2.9620      2.8470      2.7036    
  2.5459      2.3876      2.2396      2.1099      2.0024      1.9180      1.8550      1.8103      1.7802      1.7612    
  1.7509      1.7476      1.7508      1.7611      2.1640      2.1639      2.1740      2.1990      2.2424      2.3057    
  2.3875      2.4837      2.5868      2.6874      2.7748      2.8394      2.8736      2.8736      2.8394      2.7748    
  2.6874      2.5869      2.4837      2.3876      2.3057      2.2424      2.1990      2.1740      2.1639      2.1641    
  2.1693      2.1754      2.1792      2.1792      2.1753      2.1692      2.6351      2.5868      2.5459      2.5186    
  2.5091      2.5186      2.5459      2.5868      2.6351      2.6832      2.7237      2.7506      2.7601      2.7507    
  2.7237      2.6832      2.6351      2.5869      2.5460      2.5187      2.5091      2.5187      2.5460      2.5869    
  2.6351      2.6832      2.7237      2.7507      2.7601      2.7506      2.7237      2.6832      3.1922      3.0735    
  2.9621      2.8661      2.7905      2.7368      2.7036      2.6874      2.6832      2.6856      2.6900      2.6930    
  2.6931      2.6900      2.6857      2.6833      2.6875      2.7037      2.7369      2.7906      2.8662      2.9621    
  3.0736      3.1922      3.3072      3.4068      3.4801      3.5190      3.5190      3.4802      3.4069      3.3072    
  3.8223      3.6077      3.4044      3.2229      3.0689      2.9440      2.8470      2.7748      2.7237      2.6900    
  2.6709      2.6647      2.6709      2.6901      2.7239      2.7750      2.8471      2.9441      3.0689      3.2229    
  3.4044      3.6077      3.8222      4.0332      4.2231      4.3739      4.4710      4.5045      4.4710      4.3740    
  4.2232      4.0333      4.4973      4.1605      3.8449      3.5633      3.3217      3.1218      2.9620      2.8394    
  2.7506      2.6930      2.6647      2.6647      2.6932      2.7508      2.8396      2.9622      3.1219      3.3218    
  3.5633      3.8449      4.1604      4.4972      4.8360      5.1522      5.4191      5.6124      5.7139      5.7139    
  5.6125      5.4192      5.1524      4.8362      5.1734      4.6911      4.2476      3.8569      3.5251      3.2525    
  3.0366      2.8736      2.7601      2.6931      2.6709      2.6932      2.7603      2.8739      3.0368      3.2526    
  3.5251      3.8569      4.2476      4.6910      5.1733      5.6709      6.1515      6.5782      6.9141      7.1288    
  7.2027      7.1289      6.9142      6.5783      6.1517      5.6710      5.7939      5.1512      4.5731      4.0737    
  3.6572      3.3217      3.0624      2.8736      2.7507      2.6900      2.6901      2.7508      2.8739      3.0626    
  3.3219      3.6573      4.0737      4.5730      5.1510      5.7937      6.4748      7.1553      7.7868      8.3177    
  8.7012      8.9022      8.9022      8.7012      8.3177      7.7868      7.1554      6.4749      6.2966      5.4918    
  4.7853      4.1889      3.7030      3.3217      3.0366      2.8394      2.7237      2.6857      2.7239      2.8396    
  3.0368      3.3219      3.7031      4.1889      4.7852      5.4916      6.2965      7.1734      8.0790      8.9551    
  9.7343      10.350      10.744      10.880      10.744      10.349      9.7342      8.9550      8.0790      7.1735    
  6.6251      5.6732      4.8591      4.1889      3.6572      3.2525      2.9620      2.7748      2.6832      2.6833    
  2.7750      2.9622      3.2526      3.6573      4.1889      4.8590      5.6731      6.6250      7.6917      8.8297    
  9.9752      11.047      11.958      12.621      12.972      12.971      12.621      11.957      11.047      9.9751    
  8.8298      7.6918      6.7394      5.6732      4.7853      4.0737      3.5250      3.1218      2.8470      2.6874    
  2.6351      2.6875      2.8471      3.1219      3.5251      4.0737      4.7852      5.6731      6.7393      7.9682    
  9.3215      10.736      12.123      13.378      14.384      15.038      15.265      15.038      14.384      13.377    
  12.123      10.736      9.3215      7.9683      6.6251      5.4917      4.5731      3.8569      3.3217      2.9440    
  2.7036      2.5869      2.5869      2.7037      2.9441      3.3218      3.8569      4.5730      5.4916      6.6250    
  7.9682      9.4929      11.143      12.833      14.448      15.847      16.875      17.419      17.419      16.875    
  15.847      14.448      12.833      11.143      9.4929      7.9683      6.2965      5.1511      4.2476      3.5633    
  3.0689      2.7368      2.5459      2.4837      2.5460      2.7369      3.0689      3.5633      4.2476      5.1510    
  6.2965      7.6917      9.3215      11.143      13.082      15.026      16.816      18.254      19.183      19.504    
  19.183      18.255      16.816      15.026      13.082      11.143      9.3215      7.6917      5.7937      4.6911    
  3.8449      3.2230      2.7906      2.5187      2.3876      2.3876      2.5187      2.7906      3.2229      3.8449    
  4.6910      5.7937      7.1734      8.8297      10.736      12.833      15.026      17.155      18.994      20.342    
  21.054      21.054      20.342      18.994      17.155      15.026      12.833      10.736      8.8297      7.1734    
  5.1733      4.1604      3.4045      2.8662      2.5091      2.3057      2.2396      2.3057      2.5091      2.8662    
  3.4044      4.1604      5.1733      6.4748      8.0790      9.9752      12.123      14.448      16.816      18.994    
  20.746      21.881      22.275      21.881      20.746      18.994      16.816      14.448      12.123      9.9750    
  8.0789      6.4748      4.4972      3.6077      2.9622      2.5187      2.2425      2.1099      2.1099      2.2424    
  2.5187      2.9621      3.6077      4.4972      5.6709      7.1553      8.9551      11.047      13.378      15.847    
  18.254      20.342      21.881      22.699      22.699      21.881      20.342      18.254      15.847      13.378    
  11.047      8.9549      7.1552      5.6708      3.8222      3.0736      2.5461      2.1990      2.0025      1.9388    
  2.0024      2.1990      2.5460      3.0736      3.8222      4.8360      6.1515      7.7868      9.7343      11.958    
  14.384      16.875      19.183      21.054      22.275      22.699      22.275      21.054      19.183      16.875    
  14.384      11.957      9.7341      7.7866      6.1514      4.8360      3.1922      2.5870      2.1741      1.9181    
  1.7956      1.7956      1.9180      2.1740      2.5869      3.1922      4.0332      5.1522      6.5782      8.3177    
  10.350      12.621      15.038      17.419      19.504      21.054      21.881      21.881      21.054      19.504    
  17.418      15.038      12.621      10.349      8.3175      6.5781      5.1521      4.0332      2.6352      2.1640    
  1.8551      1.6803      1.6237      1.6803      1.8550      2.1639      2.6351      3.3072      4.2231      5.4191    
  6.9141      8.7012      10.744      12.972      15.265      17.419      19.183      20.342      20.746      20.342    
  19.183      17.418      15.264      12.971      10.744      8.7010      6.9139      5.4190      4.2230      3.3072    
  2.1641      1.8104      1.5909      1.4859      1.4858      1.5909      1.8103      2.1641      2.6832      3.4068    
  4.3739      5.6124      7.1288      8.9022      10.880      12.971      15.038      16.875      18.255      18.994    
  18.994      18.254      16.875      15.038      12.971      10.880      8.9021      7.1287      5.6123      4.3739    
  3.4068      2.6833      1.7803      1.5244      1.3793      1.3322      1.3792      1.5244      1.7802      2.1693    
  2.7237      3.4801      4.4710      5.7139      7.2027      8.9022      10.744      12.621      14.384      15.847    
  16.816      17.155      16.816      15.847      14.384      12.621      10.744      8.9021      7.2026      5.7138    
  4.4709      3.4801      2.7238      2.1694      1.4776      1.3006      1.2156      1.2156      1.3006      1.4776    
  1.7612      2.1754      2.7507      3.5190      4.5045      5.7139      7.1289      8.7012      10.349      11.957    
  13.377      14.448      15.026      15.026      14.448      13.378      11.957      10.349      8.7010      7.1287    
  5.7138      4.5044      3.5190      2.7507      2.1755      1.7613      1.2469      1.1322      1.0948      1.1322    
  1.2469      1.4478      1.7509      2.1792      2.7601      3.5190      4.4710      5.6125      6.9142      8.3177    
  9.7342      11.047      12.123      12.833      13.082      12.833      12.123      11.047      9.7341      8.3175    
  6.9139      5.6123      4.4709      3.5190      2.7602      2.1793      1.7510      1.4479      1.0786      1.0124    
  1.0124      1.0786      1.2157      1.4334      1.7476      2.1792      2.7506      3.4802      4.3740      5.4192    
  6.5783      7.7868      8.9550      9.9751      10.736      11.143      11.143      10.736      9.9750      8.9549    
  7.7866      6.5781      5.4190      4.3739      3.4801      2.7507      2.1793      1.7477      1.4334      1.2157    
 0.96447     0.93577     0.96451      1.0525      1.2054      1.4333      1.7508      2.1753      2.7237      3.4069    
  4.2232      5.1524      6.1517      7.1554      8.0790      8.8298      9.3215      9.4929      9.3215      8.8297    
  8.0789      7.1552      6.1514      5.1521      4.2230      3.4068      2.7238      2.1755      1.7510      1.4334    
  1.2054      1.0525     0.89845     0.89847     0.94883      1.0525      1.2156      1.4478      1.7611      2.1692    
  2.6832      3.3072      4.0333      4.8362      5.6710      6.4749      7.1735      7.6918      7.9683      7.9683    
  7.6917      7.1734      6.4748      5.6708      4.8360      4.0332      3.3072      2.6833      2.1694      1.7613    
  1.4479      1.2157      1.0525     0.94878     0.89849     0.93582      1.0124      1.1322      1.3006      1.5244    
  1.8103      2.1639      2.5868      3.0735      3.6077      4.1605      4.6911      5.1512      5.4918      5.6732    
  5.6732      5.4917      5.1511      4.6911      4.1604      3.6077      3.0736      2.5870      2.1640      1.8104    
  1.5244      1.3006      1.1322      1.0124     0.93577     0.89847     0.93582     0.98254      1.0631      1.1812    
  1.3415      1.5488      1.8075      2.1198      2.4837      2.8905      3.3227      3.7531      4.1465      4.4645    
  4.6720      4.7441      4.6720      4.4645      4.1465      3.7530      3.3227      2.8906      2.4839      2.1200    
  1.8076      1.5489      1.3415      1.1812      1.0631     0.98251     0.93579     0.92051      1.0124      1.0631    
  1.1423      1.2535      1.4005      1.5865      1.8140      2.0825      2.3875      2.7189      3.0589      3.3835    
  3.6636      3.8706      3.9807      3.9807      3.8705      3.6636      3.3835      3.0590      2.7190      2.3877    
  2.0826      1.8140      1.5865      1.4004      1.2535      1.1423      1.0631      1.0124     0.98777     0.98777    
  1.1322      1.1812      1.2535      1.3523      1.4807      1.6410      1.8339      2.0575      2.3057      2.5675    
  2.8265      3.0620      3.2517      3.3751      3.4179      3.3751      3.2517      3.0620      2.8265      2.5676    
  2.3058      2.0576      1.8339      1.6409      1.4806      1.3523      1.2535      1.1812      1.1322      1.1039    
  1.0947      1.1039      1.3006      1.3415      1.4005      1.4807      1.5850      1.7151      1.8707      2.0487    
  2.2424      2.4409      2.6297      2.7921      2.9116      2.9750      2.9750      2.9116      2.7920      2.6297    
  2.4409      2.2425      2.0488      1.8707      1.7150      1.5849      1.4806      1.4004      1.3415      1.3007    
  1.2751      1.2629      1.2629      1.2751      1.5244      1.5488      1.5865      1.6410      1.7151      1.8102    
  1.9256      2.0575      2.1990      2.3401      2.4688      2.5724      2.6396      2.6630      2.6396      2.5724    
  2.4688      2.3402      2.1990      2.0575      1.9256      1.8102      1.7150      1.6409      1.5865      1.5488    
  1.5244      1.5097      1.5020      1.4996      1.5019      1.5096      1.8103      1.8075      1.8140      1.8339    
  1.8707      1.9256      1.9975      2.0825      2.1740      2.2635      2.3417      2.3995      2.4303      2.4303    
  2.3995      2.3417      2.2636      2.1740      2.0825      1.9975      1.9256      1.8706      1.8339      1.8139    
  1.8076      1.8103      1.8174      1.8247      1.8291      1.8291      1.8246      1.8173      2.1639      2.1198    
  2.0825      2.0575      2.0487      2.0575      2.0825      2.1198      2.1639      2.2078      2.2449      2.2696    
  2.2782      2.2696      2.2450      2.2079      2.1639      2.1199      2.0825      2.0575      2.0487      2.0575    
  2.0825      2.1199      2.1639      2.2079      2.2450      2.2696      2.2782      2.2696      2.2449      2.2078    
  2.5868      2.4837      2.3875      2.3057      2.2424      2.1990      2.1740      2.1639      2.1640      2.1692    
  2.1753      2.1792      2.1792      2.1754      2.1693      2.1641      2.1639      2.1740      2.1990      2.2424    
  2.3057      2.3876      2.4837      2.5869      2.6874      2.7748      2.8394      2.8736      2.8736      2.8394    
  2.7748      2.6874      3.0735      2.8905      2.7189      2.5675      2.4409      2.3401      2.2635      2.2078    
  2.1692      2.1442      2.1303      2.1258      2.1304      2.1444      2.1694      2.2079      2.2636      2.3401    
  2.4409      2.5675      2.7189      2.8905      3.0735      3.2549      3.4194      3.5509      3.6359      3.6653    
  3.6360      3.5510      3.4194      3.2550      3.6077      3.3227      3.0589      2.8265      2.6297      2.4688    
  2.3417      2.2449      2.1753      2.1303      2.1082      2.1082      2.1304      2.1755      2.2451      2.3417    
  2.4688      2.6296      2.8264      3.0589      3.3227      3.6076      3.8975      4.1710      4.4041      4.5743    
  4.6641      4.6641      4.5744      4.4042      4.1711      3.8976      4.1605      3.7531      3.3835      3.0620    
  2.7921      2.5724      2.3995      2.2696      2.1792      2.1258      2.1082      2.1259      2.1793      2.2698    
  2.3996      2.5724      2.7920      3.0619      3.3834      3.7530      4.1604      4.5866      5.0040      5.3793    
  5.6781      5.8707      5.9373      5.8708      5.6782      5.3794      5.0041      4.5867      4.6911      4.1465    
  3.6636      3.2517      2.9116      2.6396      2.4303      2.2782      2.1792      2.1304      2.1304      2.1793    
  2.2784      2.4304      2.6396      2.9115      3.2515      3.6635      4.1464      4.6910      5.2771      5.8720    
  6.4324      6.9099      7.2586      7.4427      7.4427      7.2587      6.9100      6.4325      5.8721      5.2773    
  5.1512      4.4645      3.8706      3.3751      2.9750      2.6630      2.4303      2.2696      2.1754      2.1444    
  2.1755      2.2698      2.4304      2.6630      2.9749      3.3749      3.8704      4.4644      5.1510      5.9111    
  6.7093      7.4939      8.2019      8.7677      9.1335      9.2601      9.1335      8.7677      8.2019      7.4939    
  6.7093      5.9112      5.4918      4.6720      3.9807      3.4179      2.9750      2.6396      2.3995      2.2450    
  2.1693      2.1694      2.2451      2.3996      2.6396      2.9749      3.4178      3.9805      4.6718      5.4916    
  6.4250      7.4376      8.4733      9.4568      10.302      10.923      11.252      11.252      10.923      10.301    
  9.4568      8.4733      7.4377      6.4251      5.6732      4.7441      3.9807      3.3751      2.9116      2.5724    
  2.3417      2.2079      2.1641      2.2079      2.3417      2.5724      2.9115      3.3749      3.9805      4.7440    
  5.6731      6.7607      7.9783      9.2709      10.556      11.731      12.680      13.300      13.515      13.300    
  12.680      11.731      10.556      9.2709      7.9784      6.7609      5.6732      4.6720      3.8705      3.2517    
  2.7920      2.4688      2.2636      2.1639      2.1639      2.2636      2.4688      2.7920      3.2515      3.8704    
  4.6718      5.6731      6.8776      8.2669      9.7939      11.378      12.906      14.239      15.233      15.766    
  15.766      15.233      14.239      12.906      11.378      9.7940      8.2670      6.8777      5.4917      4.4645    
  3.6636      3.0620      2.6297      2.3402      2.1740      2.1199      2.1740      2.3401      2.6296      3.0619    
  3.6635      4.4644      5.4916      6.7607      8.2669      9.9763      11.819      13.683      15.417      16.844    
  17.788      18.118      17.788      16.844      15.417      13.683      11.819      9.9763      8.2670      6.7608    
  5.1511      4.1465      3.3835      2.8265      2.4409      2.1990      2.0825      2.0825      2.1990      2.4409    
  2.8264      3.3834      4.1464      5.1510      6.4250      7.9783      9.7939      11.819      13.955      16.054    
  17.920      19.330      20.090      20.091      19.330      17.920      16.054      13.955      11.819      9.7939    
  7.9784      6.4250      4.6911      3.7530      3.0590      2.5676      2.2425      2.0575      1.9975      2.0575    
  2.2424      2.5675      3.0589      3.7530      4.6910      5.9111      7.4376      9.2709      11.378      13.683    
  16.054      18.298      20.166      21.407      21.842      21.407      20.167      18.298      16.054      13.683    
  11.378      9.2709      7.4376      5.9112      4.1604      3.3227      2.7190      2.3058      2.0488      1.9256    
  1.9256      2.0487      2.3057      2.7189      3.3227      4.1604      5.2771      6.7093      8.4733      10.556    
  12.906      15.417      17.920      20.166      21.870      22.789      22.790      21.870      20.167      17.920    
  15.417      12.906      10.556      8.4733      6.7092      5.2771      3.6077      2.8906      2.3877      2.0576    
  1.8707      1.8102      1.8706      2.0575      2.3876      2.8905      3.6076      4.5866      5.8720      7.4939    
  9.4568      11.731      14.239      16.844      19.330      21.407      22.789      23.275      22.789      21.407    
  19.330      16.844      14.239      11.731      9.4567      7.4938      5.8720      4.5866      3.0736      2.4839    
  2.0826      1.8339      1.7150      1.7150      1.8339      2.0825      2.4837      3.0735      3.8975      5.0040    
  6.4324      8.2019      10.302      12.680      15.233      17.788      20.090      21.842      22.790      22.789    
  21.842      20.090      17.788      15.233      12.680      10.301      8.2018      6.4323      5.0040      3.8976    
  2.5870      2.1200      1.8140      1.6409      1.5849      1.6409      1.8139      2.1199      2.5869      3.2549    
  4.1710      5.3793      6.9099      8.7677      10.923      13.300      15.766      18.118      20.091      21.407    
  21.870      21.407      20.090      18.118      15.766      13.300      10.923      8.7675      6.9099      5.3793    
  4.1711      3.2551      2.1640      1.8076      1.5865      1.4806      1.4806      1.5865      1.8076      2.1639    
  2.6874      3.4194      4.4041      5.6781      7.2586      9.1335      11.252      13.515      15.766      17.788    
  19.330      20.167      20.167      19.330      17.788      15.766      13.515      11.252      9.1334      7.2585    
  5.6781      4.4042      3.4195      2.6875      1.8104      1.5489      1.4004      1.3523      1.4004      1.5488    
  1.8103      2.2079      2.7748      3.5509      4.5743      5.8707      7.4427      9.2601      11.252      13.300    
  15.233      16.844      17.920      18.298      17.920      16.844      15.233      13.300      11.252      9.2600    
  7.4426      5.8707      4.5744      3.5511      2.7750      2.2080      1.5244      1.3415      1.2535      1.2535    
  1.3415      1.5244      1.8174      2.2450      2.8394      3.6359      4.6641      5.9373      7.4427      9.1335    
  10.923      12.680      14.239      15.417      16.054      16.054      15.417      14.239      12.680      10.923    
  9.1334      7.4426      5.9372      4.6642      3.6361      2.8396      2.2451      1.8175      1.3006      1.1812    
  1.1423      1.1812      1.3007      1.5097      1.8247      2.2696      2.8736      3.6653      4.6641      5.8708    
  7.2587      8.7677      10.301      11.731      12.906      13.683      13.955      13.683      12.906      11.731    
  10.301      8.7675      7.2585      5.8707      4.6642      3.6655      2.8739      2.2698      1.8248      1.5097    
  1.1322      1.0631      1.0631      1.1322      1.2751      1.5020      1.8291      2.2782      2.8736      3.6360    
  4.5744      5.6782      6.9100      8.2019      9.4568      10.556      11.378      11.819      11.819      11.378    
  10.556      9.4567      8.2018      6.9099      5.6781      4.5744      3.6361      2.8739      2.2784      1.8292    
  1.5020      1.2751      1.0124     0.98251      1.0124      1.1039      1.2629      1.4996      1.8291      2.2696    
  2.8394      3.5510      4.4042      5.3794      6.4325      7.4939      8.4733      9.2709      9.7940      9.9763    
  9.7939      9.2709      8.4733      7.4938      6.4323      5.3793      4.4042      3.5511      2.8396      2.2698    
  1.8292      1.4996      1.2628      1.1039     0.93577     0.93579     0.98777      1.0947      1.2629      1.5019    
  1.8246      2.2449      2.7748      3.4194      4.1711      5.0041      5.8721      6.7093      7.4377      7.9784    
  8.2670      8.2670      7.9784      7.4376      6.7092      5.8720      5.0040      4.1711      3.4195      2.7750    
  2.2451      1.8248      1.5020      1.2628      1.0946     0.98771     0.89847     0.92051     0.98777      1.1039    
  1.2751      1.5096      1.8173      2.2078      2.6874      3.2550      3.8976      4.5867      5.2773      5.9112    
  6.4251      6.7609      6.8777      6.7608      6.4250      5.9112      5.2771      4.5866      3.8976      3.2551    
  2.6875      2.2080      1.8175      1.5097      1.2751      1.1039     0.98771     0.92046     0.96453      1.0124    
  1.0949      1.2156      1.3793      1.5909      1.8550      2.1740      2.5459      2.9621      3.4044      3.8449    
  4.2476      4.5731      4.7853      4.8591      4.7853      4.5731      4.2476      3.8449      3.4045      2.9622    
  2.5461      2.1741      1.8551      1.5909      1.3793      1.2156      1.0949      1.0124     0.96452     0.94884    
  1.0124      1.0631      1.1423      1.2535      1.4005      1.5865      1.8140      2.0825      2.3875      2.7189    
  3.0589      3.3835      3.6636      3.8706      3.9807      3.9807      3.8705      3.6636      3.3835      3.0590    
  2.7190      2.3877      2.0826      1.8140      1.5865      1.4004      1.2535      1.1423      1.0631      1.0124    
 0.98777     0.98777      1.0949      1.1423      1.2126      1.3088      1.4341      1.5907      1.7792      1.9975    
  2.2396      2.4950      2.7477      2.9775      3.1627      3.2833      3.3251      3.2832      3.1627      2.9775    
  2.7477      2.4951      2.2398      1.9976      1.7792      1.5907      1.4341      1.3088      1.2126      1.1423    
  1.0949      1.0676      1.0587      1.0676      1.2156      1.2535      1.3088      1.3847      1.4839      1.6078    
  1.7561      1.9256      2.1100      2.2989      2.4788      2.6336      2.7478      2.8084      2.8084      2.7478    
  2.6336      2.4788      2.2990      2.1100      1.9257      1.7561      1.6077      1.4838      1.3847      1.3088    
  1.2535      1.2157      1.1922      1.1811      1.1811      1.1922      1.3793      1.4005      1.4341      1.4839    
  1.5523      1.6406      1.7479      1.8707      2.0025      2.1341      2.2544      2.3514      2.4145      2.4364    
  2.4145      2.3514      2.2544      2.1342      2.0025      1.8707      1.7479      1.6406      1.5522      1.4838    
  1.4341      1.4004      1.3793      1.3672      1.3611      1.3593      1.3611      1.3671      1.5909      1.5865    
  1.5907      1.6078      1.6406      1.6904      1.7561      1.8339      1.9181      2.0006      2.0730      2.1267    
  2.1553      2.1553      2.1267      2.0730      2.0007      1.9181      1.8339      1.7560      1.6904      1.6406    
  1.6077      1.5907      1.5865      1.5910      1.5994      1.6076      1.6125      1.6125      1.6076      1.5993    
  1.8550      1.8140      1.7792      1.7561      1.7479      1.7561      1.7792      1.8140      1.8550      1.8961    
  1.9309      1.9542      1.9624      1.9542      1.9310      1.8962      1.8550      1.8140      1.7792      1.7560    
  1.7479      1.7560      1.7792      1.8140      1.8550      1.8962      1.9310      1.9542      1.9624      1.9542    
  1.9309      1.8961      2.1740      2.0825      1.9975      1.9256      1.8707      1.8339      1.8140      1.8075    
  1.8103      1.8173      1.8246      1.8291      1.8291      1.8247      1.8174      1.8103      1.8076      1.8139    
  1.8339      1.8706      1.9256      1.9975      2.0825      2.1740      2.2636      2.3417      2.3995      2.4303    
  2.4303      2.3995      2.3417      2.2635      2.5459      2.3875      2.2396      2.1100      2.0025      1.9181    
  1.8550      1.8103      1.7801      1.7612      1.7508      1.7476      1.7509      1.7612      1.7802      1.8103    
  1.8550      1.9180      2.0024      2.1099      2.2396      2.3876      2.5459      2.7036      2.8470      2.9620    
  3.0366      3.0624      3.0366      2.9620      2.8470      2.7036      2.9621      2.7189      2.4950      2.2989    
  2.1341      2.0006      1.8961      1.8173      1.7612      1.7250      1.7074      1.7074      1.7251      1.7612    
  1.8174      1.8961      2.0006      2.1340      2.2988      2.4949      2.7188      2.9621      3.2107      3.4464    
  3.6481      3.7960      3.8742      3.8742      3.7960      3.6482      3.4464      3.2107      3.4044      3.0589    
  2.7477      2.4788      2.2544      2.0730      1.9309      1.8246      1.7508      1.7074      1.6930      1.7074    
  1.7509      1.8247      1.9310      2.0729      2.2543      2.4786      2.7475      3.0589      3.4043      3.7681    
  4.1266      4.4509      4.7104      4.8783      4.9365      4.8784      4.7105      4.4510      4.1267      3.7681    
  3.8449      3.3835      2.9775      2.6336      2.3514      2.1267      1.9542      1.8291      1.7476      1.7074    
  1.7074      1.7476      1.8291      1.9542      2.1266      2.3513      2.6335      2.9773      3.3833      3.8448    
  4.3455      4.8576      5.3437      5.7605      6.0663      6.2283      6.2283      6.0664      5.7605      5.3437    
  4.8577      4.3455      4.2476      3.6636      3.1627      2.7478      2.4145      2.1553      1.9624      1.8291    
  1.7509      1.7251      1.7509      1.8291      1.9624      2.1553      2.4144      2.7476      3.1625      3.6635    