   2   2   0   0
  0.2001288E+02  0.3839590E-09  0.3839590E-09  0.3839590E-09  0.5000000E-15
  1.000000000000000E-004
  CAR 
 unknown system                          
     16.70931620     -8.10466167  301      5.97169335      1.00000000
     -8.105  0.0000E+00  0.0000E+00
     -8.022  0.0000E+00  0.0000E+00
     -7.939  0.0000E+00  0.0000E+00
     -7.857  0.0000E+00  0.0000E+00
     -7.774  0.0000E+00  0.0000E+00
     -7.691  0.0000E+00  0.0000E+00
     -7.608  0.0000E+00  0.0000E+00
     -7.526  0.0000E+00  0.0000E+00
     -7.443  0.0000E+00  0.0000E+00
     -7.360  0.0000E+00  0.0000E+00
     -7.278  0.8286E-18  0.6853E-19
     -7.195  0.9445E-16  0.7881E-17
     -7.112  0.7747E-14  0.6487E-15
     -7.029  0.4549E-12  0.3828E-13
     -6.947  0.1907E-10  0.1616E-11
     -6.864  0.5712E-09  0.4886E-10
     -6.781  0.1222E-07  0.1060E-08
     -6.699  0.1871E-06  0.1653E-07
     -6.616  0.2049E-05  0.1860E-06
     -6.533  0.1608E-04  0.1516E-05
     -6.450  0.9069E-04  0.9018E-05
     -6.368  0.3695E-03  0.3958E-04
     -6.285  0.1102E-02  0.1307E-03
     -6.202  0.2478E-02  0.3357E-03
     -6.120  0.4459E-02  0.7045E-03
     -6.037  0.6957E-02  0.1280E-02
     -5.954  0.9916E-02  0.2100E-02
     -5.871  0.1279E-01  0.3158E-02
     -5.789  0.1473E-01  0.4377E-02
     -5.706  0.1571E-01  0.5677E-02
     -5.623  0.1646E-01  0.7038E-02
     -5.541  0.1754E-01  0.8489E-02
     -5.458  0.1936E-01  0.1009E-01
     -5.375  0.2198E-01  0.1191E-01
     -5.292  0.2500E-01  0.1398E-01
     -5.210  0.2760E-01  0.1626E-01
     -5.127  0.2829E-01  0.1860E-01
     -5.044  0.2632E-01  0.2078E-01
     -4.962  0.2346E-01  0.2272E-01
     -4.879  0.2272E-01  0.2459E-01
     -4.796  0.2584E-01  0.2673E-01
     -4.713  0.3205E-01  0.2938E-01
     -4.631  0.3873E-01  0.3259E-01
     -4.548  0.4294E-01  0.3614E-01
     -4.465  0.4272E-01  0.3967E-01
     -4.383  0.3873E-01  0.4288E-01
     -4.300  0.3500E-01  0.4577E-01
     -4.217  0.3574E-01  0.4873E-01
     -4.134  0.4122E-01  0.5214E-01
     -4.052  0.4736E-01  0.5605E-01
     -3.969  0.4981E-01  0.6017E-01
     -3.886  0.4865E-01  0.6420E-01
     -3.804  0.4837E-01  0.6820E-01
     -3.721  0.5289E-01  0.7257E-01
     -3.638  0.6096E-01  0.7761E-01
     -3.555  0.6720E-01  0.8317E-01
     -3.473  0.6794E-01  0.8879E-01
     -3.390  0.6296E-01  0.9400E-01
     -3.307  0.5256E-01  0.9835E-01
     -3.225  0.3875E-01  0.1016E+00
     -3.142  0.2754E-01  0.1038E+00
     -3.059  0.2368E-01  0.1058E+00
     -2.976  0.2527E-01  0.1079E+00
     -2.894  0.2825E-01  0.1102E+00
     -2.811  0.3307E-01  0.1130E+00
     -2.728  0.4172E-01  0.1164E+00
     -2.646  0.5090E-01  0.1206E+00
     -2.563  0.5335E-01  0.1250E+00
     -2.480  0.4539E-01  0.1288E+00
     -2.397  0.3053E-01  0.1313E+00
     -2.315  0.1590E-01  0.1326E+00
     -2.232  0.6287E-02  0.1331E+00
     -2.149  0.1855E-02  0.1333E+00
     -2.067  0.4050E-03  0.1333E+00
     -1.984  0.8710E-04  0.1333E+00
     -1.901  0.1982E-03  0.1334E+00
     -1.818  0.1127E-02  0.1334E+00
     -1.736  0.4783E-02  0.1338E+00
     -1.653  0.1464E-01  0.1351E+00
     -1.570  0.3241E-01  0.1377E+00
     -1.488  0.5238E-01  0.1421E+00
     -1.405  0.6329E-01  0.1473E+00
     -1.322  0.6145E-01  0.1524E+00
     -1.239  0.5670E-01  0.1571E+00
     -1.157  0.5863E-01  0.1619E+00
     -1.074  0.6325E-01  0.1672E+00
     -0.991  0.6107E-01  0.1722E+00
     -0.909  0.5346E-01  0.1766E+00
     -0.826  0.5140E-01  0.1809E+00
     -0.743  0.5874E-01  0.1857E+00
     -0.660  0.6530E-01  0.1911E+00
     -0.578  0.6058E-01  0.1961E+00
     -0.495  0.4739E-01  0.2001E+00
     -0.412  0.3611E-01  0.2031E+00
     -0.330  0.3136E-01  0.2056E+00
     -0.247  0.3147E-01  0.2083E+00
     -0.164  0.3582E-01  0.2112E+00
     -0.081  0.4382E-01  0.2148E+00
      0.001  0.4940E-01  0.2189E+00
      0.084  0.4499E-01  0.2226E+00
      0.167  0.3104E-01  0.2252E+00
      0.249  0.1585E-01  0.2265E+00
      0.332  0.6277E-02  0.2270E+00
      0.415  0.3466E-02  0.2273E+00
      0.498  0.6464E-02  0.2279E+00
      0.580  0.1482E-01  0.2291E+00
      0.663  0.2649E-01  0.2313E+00
      0.746  0.3584E-01  0.2342E+00
      0.828  0.3695E-01  0.2373E+00
      0.911  0.2934E-01  0.2397E+00
      0.994  0.1886E-01  0.2413E+00
      1.077  0.1221E-01  0.2423E+00
      1.159  0.1150E-01  0.2433E+00
      1.242  0.1497E-01  0.2445E+00
      1.325  0.2163E-01  0.2463E+00
      1.407  0.3303E-01  0.2490E+00
      1.490  0.4962E-01  0.2531E+00
      1.573  0.6780E-01  0.2587E+00
      1.656  0.8135E-01  0.2655E+00
      1.738  0.8459E-01  0.2724E+00
      1.821  0.7662E-01  0.2788E+00
      1.904  0.6373E-01  0.2841E+00
      1.986  0.5545E-01  0.2886E+00
      2.069  0.5813E-01  0.2935E+00
      2.152  0.7053E-01  0.2993E+00
      2.234  0.8317E-01  0.3062E+00
      2.317  0.8595E-01  0.3133E+00
      2.400  0.7857E-01  0.3198E+00
      2.483  0.6958E-01  0.3255E+00
      2.565  0.6761E-01  0.3311E+00
      2.648  0.7571E-01  0.3374E+00
      2.731  0.8870E-01  0.3447E+00
      2.813  0.9665E-01  0.3527E+00
      2.896  0.9652E-01  0.3607E+00
      2.979  0.9619E-01  0.3687E+00
      3.062  0.1015E+00  0.3770E+00
      3.144  0.1070E+00  0.3859E+00
      3.227  0.1052E+00  0.3946E+00
      3.310  0.9710E-01  0.4026E+00
      3.392  0.8971E-01  0.4100E+00
      3.475  0.8709E-01  0.4172E+00
      3.558  0.8618E-01  0.4244E+00
      3.641  0.8345E-01  0.4313E+00
      3.723  0.8140E-01  0.4380E+00
      3.806  0.8312E-01  0.4449E+00
      3.889  0.8741E-01  0.4521E+00
      3.971  0.9240E-01  0.4598E+00
      4.054  0.9634E-01  0.4677E+00
      4.137  0.9546E-01  0.4756E+00
      4.220  0.8748E-01  0.4829E+00
      4.302  0.7480E-01  0.4890E+00
      4.385  0.6135E-01  0.4941E+00
      4.468  0.5084E-01  0.4983E+00
      4.550  0.4734E-01  0.5022E+00
      4.633  0.5116E-01  0.5065E+00
      4.716  0.5584E-01  0.5111E+00
      4.799  0.5441E-01  0.5156E+00
      4.881  0.4649E-01  0.5194E+00
      4.964  0.3628E-01  0.5224E+00
      5.047  0.2720E-01  0.5247E+00
      5.129  0.2065E-01  0.5264E+00
      5.212  0.1702E-01  0.5278E+00
      5.295  0.1560E-01  0.5291E+00
      5.378  0.1469E-01  0.5303E+00
      5.460  0.1303E-01  0.5314E+00
      5.543  0.1039E-01  0.5322E+00
      5.626  0.7067E-02  0.5328E+00
      5.708  0.3850E-02  0.5332E+00
      5.791  0.1595E-02  0.5333E+00
      5.874  0.4874E-03  0.5333E+00
      5.957  0.1158E-03  0.5333E+00
      6.039  0.7940E-04  0.5333E+00
      6.122  0.3509E-03  0.5334E+00
      6.205  0.1425E-02  0.5335E+00
      6.287  0.4264E-02  0.5338E+00
      6.370  0.9430E-02  0.5346E+00
      6.453  0.1556E-01  0.5359E+00
      6.536  0.1950E-01  0.5375E+00
      6.618  0.1946E-01  0.5391E+00
      6.701  0.1795E-01  0.5406E+00
      6.784  0.1962E-01  0.5422E+00
      6.866  0.2595E-01  0.5444E+00
      6.949  0.3403E-01  0.5472E+00
      7.032  0.4121E-01  0.5506E+00
      7.115  0.4764E-01  0.5545E+00
      7.197  0.5322E-01  0.5589E+00
      7.280  0.5644E-01  0.5636E+00
      7.363  0.5720E-01  0.5683E+00
      7.445  0.5776E-01  0.5731E+00
      7.528  0.6196E-01  0.5783E+00
      7.611  0.7325E-01  0.5843E+00
      7.694  0.8994E-01  0.5917E+00
      7.776  0.1033E+00  0.6003E+00
      7.859  0.1045E+00  0.6089E+00
      7.942  0.9358E-01  0.6167E+00
      8.024  0.8056E-01  0.6233E+00
      8.107  0.7653E-01  0.6297E+00
      8.190  0.8426E-01  0.6366E+00
      8.273  0.9489E-01  0.6445E+00
      8.355  0.9664E-01  0.6525E+00
      8.438  0.8873E-01  0.6598E+00
      8.521  0.8220E-01  0.6666E+00
      8.603  0.8597E-01  0.6737E+00
      8.686  0.9760E-01  0.6818E+00
      8.769  0.1087E+00  0.6908E+00
      8.852  0.1134E+00  0.7002E+00
      8.934  0.1102E+00  0.7093E+00
      9.017  0.1040E+00  0.7179E+00
      9.100  0.1030E+00  0.7264E+00
      9.182  0.1096E+00  0.7355E+00
      9.265  0.1177E+00  0.7452E+00
      9.348  0.1204E+00  0.7552E+00
      9.431  0.1152E+00  0.7647E+00
      9.513  0.1045E+00  0.7734E+00
      9.596  0.9316E-01  0.7811E+00
      9.679  0.8491E-01  0.7881E+00
      9.761  0.8047E-01  0.7947E+00
      9.844  0.7843E-01  0.8012E+00
      9.927  0.7856E-01  0.8077E+00
     10.010  0.8330E-01  0.8146E+00
     10.092  0.9314E-01  0.8223E+00
     10.175  0.1018E+00  0.8307E+00
     10.258  0.1022E+00  0.8392E+00
     10.340  0.9601E-01  0.8471E+00
     10.423  0.9121E-01  0.8547E+00
     10.506  0.9163E-01  0.8623E+00
     10.589  0.9403E-01  0.8700E+00
     10.671  0.9272E-01  0.8777E+00
     10.754  0.8472E-01  0.8847E+00
     10.837  0.7240E-01  0.8907E+00
     10.919  0.6010E-01  0.8957E+00
     11.002  0.4932E-01  0.8997E+00
     11.085  0.4128E-01  0.9032E+00
     11.168  0.4104E-01  0.9066E+00
     11.250  0.5274E-01  0.9109E+00
     11.333  0.7260E-01  0.9169E+00
     11.416  0.9202E-01  0.9245E+00
     11.498  0.1061E+00  0.9333E+00
     11.581  0.1135E+00  0.9427E+00
     11.664  0.1109E+00  0.9519E+00
     11.747  0.9674E-01  0.9599E+00
     11.829  0.7702E-01  0.9662E+00
     11.912  0.5960E-01  0.9712E+00
     11.995  0.4775E-01  0.9751E+00
     12.077  0.4139E-01  0.9785E+00
     12.160  0.4028E-01  0.9819E+00
     12.243  0.4393E-01  0.9855E+00
     12.326  0.4872E-01  0.9895E+00
     12.408  0.4866E-01  0.9936E+00
     12.491  0.4317E-01  0.9971E+00
     12.574  0.3985E-01  0.1000E+01
     12.656  0.4379E-01  0.1004E+01
     12.739  0.4965E-01  0.1008E+01
     12.822  0.5033E-01  0.1012E+01
     12.905  0.4848E-01  0.1016E+01
     12.987  0.5264E-01  0.1021E+01
     13.070  0.6363E-01  0.1026E+01
     13.153  0.7090E-01  0.1032E+01
     13.235  0.6476E-01  0.1037E+01
     13.318  0.4865E-01  0.1041E+01
     13.401  0.3438E-01  0.1044E+01
     13.483  0.2800E-01  0.1046E+01
     13.566  0.2531E-01  0.1048E+01
     13.649  0.2029E-01  0.1050E+01
     13.732  0.1272E-01  0.1051E+01
     13.814  0.6469E-02  0.1052E+01
     13.897  0.4534E-02  0.1052E+01
     13.980  0.7577E-02  0.1053E+01
     14.062  0.1404E-01  0.1054E+01
     14.145  0.1968E-01  0.1056E+01
     14.228  0.1996E-01  0.1057E+01
     14.311  0.1492E-01  0.1058E+01
     14.393  0.9510E-02  0.1059E+01
     14.476  0.8505E-02  0.1060E+01
     14.559  0.1252E-01  0.1061E+01
     14.641  0.1793E-01  0.1062E+01
     14.724  0.1977E-01  0.1064E+01
     14.807  0.1614E-01  0.1065E+01
     14.890  0.9685E-02  0.1066E+01
     14.972  0.4263E-02  0.1067E+01
     15.055  0.1372E-02  0.1067E+01
     15.138  0.3218E-03  0.1067E+01
     15.220  0.5484E-04  0.1067E+01
     15.303  0.6765E-05  0.1067E+01
     15.386  0.6024E-06  0.1067E+01
     15.469  0.3863E-07  0.1067E+01
     15.551  0.1780E-08  0.1067E+01
     15.634  0.5883E-10  0.1067E+01
     15.717  0.1393E-11  0.1067E+01
     15.799  0.2358E-13  0.1067E+01
     15.882  0.2883E-15  0.1067E+01
     15.965  0.0000E+00  0.1067E+01
     16.048  0.0000E+00  0.1067E+01
     16.130  0.0000E+00  0.1067E+01
     16.213  0.0000E+00  0.1067E+01
     16.296  0.0000E+00  0.1067E+01
     16.378  0.0000E+00  0.1067E+01
     16.461  0.0000E+00  0.1067E+01
     16.544  0.0000E+00  0.1067E+01
     16.627  0.0000E+00  0.1067E+01
     16.709  0.0000E+00  0.1067E+01
