    2    2   15    1
  0.2001288E+02  0.3839590E-09  0.3839590E-09  0.3839590E-09  0.5000000E-15
  1.000000000000000E-004
  CAR 
 unknown system                          
      8     28      8
 
  0.8333333E-01  0.8333333E-01  0.8333333E-01  0.9259259E-02
    1       -6.104662   1.000000
    2        4.782989   1.000000
    3        5.501488   0.999558
    4        5.501488   0.999558
    5        8.211502   0.000000
    6        8.410185   0.000000
    7        8.410185   0.000000
    8        9.486255   0.000000
 
  0.2500000E+00  0.8333333E-01  0.8333333E-01  0.2777778E-01
    1       -5.634561   1.000000
    2        2.711342   1.000000
    3        4.278799   1.000000
    4        5.289667   0.999999
    5        8.297635   0.000000
    6        8.802381   0.000000
    7        9.151662   0.000000
    8       11.270219   0.000000
 
  0.4166667E+00  0.8333333E-01  0.8333333E-01  0.2777778E-01
    1       -4.558756   1.000000
    2       -0.019256   1.000000
    3        3.815134   1.000000
    4        4.659141   1.000000
    5        7.791283   0.000000
    6        9.202028   0.000000
    7        9.242822   0.000000
    8       13.061536   0.000000
 
 -0.4166667E+00  0.8333333E-01  0.8333333E-01  0.2777778E-01
    1       -3.874022   1.000000
    2       -1.145122   1.000000
    3        3.878702   1.000000
    4        4.283477   1.000000
    5        7.635513   0.000000
    6        8.925468   0.000000
    7        9.352366   0.000000
    8       13.518920   0.000000
 
 -0.2500000E+00  0.8333333E-01  0.8333333E-01  0.2777778E-01
    1       -4.963856   1.000000
    2        0.816891   1.000000
    3        4.345168   1.000000
    4        4.372408   1.000000
    5        7.891825   0.000000
    6        8.929922   0.000000
    7        9.726926   0.000000
    8       11.600389   0.000000
 
 -0.8333333E-01  0.8333333E-01  0.8333333E-01  0.2777778E-01
    1       -5.867269   1.000000
    2        3.713946   1.000000
    3        4.863473   1.000000
    4        5.042821   1.000000
    5        7.951749   0.000000
    6        8.809279   0.000000
    7        9.301699   0.000000
    8       10.416920   0.000000
 
  0.2500000E+00  0.2500000E+00  0.8333333E-01  0.2777778E-01
    1       -5.396515   1.000000
    2        2.515762   1.000000
    3        4.122530   1.000000
    4        4.140974   1.000000
    5        7.377234   0.000000
    6        9.499220   0.000000
    7       10.305123   0.000000
    8       10.514406   0.000000
 
  0.4166667E+00  0.2500000E+00  0.8333333E-01  0.5555556E-01
    1       -4.499010   1.000000
    2        0.693169   1.000000
    3        2.822477   1.000000
    4        3.757308   1.000000
    5        7.774749   0.000000
    6        9.391148   0.000000
    7       10.165652   0.000000
    8       11.620067   0.000000
 
 -0.4166667E+00  0.2500000E+00  0.8333333E-01  0.5555556E-01
    1       -3.402538   1.000000
    2       -1.029334   1.000000
    3        2.223934   1.000000
    4        3.533697   1.000000
    5        8.021433   0.000000
    6        9.561767   0.000000
    7       11.498659   0.000000
    8       11.880970   0.000000
 
 -0.2500000E+00  0.2500000E+00  0.8333333E-01  0.5555556E-01
    1       -4.110980   1.000000
    2        0.010562   1.000000
    3        2.187770   1.000000
    4        4.012696   1.000000
    5        8.607243   0.000000
    6        9.241480   0.000000
    7       10.898099   0.000000
    8       11.385891   0.000000
 
 -0.8333333E-01  0.2500000E+00  0.8333333E-01  0.5555556E-01
    1       -5.174385   1.000000
    2        1.692252   1.000000
    3        3.510861   1.000000
    4        4.670952   1.000000
    5        8.251218   0.000000
    6        9.099291   0.000000
    7       10.177737   0.000000
    8       10.542352   0.000000
 
  0.4166667E+00  0.4166667E+00  0.8333333E-01  0.2777778E-01
    1       -3.796119   1.000000
    2       -0.132297   1.000000
    3        2.789167   1.000000
    4        3.122442   1.000000
    5        6.566504   0.000013
    6        7.539260   0.000000
    7       13.150670   0.000000
    8       13.215944   0.000000
 
 -0.4166667E+00  0.4166667E+00  0.8333333E-01  0.5555556E-01
    1       -2.618137   1.000000
    2       -1.457362   1.000000
    3        1.961601   1.000000
    4        2.723323   1.000000
    5        7.185334   0.000000
    6        8.297397   0.000000
    7       12.700767   0.000000
    8       14.147742   0.000000
 
 -0.2500000E+00  0.4166667E+00  0.8333333E-01  0.5555556E-01
    1       -2.987778   1.000000
    2       -1.119538   1.000000
    3        1.483849   1.000000
    4        3.261453   1.000000
    5        7.795652   0.000000
    6       10.683887   0.000000
    7       11.659052   0.000000
    8       12.311682   0.000000
 
 -0.8333333E-01  0.4166667E+00  0.8333333E-01  0.5555556E-01
    1       -4.002264   1.000000
    2       -0.655702   1.000000
    3        3.110556   1.000000
    4        4.108861   1.000000
    5        8.207322   0.000000
    6        8.857891   0.000000
    7       10.165160   0.000000
    8       12.371549   0.000000
 
 -0.4166667E+00 -0.4166667E+00  0.8333333E-01  0.2777778E-01
    1       -2.706903   1.000000
    2       -1.464455   1.000000
    3        2.522867   1.000000
    4        2.909452   1.000000
    5        6.459285   0.000283
    6        7.020023   0.000000
    7       14.630130   0.000000
    8       14.709316   0.000000
 
 -0.2500000E+00 -0.4166667E+00  0.8333333E-01  0.5555556E-01
    1       -3.630994   1.000000
    2       -0.351809   1.000000
    3        2.276341   1.000000
    4        3.059849   1.000000
    5        7.391687   0.000000
    6        8.665600   0.000000
    7       11.355968   0.000000
    8       13.159292   0.000000
 
 -0.2500000E+00 -0.2500000E+00  0.8333333E-01  0.2777778E-01
    1       -4.701167   1.000000
    2        1.220858   1.000000
    3        3.326019   1.000000
    4        3.541025   1.000000
    5        6.878968   0.000000
    6        8.445672   0.000000
    7       11.622866   0.000000
    8       11.834934   0.000000
 
  0.2500000E+00  0.2500000E+00  0.2500000E+00  0.9259259E-02
    1       -5.408292   1.000000
    2        1.745542   1.000000
    3        4.892146   1.000000
    4        4.892146   1.000000
    5        7.607542   0.000000
    6        9.140562   0.000000
    7        9.140562   0.000000
    8       12.403524   0.000000
 
  0.4166667E+00  0.2500000E+00  0.2500000E+00  0.2777778E-01
    1       -4.738823   1.000000
    2        0.813318   1.000000
    3        2.786596   1.000000
    4        4.722592   1.000000
    5        8.390791   0.000000
    6        9.626864   0.000000
    7        9.800416   0.000000
    8       11.700336   0.000000
 
 -0.4166667E+00  0.2500000E+00  0.2500000E+00  0.2777778E-01
    1       -3.578430   1.000000
    2       -0.616709   1.000000
    3        1.696156   1.000000
    4        3.946469   1.000000
    5        7.679869   0.000000
    6       10.937142   0.000000
    7       11.041389   0.000000
    8       12.742909   0.000000
 
 -0.2500000E+00  0.2500000E+00  0.2500000E+00  0.2777778E-01
    1       -3.526143   1.000000
    2       -0.695422   1.000000
    3        2.166087   1.000000
    4        3.471104   1.000000
    5        7.190298   0.000000
    6       10.089623   0.000000
    7       11.303958   0.000000
    8       11.541978   0.000000
 
  0.4166667E+00  0.4166667E+00  0.2500000E+00  0.2777778E-01
    1       -4.321263   1.000000
    2        0.016722   1.000000
    3        3.238986   1.000000
    4        3.840165   1.000000
    5        7.661877   0.000000
    6        9.847013   0.000000
    7       10.526569   0.000000
    8       10.683767   0.000000
 
 -0.4166667E+00  0.4166667E+00  0.2500000E+00  0.5555556E-01
    1       -3.334174   1.000000
    2       -0.733787   1.000000
    3        1.795826   1.000000
    4        3.058969   1.000000
    5        8.872629   0.000000
    6        9.399547   0.000000
    7       10.367179   0.000000
    8       13.079322   0.000000
 
 -0.2500000E+00  0.4166667E+00  0.2500000E+00  0.5555556E-01
    1       -2.515452   1.000000
    2       -1.464972   1.000000
    3        1.637712   1.000000
    4        2.401945   1.000000
    5        8.673878   0.000000
    6        9.935281   0.000000
    7       10.701308   0.000000
    8       12.085881   0.000000
 
 -0.4166667E+00 -0.4166667E+00  0.2500000E+00  0.2777778E-01
    1       -2.723667   1.000000
    2       -1.368256   1.000000
    3        1.512946   1.000000
    4        3.278810   1.000000
    5        6.917793   0.000000
    6        9.803168   0.000000
    7       12.692653   0.000000
    8       12.864943   0.000000
 
  0.4166667E+00  0.4166667E+00  0.4166667E+00  0.9259259E-02
    1       -4.235999   1.000000
    2       -0.750501   1.000000
    3        4.505858   1.000000
    4        4.505858   1.000000
    5        7.173198   0.000000
    6        9.055587   0.000000
    7        9.055587   0.000000
    8       13.422416   0.000000
 
 -0.4166667E+00  0.4166667E+00  0.4166667E+00  0.2777778E-01
    1       -3.641320   1.000000
    2       -1.053102   1.000000
    3        2.691034   1.000000
    4        4.071709   1.000000
    5        7.824840   0.000000
    6        9.676244   0.000000
    7       10.037219   0.000000
    8       13.561196   0.000000
