Automatically generated mesh
      28
Reciprocal lattice
    0.08333333333333    0.08333333333333    0.08333333333333            96
    0.25000000000000    0.08333333333333    0.08333333333333           288
    0.41666666666667    0.08333333333333    0.08333333333333           288
   -0.41666666666667    0.08333333333333    0.08333333333333           288
   -0.25000000000000    0.08333333333333    0.08333333333333           288
   -0.08333333333333    0.08333333333333    0.08333333333333           288
    0.25000000000000    0.25000000000000    0.08333333333333           288
    0.41666666666667    0.25000000000000    0.08333333333333           576
   -0.41666666666667    0.25000000000000    0.08333333333333           576
   -0.25000000000000    0.25000000000000    0.08333333333333           576
   -0.08333333333333    0.25000000000000    0.08333333333333           576
    0.41666666666667    0.41666666666667    0.08333333333333           288
   -0.41666666666667    0.41666666666667    0.08333333333333           576
   -0.25000000000000    0.41666666666667    0.08333333333333           576
   -0.08333333333333    0.41666666666667    0.08333333333333           576
   -0.41666666666667   -0.41666666666667    0.08333333333333           288
   -0.25000000000000   -0.41666666666667    0.08333333333333           576
   -0.25000000000000   -0.25000000000000    0.08333333333333           288
    0.25000000000000    0.25000000000000    0.25000000000000            96
    0.41666666666667    0.25000000000000    0.25000000000000           288
   -0.41666666666667    0.25000000000000    0.25000000000000           288
   -0.25000000000000    0.25000000000000    0.25000000000000           288
    0.41666666666667    0.41666666666667    0.25000000000000           288
   -0.41666666666667    0.41666666666667    0.25000000000000           576
   -0.25000000000000    0.41666666666667    0.25000000000000           576
   -0.41666666666667   -0.41666666666667    0.25000000000000           288
    0.41666666666667    0.41666666666667    0.41666666666667            96
   -0.41666666666667    0.41666666666667    0.41666666666667           288
