unknown system                          
   1.00000000000000     
     0.000000    2.759794    2.759794
     2.759794    0.000000    2.759794
     2.759794    2.759794    0.000000
   Si
     2
Direct
  0.500000  0.500000  0.500000
  0.750000  0.750000  0.750000
 
   36   36   36
 0.82945     0.84500     0.89273     0.97575      1.0988      1.2678      1.4892      1.7694      2.1140      2.5265    
  3.0060      3.5449      4.1265      4.7238      5.3002      5.8129      6.2183      6.4788      6.5686      6.4788    
  6.2183      5.8129      5.3002      4.7239      4.1266      3.5449      3.0060      2.5265      2.1140      1.7693    
  1.4891      1.2678      1.0988     0.97575     0.89273     0.84500     0.84500     0.87212     0.92811      1.0163    
  1.1411      1.3077      1.5213      1.7868      2.1074      2.4834      2.9108      3.3791      3.8698      4.3569    
  4.8079      5.1875      5.4626      5.6073      5.6073      5.4626      5.1876      4.8079      4.3570      3.8699    
  3.3791      2.9109      2.4834      2.1073      1.7868      1.5213      1.3077      1.1411      1.0163     0.92811    
 0.87211     0.84499     0.89273     0.92811     0.98941      1.0799      1.2036      1.3649      1.5678      1.8155    
  2.1091      2.4465      2.8211      3.2206      3.6265      4.0146      4.3576      4.6275      4.8004      4.8599    
  4.8004      4.6275      4.3576      4.0147      3.6265      3.2206      2.8211      2.4465      2.1090      1.8154    
  1.5678      1.3649      1.2036      1.0799     0.98941     0.92810     0.89272     0.88118     0.97575      1.0163    
  1.0799      1.1697      1.2893      1.4421      1.6312      1.8582      2.1223      2.4196      2.7419      3.0762    
  3.4049      3.7068      3.9595      4.1418      4.2375      4.2375      4.1418      3.9595      3.7068      3.4049    
  3.0762      2.7419      2.4196      2.1223      1.8582      1.6312      1.4421      1.2893      1.1697      1.0799    
  1.0163     0.97574     0.95608     0.95609      1.0988      1.1411      1.2036      1.2893      1.4012      1.5421    
  1.7140      1.9171      2.1493      2.4055      2.6767      2.9501      3.2099      3.4383      3.6173      3.7317    
  3.7711      3.7317      3.6173      3.4383      3.2099      2.9501      2.6766      2.4055      2.1493      1.9171    
  1.7140      1.5422      1.4012      1.2893      1.2036      1.1411      1.0988      1.0745      1.0665      1.0745    
  1.2678      1.3077      1.3649      1.4421      1.5421      1.6670      1.8176      1.9934      2.1913      2.4055    
  2.6271      2.8444      3.0436      3.2100      3.3300      3.3930      3.3930      3.3300      3.2100      3.0436    
  2.8444      2.6271      2.4055      2.1913      1.9934      1.8177      1.6670      1.5422      1.4421      1.3649    
  1.3077      1.2678      1.2428      1.2308      1.2308      1.2428      1.4892      1.5213      1.5678      1.6312    
  1.7140      1.8176      1.9424      2.0871      2.2481      2.4196      2.5934      2.7593      2.9055      3.0204    
  3.0940      3.1194      3.0940      3.0204      2.9054      2.7592      2.5934      2.4196      2.2481      2.0871    
  1.9425      1.8176      1.7140      1.6312      1.5678      1.5213      1.4891      1.4685      1.4572      1.4536    
  1.4572      1.4686      1.7694      1.7868      1.8155      1.8582      1.9171      1.9934      2.0871      2.1965    
  2.3181      2.4465      2.5745      2.6934      2.7938      2.8667      2.9051      2.9051      2.8667      2.7938    
  2.6934      2.5745      2.4465      2.3181      2.1965      2.0871      1.9934      1.9171      1.8582      1.8155    
  1.7868      1.7693      1.7600      1.7557      1.7542      1.7542      1.7557      1.7600      2.1140      2.1074    
  2.1091      2.1223      2.1493      2.1913      2.2481      2.3181      2.3981      2.4834      2.5680      2.6448    
  2.7063      2.7463      2.7601      2.7463      2.7063      2.6448      2.5680      2.4834      2.3981      2.3181    
  2.2481      2.1913      2.1493      2.1223      2.1090      2.1074      2.1140      2.1251      2.1367      2.1453    
  2.1485      2.1453      2.1367      2.1251      2.5265      2.4834      2.4465      2.4196      2.4055      2.4055    
  2.4196      2.4465      2.4834      2.5265      2.5707      2.6106      2.6408      2.6571      2.6571      2.6408    
  2.6106      2.5707      2.5265      2.4834      2.4465      2.4196      2.4055      2.4055      2.4196      2.4465    
  2.4834      2.5265      2.5707      2.6106      2.6408      2.6571      2.6571      2.6408      2.6106      2.5707    
  3.0060      2.9108      2.8211      2.7419      2.6767      2.6271      2.5934      2.5745      2.5680      2.5707    
  2.5787      2.5881      2.5953      2.5981      2.5954      2.5881      2.5787      2.5707      2.5680      2.5745    
  2.5934      2.6270      2.6766      2.7419      2.8211      2.9109      3.0060      3.0999      3.1848      3.2529    
  3.2971      3.3124      3.2971      3.2529      3.1848      3.0998      3.5449      3.3791      3.2206      3.0762    
  2.9501      2.8444      2.7593      2.6934      2.6448      2.6106      2.5881      2.5747      2.5686      2.5686    
  2.5748      2.5881      2.6105      2.6447      2.6933      2.7592      2.8443      2.9501      3.0762      3.2206    
  3.3791      3.5449      3.7091      3.8609      3.9887      4.0814      4.1302      4.1302      4.0814      3.9887    
  3.8609      3.7091      4.1265      3.8698      3.6265      3.4049      3.2099      3.0436      2.9055      2.7938    
  2.7063      2.6408      2.5953      2.5686      2.5598      2.5686      2.5954      2.6408      2.7063      2.7937    
  2.9053      3.0435      3.2099      3.4049      3.6265      3.8699      4.1266      4.3847      4.6296      4.8445    
  5.0131      5.1208      5.1579      5.1208      5.0131      4.8445      4.6295      4.3847      4.7238      4.3569    
  4.0146      3.7068      3.4383      3.2100      3.0204      2.8667      2.7463      2.6571      2.5981      2.5686    
  2.5686      2.5981      2.6571      2.7462      2.8666      3.0203      3.2099      3.4383      3.7068      4.0147    
  4.3570      4.7239      5.1004      5.4670      5.8009      6.0784      6.2779      6.3822      6.3822      6.2779    
  6.0785      5.8009      5.4669      5.1003      5.3002      4.8079      4.3576      3.9595      3.6173      3.3300    
  3.0940      2.9051      2.7601      2.6571      2.5954      2.5748      2.5954      2.6571      2.7601      2.9050    
  3.0939      3.3300      3.6173      3.9595      4.3576      4.8079      5.3002      5.8168      6.3330      6.8191    
  7.2426      7.5724      7.7821      7.8541      7.7821      7.5724      7.2427      6.8191      6.3331      5.8168    
  5.8129      5.1875      4.6275      4.1418      3.7317      3.3930      3.1194      2.9051      2.7463      2.6408    
  2.5881      2.5881      2.6408      2.7462      2.9050      3.1192      3.3929      3.7317      4.1419      4.6275    
  5.1876      5.8129      6.4844      7.1731      7.8418      8.4484      8.9505      9.3099      9.4975      9.4975    
  9.3099      8.9505      8.4484      7.8418      7.1731      6.4844      6.2183      5.4626      4.8004      4.2375    
  3.7711      3.3930      3.0940      2.8667      2.7063      2.6106      2.5787      2.6105      2.7063      2.8666    
  3.0939      3.3929      3.7711      4.2376      4.8004      5.4626      6.2183      7.0490      7.9230      8.7969    
  9.6191      10.335      10.892      11.246      11.367      11.246      10.892      10.335      9.6191      8.7970    
  7.9231      7.0490      6.4788      5.6073      4.8599      4.2375      3.7317      3.3300      3.0204      2.7938    
  2.6448      2.5707      2.5707      2.6447      2.7937      3.0203      3.3300      3.7317      4.2376      4.8600    
  5.6073      6.4787      7.4593      8.5175      9.6062      10.666      11.630      12.431      13.006      13.307    
  13.307      13.006      12.431      11.630      10.666      9.6062      8.5176      7.4594      6.5686      5.6073    
  4.8004      4.1418      3.6173      3.2100      2.9054      2.6934      2.5680      2.5265      2.5680      2.6933    
  2.9053      3.2099      3.6173      4.1419      4.8004      5.6073      6.5685      7.6754      8.9001      10.195    
  11.498      12.731      13.814      14.664      15.209      15.396      15.209      14.664      13.814      12.731    
  11.498      10.195      8.9002      7.6755      6.4788      5.4626      4.6275      3.9595      3.4383      3.0436    
  2.7592      2.5745      2.4834      2.4834      2.5745      2.7592      3.0435      3.4383      3.9595      4.6275    
  5.4626      6.4787      7.6754      9.0322      10.506      12.034      13.536      14.921      16.086      16.930    
  17.372      17.372      16.930      16.086      14.920      13.536      12.034      10.506      9.0322      7.6755    
  6.2183      5.1876      4.3576      3.7068      3.2099      2.8444      2.5934      2.4465      2.3981      2.4465    
  2.5934      2.8443      3.2099      3.7068      4.3576      5.1876      6.2183      7.4593      8.9001      10.506    
  12.219      13.962      15.639      17.131      18.305      19.055      19.313      19.055      18.305      17.131    
  15.638      13.962      12.219      10.506      8.9001      7.4593      5.8129      4.8079      4.0147      3.4049    
  2.9501      2.6271      2.4196      2.3181      2.3181      2.4196      2.6270      2.9501      3.4049      4.0147    
  4.8079      5.8129      7.0490      8.5175      10.195      12.034      13.962      15.888      17.684      19.194    
  20.285      20.857      20.857      20.284      19.194      17.684      15.888      13.962      12.034      10.195    
  8.5175      7.0490      5.3002      4.3570      3.6265      3.0762      2.6766      2.4055      2.2481      2.1965    
  2.2481      2.4055      2.6766      3.0762      3.6265      4.3570      5.3002      6.4844      7.9230      9.6062    
  11.498      13.536      15.639      17.684      19.502      20.935      21.854      22.171      21.854      20.935    
  19.501      17.684      15.639      13.536      11.498      9.6062      7.9230      6.4844      4.7239      3.8699    
  3.2206      2.7419      2.4055      2.1913      2.0871      2.0871      2.1913      2.4055      2.7419      3.2206    
  3.8699      4.7239      5.8168      7.1731      8.7969      10.666      12.731      14.921      17.131      19.194    
  20.935      22.199      22.865      22.865      22.199      20.935      19.194      17.131      14.920      12.731    
  10.666      8.7969      7.1731      5.8168      4.1266      3.3791      2.8211      2.4196      2.1493      1.9934    
  1.9425      1.9934      2.1493      2.4196      2.8211      3.3791      4.1266      5.1004      6.3330      7.8418    
  9.6191      11.630      13.814      16.086      18.305      20.285      21.854      22.865      23.216      22.865    
  21.854      20.285      18.305      16.086      13.814      11.630      9.6191      7.8417      6.3331      5.1004    
  3.5449      2.9109      2.4465      2.1223      1.9171      1.8177      1.8176      1.9171      2.1223      2.4465    
  2.9109      3.5449      4.3847      5.4670      6.8191      8.4484      10.335      12.431      14.664      16.930    
  19.055      20.857      22.171      22.865      22.865      22.171      20.857      19.055      16.930      14.664    
  12.431      10.335      8.4483      6.8191      5.4670      4.3848      3.0060      2.4834      2.1090      1.8582    
  1.7140      1.6670      1.7140      1.8582      2.1090      2.4834      3.0060      3.7091      4.6296      5.8009    
  7.2426      8.9505      10.892      13.006      15.209      17.372      19.313      20.857      21.854      22.199    
  21.854      20.857      19.313      17.372      15.209      13.006      10.892      8.9504      7.2426      5.8009    
  4.6296      3.7092      2.5265      2.1073      1.8154      1.6312      1.5422      1.5422      1.6312      1.8155    
  2.1074      2.5265      3.0999      3.8609      4.8445      6.0784      7.5724      9.3099      11.246      13.307    
  15.396      17.372      19.055      20.284      20.935      20.935      20.285      19.055      17.372      15.397    
  13.307      11.246      9.3099      7.5724      6.0785      4.8447      3.8610      3.0999      2.1140      1.7868    
  1.5678      1.4421      1.4012      1.4421      1.5678      1.7868      2.1140      2.5707      3.1848      3.9887    
  5.0131      6.2779      7.7821      9.4975      11.367      13.307      15.209      16.930      18.305      19.194    
  19.501      19.194      18.305      16.930      15.209      13.307      11.367      9.4975      7.7821      6.2779    
  5.0132      3.9888      3.1849      2.5707      1.7693      1.5213      1.3649      1.2893      1.2893      1.3649    
  1.5213      1.7693      2.1251      2.6106      3.2529      4.0814      5.1208      6.3822      7.8541      9.4975    
  11.246      13.006      14.664      16.086      17.131      17.684      17.684      17.131      16.086      14.664    
  13.006      11.246      9.4975      7.8541      6.3823      5.1209      4.0815      3.2530      2.6106      2.1251    
  1.4891      1.3077      1.2036      1.1697      1.2036      1.3077      1.4891      1.7600      2.1367      2.6408    
  3.2971      4.1302      5.1579      6.3822      7.7821      9.3099      10.892      12.431      13.814      14.920    
  15.638      15.888      15.639      14.920      13.814      12.431      10.892      9.3099      7.7821      6.3823    
  5.1580      4.1303      3.2971      2.6408      2.1367      1.7599      1.2678      1.1411      1.0799      1.0799    
  1.1411      1.2678      1.4685      1.7557      2.1453      2.6571      3.3124      4.1302      5.1208      6.2779    
  7.5724      8.9505      10.335      11.630      12.731      13.536      13.962      13.962      13.536      12.731    
  11.630      10.335      8.9504      7.5724      6.2779      5.1209      4.1303      3.3124      2.6571      2.1453    
  1.7557      1.4685      1.0988      1.0163     0.98941      1.0163      1.0988      1.2428      1.4572      1.7542    
  2.1485      2.6571      3.2971      4.0814      5.0131      6.0785      7.2427      8.4484      9.6191      10.666    
  11.498      12.034      12.219      12.034      11.498      10.666      9.6191      8.4483      7.2426      6.0785    
  5.0132      4.0815      3.2971      2.6571      2.1485      1.7542      1.4572      1.2428     0.97575     0.92811    
 0.92810     0.97574      1.0745      1.2308      1.4536      1.7542      2.1453      2.6408      3.2529      3.9887    
  4.8445      5.8009      6.8191      7.8418      8.7970      9.6062      10.195      10.506      10.506      10.195    
  9.6062      8.7969      7.8417      6.8191      5.8009      4.8447      3.9888      3.2530      2.6408      2.1453    
  1.7542      1.4536      1.2308      1.0745     0.89273     0.87211     0.89272     0.95608      1.0665      1.2308    
  1.4572      1.7557      2.1367      2.6106      3.1848      3.8609      4.6295      5.4669      6.3331      7.1731    
  7.9231      8.5176      8.9002      9.0322      8.9001      8.5175      7.9230      7.1731      6.3331      5.4670    
  4.6296      3.8610      3.1849      2.6106      2.1367      1.7557      1.4572      1.2308      1.0665     0.95610    
 0.84500     0.84499     0.88118     0.95609      1.0745      1.2428      1.4686      1.7600      2.1251      2.5707    
  3.0998      3.7091      4.3847      5.1003      5.8168      6.4844      7.0490      7.4594      7.6755      7.6755    
  7.4593      7.0490      6.4844      5.8168      5.1004      4.3848      3.7092      3.0999      2.5707      2.1251    
  1.7599      1.4685      1.2428      1.0745     0.95610     0.88119     0.84500     0.87212     0.92811      1.0163    
  1.1411      1.3077      1.5213      1.7868      2.1074      2.4834      2.9108      3.3791      3.8698      4.3569    
  4.8079      5.1875      5.4626      5.6073      5.6073      5.4626      5.1876      4.8079      4.3570      3.8699    
  3.3791      2.9108      2.4834      2.1073      1.7868      1.5213      1.3077      1.1411      1.0163     0.92811    
 0.87211     0.84499     0.87212     0.90697     0.96728      1.0562      1.1776      1.3358      1.5349      1.7780    
  2.0664      2.3981      2.7665      3.1595      3.5586      3.9403      4.2774      4.5426      4.7124      4.7709    
  4.7124      4.5426      4.2774      3.9404      3.5587      3.1595      2.7665      2.3981      2.0664      1.7780    
  1.5348      1.3358      1.1776      1.0562     0.96728     0.90696     0.87211     0.86073     0.92811     0.96728    
  1.0286      1.1149      1.2297      1.3764      1.5580      1.7764      2.0310      2.3181      2.6294      2.9524    
  3.2698      3.5611      3.8047      3.9804      4.0725      4.0725      3.9804      3.8047      3.5612      3.2698    
  2.9524      2.6294      2.3180      2.0310      1.7764      1.5580      1.3764      1.2297      1.1150      1.0286    
 0.96727     0.92809     0.90904     0.90905      1.0163      1.0562      1.1149      1.1952      1.3000      1.4321    
  1.5938      1.7854      2.0052      2.2481      2.5054      2.7647      3.0108      3.2267      3.3958      3.5037    
  3.5407      3.5036      3.3958      3.2267      3.0108      2.7647      2.5054      2.2481      2.0052      1.7854    
  1.5938      1.4322      1.3000      1.1952      1.1149      1.0562      1.0163     0.99317     0.98562     0.99318    
  1.1411      1.1776      1.2297      1.3000      1.3912      1.5056      1.6445      1.8074      1.9916      2.1913    
  2.3980      2.6004      2.7854      2.9397      3.0506      3.1087      3.1087      3.0506      2.9397      2.7854    
  2.6004      2.3980      2.1913      1.9916      1.8074      1.6445      1.5056      1.3912      1.3000      1.2297    
  1.1776      1.1411      1.1180      1.1069      1.1069      1.1180      1.3077      1.3358      1.3764      1.4321    
  1.5056      1.5986      1.7117      1.8438      1.9916      2.1493      2.3091      2.4611      2.5946      2.6993    
  2.7661      2.7891      2.7661      2.6993      2.5946      2.4611      2.3091      2.1493      1.9916      1.8438    
  1.7117      1.5986      1.5056      1.4322      1.3764      1.3358      1.3077      1.2896      1.2796      1.2764    
  1.2796      1.2896      1.5213      1.5349      1.5580      1.5938      1.6445      1.7117      1.7955      1.8945    
  2.0052      2.1223      2.2388      2.3467      2.4374      2.5030      2.5375      2.5375      2.5030      2.4374    
  2.3467      2.2388      2.1223      2.0052      1.8945      1.7955      1.7117      1.6445      1.5937      1.5580    
  1.5348      1.5213      1.5145      1.5116      1.5108      1.5108      1.5116      1.5145      1.7868      1.7780    
  1.7764      1.7854      1.8074      1.8438      1.8945      1.9580      2.0310      2.1091      2.1863      2.2560    
  2.3117      2.3477      2.3602      2.3477      2.3117      2.2560      2.1863      2.1091      2.0310      1.9580    
  1.8945      1.8438      1.8074      1.7854      1.7764      1.7780      1.7868      1.7992      1.8113      1.8201    
  1.8232      1.8201      1.8113      1.7992      2.1074      2.0664      2.0310      2.0052      1.9916      1.9916    
  2.0052      2.0310      2.0664      2.1074      2.1492      2.1868      2.2151      2.2304      2.2304      2.2151    
  2.1868      2.1492      2.1074      2.0664      2.0310      2.0052      1.9916      1.9916      2.0052      2.0310    
  2.0664      2.1074      2.1492      2.1868      2.2151      2.2304      2.2304      2.2151      2.1868      2.1492    
  2.4834      2.3981      2.3181      2.2481      2.1913      2.1493      2.1223      2.1091      2.1074      2.1140    
  2.1251      2.1367      2.1453      2.1485      2.1453      2.1367      2.1251      2.1140      2.1074      2.1090    
  2.1223      2.1493      2.1913      2.2481      2.3181      2.3981      2.4834      2.5680      2.6448      2.7063    
  2.7463      2.7601      2.7463      2.7063      2.6448      2.5680      2.9108      2.7665      2.6294      2.5054    
  2.3980      2.3091      2.2388      2.1863      2.1492      2.1251      2.1108      2.1033      2.1002      2.1002    
  2.1033      2.1108      2.1251      2.1492      2.1862      2.2388      2.3090      2.3980      2.5054      2.6295    
  2.7665      2.9109      3.0546      3.1883      3.3013      3.3835      3.4269      3.4269      3.3835      3.3013    
  3.1883      3.0546      3.3791      3.1595      2.9524      2.7647      2.6004      2.4611      2.3467      2.2560    
  2.1868      2.1367      2.1033      2.0842      2.0780      2.0842      2.1033      2.1367      2.1867      2.2559    
  2.3466      2.4610      2.6004      2.7647      2.9525      3.1595      3.3791      3.6014      3.8138      4.0015    
  4.1496      4.2446      4.2774      4.2446      4.1496      4.0015      3.8138      3.6014      3.8698      3.5586    
  3.2698      3.0108      2.7854      2.5946      2.4374      2.3117      2.2151      2.1453      2.1002      2.0780    
  2.0780      2.1002      2.1453      2.2151      2.3116      2.4373      2.5946      2.7855      3.0109      3.2699    
  3.5587      3.8699      4.1915      4.5074      4.7979      5.0414      5.2175      5.3101      5.3101      5.2175    
  5.0414      4.7979      4.5074      4.1915      4.3569      3.9403      3.5611      3.2267      2.9397      2.6993    
  2.5030      2.3477      2.2304      2.1485      2.1002      2.0842      2.1002      2.1485      2.2303      2.3476    
  2.5029      2.6993      2.9397      3.2268      3.5612      3.9404      4.3570      4.7976      5.2426      5.6663    
  6.0398      6.3334      6.5214      6.5862      6.5214      6.3334      6.0398      5.6664      5.2426      4.7976    
  4.8079      4.2774      3.8047      3.3958      3.0506      2.7661      2.5375      2.3602      2.2304      2.1453    
  2.1033      2.1033      2.1453      2.2303      2.3601      2.5374      2.7661      3.0507      3.3958      3.8048    
  4.2774      4.8079      5.3827      5.9791      6.5661      7.1058      7.5580      7.8847      8.0562      8.0562    
  7.8847      7.5580      7.1058      6.5661      5.9791      5.3827      5.1875      4.5426      3.9804      3.5037    
  3.1087      2.7891      2.5375      2.3477      2.2151      2.1367      2.1108      2.1367      2.2151      2.3476    
  2.5374      2.7891      3.1088      3.5037      3.9805      4.5426      5.1876      5.9033      6.6662      7.4404    
  8.1799      8.8326      9.3459      9.6747      9.7880      9.6747      9.3459      8.8325      8.1799      7.4404    
  6.6662      5.9033      5.4626      4.7124      4.0725      3.5407      3.1087      2.7661      2.5030      2.3117    
  2.1868      2.1251      2.1251      2.1867      2.3116      2.5029      2.7661      3.1088      3.5408      4.0726    
  4.7124      5.4626      6.3152      7.2477      8.2223      9.1863      10.076      10.824      11.365      11.650    
  11.650      11.365      10.824      10.076      9.1863      8.2223      7.2477      6.3151      5.6073      4.7709    
  4.0725      3.5036      3.0506      2.6993      2.4374      2.2560      2.1492      2.1140      2.1492      2.2559    
  2.4373      2.6993      3.0507      3.5037      4.0726      4.7709      5.6073      6.5798      7.6707      8.8432    
  10.041      11.193      12.215      13.023      13.543      13.722      13.543      13.023      12.215      11.193    
  10.041      8.8432      7.6707      6.5798      5.6073      4.7124      3.9804      3.3958      2.9397      2.5946    
  2.3467      2.1863      2.1074      2.1074      2.1862      2.3466      2.5946      2.9397      3.3958      3.9805    
  4.7124      5.6073      6.6711      7.8936      9.2432      10.665      12.083      13.403      14.521      15.337    
  15.768      15.768      15.337      14.521      13.403      12.083      10.665      9.2431      7.8935      6.6711    
  5.4626      4.5426      3.8047      3.2267      2.7854      2.4611      2.2388      2.1091      2.0664      2.1090    
  2.2388      2.4610      2.7855      3.2268      3.8048      4.5426      5.4626      6.5798      7.8936      9.3814    
  10.995      12.658      14.274      15.724      16.882      17.634      17.894      17.634      16.882      15.723    
  14.274      12.658      10.994      9.3813      7.8935      6.5798      5.1876      4.2774      3.5612      3.0108    
  2.6004      2.3091      2.1223      2.0310      2.0310      2.1223      2.3090      2.6004      3.0109      3.5612    
  4.2774      5.1876      6.3152      7.6707      9.2432      10.995      12.857      14.735      16.505      18.025    
  19.145      19.740      19.740      19.145      18.025      16.505      14.735      12.857      10.994      9.2431    
  7.6706      6.3151      4.8079      3.9404      3.2698      2.7647      2.3980      2.1493      2.0052      1.9580    
  2.0052      2.1493      2.3980      2.7647      3.2699      3.9404      4.8079      5.9033      7.2477      8.8432    
  10.665      12.658      14.735      16.777      18.634      20.132      21.107      21.445      21.107      20.132    
  18.634      16.777      14.735      12.658      10.665      8.8431      7.2477      5.9033      4.3570      3.5587    
  2.9524      2.5054      2.1913      1.9916      1.8945      1.8945      1.9916      2.1913      2.5054      2.9525    
  3.5587      4.3570      5.3827      6.6662      8.2223      10.041      12.083      14.274      16.505      18.634    
  20.475      21.835      22.558      22.558      21.835      20.475      18.634      16.505      14.274      12.083    
  10.041      8.2223      6.6662      5.3827      3.8699      3.1595      2.6294      2.2481      1.9916      1.8438    
  1.7955      1.8438      1.9916      2.2481      2.6295      3.1595      3.8699      4.7976      5.9791      7.4404    
  9.1863      11.193      13.403      15.724      18.025      20.132      21.835      22.946      23.332      22.946    
  21.835      20.132      18.025      15.724      13.403      11.193      9.1863      7.4404      5.9792      4.7977    
  3.3791      2.7665      2.3180      2.0052      1.8074      1.7117      1.7117      1.8074      2.0052      2.3181    
  2.7665      3.3791      4.1915      5.2426      6.5661      8.1799      10.076      12.215      14.521      16.882    
  19.145      21.107      22.558      23.332      23.332      22.559      21.107      19.145      16.882      14.521    
  12.215      10.076      8.1799      6.5661      5.2427      4.1916      2.9108      2.3981      2.0310      1.7854    
  1.6445      1.5986      1.6445      1.7854      2.0310      2.3981      2.9109      3.6014      4.5074      5.6663    
  7.1058      8.8326      10.824      13.023      15.337      17.634      19.740      21.445      22.558      22.946    
  22.559      21.445      19.740      17.634      15.337      13.023      10.824      8.8325      7.1059      5.6665    
  4.5075      3.6014      2.4834      2.0664      1.7764      1.5938      1.5056      1.5056      1.5937      1.7764    
  2.0664      2.4834      3.0546      3.8138      4.7979      6.0398      7.5580      9.3459      11.365      13.543    
  15.768      17.894      19.740      21.107      21.835      21.835      21.107      19.740      17.895      15.768    
  13.543      11.365      9.3459      7.5580      6.0399      4.7980      3.8138      3.0546      2.1073      1.7780    
  1.5580      1.4322      1.3912      1.4322      1.5580      1.7780      2.1074      2.5680      3.1883      4.0015    
  5.0414      6.3334      7.8847      9.6747      11.650      13.722      15.768      17.634      19.145      20.132    
  20.475      20.132      19.145      17.634      15.768      13.722      11.650      9.6747      7.8847      6.3335    
  5.0415      4.0016      3.1883      2.5680      1.7868      1.5348      1.3764      1.3000      1.3000      1.3764    
  1.5348      1.7868      2.1492      2.6448      3.3013      4.1496      5.2175      6.5214      8.0562      9.7880    
  11.650      13.543      15.337      16.882      18.025      18.634      18.634      18.025      16.882      15.337    
  13.543      11.650      9.7880      8.0563      6.5215      5.2177      4.1497      3.3013      2.6447      2.1492    
  1.5213      1.3358      1.2297      1.1952      1.2297      1.3358      1.5213      1.7992      2.1868      2.7063    
  3.3835      4.2446      5.3101      6.5862      8.0562      9.6747      11.365      13.023      14.521      15.723    
  16.505      16.777      16.505      15.724      14.521      13.023      11.365      9.6747      8.0563      6.5863    
  5.3102      4.2447      3.3835      2.7063      2.1867      1.7991      1.3077      1.1776      1.1150      1.1149    
  1.1776      1.3077      1.5145      1.8113      2.2151      2.7463      3.4269      4.2774      5.3101      6.5214    
  7.8847      9.3459      10.824      12.215      13.403      14.274      14.735      14.735      14.274      13.403    
  12.215      10.824      9.3459      7.8847      6.5215      5.3102      4.2775      3.4269      2.7462      2.2151    
  1.8113      1.5145      1.1411      1.0562      1.0286      1.0562      1.1411      1.2896      1.5116      1.8201    
  2.2304      2.7601      3.4269      4.2446      5.2175      6.3334      7.5580      8.8325      10.076      11.193    
  12.083      12.658      12.857      12.658      12.083      11.193      10.076      8.8325      7.5580      6.3335    
  5.2177      4.2447      3.4269      2.7601      2.2303      1.8200      1.5116      1.2896      1.0163     0.96728    