   2   2   0   0
  0.2101987E+02  0.3902938E-09  0.3902938E-09  0.3902938E-09  0.5000000E-15
  1.000000000000000E-004
  CAR 
 unknown system                          
     16.53894925     -8.23811505  301      5.69076522      1.00000000
     -8.238  0.0000E+00  0.0000E+00
     -8.156  0.0000E+00  0.0000E+00
     -8.073  0.0000E+00  0.0000E+00
     -7.990  0.0000E+00  0.0000E+00
     -7.908  0.0000E+00  0.0000E+00
     -7.825  0.0000E+00  0.0000E+00
     -7.743  0.0000E+00  0.0000E+00
     -7.660  0.0000E+00  0.0000E+00
     -7.577  0.0000E+00  0.0000E+00
     -7.495  0.0000E+00  0.0000E+00
     -7.412  0.3501E-18  0.2891E-19
     -7.330  0.3676E-16  0.3065E-17
     -7.247  0.3042E-14  0.2543E-15
     -7.164  0.1789E-12  0.1503E-13
     -7.082  0.7532E-11  0.6371E-12
     -6.999  0.2271E-09  0.1939E-10
     -6.917  0.4915E-08  0.4253E-09
     -6.834  0.7656E-07  0.6748E-08
     -6.751  0.8618E-06  0.7792E-07
     -6.669  0.7056E-05  0.6607E-06
     -6.586  0.4242E-04  0.4164E-05
     -6.504  0.1899E-03  0.1985E-04
     -6.421  0.6448E-03  0.7310E-04
     -6.339  0.1698E-02  0.2133E-03
     -6.256  0.3554E-02  0.5068E-03
     -6.173  0.6078E-02  0.1009E-02
     -6.091  0.8794E-02  0.1735E-02
     -6.008  0.1129E-01  0.2667E-02
     -5.926  0.1356E-01  0.3787E-02
     -5.843  0.1576E-01  0.5088E-02
     -5.760  0.1763E-01  0.6545E-02
     -5.678  0.1881E-01  0.8098E-02
     -5.595  0.1968E-01  0.9723E-02
     -5.513  0.2132E-01  0.1148E-01
     -5.430  0.2386E-01  0.1345E-01
     -5.347  0.2588E-01  0.1559E-01
     -5.265  0.2635E-01  0.1777E-01
     -5.182  0.2622E-01  0.1993E-01
     -5.100  0.2712E-01  0.2217E-01
     -5.017  0.2916E-01  0.2458E-01
     -4.935  0.3149E-01  0.2718E-01
     -4.852  0.3375E-01  0.2997E-01
     -4.769  0.3585E-01  0.3293E-01
     -4.687  0.3719E-01  0.3600E-01
     -4.604  0.3717E-01  0.3907E-01
     -4.522  0.3636E-01  0.4208E-01
     -4.439  0.3696E-01  0.4513E-01
     -4.356  0.4115E-01  0.4853E-01
     -4.274  0.4812E-01  0.5250E-01
     -4.191  0.5402E-01  0.5696E-01
     -4.109  0.5645E-01  0.6162E-01
     -4.026  0.5667E-01  0.6631E-01
     -3.943  0.5676E-01  0.7099E-01
     -3.861  0.5648E-01  0.7566E-01
     -3.778  0.5414E-01  0.8013E-01
     -3.696  0.5004E-01  0.8426E-01
     -3.613  0.4782E-01  0.8821E-01
     -3.530  0.5051E-01  0.9238E-01
     -3.448  0.5577E-01  0.9699E-01
     -3.365  0.5747E-01  0.1017E+00
     -3.283  0.5222E-01  0.1060E+00
     -3.200  0.4239E-01  0.1095E+00
     -3.118  0.3293E-01  0.1123E+00
     -3.035  0.2707E-01  0.1145E+00
     -2.952  0.2576E-01  0.1166E+00
     -2.870  0.2881E-01  0.1190E+00
     -2.787  0.3450E-01  0.1219E+00
     -2.705  0.3884E-01  0.1251E+00
     -2.622  0.3759E-01  0.1282E+00
     -2.539  0.2980E-01  0.1306E+00
     -2.457  0.1879E-01  0.1322E+00
     -2.374  0.9230E-02  0.1329E+00
     -2.292  0.3504E-02  0.1332E+00
     -2.209  0.1305E-02  0.1333E+00
     -2.126  0.1829E-02  0.1335E+00
     -2.044  0.5762E-02  0.1340E+00
     -1.961  0.1468E-01  0.1352E+00
     -1.879  0.2752E-01  0.1375E+00
     -1.796  0.3830E-01  0.1406E+00
     -1.713  0.4085E-01  0.1440E+00
     -1.631  0.3616E-01  0.1470E+00
     -1.548  0.3198E-01  0.1496E+00
     -1.466  0.3537E-01  0.1525E+00
     -1.383  0.4749E-01  0.1565E+00
     -1.301  0.6358E-01  0.1617E+00
     -1.218  0.7663E-01  0.1680E+00
     -1.135  0.8259E-01  0.1749E+00
     -1.053  0.8101E-01  0.1816E+00
     -0.970  0.7229E-01  0.1875E+00
     -0.888  0.5920E-01  0.1924E+00
     -0.805  0.4850E-01  0.1964E+00
     -0.722  0.4469E-01  0.2001E+00
     -0.640  0.4393E-01  0.2037E+00
     -0.557  0.3932E-01  0.2070E+00
     -0.475  0.3079E-01  0.2095E+00
     -0.392  0.2470E-01  0.2116E+00
     -0.309  0.2538E-01  0.2137E+00
     -0.227  0.3125E-01  0.2163E+00
     -0.144  0.3730E-01  0.2193E+00
     -0.062  0.3840E-01  0.2225E+00
      0.021  0.3279E-01  0.2252E+00
      0.103  0.2400E-01  0.2272E+00
      0.186  0.1777E-01  0.2287E+00
      0.269  0.1740E-01  0.2301E+00
      0.351  0.2181E-01  0.2319E+00
      0.434  0.2620E-01  0.2341E+00
      0.516  0.2566E-01  0.2362E+00
      0.599  0.1989E-01  0.2378E+00
      0.682  0.1346E-01  0.2389E+00
      0.764  0.1071E-01  0.2398E+00
      0.847  0.1200E-01  0.2408E+00
      0.929  0.1567E-01  0.2421E+00
      1.012  0.2117E-01  0.2439E+00
      1.095  0.2870E-01  0.2462E+00
      1.177  0.3724E-01  0.2493E+00
      1.260  0.4491E-01  0.2530E+00
      1.342  0.5077E-01  0.2572E+00
      1.425  0.5612E-01  0.2618E+00
      1.508  0.6359E-01  0.2671E+00
      1.590  0.7335E-01  0.2731E+00
      1.673  0.8116E-01  0.2798E+00
      1.755  0.8261E-01  0.2867E+00
      1.838  0.7835E-01  0.2931E+00
      1.920  0.7305E-01  0.2992E+00
      2.003  0.7053E-01  0.3050E+00
      2.086  0.7073E-01  0.3108E+00
      2.168  0.7145E-01  0.3167E+00
      2.251  0.7223E-01  0.3227E+00
      2.333  0.7580E-01  0.3290E+00
      2.416  0.8475E-01  0.3360E+00
      2.499  0.9610E-01  0.3439E+00
      2.581  0.1020E+00  0.3523E+00
      2.664  0.9914E-01  0.3605E+00
      2.746  0.9435E-01  0.3683E+00
      2.829  0.9514E-01  0.3762E+00
      2.912  0.9957E-01  0.3844E+00
      2.994  0.1005E+00  0.3927E+00
      3.077  0.9643E-01  0.4007E+00
      3.159  0.9409E-01  0.4084E+00
      3.242  0.9881E-01  0.4166E+00
      3.325  0.1059E+00  0.4253E+00
      3.407  0.1051E+00  0.4340E+00
      3.490  0.9315E-01  0.4417E+00
      3.572  0.7852E-01  0.4482E+00
      3.655  0.7237E-01  0.4542E+00
      3.737  0.7809E-01  0.4606E+00
      3.820  0.8890E-01  0.4680E+00
      3.903  0.9478E-01  0.4758E+00
      3.985  0.9087E-01  0.4833E+00
      4.068  0.7979E-01  0.4899E+00
      4.150  0.6807E-01  0.4955E+00
      4.233  0.6129E-01  0.5006E+00
      4.316  0.5979E-01  0.5055E+00
      4.398  0.5794E-01  0.5103E+00
      4.481  0.5043E-01  0.5145E+00
      4.563  0.3909E-01  0.5177E+00
      4.646  0.3052E-01  0.5202E+00
      4.729  0.2805E-01  0.5225E+00
      4.811  0.2855E-01  0.5249E+00
      4.894  0.2705E-01  0.5271E+00
      4.976  0.2224E-01  0.5289E+00
      5.059  0.1662E-01  0.5303E+00
      5.141  0.1244E-01  0.5313E+00
      5.224  0.9570E-02  0.5321E+00
      5.307  0.6955E-02  0.5327E+00
      5.389  0.4308E-02  0.5331E+00
      5.472  0.2127E-02  0.5332E+00
      5.554  0.8073E-03  0.5333E+00
      5.637  0.2335E-03  0.5333E+00
      5.720  0.7891E-04  0.5333E+00
      5.802  0.1899E-03  0.5334E+00
      5.885  0.7887E-03  0.5334E+00
      5.967  0.2474E-02  0.5336E+00
      6.050  0.5710E-02  0.5341E+00
      6.133  0.9892E-02  0.5349E+00
      6.215  0.1348E-01  0.5360E+00
      6.298  0.1601E-01  0.5373E+00
      6.380  0.1924E-01  0.5389E+00
      6.463  0.2492E-01  0.5410E+00
      6.546  0.3182E-01  0.5436E+00
      6.628  0.3695E-01  0.5467E+00
      6.711  0.4000E-01  0.5500E+00
      6.793  0.4375E-01  0.5536E+00
      6.876  0.4931E-01  0.5577E+00
      6.958  0.5439E-01  0.5622E+00
      7.041  0.5721E-01  0.5669E+00
      7.124  0.5886E-01  0.5717E+00
      7.206  0.6199E-01  0.5769E+00
      7.289  0.6996E-01  0.5826E+00
      7.371  0.8502E-01  0.5897E+00
      7.454  0.1041E+00  0.5983E+00
      7.537  0.1177E+00  0.6080E+00
      7.619  0.1178E+00  0.6177E+00
      7.702  0.1063E+00  0.6265E+00
      7.784  0.9288E-01  0.6342E+00
      7.867  0.8545E-01  0.6412E+00
      7.950  0.8495E-01  0.6482E+00
      8.032  0.8600E-01  0.6553E+00
      8.115  0.8299E-01  0.6622E+00
      8.197  0.7632E-01  0.6685E+00
      8.280  0.7123E-01  0.6744E+00
      8.363  0.7305E-01  0.6804E+00
      8.445  0.8487E-01  0.6874E+00
      8.528  0.1053E+00  0.6961E+00
      8.610  0.1261E+00  0.7065E+00
      8.693  0.1373E+00  0.7179E+00
      8.775  0.1354E+00  0.7290E+00
      8.858  0.1263E+00  0.7395E+00
      8.941  0.1180E+00  0.7492E+00
      9.023  0.1129E+00  0.7585E+00
      9.106  0.1078E+00  0.7674E+00
      9.188  0.1012E+00  0.7758E+00
      9.271  0.9468E-01  0.7836E+00
      9.354  0.8994E-01  0.7910E+00
      9.436  0.8743E-01  0.7983E+00
      9.519  0.8676E-01  0.8054E+00
      9.601  0.8646E-01  0.8126E+00
      9.684  0.8570E-01  0.8197E+00
      9.767  0.8563E-01  0.8267E+00
      9.849  0.8694E-01  0.8339E+00
      9.932  0.8823E-01  0.8412E+00
     10.014  0.8955E-01  0.8486E+00
     10.097  0.9361E-01  0.8563E+00
     10.180  0.9980E-01  0.8646E+00
     10.262  0.1015E+00  0.8729E+00
     10.345  0.9383E-01  0.8807E+00
     10.427  0.8019E-01  0.8873E+00
     10.510  0.6838E-01  0.8930E+00
     10.592  0.6239E-01  0.8981E+00
     10.675  0.6063E-01  0.9031E+00
     10.758  0.6140E-01  0.9082E+00
     10.840  0.6693E-01  0.9137E+00
     10.923  0.7898E-01  0.9203E+00
     11.005  0.9299E-01  0.9279E+00
     11.088  0.1016E+00  0.9363E+00
     11.171  0.1011E+00  0.9447E+00
     11.253  0.9184E-01  0.9523E+00
     11.336  0.7639E-01  0.9586E+00
     11.418  0.5986E-01  0.9635E+00
     11.501  0.4863E-01  0.9675E+00
     11.584  0.4597E-01  0.9713E+00
     11.666  0.4870E-01  0.9753E+00
     11.749  0.4991E-01  0.9795E+00
     11.831  0.4660E-01  0.9833E+00
     11.914  0.4274E-01  0.9868E+00
     11.996  0.4497E-01  0.9906E+00
     12.079  0.5680E-01  0.9952E+00
     12.162  0.7452E-01  0.1001E+01
     12.244  0.8710E-01  0.1009E+01
     12.327  0.8464E-01  0.1016E+01
     12.409  0.6781E-01  0.1021E+01
     12.492  0.4631E-01  0.1025E+01
     12.575  0.3034E-01  0.1028E+01
     12.657  0.2474E-01  0.1030E+01
     12.740  0.2717E-01  0.1032E+01
     12.822  0.3056E-01  0.1034E+01
     12.905  0.3040E-01  0.1037E+01
     12.988  0.2869E-01  0.1039E+01
     13.070  0.2914E-01  0.1042E+01
     13.153  0.3180E-01  0.1044E+01
     13.235  0.3492E-01  0.1047E+01
     13.318  0.3785E-01  0.1050E+01
     13.401  0.3917E-01  0.1053E+01
     13.483  0.3551E-01  0.1056E+01
     13.566  0.2587E-01  0.1059E+01
     13.648  0.1437E-01  0.1060E+01
     13.731  0.5951E-02  0.1060E+01
     13.813  0.1987E-02  0.1060E+01
     13.896  0.1224E-02  0.1060E+01
     13.979  0.2522E-02  0.1061E+01
     14.061  0.5234E-02  0.1061E+01
     14.144  0.8062E-02  0.1062E+01
     14.226  0.9303E-02  0.1063E+01
     14.309  0.8841E-02  0.1063E+01
     14.392  0.8406E-02  0.1064E+01
     14.474  0.8898E-02  0.1065E+01
     14.557  0.8981E-02  0.1065E+01
     14.639  0.7276E-02  0.1066E+01
     14.722  0.4402E-02  0.1066E+01
     14.805  0.1946E-02  0.1067E+01
     14.887  0.6252E-03  0.1067E+01
     14.970  0.1455E-03  0.1067E+01
     15.052  0.2449E-04  0.1067E+01
     15.135  0.2979E-05  0.1067E+01
     15.218  0.2613E-06  0.1067E+01
     15.300  0.1651E-07  0.1067E+01
     15.383  0.7505E-09  0.1067E+01
     15.465  0.2451E-10  0.1067E+01
     15.548  0.5742E-12  0.1067E+01
     15.630  0.9647E-14  0.1067E+01
     15.713  0.1155E-15  0.1067E+01
     15.796  0.0000E+00  0.1067E+01
     15.878  0.0000E+00  0.1067E+01
     15.961  0.0000E+00  0.1067E+01
     16.043  0.0000E+00  0.1067E+01
     16.126  0.0000E+00  0.1067E+01
     16.209  0.0000E+00  0.1067E+01
     16.291  0.0000E+00  0.1067E+01
     16.374  0.0000E+00  0.1067E+01
     16.456  0.0000E+00  0.1067E+01
     16.539  0.0000E+00  0.1067E+01
