    2    2   15    1
  0.2101987E+02  0.3902938E-09  0.3902938E-09  0.3902938E-09  0.5000000E-15
  1.000000000000000E-004
  CAR 
 unknown system                          
      8     60      8
 
  0.6250000E-01  0.6250000E-01  0.6250000E-01  0.3906250E-02
    1       -6.238115   1.000000
    2        4.807796   1.000000
    3        5.263180   0.998751
    4        5.263180   0.998751
    5        7.881635   0.000000
    6        8.006822   0.000000
    7        8.006822   0.000000
    8        8.621943   0.000000
 
  0.1875000E+00  0.6250000E-01  0.6250000E-01  0.1171875E-01
    1       -5.978205   1.000000
    2        3.317712   1.000000
    3        4.485190   1.000000
    4        5.146430   0.999941
    5        7.900569   0.000000
    6        8.246062   0.000000
    7        8.512065   0.000000
    8       10.141174   0.000000
 
  0.3125000E+00  0.6250000E-01  0.6250000E-01  0.1171875E-01
    1       -5.351857   1.000000
    2        1.151252   1.000000
    3        4.006030   1.000000
    4        4.697662   1.000000
    5        7.447877   0.000000
    6        8.737299   0.000000
    7        9.013870   0.000000
    8       11.745367   0.000000
 
  0.4375000E+00  0.6250000E-01  0.6250000E-01  0.1171875E-01
    1       -4.482467   1.000000
    2       -0.676751   1.000000
    3        3.791190   1.000000
    4        4.302704   1.000000
    5        7.134892   0.000000
    6        8.818579   0.000000
    7        8.832206   0.000000
    8       13.041066   0.000000
 
 -0.4375000E+00  0.6250000E-01  0.6250000E-01  0.1171875E-01
    1       -4.055356   1.000000
    2       -1.349479   1.000000
    3        3.836252   1.000000
    4        4.092257   1.000000
    5        7.056453   0.000000
    6        8.634943   0.000000
    7        8.897400   0.000000
    8       13.139931   0.000000
 
 -0.3125000E+00  0.6250000E-01  0.6250000E-01  0.1171875E-01
    1       -4.779284   1.000000
    2       -0.137586   1.000000
    3        4.113988   1.000000
    4        4.114956   1.000000
    5        7.224476   0.000000
    6        8.630114   0.000000
    7        9.138010   0.000000
    8       12.179116   0.000000
 
 -0.1875000E+00  0.6250000E-01  0.6250000E-01  0.1171875E-01
    1       -5.597216   1.000000
    2        1.861026   1.000000
    3        4.385591   1.000000
    4        4.566483   1.000000
    5        7.588619   0.000000
    6        8.461014   0.000000
    7        9.170622   0.000000
    8       10.974392   0.000000
 
 -0.6250000E-01  0.6250000E-01  0.6250000E-01  0.1171875E-01
    1       -6.107455   1.000000
    2        4.055967   1.000000
    3        4.853573   1.000000
    4        4.998783   1.000000
    5        7.725286   0.000000
    6        8.224135   0.000000
    7        8.566011   0.000000
    8        9.392610   0.000000
 
  0.1875000E+00  0.1875000E+00  0.6250000E-01  0.1171875E-01
    1       -5.847361   1.000000
    2        3.161520   1.000000
    3        4.314981   1.000000
    4        4.386005   1.000000
    5        7.319598   0.000000
    6        8.949059   0.000000
    7        9.398962   0.000000
    8        9.861931   0.000000
 
  0.3125000E+00  0.1875000E+00  0.6250000E-01  0.2343750E-01
    1       -5.339168   1.000000
    2        1.693447   1.000000
    3        3.373894   1.000000
    4        4.136377   1.000000
    5        7.482287   0.000000
    6        9.053337   0.000000
    7        9.790839   0.000000
    8       10.177960   0.000000
 
  0.4375000E+00  0.1875000E+00  0.6250000E-01  0.2343750E-01
    1       -4.522956   1.000000
    2       -0.101783   1.000000
    3        2.880800   1.000000
    4        3.742948   1.000000
    5        7.660646   0.000000
    6        9.037912   0.000000
    7       10.205677   0.000000
    8       10.508591   0.000000
 
 -0.4375000E+00  0.1875000E+00  0.6250000E-01  0.2343750E-01
    1       -3.794278   1.000000
    2       -1.263535   1.000000
    3        2.596523   1.000000
    4        3.654178   1.000000
    5        7.713169   0.000000
    6        8.770852   0.000000
    7       10.069183   0.000000
    8       12.460266   0.000000
 
 -0.3125000E+00  0.1875000E+00  0.6250000E-01  0.2343750E-01
    1       -4.231286   1.000000
    2       -0.601971   1.000000
    3        2.531020   1.000000
    4        3.927546   1.000000
    5        7.963331   0.000000
    6        8.704758   0.000000
    7       10.009769   0.000000
    8       11.734825   0.000000
 
 -0.1875000E+00  0.1875000E+00  0.6250000E-01  0.2343750E-01
    1       -5.099476   1.000000
    2        1.064735   1.000000
    3        2.836415   1.000000
    4        4.416256   1.000000
    5        8.276418   0.000000
    6        8.597993   0.000000
    7        9.882789   0.000000
    8       10.377292   0.000000
 
 -0.6250000E-01  0.1875000E+00  0.6250000E-01  0.2343750E-01
    1       -5.721105   1.000000
    2        2.511365   1.000000
    3        3.926622   1.000000
    4        4.776028   1.000000
    5        7.856021   0.000000
    6        8.444845   0.000000
    7        9.217640   0.000000
    8       10.398762   0.000000
 
  0.3125000E+00  0.3125000E+00  0.6250000E-01  0.1171875E-01
    1       -4.950570   1.000000
    2        1.181159   1.000000
    3        3.237335   1.000000
    4        3.355136   1.000000
    5        6.535550   0.000000
    6        8.171274   0.000000
    7       11.198674   0.000000
    8       11.352787   0.000000
 
  0.4375000E+00  0.3125000E+00  0.6250000E-01  0.2343750E-01
    1       -4.222932   1.000000
    2       -0.022569   1.000000
    3        2.478577   1.000000
    4        3.020991   1.000000
    5        6.844089   0.000000
    6        8.013404   0.000000
    7       11.164157   0.000000
    8       12.317880   0.000000
 
 -0.4375000E+00  0.3125000E+00  0.6250000E-01  0.2343750E-01
    1       -3.359187   1.000000
    2       -1.176290   1.000000
    3        1.666697   1.000000
    4        2.990043   1.000000
    5        7.077761   0.000000
    6        9.631780   0.000000
    7       10.749135   0.000000
    8       12.230810   0.000000
 
 -0.3125000E+00  0.3125000E+00  0.6250000E-01  0.2343750E-01
    1       -3.429969   1.000000
    2       -1.084004   1.000000
    3        1.329255   1.000000
    4        3.321741   1.000000
    5        7.463221   0.000000
    6       10.328326   0.000000
    7       11.577186   0.000000
    8       11.929172   0.000000
 
 -0.1875000E+00  0.3125000E+00  0.6250000E-01  0.2343750E-01
    1       -4.293170   1.000000
    2       -0.151182   1.000000
    3        1.907620   1.000000
    4        3.885534   1.000000
    5        8.054623   0.000000
    6        9.248976   0.000000
    7       10.624343   0.000000
    8       10.928906   0.000000
 
 -0.6250000E-01  0.3125000E+00  0.6250000E-01  0.2343750E-01
    1       -4.990475   1.000000
    2        0.492321   1.000000
    3        3.475914   1.000000
    4        4.319302   1.000000
    5        7.725114   0.000000
    6        8.636065   0.000000
    7        9.476931   0.000000
    8       11.136014   0.000000
 
  0.4375000E+00  0.4375000E+00  0.6250000E-01  0.1171875E-01
    1       -3.588741   1.000000
    2       -0.863945   1.000000
    3        2.572108   1.000000
    4        2.778930   1.000000
    5        6.160156   0.000452
    6        6.865459   0.000000
    7       13.435104   0.000000
    8       13.462349   0.000000
 
 -0.4375000E+00  0.4375000E+00  0.6250000E-01  0.2343750E-01
    1       -2.709010   1.000000
    2       -1.825152   1.000000
    3        2.038356   1.000000
    4        2.546437   1.000000
    5        6.584149   0.000000
    6        7.292848   0.000000
    7       13.203515   0.000000
    8       14.165402   0.000000
 
 -0.3125000E+00  0.4375000E+00  0.6250000E-01  0.2343750E-01
    1       -2.810771   1.000000
    2       -1.659039   1.000000
    3        1.338977   1.000000
    4        2.850937   1.000000
    5        6.936421   0.000000
    6        9.475809   0.000000
    7       11.717032   0.000000
    8       12.820054   0.000000
 
 -0.1875000E+00  0.4375000E+00  0.6250000E-01  0.2343750E-01
    1       -3.545741   1.000000
    2       -1.233877   1.000000
    3        1.851386   1.000000
    4        3.431279   1.000000
    5        7.574206   0.000000
    6        9.489888   0.000000
    7       10.989596   0.000000
    8       12.217560   0.000000
 
 -0.6250000E-01  0.4375000E+00  0.6250000E-01  0.2343750E-01
    1       -4.133691   1.000000
    2       -1.068473   1.000000
    3        3.299764   1.000000
    4        3.996364   1.000000
    5        7.516452   0.000000
    6        8.569390   0.000000
    7        9.313250   0.000000
    8       12.781542   0.000000
 
 -0.4375000E+00 -0.4375000E+00  0.6250000E-01  0.1171875E-01
    1       -2.756806   1.000000
    2       -1.840782   1.000000
    3        2.438626   1.000000
    4        2.661140   1.000000
    5        6.162355   0.000427
    6        6.513978   0.000000
    7       14.485405   0.000000
    8       14.538949   0.000000
 
 -0.3125000E+00 -0.4375000E+00  0.6250000E-01  0.2343750E-01
    1       -3.507194   1.000000
    2       -0.926479   1.000000
    3        2.189074   1.000000
    4        2.701474   1.000000
    5        6.665264   0.000000
    6        7.541478   0.000000
    7       12.157887   0.000000
    8       13.443966   0.000000
 
 -0.1875000E+00 -0.4375000E+00  0.6250000E-01  0.2343750E-01
    1       -3.967139   1.000000
    2       -0.647405   1.000000
    3        2.234031   1.000000
    4        3.280208   1.000000
    5        7.342118   0.000000
    6        9.810685   0.000000
    7        9.980075   0.000000
    8       11.200050   0.000000
 
 -0.3125000E+00 -0.3125000E+00  0.6250000E-01  0.1171875E-01
    1       -4.323892   1.000000
    2        0.152431   1.000000
    3        2.838740   1.000000
    4        3.012098   1.000000
    5        6.283089   0.000014
    6        7.430734   0.000000
    7       12.300261   0.000000
    8       12.393949   0.000000
 
 -0.1875000E+00 -0.3125000E+00  0.6250000E-01  0.2343750E-01
    1       -4.837297   1.000000
    2        0.853563   1.000000
    3        2.882364   1.000000
    4        3.510945   1.000000
    5        7.123222   0.000000
    6        8.663972   0.000000
    7       10.244086   0.000000
    8       11.218240   0.000000
 
 -0.1875000E+00 -0.1875000E+00  0.6250000E-01  0.1171875E-01
    1       -5.460383   1.000000
    2        2.193662   1.000000
    3        3.762018   1.000000
    4        3.797062   1.000000
    5        6.895253   0.000000
    6        8.974618   0.000000
    7       10.190820   0.000000
    8       10.347832   0.000000
 
  0.1875000E+00  0.1875000E+00  0.1875000E+00  0.3906250E-02
    1       -5.850631   1.000000
    2        2.616207   1.000000
    3        4.835776   1.000000
    4        4.835776   1.000000
    5        7.448840   0.000000
    6        8.608111   0.000000
    7        8.608111   0.000000
    8       10.767975   0.000000
 
  0.3125000E+00  0.1875000E+00  0.1875000E+00  0.1171875E-01
    1       -5.470475   1.000000
    2        1.781035   1.000000
    3        3.372176   1.000000
    4        4.849393   1.000000
    5        8.101442   0.000000
    6        8.730755   0.000000
    7        9.006285   0.000000
    8       10.922687   0.000000
 
  0.4375000E+00  0.1875000E+00  0.1875000E+00  0.1171875E-01
    1       -4.747315   1.000000
    2        0.439287   1.000000
    3        2.325119   1.000000
    4        4.361175   1.000000
    5        7.993319   0.000000
    6        9.470876   0.000000
    7        9.656508   0.000000
    8       11.208075   0.000000
 
 -0.4375000E+00  0.1875000E+00  0.1875000E+00  0.1171875E-01
    1       -3.886724   1.000000
    2       -0.994522   1.000000
    3        2.165811   1.000000
    4        3.847955   1.000000
    5        7.529407   0.000000
    6        9.617966   0.000000
    7        9.869705   0.000000
    8       13.040516   0.000000
 
 -0.3125000E+00  0.1875000E+00  0.1875000E+00  0.1171875E-01
    1       -3.871253   1.000000
    2       -1.022275   1.000000
    3        2.452389   1.000000
    4        3.541341   1.000000
    5        7.271674   0.000000
    6        9.677874   0.000000
    7       10.208186   0.000000
    8       11.156284   0.000000
 
 -0.1875000E+00  0.1875000E+00  0.1875000E+00  0.1171875E-01
    1       -4.730288   1.000000
    2        0.436113   1.000000
    3        3.048727   1.000000
    4        3.520057   1.000000
    5        7.208950   0.000000
    6        9.337133   0.000000
    7        9.966882   0.000000
    8       10.557996   0.000000
 
  0.3125000E+00  0.3125000E+00  0.1875000E+00  0.1171875E-01
    1       -5.221642   1.000000
    2        1.136244   1.000000
    3        3.846233   1.000000
    4        3.925753   1.000000
    5        7.573360   0.000000
    6        8.870791   0.000000
    7        9.828811   0.000000
    8       10.224126   0.000000
 
  0.4375000E+00  0.3125000E+00  0.1875000E+00  0.2343750E-01
    1       -4.615003   1.000000
    2        0.367027   1.000000
    3        2.380424   1.000000
    4        3.734653   1.000000
    5        8.068034   0.000000
    6        9.052099   0.000000
    7        9.593557   0.000000
    8       11.046317   0.000000
 
 -0.4375000E+00  0.3125000E+00  0.1875000E+00  0.2343750E-01
    1       -3.754476   1.000000
    2       -0.710630   1.000000
    3        1.619387   1.000000
    4        3.189379   1.000000
    5        8.511748   0.000000
    6        8.989359   0.000000
    7       10.237423   0.000000
    8       12.117673   0.000000
 
 -0.3125000E+00  0.3125000E+00  0.1875000E+00  0.2343750E-01
    1       -3.286682   1.000000
    2       -1.299649   1.000000
    3        1.617445   1.000000
    4        2.889061   1.000000
    5        8.059517   0.000000
    6        9.309415   0.000000
    7       11.002907   0.000000
    8       12.235542   0.000000
 
 -0.1875000E+00  0.3125000E+00  0.1875000E+00  0.2343750E-01
    1       -4.027942   1.000000
    2       -0.333933   1.000000
    3        2.030437   1.000000
    4        3.060936   1.000000
    5        7.795475   0.000000
    6        8.995902   0.000000
    7        9.806088   0.000000
    8       12.235409   0.000000
 
  0.4375000E+00  0.4375000E+00  0.1875000E+00  0.1171875E-01
    1       -4.133523   1.000000
    2       -0.273424   1.000000
    3        2.349687   1.000000
    4        3.199156   1.000000
    5        6.845963   0.000000
    6        8.831349   0.000000
    7       10.993162   0.000000
    8       11.363307   0.000000
 
 -0.4375000E+00  0.4375000E+00  0.1875000E+00  0.2343750E-01
    1       -3.355794   1.000000
    2       -1.061893   1.000000
    3        1.798676   1.000000
    4        2.544318   1.000000
    5        7.600395   0.000000
    6        8.596400   0.000000
    7       10.682211   0.000000
    8       13.407230   0.000000
 
 -0.3125000E+00  0.4375000E+00  0.1875000E+00  0.2343750E-01
    1       -2.576704   1.000000
    2       -1.798703   1.000000
    3        1.496093   1.000000
    4        2.062412   1.000000
    5        8.699626   0.000000
    6        9.620807   0.000000
    7       10.235483   0.000000
    8       11.230737   0.000000
 
 -0.1875000E+00  0.4375000E+00  0.1875000E+00  0.2343750E-01
    1       -3.160285   1.000000
    2       -1.260499   1.000000
    3        1.484223   1.000000
    4        2.520736   1.000000
    5        8.795554   0.000000
    6        9.203630   0.000000
    7        9.934479   0.000000
    8       12.369508   0.000000
 
 -0.4375000E+00 -0.4375000E+00  0.1875000E+00  0.1171875E-01
    1       -2.732496   1.000000
    2       -1.774127   1.000000
    3        1.596059   1.000000
    4        2.866696   1.000000
    5        6.430829   0.000000
    6        8.282745   0.000000
    7       13.130606   0.000000
    8       13.294597   0.000000
 
 -0.3125000E+00 -0.4375000E+00  0.1875000E+00  0.2343750E-01
    1       -2.634954   1.000000
    2       -1.807157   1.000000
    3        1.686625   1.000000
    4        2.266799   1.000000
    5        7.500597   0.000000
    6        8.395345   0.000000
    7       11.665295   0.000000
    8       12.751724   0.000000
 
 -0.3125000E+00 -0.3125000E+00  0.1875000E+00  0.1171875E-01
    1       -3.449693   1.000000
    2       -1.021905   1.000000
    3        1.849936   1.000000
    4        2.978668   1.000000
    5        6.574328   0.000000
    6        8.464608   0.000000
    7       12.127880   0.000000
    8       12.246306   0.000000
 
  0.3125000E+00  0.3125000E+00  0.3125000E+00  0.3906250E-02
    1       -5.118462   1.000000
    2        0.469711   1.000000
    3        4.432580   1.000000
    4        4.432580   1.000000
    5        6.995870   0.000000
    6        8.853641   0.000000
    7        8.853641   0.000000
    8       12.804618   0.000000
 
  0.4375000E+00  0.3125000E+00  0.3125000E+00  0.1171875E-01
    1       -4.654608   1.000000
    2       -0.099583   1.000000
    3        3.005777   1.000000
    4        4.346372   1.000000
    5        7.728454   0.000000
    6        9.067136   0.000000
    7        9.119448   0.000000
    8       12.214368   0.000000
 
 -0.4375000E+00  0.3125000E+00  0.3125000E+00  0.1171875E-01
    1       -3.888773   1.000000
    2       -0.641684   1.000000
    3        1.541330   1.000000
    4        3.786350   1.000000
    5        7.466941   0.000000
    6       10.469694   0.000000
    7       10.617019   0.000000
    8       11.955888   0.000000
 
 -0.3125000E+00  0.3125000E+00  0.3125000E+00  0.1171875E-01
    1       -3.096884   1.000000
    2       -1.408903   1.000000
    3        1.220952   1.000000
    4        3.257786   1.000000
    5        6.880395   0.000000
    6       10.694627   0.000000
    7       11.709506   0.000000
    8       11.921142   0.000000
 
  0.4375000E+00  0.4375000E+00  0.3125000E+00  0.1171875E-01
    1       -4.351950   1.000000
    2       -0.639233   1.000000
    3        3.324145   1.000000
    4        3.803644   1.000000
    5        7.479127   0.000000
    6        8.824228   0.000000
    7        9.594676   0.000000
    8       11.582960   0.000000
 
 -0.4375000E+00  0.4375000E+00  0.3125000E+00  0.2343750E-01
    1       -3.753427   1.000000
    2       -1.002799   1.000000
    3        2.063738   1.000000
    4        3.348044   1.000000
    5        8.251954   0.000000
    6        8.620573   0.000000
    7       11.062473   0.000000
    8       11.343337   0.000000
 
 -0.3125000E+00  0.4375000E+00  0.3125000E+00  0.2343750E-01
    1       -2.962263   1.000000
    2       -1.477566   1.000000
    3        1.310242   1.000000
    4        2.660763   1.000000
    5        7.936975   0.000000
    6       10.138887   0.000000
    7       10.890322   0.000000
    8       11.395668   0.000000
 
 -0.4375000E+00 -0.4375000E+00  0.3125000E+00  0.1171875E-01
    1       -3.408033   1.000000
    2       -1.279930   1.000000
    3        1.690957   1.000000
    4        3.354472   1.000000
    5        7.021854   0.000000
    6       10.651804   0.000000
    7       10.950151   0.000000
    8       10.971595   0.000000
 
  0.4375000E+00  0.4375000E+00  0.4375000E+00  0.3906250E-02
    1       -4.263236   1.000000
    2       -1.122354   1.000000
    3        4.216112   1.000000
    4        4.216112   1.000000
    5        6.743934   0.000000
    6        8.732330   0.000000
    7        8.732330   0.000000
    8       13.043091   0.000000
 
 -0.4375000E+00  0.4375000E+00  0.4375000E+00  0.1171875E-01
    1       -3.925665   1.000000
    2       -1.296884   1.000000
    3        3.018895   1.000000
    4        3.958389   1.000000
    5        7.492100   0.000000
    6        8.835248   0.000000
    7        9.294547   0.000000
    8       13.374221   0.000000
