 running on    8 total cores
 distrk:  each k-point on    8 cores,    1 groups
 distr:  one band on    1 cores,    8 groups
 using from now: INCAR     
 vasp.5.4.4.18Apr17-6-g9f103f2a35 (build Dec 09 2018 21:25:21) complex          
  
 POSCAR found type information on POSCAR  Si
 POSCAR found :  1 types and       2 ions
 scaLAPACK will be used

 ----------------------------------------------------------------------------- 
|                                                                             |
|           W    W    AA    RRRRR   N    N  II  N    N   GGGG   !!!           |
|           W    W   A  A   R    R  NN   N  II  NN   N  G    G  !!!           |
|           W    W  A    A  R    R  N N  N  II  N N  N  G       !!!           |
|           W WW W  AAAAAA  RRRRR   N  N N  II  N  N N  G  GGG   !            |
|           WW  WW  A    A  R   R   N   NN  II  N   NN  G    G                |
|           W    W  A    A  R    R  N    N  II  N    N   GGGG   !!!           |
|                                                                             |
|      For optimal performance we recommend to set                            |
|        NCORE= 4 - approx SQRT( number of cores)                             |
|      NCORE specifies how many cores store one orbital (NPAR=cpu/NCORE).     |
|      This setting can  greatly improve the performance of VASP for DFT.     |
|      The default,   NCORE=1            might be grossly inefficient         |
|      on modern multi-core architectures or massively parallel machines.     |
|      Do your own testing !!!!                                               |
|      Unfortunately you need to use the default for GW and RPA calculations. |
|      (for HF NCORE is supported but not extensively tested yet)             |
|                                                                             |
 ----------------------------------------------------------------------------- 

 LDA part: xc-table for Pade appr. of Perdew
 POSCAR, INCAR and KPOINTS ok, starting setup
 FFT: planning ...
 WAVECAR not read
 entering main loop
       N       E                     dE             d eps       ncg     rms          rms(c)
DAV:   1     0.502633937201E+01    0.50263E+01   -0.27956E+03   968   0.588E+02
DAV:   2    -0.107948544038E+02   -0.15821E+02   -0.15100E+02  1488   0.725E+01
DAV:   3    -0.109913676062E+02   -0.19651E+00   -0.19651E+00  1184   0.107E+01
DAV:   4    -0.109922394719E+02   -0.87187E-03   -0.87187E-03  1592   0.767E-01
DAV:   5    -0.109922399440E+02   -0.47204E-06   -0.47227E-06  1200   0.163E-02    0.289E+00
DAV:   6    -0.108874560778E+02    0.10478E+00   -0.66895E-02  1200   0.135E+00    0.172E+00
DAV:   7    -0.108378597105E+02    0.49596E-01   -0.12903E-01  1192   0.200E+00    0.143E-01
DAV:   8    -0.108391894315E+02   -0.13297E-02   -0.37905E-03  1128   0.452E-01    0.250E-02
DAV:   9    -0.108392941279E+02   -0.10470E-03   -0.10600E-04   744   0.826E-02
   1 F= -.10839294E+02 E0= -.10839284E+02  d E =-.108393E+02
 curvature:   0.00 expect dE= 0.000E+00 dE for cont linesearch  0.000E+00
 trial: gam= 0.00000 g(F)=  0.122E-45 g(S)=  0.000E+00 ort = 0.000E+00 (trialstep = 0.100E+01)
 search vector abs. value=  0.100E-09
 reached required accuracy - stopping structural energy minimisation
 writing wavefunctions
