unknown system                          
   1.00000000000000     
    -0.000000    2.734259    2.734259
     2.734259    0.000000    2.734259
     2.734259    2.734259   -0.000000
   Si
     2
Direct
  0.500000  0.500000  0.500000
  0.750000  0.750000  0.750000
 
   24   24   24
 0.84659764884E+00 0.88333717136E+00 0.99854493508E+00 0.12065830836E+01 0.15287367855E+01
 0.19879547552E+01 0.26000056392E+01 0.33608634520E+01 0.42319714414E+01 0.51293990805E+01
 0.59272575917E+01 0.64834468401E+01 0.66835346447E+01 0.64834430805E+01 0.59272519611E+01
 0.51293986271E+01 0.42319859348E+01 0.33608960479E+01 0.26000474557E+01 0.19879905366E+01
 0.15287555286E+01 0.12065838486E+01 0.99853547579E+00 0.88332851886E+00 0.88333717136E+00
 0.94296793954E+00 0.10700231720E+01 0.12785494361E+01 0.15853451570E+01 0.20041823419E+01
 0.25378133481E+01 0.31683261116E+01 0.38481996974E+01 0.44976648225E+01 0.50153466365E+01
 0.53041957699E+01 0.53041915653E+01 0.50153603071E+01 0.44977353318E+01 0.38483150096E+01
 0.31684235898E+01 0.25378427168E+01 0.20041508097E+01 0.15852979340E+01 0.12785216512E+01
 0.10700187468E+01 0.94297323396E+00 0.88334022852E+00 0.99854493508E+00 0.10700231720E+01
 0.11992094810E+01 0.13983113669E+01 0.16787430592E+01 0.20458279404E+01 0.24926074979E+01
 0.29935179288E+01 0.35003191755E+01 0.39447594485E+01 0.42518284109E+01 0.43618258286E+01
 0.42518528743E+01 0.39448007753E+01 0.35003637113E+01 0.29935520367E+01 0.24926242311E+01
 0.20458272855E+01 0.16787282662E+01 0.13982886203E+01 0.11991883738E+01 0.10700112118E+01
 0.99854143984E+00 0.97580584137E+00 0.12065830836E+01 0.12785494361E+01 0.13983113669E+01
 0.15755726561E+01 0.18168078550E+01 0.21211419377E+01 0.24761346777E+01 0.28541706633E+01
 0.32117172220E+01 0.34948168222E+01 0.36522199321E+01 0.36522454539E+01 0.34948613542E+01
 0.32117215528E+01 0.28541163620E+01 0.24760655864E+01 0.21211172981E+01 0.18168426549E+01
 0.15756290748E+01 0.13983420202E+01 0.12785400551E+01 0.12065557930E+01 0.11732902903E+01
 0.11733039955E+01 0.15287367855E+01 0.15853451570E+01 0.16787430592E+01 0.18168078550E+01
 0.20028826461E+01 0.22328728736E+01 0.24926136504E+01 0.27562683649E+01 0.29878501217E+01
 0.31479978842E+01 0.32053868294E+01 0.31479939291E+01 0.29878444865E+01 0.27562630513E+01
 0.24926108410E+01 0.22328769658E+01 0.20028971382E+01 0.18168294389E+01 0.16787626753E+01
 0.15853562393E+01 0.15287400398E+01 0.14996973909E+01 0.14909382675E+01 0.14996973903E+01
 0.19879547552E+01 0.20041823419E+01 0.20458279404E+01 0.21211419377E+01 0.22328728736E+01
 0.23762580574E+01 0.25378105722E+01 0.26956821902E+01 0.28229533587E+01 0.28943288675E+01
 0.28943134385E+01 0.28229282377E+01 0.26956886173E+01 0.25378683358E+01 0.23763458869E+01
 0.22329422130E+01 0.21211513898E+01 0.20457786936E+01 0.20041234601E+01 0.19879383866E+01
 0.19861649576E+01 0.19884061646E+01 0.19883876310E+01 0.19861394553E+01 0.26000056392E+01
 0.25378133481E+01 0.24926074979E+01 0.24761346777E+01 0.24926136504E+01 0.25378105722E+01
 0.25999920962E+01 0.26626814697E+01 0.27088891729E+01 0.27258691355E+01 0.27088997187E+01
 0.26627103002E+01 0.26000318568E+01 0.25378416061E+01 0.24926297257E+01 0.24761421940E+01
 0.24926028626E+01 0.25377885420E+01 0.25999732621E+01 0.26626760399E+01 0.27088947152E+01
 0.27258741429E+01 0.27088943089E+01 0.26626924782E+01 0.33608634520E+01 0.31683261116E+01
 0.29935179288E+01 0.28541706633E+01 0.27562683649E+01 0.26956821902E+01 0.26626814697E+01
 0.26469412897E+01 0.26409156219E+01 0.26409222969E+01 0.26469683824E+01 0.26627191309E+01
 0.26956834891E+01 0.27562090355E+01 0.28540993210E+01 0.29935011806E+01 0.31683663309E+01
 0.33609102857E+01 0.35442075455E+01 0.36882772796E+01 0.37676005939E+01 0.37676013139E+01
 0.36882746162E+01 0.35441863385E+01 0.42319714414E+01 0.38481996974E+01 0.35003191755E+01
 0.32117172220E+01 0.29878501217E+01 0.28229533587E+01 0.27088891729E+01 0.26409156219E+01
 0.26181576245E+01 0.26408890221E+01 0.27088693639E+01 0.28229473962E+01 0.29878355902E+01
 0.32116979235E+01 0.35003258319E+01 0.38482339239E+01 0.42320049184E+01 0.46104340281E+01
 0.49323123981E+01 0.51487186712E+01 0.52249842149E+01 0.51486782997E+01 0.49322707520E+01
 0.46104054404E+01 0.51293990805E+01 0.44976648225E+01 0.39447594485E+01 0.34948168222E+01
 0.31479978842E+01 0.28943288675E+01 0.27258691355E+01 0.26409222969E+01 0.26408890221E+01
 0.27258065497E+01 0.28942965137E+01 0.31480109347E+01 0.34948637807E+01 0.39448368974E+01
 0.44977526025E+01 0.51294482460E+01 0.57854117570E+01 0.63871251267E+01 0.68492271620E+01
 0.71003783471E+01 0.71003700727E+01 0.68492251048E+01 0.63871473626E+01 0.57854198067E+01
 0.59272575917E+01 0.50153466365E+01 0.42518284109E+01 0.36522199321E+01 0.32053868294E+01
 0.28943134385E+01 0.27088997187E+01 0.26469683824E+01 0.27088693639E+01 0.28942965137E+01
 0.32054061910E+01 0.36522606674E+01 0.42518819784E+01 0.50154176287E+01 0.59273244976E+01
 0.69284835181E+01 0.79148919070E+01 0.87553438025E+01 0.93218917985E+01 0.95219726053E+01
 0.93219043497E+01 0.87553738618E+01 0.79149147328E+01 0.69284603825E+01 0.64834468401E+01
 0.53041957699E+01 0.43618258286E+01 0.36522454539E+01 0.31479939291E+01 0.28229282377E+01
 0.26627103002E+01 0.26627191309E+01 0.28229473962E+01 0.31480109347E+01 0.36522606674E+01
 0.43618531791E+01 0.53042369672E+01 0.64834758032E+01 0.78518728169E+01 0.92943955915E+01
 0.10637525804E+02 0.11683001332E+02 0.12256703224E+02 0.12256675171E+02 0.11682952096E+02
 0.10637509878E+02 0.92944129141E+01 0.78518783021E+01 0.66835346447E+01 0.53041915653E+01
 0.42518528743E+01 0.34948613542E+01 0.29878444865E+01 0.26956886173E+01 0.26000318568E+01
 0.26956834891E+01 0.29878355902E+01 0.34948637807E+01 0.42518819784E+01 0.53042369672E+01
 0.66835715219E+01 0.83713704036E+01 0.10266615658E+02 0.12175949157E+02 0.13837208739E+02
 0.14976047338E+02 0.15381535957E+02 0.14976059537E+02 0.13837211078E+02 0.12175933924E+02
 0.10266595357E+02 0.83713474322E+01 0.64834430805E+01 0.50153603071E+01 0.39448007753E+01
 0.32117215528E+01 0.27562630513E+01 0.25378683358E+01 0.25378416061E+01 0.27562090355E+01
 0.32116979235E+01 0.39448368974E+01 0.50154176287E+01 0.64834758032E+01 0.83713704036E+01
 0.10618411506E+02 0.13048043779E+02 0.15367210377E+02 0.17198237979E+02 0.18196863449E+02
 0.18196955171E+02 0.17198393236E+02 0.15367241540E+02 0.13047942768E+02 0.10618310582E+02
 0.83713302511E+01 0.59272519611E+01 0.44977353318E+01 0.35003637113E+01 0.28541163620E+01
 0.24926108410E+01 0.23763458869E+01 0.24926297257E+01 0.28540993210E+01 0.35003258319E+01
 0.44977526025E+01 0.59273244976E+01 0.78518728169E+01 0.10266615658E+02 0.13048043779E+02
 0.15922605523E+02 0.18441832647E+02 0.20129641442E+02 0.20718245960E+02 0.20129712402E+02
 0.18441878095E+02 0.15922591516E+02 0.13048024191E+02 0.10266602242E+02 0.78518208262E+01
 0.51293986271E+01 0.38483150096E+01 0.29935520367E+01 0.24760655864E+01 0.22328769658E+01
 0.22329422130E+01 0.24761421940E+01 0.29935011806E+01 0.38482339239E+01 0.51294482460E+01
 0.69284835181E+01 0.92943955915E+01 0.12175949157E+02 0.15367210377E+02 0.18441832647E+02
 0.20813857402E+02 0.22084446891E+02 0.22084425494E+02 0.20813819889E+02 0.18441855954E+02
 0.15367343945E+02 0.12176098697E+02 0.92944036479E+01 0.69283676918E+01 0.42319859348E+01
 0.31684235898E+01 0.24926242311E+01 0.21211172981E+01 0.20028971382E+01 0.21211513898E+01
 0.24926028626E+01 0.31683663309E+01 0.42320049184E+01 0.57854117570E+01 0.79148919070E+01
 0.10637525804E+02 0.13837208739E+02 0.17198237979E+02 0.20129641442E+02 0.22084446891E+02
 0.22765062284E+02 0.22084595542E+02 0.20129796054E+02 0.17198343382E+02 0.13837323277E+02
 0.10637628962E+02 0.79148883354E+01 0.57853318946E+01 0.33608960479E+01 0.25378427168E+01
 0.20458272855E+01 0.18168426549E+01 0.18168294389E+01 0.20457786936E+01 0.25377885420E+01
 0.33609102857E+01 0.46104340281E+01 0.63871251267E+01 0.87553438025E+01 0.11683001332E+02
 0.14976047338E+02 0.18196863449E+02 0.20718245960E+02 0.22084425494E+02 0.22084595542E+02
 0.20718556081E+02 0.18197016371E+02 0.14976048635E+02 0.11683031963E+02 0.87554170687E+01
 0.63871247736E+01 0.46103695556E+01 0.26000474557E+01 0.20041508097E+01 0.16787282662E+01
 0.15756290748E+01 0.16787626753E+01 0.20041234601E+01 0.25999732621E+01 0.35442075455E+01
 0.49323123981E+01 0.68492271620E+01 0.93218917985E+01 0.12256703224E+02 0.15381535957E+02
 0.18196955171E+02 0.20129712402E+02 0.20813819889E+02 0.20129796054E+02 0.18197016371E+02
 0.15381561420E+02 0.12256771039E+02 0.93219792652E+01 0.68492299683E+01 0.49322525711E+01
 0.35442122789E+01 0.19879905366E+01 0.15852979340E+01 0.13982886203E+01 0.13983420202E+01
 0.15853562393E+01 0.19879383866E+01 0.26626760399E+01 0.36882772796E+01 0.51487186712E+01
 0.71003783471E+01 0.95219726053E+01 0.12256675171E+02 0.14976059537E+02 0.17198393236E+02
 0.18441878095E+02 0.18441855954E+02 0.17198343382E+02 0.14976048635E+02 0.12256771039E+02
 0.95221168087E+01 0.71004231307E+01 0.51486488187E+01 0.36882462767E+01 0.26627515818E+01
 0.15287555286E+01 0.12785216512E+01 0.11991883738E+01 0.12785400551E+01 0.15287400398E+01
 0.19861649576E+01 0.27088947152E+01 0.37676005939E+01 0.52249842149E+01 0.71003700727E+01
 0.93219043497E+01 0.11682952096E+02 0.13837211078E+02 0.15367241540E+02 0.15922591516E+02
 0.15367343945E+02 0.13837323277E+02 0.11683031963E+02 0.93219792652E+01 0.71004231307E+01
 0.52249604731E+01 0.37675290207E+01 0.27088690987E+01 0.19861967279E+01 0.12065838486E+01
 0.10700187468E+01 0.10700112118E+01 0.12065557930E+01 0.14996973909E+01 0.19884061646E+01
 0.27258741429E+01 0.37676013139E+01 0.51486782997E+01 0.68492251048E+01 0.87553738618E+01
 0.10637509878E+02 0.12175933924E+02 0.13047942768E+02 0.13048024191E+02 0.12176098697E+02
 0.10637628962E+02 0.87554170687E+01 0.68492299683E+01 0.51486488187E+01 0.37675290207E+01
 0.27258044413E+01 0.19883940585E+01 0.14997300860E+01 0.99853547579E+00 0.94297323396E+00
 0.99854143984E+00 0.11732902903E+01 0.14909382675E+01 0.19883876310E+01 0.27088943089E+01
 0.36882746162E+01 0.49322707520E+01 0.63871473626E+01 0.79149147328E+01 0.92944129141E+01
 0.10266595357E+02 0.10618310582E+02 0.10266602242E+02 0.92944036479E+01 0.79148883354E+01
 0.63871247736E+01 0.49322525711E+01 0.36882462767E+01 0.27088690987E+01 0.19883940585E+01
 0.14909670272E+01 0.11733042207E+01 0.88332851886E+00 0.88334022852E+00 0.97580584137E+00
 0.11733039955E+01 0.14996973903E+01 0.19861394553E+01 0.26626924782E+01 0.35441863385E+01
 0.46104054404E+01 0.57854198067E+01 0.69284603825E+01 0.78518783021E+01 0.83713474322E+01
 0.83713302511E+01 0.78518208262E+01 0.69283676918E+01 0.57853318946E+01 0.46103695556E+01
 0.35442122789E+01 0.26627515818E+01 0.19861967279E+01 0.14997300860E+01 0.11733042207E+01
 0.97578613911E+00 0.88333167981E+00 0.94296551396E+00 0.10700244430E+01 0.12785496969E+01
 0.15853432249E+01 0.20041827184E+01 0.25378185424E+01 0.31683344036E+01 0.38482110978E+01
 0.44976803124E+01 0.50153596280E+01 0.53041932203E+01 0.53041672290E+01 0.50153211115E+01
 0.44976939541E+01 0.38482831428E+01 0.31684117815E+01 0.25378561416E+01 0.20041815466E+01
 0.15853290292E+01 0.12785420202E+01 0.10700287596E+01 0.94297621686E+00 0.88333731408E+00
 0.94296551396E+00 0.10096689880E+01 0.11313479370E+01 0.13207468121E+01 0.15897478345E+01
 0.19439020166E+01 0.23762582007E+01 0.28613731610E+01 0.33518139340E+01 0.37812563597E+01
 0.40775120987E+01 0.41835319168E+01 0.40775375988E+01 0.37813439457E+01 0.33519599943E+01
 0.28615040464E+01 0.23763010201E+01 0.19438603315E+01 0.15896852200E+01 0.13207127726E+01
 0.11313427431E+01 0.10096707974E+01 0.94296472836E+00 0.92186567569E+00 0.10700244430E+01
 0.11313479370E+01 0.12365015226E+01 0.13962737424E+01 0.16179204572E+01 0.19008898038E+01
 0.22328678324E+01 0.25868761029E+01 0.29213047197E+01 0.31855531850E+01 0.33322175257E+01
 0.33322440760E+01 0.31856266589E+01 0.29214015032E+01 0.25869556945E+01 0.22328956962E+01
 0.19008632801E+01 0.16178667949E+01 0.13962235436E+01 0.12364685200E+01 0.11313304721E+01
 0.10700165459E+01 0.10423863212E+01 0.10423885637E+01 0.12785496969E+01 0.13207468121E+01
 0.13962737424E+01 0.15141890115E+01 0.16784941171E+01 0.18853815225E+01 0.21211421343E+01
 0.23612630932E+01 0.25723012112E+01 0.27181994006E+01 0.27704842159E+01 0.27182447580E+01
 0.25723486526E+01 0.23612665439E+01 0.21210944548E+01 0.18853175973E+01 0.16784549168E+01
 0.15141852605E+01 0.13962841928E+01 0.13207463069E+01 0.12785337864E+01 0.12589795447E+01
 0.12535542247E+01 0.12589954947E+01 0.15853432249E+01 0.15897478345E+01 0.16179204572E+01
 0.16784941171E+01 0.17742904767E+01 0.19008927858E+01 0.20458320375E+01 0.21889141746E+01
 0.23050718018E+01 0.23705088700E+01 0.23705183844E+01 0.23050924984E+01 0.21889247936E+01
 0.20458108139E+01 0.19008398602E+01 0.17742354533E+01 0.16784719918E+01 0.16179389605E+01
 0.15897835457E+01 0.15853686094E+01 0.15926823168E+01 0.15999911682E+01 0.15999909250E+01
 0.15926745299E+01 0.20041827184E+01 0.19439020166E+01 0.19008898038E+01 0.18853815225E+01
 0.19008927858E+01 0.19439020016E+01 0.20041796832E+01 0.20662504109E+01 0.21128445727E+01
 0.21301491005E+01 0.21128563910E+01 0.20662714920E+01 0.20041987806E+01 0.19439061173E+01
 0.19008824725E+01 0.18853696404E+01 0.19008855949E+01 0.19439063734E+01 0.20041961291E+01
 0.20662718474E+01 0.21128597051E+01 0.21301493717E+01 0.21128417826E+01 0.20662505253E+01
 0.25378185424E+01 0.23762582007E+01 0.22328678324E+01 0.21211421343E+01 0.20458320375E+01
 0.20041796832E+01 0.19879461042E+01 0.19861364035E+01 0.19883933909E+01 0.19884159703E+01
 0.19861823086E+01 0.19879696157E+01 0.20041573564E+01 0.20457923551E+01 0.21211369964E+01
 0.22329108245E+01 0.23763078595E+01 0.25378293768E+01 0.26956615051E+01 0.28229258220E+01
 0.28943293473E+01 0.28943441504E+01 0.28229616007E+01 0.26956903449E+01 0.31683344036E+01
 0.28613731610E+01 0.25868761029E+01 0.23612630932E+01 0.21889141746E+01 0.20662504109E+01
 0.19861364035E+01 0.19414166845E+01 0.19271145021E+01 0.19414551649E+01 0.19861572035E+01
 0.20662027308E+01 0.21888184573E+01 0.23612050529E+01 0.25869198153E+01 0.28614872177E+01
 0.31684222064E+01 0.34774182351E+01 0.37468701550E+01 0.39321731512E+01 0.39983978607E+01
 0.39322344065E+01 0.37469376676E+01 0.34774196438E+01 0.38482110978E+01 0.33518139340E+01
 0.29213047197E+01 0.25723012112E+01 0.23050718018E+01 0.21128445727E+01 0.19883933909E+01
 0.19271145021E+01 0.19271106260E+01 0.19883623302E+01 0.21127652151E+01 0.23049788335E+01
 0.25722732087E+01 0.29213823301E+01 0.33519472716E+01 0.38483069149E+01 0.43730289307E+01
 0.48663287290E+01 0.52548746730E+01 0.54700925171E+01 0.54701073436E+01 0.52549152692E+01
 0.48663688649E+01 0.43730159998E+01 0.44976803124E+01 0.37812563597E+01 0.31855531850E+01
 0.27181994006E+01 0.23705088700E+01 0.21301491005E+01 0.19884159703E+01 0.19414551649E+01
 0.19883623302E+01 0.21300321592E+01 0.23703896928E+01 0.27182007340E+01 0.31857212840E+01
 0.37814788409E+01 0.44977933410E+01 0.52972233328E+01 0.61045685194E+01 0.68117364544E+01
 0.72998618096E+01 0.74746047451E+01 0.72998750532E+01 0.68118020816E+01 0.61046741576E+01
 0.52972661521E+01 0.50153596280E+01 0.40775120987E+01 0.33322175257E+01 0.27704842159E+01
 0.23705183844E+01 0.21128563910E+01 0.19861823086E+01 0.19861572035E+01 0.21127652151E+01
 0.23703896928E+01 0.27704525094E+01 0.33323860573E+01 0.40777871447E+01 0.50155242594E+01
 0.61206208739E+01 0.73146793775E+01 0.84593931278E+01 0.93750192345E+01 0.98871984754E+01
 0.98872148815E+01 0.93750934054E+01 0.84595514246E+01 0.73148598030E+01 0.61206735648E+01
 0.53041932203E+01 0.41835319168E+01 0.33322440760E+01 0.27182447580E+01 0.23050924984E+01
 0.20662714920E+01 0.19879696157E+01 0.20662027308E+01 0.23049788335E+01 0.27182007340E+01
 0.33323860573E+01 0.41837918436E+01 0.53043502109E+01 0.66955935766E+01 0.82964442361E+01
 0.99583143025E+01 0.11447561682E+02 0.12492470443E+02 0.12869765279E+02 0.12492525012E+02
 0.11447678230E+02 0.99585028099E+01 0.82966474572E+01 0.66956617768E+01 0.53041672290E+01
 0.40775375988E+01 0.31856266589E+01 0.25723486526E+01 0.21889247936E+01 0.20041987806E+01
 0.20041573564E+01 0.21888184573E+01 0.25722732087E+01 0.31857212840E+01 0.40777871447E+01
 0.53043502109E+01 0.69026128493E+01 0.88503086384E+01 0.11020671563E+02 0.13157292002E+02
 0.14901644098E+02 0.15890072640E+02 0.15890111336E+02 0.14901727586E+02 0.13157402297E+02
 0.11020849726E+02 0.88505121192E+01 0.69026650767E+01 0.50153211115E+01 0.37813439457E+01
 0.29214015032E+01 0.23612665439E+01 0.20458108139E+01 0.19439061173E+01 0.20457923551E+01
 0.23612050529E+01 0.29213823301E+01 0.37814788409E+01 0.50155242594E+01 0.66955935766E+01
 0.88503086384E+01 0.11406161622E+02 0.14132048501E+02 0.16628908418E+02 0.18407925366E+02
 0.19055391530E+02 0.18408009582E+02 0.16628995809E+02 0.14132143250E+02 0.11406316194E+02
 0.88504348139E+01 0.66955348744E+01 0.44976939541E+01 0.33519599943E+01 0.25869556945E+01
 0.21210944548E+01 0.19008398602E+01 0.19008824725E+01 0.21211369964E+01 0.25869198153E+01
 0.33519472716E+01 0.44977933410E+01 0.61206208739E+01 0.82964442361E+01 0.11020671563E+02
 0.14132048501E+02 0.17259419691E+02 0.19852824663E+02 0.21334188107E+02 0.21334248586E+02
 0.19852928168E+02 0.17259483278E+02 0.14132125663E+02 0.11020791684E+02 0.82964893230E+01
 0.61205261389E+01 0.38482831428E+01 0.28615040464E+01 0.22328956962E+01 0.18853175973E+01
 0.17742354533E+01 0.18853696404E+01 0.22329108245E+01 0.28614872177E+01 0.38483069149E+01
 0.52972233328E+01 0.73146793775E+01 0.99583143025E+01 0.13157292002E+02 0.16628908418E+02
 0.19852824663E+02 0.22165095444E+02 0.23005715330E+02 0.22165286280E+02 0.19852972217E+02
 0.16628927286E+02 0.13157330223E+02 0.99584367921E+01 0.73147611033E+01 0.52972036329E+01
 0.31684117815E+01 0.23763010201E+01 0.19008632801E+01 0.16784549168E+01 0.16784719918E+01
 0.19008855949E+01 0.23763078595E+01 0.31684222064E+01 0.43730289307E+01 0.61045685194E+01
 0.84593931278E+01 0.11447561682E+02 0.14901644098E+02 0.18407925366E+02 0.21334188107E+02
 0.23005715330E+02 0.23005915555E+02 0.21334536223E+02 0.18408047233E+02 0.14901564697E+02
 0.11447561132E+02 0.84595394717E+01 0.61046952460E+01 0.43730533154E+01 0.25378561416E+01
 0.19438603315E+01 0.16178667949E+01 0.15141852605E+01 0.16179389605E+01 0.19439063734E+01
 0.25378293768E+01 0.34774182351E+01 0.48663287290E+01 0.68117364544E+01 0.93750192345E+01
 0.12492470443E+02 0.15890072640E+02 0.19055391530E+02 0.21334248586E+02 0.22165286280E+02
 0.21334536223E+02 0.19055611378E+02 0.15890029368E+02 0.12492345096E+02 0.93750288245E+01
 0.68118586138E+01 0.48664450643E+01 0.34774935466E+01 0.20041815466E+01 0.15896852200E+01
 0.13962235436E+01 0.13962841928E+01 0.15897835457E+01 0.20041961291E+01 0.26956615051E+01
 0.37468701550E+01 0.52548746730E+01 0.72998618096E+01 0.98871984754E+01 0.12869765279E+02
 0.15890111336E+02 0.18408009582E+02 0.19852928168E+02 0.19852972217E+02 0.18408047233E+02
 0.15890029368E+02 0.12869636853E+02 0.98871696887E+01 0.72999436590E+01 0.52549833511E+01
 0.37469684453E+01 0.26957319913E+01 0.15853290292E+01 0.13207127726E+01 0.12364685200E+01
 0.13207463069E+01 0.15853686094E+01 0.20662718474E+01 0.28229258220E+01 0.39321731512E+01
 0.54700925171E+01 0.74746047451E+01 0.98872148815E+01 0.12492525012E+02 0.14901727586E+02
 0.16628995809E+02 0.17259483278E+02 0.16628927286E+02 0.14901564697E+02 0.12492345096E+02
 0.98871696887E+01 0.74747258002E+01 0.54702463348E+01 0.39322400211E+01 0.28229147642E+01
 0.20662378798E+01 0.12785420202E+01 0.11313427431E+01 0.11313304721E+01 0.12785337864E+01
 0.15926823168E+01 0.21128597051E+01 0.28943293473E+01 0.39983978607E+01 0.54701073436E+01
 0.72998750532E+01 0.93750934054E+01 0.11447678230E+02 0.13157402297E+02 0.14132143250E+02
 0.14132125663E+02 0.13157330223E+02 0.11447561132E+02 0.93750288245E+01 0.72999436590E+01
 0.54702463348E+01 0.39984649570E+01 0.28942747531E+01 0.21127640955E+01 0.15926359446E+01
 0.10700287596E+01 0.10096707974E+01 0.10700165459E+01 0.12589795447E+01 0.15999911682E+01
 0.21301493717E+01 0.28943441504E+01 0.39322344065E+01 0.52549152692E+01 0.68118020816E+01
 0.84595514246E+01 0.99585028099E+01 0.11020849726E+02 0.11406316194E+02 0.11020791684E+02
 0.99584367921E+01 0.84595394717E+01 0.68118586138E+01 0.52549833511E+01 0.39322400211E+01
 0.28942747531E+01 0.21300612354E+01 0.15999421576E+01 0.12589765936E+01 0.94297621686E+00
 0.94296472836E+00 0.10423863212E+01 0.12535542247E+01 0.15999909250E+01 0.21128417826E+01
 0.28229616007E+01 0.37469376676E+01 0.48663688649E+01 0.61046741576E+01 0.73148598030E+01
 0.82966474572E+01 0.88505121192E+01 0.88504348139E+01 0.82964893230E+01 0.73147611033E+01
 0.61046952460E+01 0.48664450643E+01 0.37469684453E+01 0.28229147642E+01 0.21127640955E+01
 0.15999421576E+01 0.12535520772E+01 0.10424071166E+01 0.88333731408E+00 0.92186567569E+00
 0.10423885637E+01 0.12589954947E+01 0.15926745299E+01 0.20662505253E+01 0.26956903449E+01
 0.34774196438E+01 0.43730159998E+01 0.52972661521E+01 0.61206735648E+01 0.66956617768E+01
 0.69026650767E+01 0.66955348744E+01 0.61205261389E+01 0.52972036329E+01 0.43730533154E+01
 0.34774935466E+01 0.26957319913E+01 0.20662378798E+01 0.15926359446E+01 0.12589765936E+01
 0.10424071166E+01 0.92189410478E+00 0.99853533973E+00 0.10700204630E+01 0.11992118811E+01
 0.13983114968E+01 0.16787408779E+01 0.20458308589E+01 0.24926174239E+01 0.29935292403E+01
 0.35003284479E+01 0.39447646980E+01 0.42518197707E+01 0.43617916999E+01 0.42517980920E+01
 0.39447475113E+01 0.35003327157E+01 0.29935516989E+01 0.24926545422E+01 0.20458799492E+01
 0.16787827179E+01 0.13983227106E+01 0.11991971258E+01 0.10700061702E+01 0.99853252136E+00
 0.97579495908E+00 0.10700204630E+01 0.11313478131E+01 0.12365027978E+01 0.13962737307E+01
 0.16179203306E+01 0.19008924810E+01 0.22328726885E+01 0.25868792385E+01 0.29213027298E+01
 0.31855430987E+01 0.33321960155E+01 0.33322125596E+01 0.31855962268E+01 0.29213873880E+01
 0.25869659339E+01 0.22329269932E+01 0.19009051323E+01 0.16179057669E+01 0.13962469962E+01
 0.12364712863E+01 0.11313187134E+01 0.10700014501E+01 0.10423744432E+01 0.10423806649E+01
 0.11992118811E+01 0.12365027978E+01 0.13059456441E+01 0.14171425768E+01 0.15744800863E+01
 0.17742886174E+01 0.20028786772E+01 0.22359527558E+01 0.24407317098E+01 0.25821973096E+01
 0.26328631145E+01 0.25822386485E+01 0.24408002144E+01 0.22360219931E+01 0.20029202960E+01
 0.17742873721E+01 0.15744400654E+01 0.14170806781E+01 0.13058816261E+01 0.12364524749E+01
 0.11991822756E+01 0.11828449484E+01 0.11785313180E+01 0.11828567361E+01 0.13983114968E+01
 0.13962737307E+01 0.14171425768E+01 0.14702411050E+01 0.15588051001E+01 0.16784939889E+01
 0.18168078434E+01 0.19537966368E+01 0.20650851429E+01 0.21277771996E+01 0.21277906111E+01
 0.20651099380E+01 0.19538028437E+01 0.18167809823E+01 0.16784452029E+01 0.15587540240E+01
 0.14701965887E+01 0.14171035912E+01 0.13962418760E+01 0.13982928006E+01 0.14104664822E+01
 0.14203822399E+01 0.14203821781E+01 0.14104717055E+01 0.16787408779E+01 0.16179203306E+01
 0.15744800863E+01 0.15588051001E+01 0.15744817043E+01 0.16179231822E+01 0.16787468093E+01
 0.17413266539E+01 0.17882797304E+01 0.18057101362E+01 0.17882747058E+01 0.17413127681E+01
 0.16787172237E+01 0.16178749344E+01 0.15744240961E+01 0.15587574551E+01 0.15744585867E+01
 0.16179277979E+01 0.16787678159E+01 0.17413467267E+01 0.17882871414E+01 0.18057048525E+01
 0.17882666285E+01 0.17413154685E+01 0.20458308589E+01 0.19008924810E+01 0.17742886174E+01
 0.16784939889E+01 0.16179231822E+01 0.15897503307E+01 0.15853448962E+01 0.15926774758E+01
 0.15999917375E+01 0.15999809272E+01 0.15926577631E+01 0.15853371747E+01 0.15897562984E+01
 0.16179251342E+01 0.16784796207E+01 0.17742671764E+01 0.19008850879E+01 0.20458500747E+01
 0.21889454449E+01 0.23050953463E+01 0.23705095685E+01 0.23704936194E+01 0.23050567399E+01
 0.21889060862E+01 0.24926174239E+01 0.22328726885E+01 0.20028786772E+01 0.18168078434E+01
 0.16787468093E+01 0.15853448962E+01 0.15287326813E+01 0.14996972055E+01 0.14909418523E+01
 0.14996970307E+01 0.15287359552E+01 0.15853562258E+01 0.16787665842E+01 0.18168295207E+01
 0.20028935495E+01 0.22328774217E+01 0.24926151142E+01 0.27562633336E+01 0.29878409083E+01
 0.31479942173E+01 0.32053908021E+01 0.31479978003E+01 0.29878461830E+01 0.27562683569E+01
 0.29935292403E+01 0.25868792385E+01 0.22359527558E+01 0.19537966368E+01 0.17413266539E+01
 0.15926774758E+01 0.14996972055E+01 0.14552429583E+01 0.14552504253E+01 0.14997107482E+01
 0.15926842847E+01 0.17413270027E+01 0.19537979734E+01 0.22359587665E+01 0.25868923927E+01
 0.29935490439E+01 0.34257714087E+01 0.38347376237E+01 0.41589367420E+01 0.43393744109E+01
 0.43393951665E+01 0.41589754646E+01 0.38347553333E+01 0.34257602121E+01 0.35003284479E+01
 0.29213027298E+01 0.24407317098E+01 0.20650851429E+01 0.17882797304E+01 0.15999917375E+01
 0.14909418523E+01 0.14552504253E+01 0.14909501062E+01 0.15999888161E+01 0.17882684169E+01
 0.20650875143E+01 0.24407459160E+01 0.29213074852E+01 0.35003274596E+01 0.41488375697E+01
 0.48076023927E+01 0.53886276116E+01 0.57921194191E+01 0.59370812071E+01 0.57921324500E+01
 0.53886238631E+01 0.48075786399E+01 0.41488224382E+01 0.39447646980E+01 0.31855430987E+01
 0.25821973096E+01 0.21277771996E+01 0.18057101362E+01 0.15999809272E+01 0.14996970307E+01
 0.14997107482E+01 0.15999888161E+01 0.18056834404E+01 0.21277626608E+01 0.25822404642E+01
 0.31856022258E+01 0.39447765654E+01 0.48417444988E+01 0.58165400771E+01 0.67582400944E+01
 0.75170616209E+01 0.79437490403E+01 0.79437575287E+01 0.75170701542E+01 0.67582379528E+01
 0.58165508322E+01 0.48417678737E+01 0.42518197707E+01 0.33321960155E+01 0.26328631145E+01
 0.21277906111E+01 0.17882747058E+01 0.15926577631E+01 0.15287359552E+01 0.15926842847E+01
 0.17882684169E+01 0.21277626608E+01 0.26328880830E+01 0.33322705395E+01 0.42518590360E+01
 0.53959908244E+01 0.67204457569E+01 0.81071917107E+01 0.93608146434E+01 0.10246496675E+02
 0.10567527451E+02 0.10246598067E+02 0.93609154329E+01 0.81072442903E+01 0.67204848624E+01
 0.53960137873E+01 0.43617916999E+01 0.33322125596E+01 0.25822386485E+01 0.20651099380E+01
 0.17413127681E+01 0.15853371747E+01 0.15853562258E+01 0.17413270027E+01 0.20650875143E+01
 0.25822404642E+01 0.33322705395E+01 0.43618245328E+01 0.57059927651E+01 0.73545952528E+01
 0.92091924406E+01 0.11053437507E+02 0.12571867544E+02 0.13437029331E+02 0.13437129347E+02
 0.12572055688E+02 0.11053554685E+02 0.92092476991E+01 0.73546642905E+01 0.57060413181E+01
 0.42517980920E+01 0.31855962268E+01 0.24408002144E+01 0.19538028437E+01 0.16787172237E+01
 0.15897562984E+01 0.16787665842E+01 0.19537979734E+01 0.24407459160E+01 0.31856022258E+01
 0.42518590360E+01 0.57059927651E+01 0.75835120352E+01 0.98337835998E+01 0.12261218982E+02
 0.14506936113E+02 0.16118368474E+02 0.16706977866E+02 0.16118483628E+02 0.14507044442E+02
 0.12261287633E+02 0.98338801642E+01 0.75836147105E+01 0.57060020107E+01 0.39447475113E+01
 0.29213873880E+01 0.22360219931E+01 0.18167809823E+01 0.16178749344E+01 0.16179251342E+01
 0.18168295207E+01 0.22359587665E+01 0.29213074852E+01 0.39447765654E+01 0.53959908244E+01
 0.73545952528E+01 0.98337835998E+01 0.12701019172E+02 0.15616147004E+02 0.18054583963E+02
 0.19456985927E+02 0.19457020065E+02 0.18054636531E+02 0.15616177001E+02 0.12701080310E+02
 0.98338845829E+01 0.73546292434E+01 0.53959260119E+01 0.35003327157E+01 0.25869659339E+01
 0.20029202960E+01 0.16784452029E+01 0.15744240961E+01 0.16784796207E+01 0.20028935495E+01
 0.25868923927E+01 0.35003274596E+01 0.48417444988E+01 0.67204457569E+01 0.92091924406E+01
 0.12261218982E+02 0.15616147004E+02 0.18763875692E+02 0.21043377132E+02 0.21879731462E+02
 0.21043457432E+02 0.18763926638E+02 0.15616154604E+02 0.12261267188E+02 0.92092664540E+01
 0.67204439225E+01 0.48416850422E+01 0.29935516989E+01 0.22329269932E+01 0.17742873721E+01
 0.15587540240E+01 0.15587574551E+01 0.17742671764E+01 0.22328774217E+01 0.29935490439E+01
 0.41488375697E+01 0.58165400771E+01 0.81071917107E+01 0.11053437507E+02 0.14506936113E+02
 0.18054583963E+02 0.21043377132E+02 0.22769439441E+02 0.22769515750E+02 0.21043512717E+02
 0.18054659458E+02 0.14506987279E+02 0.11053532168E+02 0.81072650745E+01 0.58165111147E+01
 0.41487716680E+01 0.24926545422E+01 0.19009051323E+01 0.15744400654E+01 0.14701965887E+01
 0.15744585867E+01 0.19008850879E+01 0.24926151142E+01 0.34257714087E+01 0.48076023927E+01
 0.67582400944E+01 0.93608146434E+01 0.12571867544E+02 0.16118368474E+02 0.19456985927E+02
 0.21879731462E+02 0.22769515750E+02 0.21879862815E+02 0.19457146842E+02 0.16118502040E+02
 0.12571985092E+02 0.93608883684E+01 0.67582171955E+01 0.48075261949E+01 0.34257480374E+01
 0.20458799492E+01 0.16179057669E+01 0.14170806781E+01 0.14171035912E+01 0.16179277979E+01
 0.20458500747E+01 0.27562633336E+01 0.38347376237E+01 0.53886276116E+01 0.75170616209E+01
 0.10246496675E+02 0.13437029331E+02 0.16706977866E+02 0.19457020065E+02 0.21043457432E+02
 0.21043512717E+02 0.19457146842E+02 0.16707108296E+02 0.13437125611E+02 0.10246534391E+02
 0.75170218927E+01 0.53885483661E+01 0.38347038931E+01 0.27562977372E+01 0.16787827179E+01
 0.13962469962E+01 0.13058816261E+01 0.13962418760E+01 0.16787678159E+01 0.21889454449E+01
 0.29878409083E+01 0.41589367420E+01 0.57921194191E+01 0.79437490403E+01 0.10567527451E+02
 0.13437129347E+02 0.16118483628E+02 0.18054636531E+02 0.18763926638E+02 0.18054659458E+02
 0.16118502040E+02 0.13437125611E+02 0.10567506289E+02 0.79437159528E+01 0.57920759769E+01
 0.41588980427E+01 0.29878284304E+01 0.21889578980E+01 0.13983227106E+01 0.12364712863E+01
 0.12364524749E+01 0.13982928006E+01 0.17413467267E+01 0.23050953463E+01 0.31479942173E+01
 0.43393744109E+01 0.59370812071E+01 0.79437575287E+01 0.10246598067E+02 0.12572055688E+02
 0.14507044442E+02 0.15616177001E+02 0.15616154604E+02 0.14506987279E+02 0.12571985092E+02
 0.10246534391E+02 0.79437159528E+01 0.59370637872E+01 0.43393626953E+01 0.31479687051E+01