   2   2   0   0
  0.2001288E+02  0.3839590E-09  0.3839590E-09  0.3839590E-09  0.5000000E-15
  1.000000000000000E-004
  CAR 
 unknown system                          
     16.20101083     -7.92673472  301      6.12891420      1.00000000
     -7.927  0.0000E+00  0.0000E+00
     -7.846  0.0000E+00  0.0000E+00
     -7.766  0.0000E+00  0.0000E+00
     -7.685  0.0000E+00  0.0000E+00
     -7.605  0.0000E+00  0.0000E+00
     -7.525  0.0000E+00  0.0000E+00
     -7.444  0.0000E+00  0.0000E+00
     -7.364  0.0000E+00  0.0000E+00
     -7.283  0.0000E+00  0.0000E+00
     -7.203  0.0000E+00  0.0000E+00
     -7.122  0.0000E+00  0.0000E+00
     -7.042  0.8053E-16  0.6476E-17
     -6.962  0.6451E-14  0.5253E-15
     -6.881  0.3789E-12  0.3100E-13
     -6.801  0.1618E-10  0.1332E-11
     -6.720  0.5024E-09  0.4174E-10
     -6.640  0.1135E-07  0.9548E-09
     -6.559  0.1867E-06  0.1597E-07
     -6.479  0.2236E-05  0.1958E-06
     -6.399  0.1951E-04  0.1765E-05
     -6.318  0.1241E-03  0.1174E-04
     -6.238  0.5752E-03  0.5800E-04
     -6.157  0.1945E-02  0.2144E-03
     -6.077  0.4799E-02  0.6004E-03
     -5.997  0.8641E-02  0.1295E-02
     -5.916  0.1137E-01  0.2210E-02
     -5.836  0.1100E-01  0.3094E-02
     -5.755  0.8247E-02  0.3757E-02
     -5.675  0.6511E-02  0.4281E-02
     -5.594  0.9464E-02  0.5042E-02
     -5.514  0.1830E-01  0.6514E-02
     -5.434  0.2929E-01  0.8870E-02
     -5.353  0.3484E-01  0.1167E-01
     -5.273  0.3059E-01  0.1413E-01
     -5.192  0.2086E-01  0.1581E-01
     -5.112  0.1462E-01  0.1699E-01
     -5.031  0.1724E-01  0.1837E-01
     -4.951  0.2651E-01  0.2051E-01
     -4.871  0.3420E-01  0.2326E-01
     -4.790  0.3314E-01  0.2592E-01
     -4.710  0.2466E-01  0.2790E-01
     -4.629  0.1732E-01  0.2930E-01
     -4.549  0.1852E-01  0.3079E-01
     -4.468  0.2858E-01  0.3309E-01
     -4.388  0.4047E-01  0.3634E-01
     -4.308  0.4500E-01  0.3996E-01
     -4.227  0.3983E-01  0.4316E-01
     -4.147  0.3371E-01  0.4587E-01
     -4.066  0.3877E-01  0.4899E-01
     -3.986  0.5730E-01  0.5360E-01
     -3.905  0.7772E-01  0.5985E-01
     -3.825  0.8570E-01  0.6674E-01
     -3.745  0.7748E-01  0.7298E-01
     -3.664  0.5919E-01  0.7774E-01
     -3.584  0.3860E-01  0.8084E-01
     -3.503  0.2227E-01  0.8263E-01
     -3.423  0.1532E-01  0.8386E-01
     -3.342  0.1903E-01  0.8539E-01
     -3.262  0.2869E-01  0.8770E-01
     -3.182  0.3570E-01  0.9057E-01
     -3.101  0.3527E-01  0.9341E-01
     -3.021  0.3245E-01  0.9602E-01
     -2.940  0.3696E-01  0.9899E-01
     -2.860  0.5251E-01  0.1032E+00
     -2.779  0.7321E-01  0.1091E+00
     -2.699  0.8769E-01  0.1162E+00
     -2.619  0.8559E-01  0.1230E+00
     -2.538  0.6566E-01  0.1283E+00
     -2.458  0.3847E-01  0.1314E+00
     -2.377  0.1687E-01  0.1328E+00
     -2.297  0.5469E-02  0.1332E+00
     -2.217  0.1303E-02  0.1333E+00
     -2.136  0.2271E-03  0.1333E+00
     -2.056  0.2891E-04  0.1333E+00
     -1.975  0.2684E-05  0.1333E+00
     -1.895  0.1844E-06  0.1333E+00
     -1.814  0.7401E-07  0.1333E+00
     -1.734  0.1082E-05  0.1333E+00
     -1.654  0.1312E-04  0.1333E+00
     -1.573  0.1164E-03  0.1333E+00
     -1.493  0.7572E-03  0.1334E+00
     -1.412  0.3623E-02  0.1337E+00
     -1.332  0.1283E-01  0.1347E+00
     -1.251  0.3389E-01  0.1375E+00
     -1.171  0.6777E-01  0.1429E+00
     -1.091  0.1048E+00  0.1513E+00
     -1.010  0.1290E+00  0.1617E+00
     -0.930  0.1313E+00  0.1723E+00
     -0.849  0.1138E+00  0.1814E+00
     -0.769  0.8460E-01  0.1882E+00
     -0.688  0.5289E-01  0.1925E+00
     -0.608  0.2687E-01  0.1946E+00
     -0.528  0.1082E-01  0.1955E+00
     -0.447  0.3931E-02  0.1958E+00
     -0.367  0.3685E-02  0.1961E+00
     -0.286  0.1002E-01  0.1969E+00
     -0.206  0.2537E-01  0.1990E+00
     -0.125  0.4919E-01  0.2029E+00
     -0.045  0.7175E-01  0.2087E+00
      0.035  0.7817E-01  0.2150E+00
      0.116  0.6324E-01  0.2201E+00
      0.196  0.3780E-01  0.2231E+00
      0.277  0.1663E-01  0.2244E+00
      0.357  0.5380E-02  0.2249E+00
      0.438  0.1358E-02  0.2250E+00
      0.518  0.7477E-03  0.2250E+00
      0.598  0.2320E-02  0.2252E+00
      0.679  0.7264E-02  0.2258E+00
      0.759  0.1684E-01  0.2272E+00
      0.840  0.2880E-01  0.2295E+00
      0.920  0.3723E-01  0.2325E+00
      1.001  0.3901E-01  0.2356E+00
      1.081  0.3812E-01  0.2387E+00
      1.161  0.3881E-01  0.2418E+00
      1.242  0.3819E-01  0.2449E+00
      1.322  0.3144E-01  0.2474E+00
      1.403  0.2083E-01  0.2491E+00
      1.483  0.1483E-01  0.2503E+00
      1.564  0.2174E-01  0.2520E+00
      1.644  0.4499E-01  0.2556E+00
      1.724  0.7744E-01  0.2619E+00
      1.805  0.9994E-01  0.2699E+00
      1.885  0.9572E-01  0.2776E+00
      1.966  0.6817E-01  0.2831E+00
      2.046  0.3687E-01  0.2861E+00
      2.126  0.1832E-01  0.2875E+00
      2.207  0.1792E-01  0.2890E+00
      2.287  0.3535E-01  0.2918E+00
      2.368  0.6693E-01  0.2972E+00
      2.448  0.1018E+00  0.3054E+00
      2.529  0.1234E+00  0.3153E+00
      2.609  0.1219E+00  0.3251E+00
      2.689  0.1054E+00  0.3336E+00
      2.770  0.9181E-01  0.3410E+00
      2.850  0.8863E-01  0.3481E+00
      2.931  0.8883E-01  0.3552E+00
      3.011  0.8706E-01  0.3622E+00
      3.092  0.8579E-01  0.3691E+00
      3.172  0.8350E-01  0.3759E+00
      3.252  0.7450E-01  0.3819E+00
      3.333  0.6382E-01  0.3870E+00
      3.413  0.6597E-01  0.3923E+00
      3.494  0.8423E-01  0.3991E+00
      3.574  0.1029E+00  0.4073E+00
      3.655  0.1066E+00  0.4159E+00
      3.735  0.1007E+00  0.4240E+00
      3.815  0.1017E+00  0.4322E+00
      3.896  0.1108E+00  0.4411E+00
      3.976  0.1109E+00  0.4500E+00
      4.057  0.9385E-01  0.4576E+00
      4.137  0.7276E-01  0.4634E+00
      4.218  0.6233E-01  0.4684E+00
      4.298  0.6211E-01  0.4734E+00
      4.378  0.6578E-01  0.4787E+00
      4.459  0.7231E-01  0.4845E+00
      4.539  0.8019E-01  0.4910E+00
      4.620  0.8203E-01  0.4976E+00
      4.700  0.7275E-01  0.5034E+00
      4.781  0.5641E-01  0.5080E+00
      4.861  0.4207E-01  0.5113E+00
      4.941  0.3609E-01  0.5143E+00
      5.022  0.3709E-01  0.5172E+00
      5.102  0.3707E-01  0.5202E+00
      5.183  0.3034E-01  0.5227E+00
      5.263  0.2008E-01  0.5243E+00
      5.344  0.1388E-01  0.5254E+00
      5.424  0.1520E-01  0.5266E+00
      5.504  0.2059E-01  0.5283E+00
      5.585  0.2330E-01  0.5301E+00
      5.665  0.1969E-01  0.5317E+00
      5.746  0.1218E-01  0.5327E+00
      5.826  0.5504E-02  0.5331E+00
      5.907  0.1815E-02  0.5333E+00
      5.987  0.4364E-03  0.5333E+00
      6.067  0.7676E-04  0.5333E+00
      6.148  0.1272E-04  0.5333E+00
      6.228  0.2948E-04  0.5333E+00
      6.309  0.2028E-03  0.5334E+00
      6.389  0.1049E-02  0.5334E+00
      6.469  0.3960E-02  0.5338E+00
      6.550  0.1090E-01  0.5346E+00
      6.630  0.2190E-01  0.5364E+00
      6.711  0.3216E-01  0.5390E+00
      6.791  0.3470E-01  0.5418E+00
      6.872  0.2848E-01  0.5441E+00
      6.952  0.2094E-01  0.5457E+00
      7.032  0.2044E-01  0.5474E+00
      7.113  0.2763E-01  0.5496E+00
      7.193  0.3500E-01  0.5524E+00
      7.274  0.3523E-01  0.5553E+00
      7.354  0.2960E-01  0.5576E+00
      7.435  0.2616E-01  0.5597E+00
      7.515  0.3111E-01  0.5622E+00
      7.595  0.4443E-01  0.5658E+00
      7.676  0.6140E-01  0.5708E+00
      7.756  0.7604E-01  0.5769E+00
      7.837  0.8601E-01  0.5838E+00
      7.917  0.9399E-01  0.5914E+00
      7.998  0.1023E+00  0.5996E+00
      8.078  0.1092E+00  0.6084E+00
      8.158  0.1118E+00  0.6173E+00
      8.239  0.1070E+00  0.6260E+00
      8.319  0.9333E-01  0.6335E+00
      8.400  0.7736E-01  0.6397E+00
      8.480  0.7324E-01  0.6456E+00
      8.561  0.8951E-01  0.6528E+00
      8.641  0.1187E+00  0.6623E+00
      8.721  0.1397E+00  0.6736E+00
      8.802  0.1336E+00  0.6843E+00
      8.882  0.1004E+00  0.6924E+00
      8.963  0.5952E-01  0.6972E+00
      9.043  0.3251E-01  0.6998E+00
      9.124  0.3043E-01  0.7022E+00
      9.204  0.5511E-01  0.7067E+00
      9.284  0.9947E-01  0.7147E+00
      9.365  0.1451E+00  0.7263E+00
      9.445  0.1702E+00  0.7400E+00
      9.526  0.1658E+00  0.7533E+00
      9.606  0.1400E+00  0.7646E+00
      9.687  0.1075E+00  0.7733E+00
      9.767  0.8064E-01  0.7797E+00
      9.847  0.6728E-01  0.7852E+00
      9.928  0.6974E-01  0.7908E+00
     10.008  0.8310E-01  0.7974E+00
     10.089  0.9682E-01  0.8052E+00
     10.169  0.1007E+00  0.8133E+00
     10.250  0.9181E-01  0.8207E+00
     10.330  0.7612E-01  0.8268E+00
     10.410  0.6289E-01  0.8319E+00
     10.491  0.5792E-01  0.8366E+00
     10.571  0.6011E-01  0.8414E+00
     10.652  0.6491E-01  0.8466E+00
     10.732  0.7158E-01  0.8524E+00
     10.812  0.8126E-01  0.8589E+00
     10.893  0.9028E-01  0.8662E+00
     10.973  0.9536E-01  0.8738E+00
     11.054  0.1004E+00  0.8819E+00
     11.134  0.1084E+00  0.8906E+00
     11.215  0.1141E+00  0.8998E+00
     11.295  0.1096E+00  0.9086E+00
     11.375  0.9152E-01  0.9160E+00
     11.456  0.6506E-01  0.9212E+00
     11.536  0.4485E-01  0.9248E+00
     11.617  0.4553E-01  0.9285E+00
     11.697  0.6827E-01  0.9340E+00
     11.778  0.9638E-01  0.9417E+00
     11.858  0.1086E+00  0.9504E+00
     11.938  0.1012E+00  0.9586E+00
     12.019  0.8948E-01  0.9658E+00
     12.099  0.8354E-01  0.9725E+00
     12.180  0.7579E-01  0.9786E+00
     12.260  0.5736E-01  0.9832E+00
     12.341  0.3331E-01  0.9859E+00
     12.421  0.1475E-01  0.9871E+00
     12.501  0.6556E-02  0.9876E+00
     12.582  0.7682E-02  0.9882E+00
     12.662  0.1593E-01  0.9895E+00
     12.743  0.2737E-01  0.9917E+00
     12.823  0.3502E-01  0.9945E+00
     12.904  0.3455E-01  0.9973E+00
     12.984  0.3167E-01  0.9999E+00
     13.064  0.3890E-01  0.1003E+01
     13.145  0.6216E-01  0.1008E+01
     13.225  0.9033E-01  0.1015E+01
     13.306  0.1018E+00  0.1023E+01
     13.386  0.8615E-01  0.1030E+01
     13.467  0.5511E-01  0.1035E+01
     13.547  0.2883E-01  0.1037E+01
     13.627  0.1633E-01  0.1038E+01
     13.708  0.1344E-01  0.1040E+01
     13.788  0.1325E-01  0.1041E+01
     13.869  0.1450E-01  0.1042E+01
     13.949  0.2157E-01  0.1043E+01
     14.030  0.3748E-01  0.1046E+01
     14.110  0.5664E-01  0.1051E+01
     14.190  0.6643E-01  0.1056E+01
     14.271  0.5894E-01  0.1061E+01
     14.351  0.3933E-01  0.1064E+01
     14.432  0.1967E-01  0.1066E+01
     14.512  0.7350E-02  0.1066E+01
     14.592  0.2043E-02  0.1067E+01
     14.673  0.4206E-03  0.1067E+01
     14.753  0.6392E-04  0.1067E+01
     14.834  0.7145E-05  0.1067E+01
     14.914  0.5859E-06  0.1067E+01
     14.995  0.3517E-07  0.1067E+01
     15.075  0.1542E-08  0.1067E+01
     15.155  0.4932E-10  0.1067E+01
     15.236  0.1150E-11  0.1067E+01
     15.316  0.1952E-13  0.1067E+01
     15.397  0.2416E-15  0.1067E+01
     15.477  0.0000E+00  0.1067E+01
     15.558  0.0000E+00  0.1067E+01
     15.638  0.0000E+00  0.1067E+01
     15.718  0.0000E+00  0.1067E+01
     15.799  0.0000E+00  0.1067E+01
     15.879  0.0000E+00  0.1067E+01
     15.960  0.0000E+00  0.1067E+01
     16.040  0.0000E+00  0.1067E+01
     16.121  0.0000E+00  0.1067E+01
     16.201  0.0000E+00  0.1067E+01
