    2    2   15    1
  0.2001288E+02  0.3839590E-09  0.3839590E-09  0.3839590E-09  0.5000000E-15
  1.000000000000000E-004
  CAR 
 unknown system                          
      8     35      8
 
  0.0000000E+00  0.0000000E+00  0.0000000E+00  0.1371742E-02
    1       -6.131338   1.000000
    2        5.832379   0.972543
    3        5.832410   0.972529
    4        5.832410   0.972529
    5        8.401334   0.000000
    6        8.401361   0.000000
    7        8.401361   0.000000
    8        9.206592   0.000000
 
  0.1111111E+00  0.2174102E-18  0.2072965E-17  0.1097394E-01
    1       -5.969844   1.000000
    2        4.487536   1.000000
    3        5.593427   0.999846
    4        5.593457   0.999846
    5        8.381304   0.000000
    6        8.749671   0.000000
    7        8.749704   0.000000
    8       10.312170   0.000000
 
  0.2222222E+00 -0.4325414E-18  0.5013291E-17  0.1097394E-01
    1       -5.494963   1.000000
    2        2.410609   1.000000
    3        5.169580   1.000000
    4        5.169612   1.000000
    5        7.970161   0.000000
    6        9.278928   0.000000
    7        9.278982   0.000000
    8       12.283427   0.000000
 
  0.3333333E+00  0.6723763E-17  0.1473614E-18  0.1097394E-01
    1       -4.753842   1.000000
    2        0.497518   1.000000
    3        4.831524   1.000000
    4        4.831555   1.000000
    5        7.599684   0.000000
    6        9.345027   0.000000
    7        9.345095   0.000000
    8       13.701584   0.000000
 
  0.4444444E+00 -0.8650829E-18  0.1002658E-16  0.1097394E-01
    1       -3.961729   1.000000
    2       -0.899110   1.000000
    3        4.655458   1.000000
    4        4.655490   1.000000
    5        7.399269   0.000000
    6        9.203277   0.000000
    7        9.203347   0.000000
    8       13.596441   0.000000
 
  0.1111111E+00  0.1111111E+00  0.5723364E-17  0.8230453E-02
    1       -5.915551   1.000000
    2        4.721755   1.000000
    3        5.153213   1.000000
    4        5.153235   1.000000
    5        7.944493   0.000000
    6        9.342399   0.000000
    7        9.342420   0.000000
    8       10.139470   0.000000
 
  0.2222222E+00  0.1111111E+00  0.7521076E-17  0.3292181E-01
    1       -5.543070   1.000000
    2        3.034897   1.000000
    3        4.680010   1.000000
    4        4.819089   1.000000
    5        8.036499   0.000000
    6        9.379569   0.000000
    7       10.058477   0.000000
    8       10.748699   0.000000
 
  0.3333333E+00  0.1111111E+00  0.1455535E-16  0.3292181E-01
    1       -4.881805   1.000000
    2        1.125701   1.000000
    3        4.313716   1.000000
    4        4.374973   1.000000
    5        8.161020   0.000000
    6        9.341324   0.000000
    7       10.224450   0.000000
    8       11.180689   0.000000
 
  0.4444444E+00  0.1111111E+00  0.5595473E-17  0.3292181E-01
    1       -4.054656   1.000000
    2       -0.466080   1.000000
    3        3.877286   1.000000
    4        4.292868   1.000000
    5        8.042086   0.000000
    6        9.239410   0.000000
    7        9.940895   0.000000
    8       12.629216   0.000000
 
 -0.4444444E+00  0.1111111E+00  0.1329788E-16  0.3292181E-01
    1       -3.675205   1.000000
    2       -1.039114   1.000000
    3        3.617878   1.000000
    4        4.432766   1.000000
    5        8.050340   0.000000
    6        9.257343   0.000000
    7        9.675104   0.000000
    8       14.013585   0.000000
 
 -0.3333333E+00  0.1111111E+00 -0.1536845E-16  0.3292181E-01
    1       -4.333409   1.000000
    2        0.010791   1.000000
    3        3.583341   1.000000
    4        4.763888   1.000000
    5        8.241141   0.000000
    6        9.481353   0.000000
    7        9.553884   0.000000
    8       13.248026   0.000000
 
 -0.2222222E+00  0.1111111E+00  0.4433388E-17  0.3292181E-01
    1       -5.132933   1.000000
    2        1.742012   1.000000
    3        3.814771   1.000000
    4        5.214196   1.000000
    5        8.568905   0.000000
    6        9.346335   0.000000
    7        9.627721   0.000000
    8       11.934586   0.000000
 
 -0.1111111E+00  0.1111111E+00 -0.5393851E-17  0.1646091E-01
    1       -5.702961   1.000000
    2        3.509479   1.000000
    3        4.465237   1.000000
    4        5.607414   0.999776
    5        8.843692   0.000000
    6        8.851842   0.000000
    7        9.054414   0.000000
    8       11.232140   0.000000
 
  0.2222222E+00  0.2222222E+00  0.1144673E-16  0.8230453E-02
    1       -5.273824   1.000000
    2        2.814078   1.000000
    3        4.158229   1.000000
    4        4.158249   1.000000
    5        7.141507   0.000000
    6        9.393606   0.000000
    7       11.112897   0.000000
    8       11.112920   0.000000
 
  0.3333333E+00  0.2222222E+00  0.1123446E-16  0.3292181E-01
    1       -4.704001   1.000000
    2        1.479183   1.000000
    3        3.532871   1.000000
    4        3.815902   1.000000
    5        7.297185   0.000000
    6        9.007710   0.000000
    7       11.362640   0.000000
    8       11.687384   0.000000
 
  0.4444444E+00  0.2222222E+00  0.1417479E-16  0.3292181E-01
    1       -3.904144   1.000000
    2        0.004790   1.000000
    3        2.791267   1.000000
    4        3.717885   1.000000
    5        7.480547   0.000000
    6       10.027999   0.000000
    7       11.122623   0.000000
    8       11.492762   0.000000
 
 -0.4444444E+00  0.2222222E+00  0.1691589E-16  0.3292181E-01
    1       -3.247962   1.000000
    2       -0.939070   1.000000
    3        2.270823   1.000000
    4        3.873459   1.000000
    5        7.632142   0.000000
    6       10.864013   0.000000
    7       11.107465   0.000000
    8       12.032728   0.000000
 
 -0.3333333E+00  0.2222222E+00  0.1787863E-16  0.3292181E-01
    1       -3.661111   1.000000
    2       -0.359762   1.000000
    3        2.088669   1.000000
    4        4.255073   1.000000
    5        8.021943   0.000000
    6       10.768287   0.000000
    7       10.805421   0.000000
    8       13.058951   0.000000
 
 -0.2222222E+00  0.2222222E+00 -0.1078770E-16  0.1646091E-01
    1       -4.484732   1.000000
    2        0.890012   1.000000
    3        2.473281   1.000000
    4        4.777877   1.000000
    5        8.558618   0.000000
    6       10.165085   0.000000
    7       10.494934   0.000000
    8       11.715585   0.000000
 
  0.3333333E+00  0.3333333E+00  0.1717009E-16  0.8230453E-02
    1       -4.226123   1.000000
    2        0.821890   1.000000
    3        3.414240   1.000000
    4        3.414259   1.000000
    5        6.559708   0.000633
    6        7.824961   0.000000
    7       13.107128   0.000000
    8       13.107152   0.000000
 
  0.4444444E+00  0.3333333E+00  0.1668257E-16  0.3292181E-01
    1       -3.486678   1.000000
    2       -0.229737   1.000000
    3        2.687636   1.000000
    4        3.257128   1.000000
    5        6.802724   0.000000
    6        7.874033   0.000000
    7       13.417417   0.000000
    8       13.453202   0.000000
 
 -0.4444444E+00  0.3333333E+00 -0.5348174E-17  0.3292181E-01
    1       -2.691287   1.000000
    2       -1.128661   1.000000
    3        1.781726   1.000000
    4        3.364527   1.000000
    5        6.999589   0.000000
    6        9.479655   0.000000
    7       13.072575   0.000000
    8       13.209808   0.000000
 
 -0.3333333E+00  0.3333333E+00  0.1344753E-16  0.1646091E-01
    1       -2.865433   1.000000
    2       -0.938468   1.000000
    3        1.418302   1.000000
    4        3.720234   1.000000
    5        7.401223   0.000000
    6       11.640647   0.000000
    7       12.320052   0.000000
    8       12.919328   0.000000
 
  0.4444444E+00  0.4444444E+00  0.2289345E-16  0.8230453E-02
    1       -2.811062   1.000000
    2       -1.094859   1.000000
    3        3.028430   1.000000
    4        3.028448   1.000000
    5        6.415323   0.013815
    6        6.814497   0.000000
    7       15.197359   0.000000
    8       15.197377   0.000000
 
 -0.4444444E+00  0.4444444E+00 -0.2157540E-16  0.1646091E-01
    1       -2.037746   1.000000
    2       -1.868230   1.000000
    3        2.411712   1.000000
    4        3.066155   1.000000
    5        6.642401   0.000070
    6        7.474966   0.000000
    7       15.072611   0.000000
    8       15.410586   0.000000
 
  0.3333333E+00  0.2222222E+00  0.1111111E+00  0.3292181E-01
    1       -5.073012   1.000000
    2        2.043299   1.000000
    3        3.462129   1.000000
    4        4.666458   1.000000
    5        8.214962   0.000000
    6        9.669635   0.000000
    7       10.230809   0.000000
    8       10.866929   0.000000
 
  0.4444444E+00  0.2222222E+00  0.1111111E+00  0.6584362E-01
    1       -4.337043   1.000000
    2        0.551638   1.000000
    3        2.855371   1.000000
    4        4.228035   1.000000
    5        8.604453   0.000000
    6        9.446540   0.000000
    7       10.628983   0.000000
    8       11.307159   0.000000
 
 -0.4444444E+00  0.2222222E+00  0.1111111E+00  0.6584362E-01
    1       -3.539509   1.000000
    2       -0.738999   1.000000
    3        2.663269   1.000000
    4        3.904035   1.000000
    5        8.705393   0.000000
    6        9.033700   0.000000
    7       11.254500   0.000000
    8       12.375871   0.000000
 
  0.4444444E+00  0.3333333E+00  0.1111111E+00  0.3292181E-01
    1       -4.051689   1.000000
    2        0.517842   1.000000
    3        2.750031   1.000000
    4        3.441195   1.000000
    5        7.658670   0.000000
    6        8.664091   0.000000
    7       11.291136   0.000000
    8       13.016562   0.000000
 
 -0.4444444E+00  0.3333333E+00  0.1111111E+00  0.6584362E-01
    1       -3.224006   1.000000
    2       -0.567312   1.000000
    3        2.084987   1.000000
    4        3.134660   1.000000
    5        8.061878   0.000000
    6        9.761718   0.000000
    7       10.852231   0.000000
    8       13.418837   0.000000
 
 -0.3333333E+00  0.3333333E+00  0.1111111E+00  0.6584362E-01
    1       -2.857950   1.000000
    2       -0.993919   1.000000
    3        1.697890   1.000000
    4        3.247395   1.000000
    5        8.354329   0.000000
    6       10.359215   0.000000
    7       11.905409   0.000000
    8       12.466938   0.000000
 
 -0.2222222E+00  0.3333333E+00  0.1111111E+00  0.3292181E-01
    1       -3.560012   1.000000
    2       -0.191128   1.000000
    3        1.845118   1.000000
    4        3.685149   1.000000
    5        8.868619   0.000000
    6        9.862199   0.000000
    7       10.724483   0.000000
    8       12.769131   0.000000
 
 -0.4444444E+00  0.4444444E+00  0.1111111E+00  0.3292181E-01
    1       -2.694511   1.000000
    2       -1.110679   1.000000
    3        2.462339   1.000000
    4        2.671965   1.000000
    5        7.482451   0.000000
    6        7.792115   0.000000
    7       13.068767   0.000000
    8       14.964858   0.000000
 
 -0.3333333E+00  0.4444444E+00  0.1111111E+00  0.3292181E-01
    1       -2.170876   1.000000
    2       -1.572217   1.000000
    3        1.737122   1.000000
    4        2.760350   1.000000
    5        7.852943   0.000000
    6        9.497445   0.000000
    7       12.518854   0.000000
    8       12.776743   0.000000
 
 -0.3333333E+00  0.4444444E+00  0.2222222E+00  0.3292181E-01
    1       -2.417309   1.000000
    2       -1.256829   1.000000
    3        1.775959   1.000000
    4        2.418829   1.000000
    5        9.687809   0.000000
    6        9.775358   0.000000
    7       10.479004   0.000000
    8       12.222174   0.000000
