    2    2   15    1
  0.1529437E+02  0.3691622E-09  0.3691622E-09  0.3691622E-09  0.5000000E-15
  1.000000000000000E-004
  CAR 
 unknown system                          
      8    159      8
 
  0.4166667E-01  0.4166667E-01  0.4166667E-01  0.4629630E-02
    1       -4.384679   1.000000
    2        5.286410   1.000000
    3        6.712350   1.000000
    4        7.953496   1.000000
    5       11.326235   0.000000
    6       15.294931   0.000000
    7       16.271498   0.000000
    8       17.222695   0.000000
 
  0.1250000E+00  0.4166667E-01  0.4166667E-01  0.9259259E-02
    1       -3.823597   1.000000
    2        4.902245   1.000000
    3        6.835209   1.000000
    4        9.028509   0.623190
    5       12.359045   0.000000
    6       13.366219   0.000000
    7       13.772931   0.000000
    8       15.997991   0.000000
 
  0.2083333E+00  0.4166667E-01  0.4166667E-01  0.9259259E-02
    1       -2.893130   1.000000
    2        4.823214   1.000000
    3        6.919491   1.000000
    4        9.542089   0.000454
    5       11.389124   0.000000
    6       11.732339   0.000000
    7       13.741539   0.000000
    8       14.853218   0.000000
 
  0.2916667E+00  0.4166667E-01  0.4166667E-01  0.9259259E-02
    1       -1.601514   1.000000
    2        5.044154   1.000000
    3        6.923534   1.000000
    4        7.378769   1.000000
    5        9.828888   0.000000
    6       12.468400   0.000000
    7       13.144183   0.000000
    8       14.186159   0.000000
 
  0.3750000E+00  0.4166667E-01  0.4166667E-01  0.9259259E-02
    1        0.031914   1.000000
    2        4.330688   1.000000
    3        5.829705   1.000000
    4        7.390546   1.000000
    5        8.564949   0.999836
    6       11.183964   0.000000
    7       13.685895   0.000000
    8       14.390876   0.000000
 
  0.4583333E+00  0.4166667E-01  0.4166667E-01  0.4629630E-02
    1        1.659540   1.000000
    2        2.447775   1.000000
    3        6.598375   1.000000
    4        6.679198   1.000000
    5        8.433147   0.999997
    6       10.553039   0.000000
    7       13.536487   0.000000
    8       14.487649   0.000000
 
 -0.4166667E-01  0.4166667E-01  0.4166667E-01  0.2314815E-02
    1       -4.572159   1.000000
    2        5.722732   1.000000
    3        6.326652   1.000000
    4        7.661458   1.000000
    5       10.902976   0.000000
    6       15.917207   0.000000
    7       17.808434   0.000000
    8       18.019854   0.000000
 
  0.1250000E+00  0.1250000E+00  0.4166667E-01  0.4629630E-02
    1       -2.977537   1.000000
    2        4.804963   1.000000
    3        7.784598   1.000000
    4        9.406642   0.009139
    5       11.145900   0.000000
    6       11.210020   0.000000
    7       13.861190   0.000000
    8       14.983075   0.000000
 
  0.2083333E+00  0.1250000E+00  0.4166667E-01  0.9259259E-02
    1       -1.768573   1.000000
    2        4.987082   1.000000
    3        7.599579   1.000000
    4        8.153102   1.000000
    5        9.533972   0.000556
    6       11.587020   0.000000
    7       13.272381   0.000000
    8       14.089514   0.000000
 
  0.2916667E+00  0.1250000E+00  0.4166667E-01  0.9259259E-02
    1       -0.212416   1.000000
    2        4.944271   1.000000
    3        5.724150   1.000000
    4        6.888729   1.000000
    5        9.425704   0.006303
    6       11.805961   0.000000
    7       12.946727   0.000000
    8       14.164857   0.000000
 
  0.3750000E+00  0.1250000E+00  0.4166667E-01  0.9259259E-02
    1        1.584042   1.000000
    2        2.837006   1.000000
    3        5.527267   1.000000
    4        6.466360   1.000000
    5        9.362035   0.020451
    6       11.365101   0.000000
    7       12.848822   0.000000
    8       15.299085   0.000000
 
  0.4583333E+00  0.1250000E+00  0.4166667E-01  0.9259259E-02
    1        0.601370   1.000000
    2        3.829428   1.000000
    3        4.704067   1.000000
    4        7.363995   1.000000
    5        8.942857   0.821089
    6       11.999443   0.000000
    7       13.029043   0.000000
    8       15.258788   0.000000
 
 -0.4583333E+00  0.1250000E+00  0.4166667E-01  0.9259259E-02
    1       -1.100724   1.000000
    2        3.734021   1.000000
    3        6.555472   1.000000
    4        7.613128   1.000000
    5        9.613344   0.000066
    6       12.756905   0.000000
    7       13.440220   0.000000
    8       14.340192   0.000000
 
 -0.3750000E+00  0.1250000E+00  0.4166667E-01  0.9259259E-02
    1       -2.471308   1.000000
    2        3.403909   1.000000
    3        7.239916   1.000000
    4        9.293096   0.059730
    5       11.211668   0.000000
    6       11.846656   0.000000
    7       13.590516   0.000000
    8       15.389548   0.000000
 
 -0.2916667E+00  0.1250000E+00  0.4166667E-01  0.9259259E-02
    1       -3.483971   1.000000
    2        3.402219   1.000000
    3        7.129364   1.000000
    4        9.646105   0.000025
    5       12.445930   0.000000
    6       13.225409   0.000000
    7       14.124107   0.000000
    8       15.215263   0.000000
 
 -0.2083333E+00  0.1250000E+00  0.4166667E-01  0.4629630E-02
    1       -4.129042   1.000000
    2        3.735583   1.000000
    3        6.944494   1.000000
    4        8.684777   0.996969
    5       12.760630   0.000000
    6       14.043174   0.000000
    7       15.700565   0.000000
    8       16.515679   0.000000
 
 -0.1250000E+00  0.1250000E+00  0.4166667E-01  0.4629630E-02
    1       -4.401524   1.000000
    2        4.368120   1.000000
    3        6.351882   1.000000
    4        8.576614   0.999775
    5       11.909979   0.000000
    6       14.527476   0.000000
    7       16.911918   0.000000
    8       18.334977   0.000000
 
 -0.4166667E-01  0.1250000E+00  0.4166667E-01  0.4629630E-02
    1       -4.299460   1.000000
    2        5.008590   1.000000
    3        5.995425   1.000000
    4        8.826900   0.959023
    5       11.737606   0.000000
    6       14.519434   0.000000
    7       15.994404   0.000000
    8       17.429917   0.000000
 
  0.2083333E+00  0.2083333E+00  0.4166667E-01  0.4629630E-02
    1       -0.294129   1.000000
    2        5.268813   1.000000
    3        5.963472   1.000000
    4        6.199351   1.000000
    5       10.128913   0.000000
    6       12.287290   0.000000
    7       12.767631   0.000000
    8       12.970226   0.000000
 
  0.2916667E+00  0.2083333E+00  0.4166667E-01  0.9259259E-02
    1        1.471219   1.000000
    2        3.566109   1.000000
    3        4.496628   1.000000
    4        6.349770   1.000000
    5       10.125680   0.000000
    6       11.571756   0.000000
    7       13.057510   0.000000
    8       14.706341   0.000000
 
  0.3750000E+00  0.2083333E+00  0.4166667E-01  0.9259259E-02
    1        1.322673   1.000000
    2        3.115901   1.000000
    3        4.030944   1.000000
    4        7.296133   1.000000
    5        9.493669   0.001463
    6       11.452423   0.000000
    7       13.902159   0.000000
    8       15.904617   0.000000
 
  0.4583333E+00  0.2083333E+00  0.4166667E-01  0.9259259E-02
    1       -0.436515   1.000000
    2        2.488278   1.000000
    3        6.267173   1.000000
    4        7.978106   1.000000
    5        9.507705   0.001054
    6       11.774876   0.000000
    7       14.181316   0.000000
    8       15.419128   0.000000
 
 -0.4583333E+00  0.2083333E+00  0.4166667E-01  0.9259259E-02
    1       -1.882997   1.000000
    2        2.063229   1.000000
    3        7.702823   1.000000
    4        9.026598   0.628310
    5       10.730148   0.000000
    6       12.327844   0.000000
    7       12.658332   0.000000
    8       15.651994   0.000000
 
 -0.3750000E+00  0.2083333E+00  0.4166667E-01  0.9259259E-02
    1       -2.976012   1.000000
    2        1.981556   1.000000
    3        7.581423   1.000000
    4       10.188459   0.000000
    5       11.685116   0.000000
    6       12.742407   0.000000
    7       14.026832   0.000000
    8       15.189096   0.000000
 
 -0.2916667E+00  0.2083333E+00  0.4166667E-01  0.4629630E-02
    1       -3.703948   1.000000
    2        2.249194   1.000000
    3        7.330771   1.000000
    4        9.276526   0.074951
    5       12.705578   0.000000
    6       14.630130   0.000000
    7       14.731834   0.000000
    8       15.983420   0.000000
 
 -0.2083333E+00  0.2083333E+00  0.4166667E-01  0.4629630E-02
    1       -4.060822   1.000000
    2        2.855344   1.000000
    3        6.654362   1.000000
    4        9.223188   0.143954
    5       13.093043   0.000000
    6       13.641243   0.000000
    7       15.708936   0.000000
    8       18.073305   0.000000
 
 -0.1250000E+00  0.2083333E+00  0.4166667E-01  0.9259259E-02
    1       -4.044059   1.000000
    2        3.753587   1.000000
    3        5.954447   1.000000
    4        9.716494   0.000003
    5       12.967850   0.000000
    6       13.216452   0.000000
    7       15.470002   0.000000
    8       17.095448   0.000000
 
 -0.4166667E-01  0.2083333E+00  0.4166667E-01  0.4629630E-02
    1       -3.653830   1.000000
    2        4.637484   1.000000
    3        5.818475   1.000000
    4       10.114477   0.000000
    5       12.759415   0.000000
    6       13.051256   0.000000
    7       13.416506   0.000000
    8       15.528680   0.000000
 
  0.2916667E+00  0.2916667E+00  0.4166667E-01  0.4629630E-02
    1        2.107935   1.000000
    2        2.261651   1.000000
    3        3.874851   1.000000
    4        7.263385   1.000000
    5        9.946775   0.000000
    6       10.864851   0.000000
    7       15.104815   0.000000
    8       15.417730   0.000000
 
  0.3750000E+00  0.2916667E+00  0.4166667E-01  0.9259259E-02
    1        0.387489   1.000000
    2        1.366103   1.000000
    3        6.118484   1.000000
    4        8.223359   1.000000
    5        9.634359   0.000036
    6       10.982363   0.000000
    7       14.849199   0.000000
    8       16.005489   0.000000
 
  0.4583333E+00  0.2916667E+00  0.4166667E-01  0.9259259E-02
    1       -1.130571   1.000000
    2        0.849956   1.000000
    3        8.204556   1.000000
    4        8.887319   0.905279
    5       10.197416   0.000000
    6       11.907636   0.000000
    7       13.081097   0.000000
    8       14.900306   0.000000
 
 -0.4583333E+00  0.2916667E+00  0.4166667E-01  0.9259259E-02
    1       -2.301577   1.000000
    2        0.686054   1.000000
    3        8.179265   1.000000
    4       10.509927   0.000000
    5       11.021396   0.000000
    6       12.416965   0.000000
    7       13.593704   0.000000
    8       14.216090   0.000000
 
 -0.3750000E+00  0.2916667E+00  0.4166667E-01  0.4629630E-02
    1       -3.110852   1.000000
    2        0.879438   1.000000
    3        7.870133   1.000000
    4        9.916723   0.000000
    5       11.491253   0.000000
    6       13.617922   0.000000
    7       15.605778   0.000000
    8       15.655465   0.000000
 
 -0.2916667E+00  0.2916667E+00  0.4166667E-01  0.4629630E-02
    1       -3.551248   1.000000
    2        1.426016   1.000000
    3        7.122566   1.000000
    4        9.832390   0.000000
    5       11.752010   0.000000
    6       14.491332   0.000000
    7       15.674799   0.000000
    8       17.836069   0.000000
 
 -0.2083333E+00  0.2916667E+00  0.4166667E-01  0.9259259E-02
    1       -3.619414   1.000000
    2        2.310179   1.000000
    3        6.308228   1.000000
    4       10.364680   0.000000
    5       11.829388   0.000000
    6       14.527475   0.000000
    7       15.186943   0.000000
    8       16.359064   0.000000
 
 -0.1250000E+00  0.2916667E+00  0.4166667E-01  0.9259259E-02
    1       -3.314891   1.000000
    2        3.478010   1.000000
    3        5.775848   1.000000
    4       10.714697   0.000000
    5       11.982745   0.000000
    6       12.797550   0.000000
    7       14.337998   0.000000
    8       15.345507   0.000000
 
 -0.4166667E-01  0.2916667E+00  0.4166667E-01  0.4629630E-02
    1       -2.640223   1.000000
    2        4.609813   1.000000
    3        5.889963   1.000000
    4        9.168305   0.249953
    5       11.736012   0.000000
    6       12.593060   0.000000
    7       13.896733   0.000000
    8       14.062103   0.000000
 
  0.3750000E+00  0.3750000E+00  0.4166667E-01  0.4629630E-02
    1       -0.222133   1.000000
    2       -0.213354   1.000000
    3        8.436904   0.999997
    4        8.937154   0.831433
    5        9.847900   0.000000
    6       11.695484   0.000000
    7       13.619552   0.000000
    8       14.283037   0.000000
 
  0.4583333E+00  0.3750000E+00  0.4166667E-01  0.9259259E-02
    1       -1.463458   1.000000
    2       -0.465560   1.000000
    3        8.910109   0.875152
    4        9.747728   0.000001
    5       11.336666   0.000000
    6       12.293738   0.000000
    7       13.382785   0.000000
    8       13.473914   0.000000
 
 -0.4583333E+00  0.3750000E+00  0.4166667E-01  0.4629630E-02
    1       -2.351959   1.000000
    2       -0.351042   1.000000
    3        8.560296   0.999855
    4       10.367860   0.000000
    5       10.681221   0.000000
    6       12.535608   0.000000
    7       15.475542   0.000000
    8       15.519085   0.000000
 
 -0.3750000E+00  0.3750000E+00  0.4166667E-01  0.4629630E-02
    1       -2.874609   1.000000
    2        0.124318   1.000000
    3        7.748184   1.000000
    4       10.525997   0.000000
    5       10.536063   0.000000
    6       13.335414   0.000000
    7       17.435263   0.000000
    8       17.766204   0.000000
 
 -0.2916667E+00  0.3750000E+00  0.4166667E-01  0.9259259E-02
    1       -3.026998   1.000000
    2        0.952830   1.000000
    3        6.848938   1.000000
    4       10.551165   0.000000
    5       11.015759   0.000000
    6       14.157033   0.000000
    7       15.546507   0.000000
    8       16.321323   0.000000
 
 -0.2083333E+00  0.3750000E+00  0.4166667E-01  0.9259259E-02
    1       -2.808075   1.000000
    2        2.115005   1.000000
    3        6.184460   1.000000
    4       10.506971   0.000000
    5       11.220051   0.000000
    6       12.769841   0.000000
    7       14.567314   0.000000
    8       16.667427   0.000000
 
 -0.1250000E+00  0.3750000E+00  0.4166667E-01  0.9259259E-02
    1       -2.219815   1.000000
    2        3.547315   1.000000
    3        5.879295   1.000000
    4        8.720196   0.993684
    5       11.040120   0.000000
    6       13.121452   0.000000
    7       13.546815   0.000000
    8       15.033478   0.000000
 
 -0.4166667E-01  0.3750000E+00  0.4166667E-01  0.4629630E-02
    1       -1.268164   1.000000
    2        4.863287   1.000000
    3        6.235311   1.000000
    4        6.571116   1.000000
    5       10.208359   0.000000
    6       12.519375   0.000000
    7       13.066065   0.000000
    8       14.431134   0.000000
 
  0.4583333E+00  0.4583333E+00  0.4166667E-01  0.2314815E-02
    1       -1.430514   1.000000
    2       -1.430514   1.000000
    3        9.397794   0.010799
    4        9.397794   0.010799
    5       11.545958   0.000000
    6       11.545959   0.000000
    7       15.434822   0.000000
    8       15.434823   0.000000
 
 -0.4583333E+00  0.4583333E+00  0.4166667E-01  0.4629630E-02
    1       -2.033569   1.000000
    2       -1.032016   1.000000
    3        8.528176   0.999941
    4        9.459084   0.003159
    5       11.339394   0.000000
    6       12.278405   0.000000
    7       17.538671   0.000000
    8       17.596644   0.000000
 
 -0.3750000E+00  0.4583333E+00  0.4166667E-01  0.9259259E-02
    1       -2.269145   1.000000
    2       -0.272493   1.000000
    3        7.552415   1.000000
    4        9.415080   0.007769
    5       11.717192   0.000000
    6       13.399030   0.000000
    7       15.091530   0.000000
    8       16.316173   0.000000
 
 -0.2916667E+00  0.4583333E+00  0.4166667E-01  0.9259259E-02
    1       -2.135364   1.000000
    2        0.837419   1.000000
    3        6.791411   1.000000
    4        9.498388   0.001312
    5       11.019452   0.000000
    6       13.184198   0.000000
    7       14.345095   0.000000
    8       15.797164   0.000000
 
 -0.2083333E+00  0.4583333E+00  0.4166667E-01  0.9259259E-02
    1       -1.633713   1.000000
    2        2.272346   1.000000
    3        6.334639   1.000000
    4        8.361202   1.000000
    5       10.016756   0.000000
    6       12.753154   0.000000
    7       14.145239   0.000000
    8       16.243666   0.000000
 
 -0.1250000E+00  0.4583333E+00  0.4166667E-01  0.9259259E-02
    1       -0.770223   1.000000
    2        3.928440   1.000000
    3        5.932773   1.000000
    4        6.432968   1.000000
    5        9.952972   0.000000
    6       11.990456   0.000000
    7       13.381840   0.000000
    8       15.485472   0.000000
 
 -0.4166667E-01  0.4583333E+00  0.4166667E-01  0.4629630E-02
    1        0.436161   1.000000
    2        3.794678   1.000000
    3        5.803814   1.000000
    4        6.811582   1.000000
    5        8.834464   0.954100
    6       11.138613   0.000000
    7       12.669651   0.000000
    8       15.405570   0.000000
 
 -0.4583333E+00 -0.4583333E+00  0.4166667E-01  0.4629630E-02
    1       -1.350279   1.000000
    2       -1.348292   1.000000
    3        8.405280   0.999999
    4        8.414773   0.999998
    5       12.363235   0.000000
    6       12.711664   0.000000
    7       14.951098   0.000000
    8       16.270188   0.000000
 
 -0.3750000E+00 -0.4583333E+00  0.4166667E-01  0.9259259E-02
    1       -1.299872   1.000000
    2       -0.306254   1.000000
    3        7.559447   1.000000
    4        8.470903   0.999990
    5       10.925642   0.000000
    6       13.774284   0.000000
    7       14.236926   0.000000
    8       14.924682   0.000000
 
 -0.2916667E+00 -0.4583333E+00  0.4166667E-01  0.9259259E-02
    1       -0.884736   1.000000
    2        1.080500   1.000000
    3        6.967771   1.000000
    4        8.099209   1.000000
    5        9.046023   0.575355
    6       12.492300   0.000000
    7       14.858431   0.000000
    8       16.576916   0.000000
 
 -0.2083333E+00 -0.4583333E+00  0.4166667E-01  0.9259259E-02
    1       -0.110520   1.000000
    2        2.765925   1.000000
    3        5.651763   1.000000
    4        6.899028   1.000000
    5        9.279272   0.072242
    6       11.326704   0.000000
    7       14.611743   0.000000
    8       16.287818   0.000000
 
 -0.1250000E+00 -0.4583333E+00  0.4166667E-01  0.9259259E-02
    1        0.993589   1.000000
    2        3.385338   1.000000
    3        4.924429   1.000000
    4        6.954770   1.000000
    5        8.915822   0.866649
    6       11.325277   0.000000
    7       12.168660   0.000000
    8       16.507351   0.000000
 
 -0.4166667E-01 -0.4583333E+00  0.4166667E-01  0.4629630E-02
    1        1.422271   1.000000
    2        2.684017   1.000000
    3        6.707898   1.000000
    4        7.397734   1.000000
    5        7.773661   1.000000
    6       10.364636   0.000000
    7       12.642604   0.000000
    8       15.367795   0.000000
 
 -0.3750000E+00 -0.3750000E+00  0.4166667E-01  0.4629630E-02
    1        0.013606   1.000000
    2        0.031668   1.000000
    3        7.543746   1.000000
    4        7.813270   1.000000
    5        8.550544   0.999889
    6       12.405946   0.000000
    7       15.361901   0.000000
    8       16.176195   0.000000
 
 -0.2916667E+00 -0.3750000E+00  0.4166667E-01  0.9259259E-02
    1        0.705860   1.000000
    2        1.672274   1.000000
    3        5.500270   1.000000
    4        7.563001   1.000000
    5        8.473014   0.999989
    6       11.029363   0.000000
    7       15.889526   0.000000
    8       16.677824   0.000000
 
 -0.2083333E+00 -0.3750000E+00  0.4166667E-01  0.9259259E-02
    1        1.683693   1.000000
    2        3.061932   1.000000
    3        3.941800   1.000000
    4        7.436111   1.000000
    5        8.737943   0.991069
    6       10.554878   0.000000
    7       13.393065   0.000000
    8       16.470955   0.000000
 
 -0.1250000E+00 -0.3750000E+00  0.4166667E-01  0.9259259E-02
    1        1.152738   1.000000
    2        3.265706   1.000000
    3        5.943392   1.000000
    4        7.332502   1.000000
    5        8.427671   0.999997
    6       10.870649   0.000000
    7       11.711181   0.000000
    8       15.685287   0.000000
 
 -0.4166667E-01 -0.3750000E+00  0.4166667E-01  0.4629630E-02
    1       -0.378149   1.000000
    2        4.899936   1.000000
    3        6.818726   1.000000
    4        7.490906   1.000000
    5        8.237179   1.000000
    6       10.727914   0.000000
    7       12.859014   0.000000
    8       14.710267   0.000000
 
 -0.2916667E+00 -0.2916667E+00  0.4166667E-01  0.4629630E-02
    1        2.299586   1.000000
    2        2.665500   1.000000
    3        3.506513   1.000000
    4        7.749558   1.000000
    5        8.569594   0.999814
    6       10.218537   0.000000
    7       14.535324   0.000000
    8       15.456991   0.000000
 
 -0.2083333E+00 -0.2916667E+00  0.4166667E-01  0.9259259E-02
    1        1.005524   1.000000
    2        4.030122   1.000000
    3        4.948259   1.000000
    4        7.365162   1.000000
    5        8.989880   0.721403
    6       10.514216   0.000000
    7       12.457783   0.000000
    8       14.270660   0.000000
 
 -0.1250000E+00 -0.2916667E+00  0.4166667E-01  0.9259259E-02
    1       -0.625299   1.000000
    2        5.584155   1.000000
    3        6.918961   1.000000
    4        7.274857   1.000000
    5        8.754874   0.987736
    6       11.069010   0.000000
    7       11.857679   0.000000
    8       13.599489   0.000000
 
 -0.4166667E-01 -0.2916667E+00  0.4166667E-01  0.4629630E-02
    1       -1.936555   1.000000
    2        6.131988   1.000000
    3        7.203233   1.000000
    4        7.715431   1.000000
    5        9.852623   0.000000
    6       12.045174   0.000000
    7       12.133210   0.000000
    8       14.153724   0.000000
 
 -0.2083333E+00 -0.2083333E+00  0.4166667E-01  0.4629630E-02
    1       -0.707835   1.000000
    2        6.274230   1.000000
    3        6.456867   1.000000
    4        7.005532   1.000000
    5        9.376893   0.015794
    6       11.149375   0.000000
    7       12.166878   0.000000
    8       12.277456   0.000000
 
 -0.1250000E+00 -0.2083333E+00  0.4166667E-01  0.9259259E-02
    1       -2.104384   1.000000
    2        6.408451   1.000000
    3        7.853756   1.000000
    4        8.392685   0.999999
    5        9.550935   0.000362
    6       11.043367   0.000000
    7       12.350999   0.000000
    8       13.224839   0.000000
 
 -0.4166667E-01 -0.2083333E+00  0.4166667E-01  0.4629630E-02
    1       -3.146811   1.000000
    2        6.048255   1.000000
    3        6.953833   1.000000
    4        9.387042   0.013164
    5       11.302162   0.000000
    6       11.941832   0.000000
    7       12.680636   0.000000
    8       14.461927   0.000000
 
 -0.1250000E+00 -0.1250000E+00  0.4166667E-01  0.4629630E-02
    1       -3.231467   1.000000
    2        6.311684   1.000000
    3        7.594201   1.000000
    4        8.832305   0.955552
    5       11.526471   0.000000
    6       11.652705   0.000000
    7       12.474261   0.000000
    8       14.433265   0.000000
 
 -0.4166667E-01 -0.1250000E+00  0.4166667E-01  0.4629630E-02
    1       -3.993680   1.000000
    2        6.239269   1.000000
    3        6.806887   1.000000
    4        8.145466   1.000000
    5       11.470263   0.000000
    6       13.848407   0.000000
    7       14.069961   0.000000
    8       16.313138   0.000000
 
 -0.4166667E-01 -0.4166667E-01  0.4166667E-01  0.1157407E-02
    1       -4.469968   1.000000
    2        6.634935   1.000000
    3        6.634935   1.000000
    4        6.937747   1.000000
    5       10.780301   0.000000
    6       16.044854   0.000000
    7       16.463723   0.000000
    8       17.565017   0.000000
 
  0.1250000E+00  0.1250000E+00  0.1250000E+00  0.4629630E-02
    1       -2.555267   1.000000
    2        3.343707   1.000000
    3        8.081246   1.000000
    4        9.628728   0.000042
    5       10.821865   0.000000
    6       11.020156   0.000000
    7       14.607190   0.000000
    8       15.154278   0.000000
 
  0.2083333E+00  0.1250000E+00  0.1250000E+00  0.9259259E-02
    1       -1.266483   1.000000
    2        3.610027   1.000000
    3        7.261072   1.000000
    4        7.957849   1.000000
    5        9.773817   0.000000
    6       12.120067   0.000000
    7       13.985643   0.000000
    8       14.720213   0.000000
 
  0.2916667E+00  0.1250000E+00  0.1250000E+00  0.9259259E-02
    1        0.362275   1.000000
    2        4.073171   1.000000
    3        4.934412   1.000000
    4        6.568649   1.000000
    5       10.092571   0.000000
    6       12.845165   0.000000
    7       13.964653   0.000000
    8       14.083811   0.000000
 
  0.3750000E+00  0.1250000E+00  0.1250000E+00  0.4629630E-02
    1        1.985518   1.000000
    2        2.744733   1.000000
    3        5.036075   1.000000
    4        5.561176   1.000000
    5       10.440759   0.000000
    6       12.260423   0.000000
    7       13.892772   0.000000
    8       14.418764   0.000000
 
 -0.1250000E+00  0.1250000E+00  0.1250000E+00  0.2314815E-02
    1       -4.231231   1.000000
    2        4.097948   1.000000
    3        5.308548   1.000000
    4        9.824963   0.000000
    5       12.564464   0.000000
    6       13.169613   0.000000
    7       17.600950   0.000000
    8       18.086941   0.000000
 
  0.2083333E+00  0.2083333E+00  0.1250000E+00  0.4629630E-02
    1        0.282076   1.000000
    2        4.079207   1.000000
    3        5.606963   1.000000
    4        5.722346   1.000000
    5       10.897810   0.000000
    6       13.118144   0.000000
    7       13.836630   0.000000
    8       13.910458   0.000000
 
  0.2916667E+00  0.2083333E+00  0.1250000E+00  0.9259259E-02
    1        2.057804   1.000000
    2        3.264030   1.000000
    3        4.174969   1.000000
    4        5.257096   1.000000
    5       11.316648   0.000000
    6       12.922694   0.000000
    7       13.813216   0.000000
    8       14.809659   0.000000
 
  0.3750000E+00  0.2083333E+00  0.1250000E+00  0.9259259E-02
    1        1.094368   1.000000
    2        2.991454   1.000000
    3        4.613734   1.000000
    4        6.364478   1.000000
    5       10.818775   0.000000
    6       12.815097   0.000000
    7       14.189435   0.000000
    8       14.993754   0.000000
 
  0.4583333E+00  0.2083333E+00  0.1250000E+00  0.9259259E-02
    1       -0.600242   1.000000
    2        2.342471   1.000000
    3        6.999664   1.000000
    4        7.777210   1.000000
    5       10.280266   0.000000
    6       12.655938   0.000000
    7       13.152400   0.000000
    8       14.923320   0.000000
 
 -0.4583333E+00  0.2083333E+00  0.1250000E+00  0.4629630E-02
    1       -1.966247   1.000000
    2        1.990630   1.000000
    3        8.440327   0.999996
    4        9.527205   0.000658
    5       10.682171   0.000000
    6       11.271289   0.000000
    7       13.403683   0.000000
    8       14.583004   0.000000
 
 -0.2083333E+00  0.2083333E+00  0.1250000E+00  0.4629630E-02
    1       -3.891229   1.000000
    2        2.930607   1.000000
    3        5.261659   1.000000
    4       10.753523   0.000000
    5       11.721437   0.000000
    6       14.009285   0.000000
    7       16.787120   0.000000
    8       17.801359   0.000000
 
 -0.1250000E+00  0.2083333E+00  0.1250000E+00  0.4629630E-02
    1       -3.789467   1.000000
    2        3.533868   1.000000
    3        4.868070   1.000000
    4       11.028723   0.000000
    5       11.797788   0.000000
    6       13.813653   0.000000
    7       14.984074   0.000000
    8       17.618504   0.000000
 
  0.2916667E+00  0.2916667E+00  0.1250000E+00  0.4629630E-02
    1        1.946385   1.000000
    2        2.007554   1.000000
    3        4.519785   1.000000
    4        6.294823   1.000000
    5       11.380986   0.000000
    6       12.179231   0.000000
    7       14.671178   0.000000
    8       15.593255   0.000000
 
  0.3750000E+00  0.2916667E+00  0.1250000E+00  0.9259259E-02
    1        0.227005   1.000000
    2        1.210466   1.000000
    3        6.862608   1.000000
    4        7.671964   1.000000
    5       10.957003   0.000000
    6       12.014849   0.000000
    7       13.465759   0.000000
    8       14.427559   0.000000
 
  0.4583333E+00  0.2916667E+00  0.1250000E+00  0.4629630E-02
    1       -1.212771   1.000000
    2        0.772109   1.000000
    3        8.786062   0.978731
    4        9.302555   0.052196
    5       10.825847   0.000000
    6       11.657561   0.000000
    7       12.552483   0.000000
    8       13.713144   0.000000
 
 -0.2916667E+00  0.2916667E+00  0.1250000E+00  0.4629630E-02
    1       -3.382760   1.000000
    2        1.559789   1.000000
    3        5.675533   1.000000
    4       10.359371   0.000000
    5       11.454752   0.000000
    6       15.800586   0.000000
    7       15.905614   0.000000
    8       17.588391   0.000000
 
 -0.2083333E+00  0.2916667E+00  0.1250000E+00  0.9259259E-02
    1       -3.366169   1.000000
    2        2.455033   1.000000
    3        4.854973   1.000000
    4       10.376774   0.000000
    5       11.931557   0.000000
    6       14.499139   0.000000
    7       15.444610   0.000000
    8       17.537382   0.000000
 
 -0.1250000E+00  0.2916667E+00  0.1250000E+00  0.4629630E-02
    1       -2.977447   1.000000
    2        3.323979   1.000000
    3        4.726832   1.000000
    4       10.448808   0.000000
    5       11.232640   0.000000
    6       13.416504   0.000000
    7       15.227903   0.000000
    8       15.650391   0.000000
 