unknown system                          
   1.00000000000000     
    -2.450000    2.450000    1.274000
     2.450000   -2.450000    1.274000
     2.450000    2.450000   -1.274000
   Si
     2
Direct
  0.250000  0.750000  0.500000
  0.000000  0.000000  0.000000
 
   24   24   24
 -.55659159638E+01 -.35445128307E+01 0.14885236134E+01 0.70909250953E+01 0.10890405298E+02
 0.11863712614E+02 0.10610550480E+02 0.85794551134E+01 0.66989076255E+01 0.52428237721E+01
 0.42685235529E+01 0.37274326469E+01 0.35559528399E+01 0.37274952097E+01 0.42685164786E+01
 0.52427704506E+01 0.66989388396E+01 0.85795100045E+01 0.10610480787E+02 0.11863621856E+02
 0.10890495410E+02 0.70910777844E+01 0.14884616423E+01 -.35447097111E+01 -.35447097111E+01
 -.45804504614E+01 -.17888967363E+01 0.33946628978E+01 0.84808490640E+01 0.11416325615E+02
 0.11631415122E+02 0.10025581046E+02 0.80021354517E+01 0.62322989307E+01 0.49147426102E+01
 0.40686486933E+01 0.36347683016E+01 0.35559528336E+01 0.38186698912E+01 0.44607969869E+01
 0.55480495529E+01 0.71132434218E+01 0.90605671913E+01 0.11038542926E+02 0.11946833046E+02
 0.10446553893E+02 0.62742542826E+01 0.79232859635E+00 0.14884616423E+01 -.17890685867E+01
 -.18620909172E+01 0.12942200807E+01 0.60228892587E+01 0.10040028709E+02 0.11791427981E+02
 0.11188533330E+02 0.93276497546E+01 0.73732365822E+01 0.57499635116E+01 0.45885553530E+01
 0.38754228637E+01 0.35469282135E+01 0.35559034570E+01 0.39018038956E+01 0.46306596780E+01
 0.58052873287E+01 0.74398520351E+01 0.94060778970E+01 0.11294620327E+02 0.11961231403E+02
 0.10274336328E+02 0.62742542826E+01 0.70910777844E+01 0.33946156732E+01 0.12940935861E+01
 0.19486914054E+01 0.49817637005E+01 0.87352412320E+01 0.11341192623E+02 0.11830484357E+02
 0.10532518043E+02 0.85743762390E+01 0.67385343481E+01 0.52861642908E+01 0.42861621125E+01
 0.37012219393E+01 0.34695380886E+01 0.35558254821E+01 0.39706695337E+01 0.47640066572E+01
 0.59915690508E+01 0.76490997323E+01 0.95867071755E+01 0.11379276153E+02 0.11961231403E+02
 0.10446553893E+02 0.10890495410E+02 0.84809641713E+01 0.60228632391E+01 0.49816947946E+01
 0.60044425741E+01 0.84755394602E+01 0.10940814208E+02 0.12072944378E+02 0.11467414187E+02
 0.97373057590E+01 0.78185349371E+01 0.61410953188E+01 0.48701860270E+01 0.40253580743E+01
 0.35560661664E+01 0.34073042320E+01 0.35557348972E+01 0.40198870396E+01 0.48491750883E+01
 0.60894461571E+01 0.77211791024E+01 0.95867071755E+01 0.11294620327E+02 0.11946833046E+02
 0.11863621856E+02 0.11416376832E+02 0.10040095998E+02 0.87352386433E+01 0.84755301756E+01
 0.95001618809E+01 0.11132633440E+02 0.12265804738E+02 0.12132346768E+02 0.10780656211E+02
 0.89167740071E+01 0.71132938621E+01 0.56184500589E+01 0.45251595431E+01 0.38194852099E+01
 0.34474121096E+01 0.33637963953E+01 0.35556569440E+01 0.40455401851E+01 0.48784693003E+01
 0.60894461571E+01 0.76490997323E+01 0.94060778970E+01 0.11038542926E+02 0.10610480787E+02
 0.11631353700E+02 0.11791436358E+02 0.11341209487E+02 0.10940832324E+02 0.11132676072E+02
 0.11892348899E+02 0.12629833822E+02 0.12640569762E+02 0.11640241530E+02 0.99616449007E+01
 0.81494238559E+01 0.65082519369E+01 0.52008700053E+01 0.42678822354E+01 0.36776598192E+01
 0.33803003486E+01 0.33414419851E+01 0.35556327983E+01 0.40455401851E+01 0.48491750883E+01
 0.59915690508E+01 0.74398520351E+01 0.90605671913E+01 0.85795100045E+01 0.10025564315E+02
 0.11188503986E+02 0.11830453861E+02 0.12072915878E+02 0.12265837166E+02 0.12629913575E+02
 0.13017942845E+02 0.13012622318E+02 0.12280692548E+02 0.10879449170E+02 0.91857373670E+01
 0.75039247670E+01 0.60451247692E+01 0.49105883513E+01 0.41094149842E+01 0.36054544301E+01
 0.33576246065E+01 0.33414419851E+01 0.35556569440E+01 0.40198870396E+01 0.47640066572E+01
 0.58052873287E+01 0.71132434218E+01 0.66989388396E+01 0.80021787622E+01 0.93276804990E+01
 0.10532519866E+02 0.11467356432E+02 0.12132284013E+02 0.12640607814E+02 0.13012721196E+02
 0.13083058022E+02 0.12624119444E+02 0.11579284393E+02 0.10141397753E+02 0.85522879228E+01
 0.70387658598E+01 0.57547923912E+01 0.47619707911E+01 0.40559418659E+01 0.36054544301E+01
 0.33803003486E+01 0.33637963953E+01 0.35557348972E+01 0.39706695337E+01 0.46306596780E+01
 0.55480495529E+01 0.52427704506E+01 0.62322802490E+01 0.73732632292E+01 0.85744415707E+01
 0.97373355979E+01 0.10780586675E+02 0.11640157865E+02 0.12280727568E+02 0.12624221145E+02
 0.12540168899E+02 0.11950924231E+02 0.10910917149E+02 0.95720050242E+01 0.81389711741E+01
 0.67955384994E+01 0.56559492049E+01 0.47619707911E+01 0.41094149842E+01 0.36776598192E+01
 0.34474121096E+01 0.34073042320E+01 0.35558254821E+01 0.39018038956E+01 0.44607969869E+01
 0.42685164786E+01 0.49146905623E+01 0.57499062328E+01 0.67385398935E+01 0.78186173533E+01
 0.89168265330E+01 0.99615787759E+01 0.10879357436E+02 0.11579310416E+02 0.11951017934E+02
 0.11894946359E+02 0.11373993860E+02 0.10448295076E+02 0.92631142132E+01 0.79955455307E+01
 0.67955384994E+01 0.57547923912E+01 0.49105883513E+01 0.42678822354E+01 0.38194852099E+01
 0.35560661664E+01 0.34695380886E+01 0.35559034570E+01 0.38186698912E+01 0.37274952097E+01
 0.40686815974E+01 0.45885172084E+01 0.52860837653E+01 0.61410755796E+01 0.71133759328E+01
 0.81494937700E+01 0.91856861565E+01 0.10141307101E+02 0.10910931946E+02 0.11374076117E+02
 0.11431116951E+02 0.11048799275E+02 0.10283494018E+02 0.92631142132E+01 0.81389711741E+01
 0.70387658598E+01 0.60451247692E+01 0.52008700053E+01 0.45251595431E+01 0.40253580743E+01
 0.37012219393E+01 0.35469282135E+01 0.35559528336E+01 0.35559528399E+01 0.36348286551E+01
 0.38754869308E+01 0.42861494121E+01 0.48700975409E+01 0.56184038021E+01 0.65083216383E+01
 0.75040070461E+01 0.85522555664E+01 0.95719191349E+01 0.10448300875E+02 0.11048873767E+02
 0.11263432138E+02 0.11048799275E+02 0.10448295076E+02 0.95720050242E+01 0.85522879228E+01
 0.75039247670E+01 0.65082519369E+01 0.56184500589E+01 0.48701860270E+01 0.42861621125E+01
 0.38754228637E+01 0.36347683016E+01 0.37274326469E+01 0.35559199264E+01 0.35469694845E+01
 0.37013074013E+01 0.40253795112E+01 0.45250756899E+01 0.52007992889E+01 0.60451768290E+01
 0.70388555987E+01 0.81389541027E+01 0.92630323157E+01 0.10283496490E+02 0.11048873767E+02
 0.11431116951E+02 0.11373993860E+02 0.10910917149E+02 0.10141397753E+02 0.91857373670E+01
 0.81494238559E+01 0.71132938621E+01 0.61410953188E+01 0.52861642908E+01 0.45885553530E+01
 0.40686486933E+01 0.42685235529E+01 0.38186211800E+01 0.35558392294E+01 0.34695488186E+01
 0.35561654415E+01 0.38195429603E+01 0.42678086025E+01 0.49104982528E+01 0.57548297824E+01
 0.67956320351E+01 0.79955344617E+01 0.92630323157E+01 0.10448300875E+02 0.11374076117E+02
 0.11894946359E+02 0.11950924231E+02 0.11579284393E+02 0.10879449170E+02 0.99616449007E+01
 0.89167740071E+01 0.78185349371E+01 0.67385343481E+01 0.57499635116E+01 0.49147426102E+01
 0.52428237721E+01 0.44608495409E+01 0.39017816880E+01 0.35557345425E+01 0.34072807342E+01
 0.34475187098E+01 0.36777474497E+01 0.41093508608E+01 0.47618703981E+01 0.56559812027E+01
 0.67956320351E+01 0.81389541027E+01 0.95719191349E+01 0.10910931946E+02 0.11951017934E+02
 0.12540168899E+02 0.12624119444E+02 0.12280692548E+02 0.11640241530E+02 0.10780656211E+02
 0.97373057590E+01 0.85743762390E+01 0.73732365822E+01 0.62322989307E+01 0.66989076255E+01
 0.55480951507E+01 0.46307589492E+01 0.39706789700E+01 0.35556227752E+01 0.33637430680E+01
 0.33804102898E+01 0.36055594455E+01 0.40558818341E+01 0.47618703981E+01 0.57548297824E+01
 0.70388555987E+01 0.85522555664E+01 0.10141307101E+02 0.11579310416E+02 0.12624221145E+02
 0.13083058022E+02 0.13012622318E+02 0.12640569762E+02 0.12132346768E+02 0.11467414187E+02
 0.10532518043E+02 0.93276497546E+01 0.80021354517E+01 0.85794551134E+01 0.71131595618E+01
 0.58053209085E+01 0.47641461615E+01 0.40199236946E+01 0.35555312744E+01 0.33413719347E+01
 0.33577358087E+01 0.36055594455E+01 0.41093508608E+01 0.49104982528E+01 0.60451768290E+01
 0.75040070461E+01 0.91856861565E+01 0.10879357436E+02 0.12280727568E+02 0.13012721196E+02
 0.13017942845E+02 0.12629833822E+02 0.12265804738E+02 0.12072944378E+02 0.11830484357E+02
 0.11188533330E+02 0.10025581046E+02 0.10610550480E+02 0.90605050960E+01 0.74397211234E+01
 0.59915906593E+01 0.48493420263E+01 0.40455930546E+01 0.35555028099E+01 0.33413719347E+01
 0.33804102898E+01 0.36777474497E+01 0.42678086025E+01 0.52007992889E+01 0.65083216383E+01
 0.81494937700E+01 0.99615787759E+01 0.11640157865E+02 0.12640607814E+02 0.12629913575E+02
 0.11892348899E+02 0.11132633440E+02 0.10940814208E+02 0.11341192623E+02 0.11791427981E+02
 0.11631415122E+02 0.11863712614E+02 0.11038660318E+02 0.94060113698E+01 0.76489364085E+01
 0.60894609896E+01 0.48786463184E+01 0.40455930546E+01 0.35555312744E+01 0.33637430680E+01
 0.34475187098E+01 0.38195429603E+01 0.45250756899E+01 0.56184038021E+01 0.71133759328E+01
 0.89168265330E+01 0.10780586675E+02 0.12132284013E+02 0.12265837166E+02 0.11132676072E+02
 0.95001618809E+01 0.84755394602E+01 0.87352412320E+01 0.10040028709E+02 0.11416325615E+02
 0.10890405298E+02 0.11946945967E+02 0.11294770887E+02 0.95866389881E+01 0.77210045267E+01
 0.60894609896E+01 0.48493420263E+01 0.40199236946E+01 0.35556227752E+01 0.34072807342E+01
 0.35561654415E+01 0.40253795112E+01 0.48700975409E+01 0.61410755796E+01 0.78186173533E+01
 0.97373355979E+01 0.11467356432E+02 0.12072915878E+02 0.10940832324E+02 0.84755301756E+01
 0.60044425741E+01 0.49817637005E+01 0.60228892587E+01 0.84808490640E+01 0.70909250953E+01
 0.10446436796E+02 0.11961356613E+02 0.11379438830E+02 0.95866389881E+01 0.76489364085E+01
 0.59915906593E+01 0.47641461615E+01 0.39706789700E+01 0.35557345425E+01 0.34695488186E+01
 0.37013074013E+01 0.42861494121E+01 0.52860837653E+01 0.67385398935E+01 0.85744415707E+01
 0.10532519866E+02 0.11830453861E+02 0.11341209487E+02 0.87352386433E+01 0.49816947946E+01
 0.19486914054E+01 0.12942200807E+01 0.33946628978E+01 0.14885236134E+01 0.62740811395E+01
 0.10274209762E+02 0.11961356613E+02 0.11294770887E+02 0.94060113698E+01 0.74397211234E+01
 0.58053209085E+01 0.46307589492E+01 0.39017816880E+01 0.35558392294E+01 0.35469694845E+01
 0.38754869308E+01 0.45885172084E+01 0.57499062328E+01 0.73732632292E+01 0.93276804990E+01
 0.11188503986E+02 0.11791436358E+02 0.10040095998E+02 0.60228632391E+01 0.12940935861E+01
 -.18620909172E+01 -.17888967363E+01 -.35445128307E+01 0.79239593191E+00 0.62740811395E+01
 0.10446436796E+02 0.11946945967E+02 0.11038660318E+02 0.90605050960E+01 0.71131595618E+01
 0.55480951507E+01 0.44608495409E+01 0.38186211800E+01 0.35559199264E+01 0.36348286551E+01
 0.40686815974E+01 0.49146905623E+01 0.62322802490E+01 0.80021787622E+01 0.10025564315E+02
 0.11631353700E+02 0.11416376832E+02 0.84809641713E+01 0.33946156732E+01 -.17890685867E+01
 -.45804504614E+01 -.35443136420E+01 -.21084326057E+01 0.22148350876E+01 0.72657980591E+01
 0.10796179563E+02 0.11727119682E+02 0.10516320179E+02 0.85068996358E+01 0.66222348276E+01
 0.51435241429E+01 0.41366698394E+01 0.35576073896E+01 0.33414517083E+01 0.34560069692E+01
 0.39204892508E+01 0.47944098778E+01 0.61330135884E+01 0.79057805918E+01 0.99002796619E+01
 0.11405990228E+02 0.11066356715E+02 0.81307671333E+01 0.33052863727E+01 -.13554412917E+01
 -.21086464794E+01 -.35443303822E+01 -.13552476008E+01 0.33053847266E+01 0.81306590562E+01
 0.11066253888E+02 0.11406027339E+02 0.99003413996E+01 0.79057722058E+01 0.61329975872E+01
 0.47944237960E+01 0.39204826642E+01 0.34559861545E+01 0.33414694137E+01 0.35576249334E+01
 0.41366318481E+01 0.51435049866E+01 0.66222989279E+01 0.85069263858E+01 0.10516211466E+02
 0.11727041690E+02 0.10796306108E+02 0.72659574640E+01 0.22147556241E+01 0.23583446477E+01
 -.11987616857E+01 -.17887533027E+01 0.86337356953E+00 0.53220922944E+01 0.93655928577E+01
 0.11330381986E+02 0.10948760584E+02 0.91957219644E+01 0.72695705031E+01 0.56423452337E+01
 0.44625764614E+01 0.37283355371E+01 0.33788330243E+01 0.33637928122E+01 0.36774961609E+01
 0.43626613729E+01 0.54851505804E+01 0.70736075814E+01 0.90282404861E+01 0.11004841306E+02
 0.11966099351E+02 0.10706787870E+02 0.70655165719E+01 0.76232191267E+01 0.37158258982E+01
 0.11545386874E+01 0.12942865653E+01 0.39958159542E+01 0.77308871048E+01 0.10580701995E+02
 0.11397052452E+02 0.10331788091E+02 0.84553230451E+01 0.66411338110E+01 0.51829145088E+01
 0.41688351399E+01 0.35716369973E+01 0.33306980272E+01 0.34072425381E+01 0.38080109031E+01
 0.45824695110E+01 0.57925904471E+01 0.74495952934E+01 0.94268093528E+01 0.11343339539E+02
 0.12167626420E+02 0.10900822242E+02 0.11352438436E+02 0.87965431786E+01 0.59435602764E+01
 0.43828044019E+01 0.49817610012E+01 0.73093111690E+01 0.99436957044E+01 0.11425281535E+02
 0.11149418519E+02 0.95913125674E+01 0.77246073682E+01 0.60589256813E+01 0.47815773858E+01
 0.39293556939E+01 0.34587856679E+01 0.33143595511E+01 0.34694169898E+01 0.39404925194E+01
 0.47792605104E+01 0.60397544831E+01 0.77164026003E+01 0.96663797061E+01 0.11513119491E+02
 0.12333965909E+02 0.12416237809E+02 0.11912517027E+02 0.10253662494E+02 0.84846050681E+01
 0.77451027763E+01 0.84754688330E+01 0.10111516801E+02 0.11499381172E+02 0.11702873107E+02
 0.10594431298E+02 0.88195870338E+01 0.70470758419E+01 0.55557763628E+01 0.44589671814E+01
 0.37555561175E+01 0.33951309678E+01 0.33307316283E+01 0.35467585529E+01 0.40657778759E+01
 0.49371439175E+01 0.62043625518E+01 0.78482777950E+01 0.97225476999E+01 0.11493713959E+02
 0.11266924180E+02 0.12333418348E+02 0.12364286317E+02 0.11585919475E+02 0.10744604376E+02
 0.10550288553E+02 0.11132518783E+02 0.11944881417E+02 0.12190925462E+02 0.11425625117E+02
 0.98624775935E+01 0.80921221638E+01 0.64644811347E+01 0.51583434296E+01 0.42297549394E+01
 0.36545561656E+01 0.33832372697E+01 0.33789070559E+01 0.36346041437E+01 0.41748036263E+01
 0.50428685253E+01 0.62710447732E+01 0.78316264790E+01 0.95868825199E+01 0.92689386536E+01
 0.10830181188E+02 0.12011644413E+02 0.12506555608E+02 0.12444217416E+02 0.12271504334E+02
 0.12349405163E+02 0.12629709754E+02 0.12690436115E+02 0.12098779824E+02 0.10792197851E+02
 0.91322016427E+01 0.74672726940E+01 0.60142654676E+01 0.48869683948E+01 0.41034670067E+01
 0.36298996438E+01 0.34231321300E+01 0.34561036239E+01 0.37273169207E+01 0.42594053398E+01
 0.50874699438E+01 0.62335886033E+01 0.76672937484E+01 0.73706741263E+01 0.87955321363E+01
 0.10211793545E+02 0.11426307681E+02 0.12232188193E+02 0.12650016945E+02 0.12877601617E+02
 0.13035908599E+02 0.13012503824E+02 0.12554337091E+02 0.11527359808E+02 0.10090789161E+02
 0.85080948055E+01 0.70005490976E+01 0.57270148587E+01 0.47558539917E+01 0.40852604654E+01
 0.36820495914E+01 0.35124811432E+01 0.35577751911E+01 0.38186108053E+01 0.43130418418E+01
 0.50673388194E+01 0.60958807766E+01 0.58712998938E+01 0.69693616099E+01 0.82072835645E+01
 0.94689185239E+01 0.10627955931E+02 0.11571206694E+02 0.12242141521E+02 0.12666145791E+02
 0.12828446714E+02 0.12624041174E+02 0.11954163350E+02 0.10864401704E+02 0.95053765314E+01
 0.80695720031E+01 0.67373423154E+01 0.56244235613E+01 0.47731189895E+01 0.41763826333E+01
 0.38087078048E+01 0.36467064992E+01 0.36777086978E+01 0.39019062610E+01 0.43314614377E+01
 0.49847090434E+01 0.48472272088E+01 0.55805828793E+01 0.64990949245E+01 0.75534434999E+01
 0.86621133891E+01 0.97321994314E+01 0.10682280158E+02 0.11446594440E+02 0.11961824413E+02
 0.12154340662E+02 0.11950881849E+02 0.11328442211E+02 0.10345418631E+02 0.91385203710E+01
 0.78773268601E+01 0.67076063803E+01 0.57179103872E+01 0.49406902360E+01 0.43741791561E+01
 0.40046683352E+01 0.38188804675E+01 0.38082633401E+01 0.39709352974E+01 0.43131994180E+01
 0.42596888254E+01 0.46668676096E+01 0.52488955732E+01 0.59989277513E+01 0.68858866091E+01
 0.78552082980E+01 0.88397835142E+01 0.97700826930E+01 0.10573405475E+02 0.11166359366E+02
 0.11457763841E+02 0.11373992885E+02 0.10896506019E+02 0.10084000390E+02 0.90589625794E+01
 0.79650806611E+01 0.69228258379E+01 0.60075112626E+01 0.52535846564E+01 0.46714277337E+01
 0.42613699838E+01 0.40197056079E+01 0.39407816873E+01 0.40202903440E+01 0.40460009777E+01
 0.41751662225E+01 0.44583830654E+01 0.49025570740E+01 0.55066238013E+01 0.62536348620E+01
 0.71101363187E+01 0.80304505271E+01 0.89579931093E+01 0.98197776322E+01 0.10521816171E+02
 0.10959629895E+02 0.11048824507E+02 0.10761241989E+02 0.10141845316E+02 0.92928468186E+01
 0.83354562566E+01 0.73740080108E+01 0.64804735620E+01 0.56987206055E+01 0.50553949289E+01
 0.45663279927E+01 0.42374693100E+01 0.40660556955E+01 0.41750485816E+01 0.40459818023E+01
 0.40661543840E+01 0.42375662137E+01 0.45663035171E+01 0.50552817364E+01 0.56986697597E+01
 0.64805471265E+01 0.73740866011E+01 0.83354219419E+01 0.92927676490E+01 0.10141856952E+02
 0.10761317524E+02 0.11048824497E+02 0.10959549309E+02 0.10521798539E+02 0.98198661199E+01
 0.89580465609E+01 0.80303723220E+01 0.71100360758E+01 0.62536630932E+01 0.55067492654E+01
 0.49026173598E+01 0.44583055101E+01 0.46668428732E+01 0.42595789488E+01 0.40202179613E+01
 0.39408312262E+01 0.40198200003E+01 0.42614022384E+01 0.46713334138E+01 0.52534990273E+01
 0.60075557090E+01 0.69229186675E+01 0.79650704319E+01 0.90588784275E+01 0.10083994589E+02
 0.10896585170E+02 0.11374008435E+02 0.11457679099E+02 0.11166320518E+02 0.10573489835E+02
 0.97701610228E+01 0.88397281727E+01 0.78550944641E+01 0.68858734074E+01 0.59990320303E+01
 0.52489872292E+01 0.55806872725E+01 0.48472494949E+01 0.43131123707E+01 0.39708305713E+01
 0.38082706853E+01 0.38189976807E+01 0.40047341524E+01 0.43740992574E+01 0.49405936291E+01
 0.57179487876E+01 0.67077033783E+01 0.78773119683E+01 0.91384267848E+01 0.10345420166E+02
 0.11328538884E+02 0.11950896368E+02 0.12154233732E+02 0.11961770124E+02 0.11446687173E+02
 0.10682380240E+02 0.97321594752E+01 0.86619926679E+01 0.75533989099E+01 0.64991706584E+01
 0.69693698642E+01 0.58713900973E+01 0.49847948420E+01 0.43314273047E+01 0.39017759202E+01
 0.36776607597E+01 0.36468171779E+01 0.38088093526E+01 0.41763227511E+01 0.47730124501E+01
 0.56244514007E+01 0.67374405010E+01 0.80695587710E+01 0.95052818509E+01 0.10864404063E+02
 0.11954260969E+02 0.12624056114E+02 0.12828341130E+02 0.12666083723E+02 0.12242213098E+02
 0.11571301531E+02 0.10627951546E+02 0.94688336320E+01 0.82072119838E+01 0.87954333445E+01
 0.73706180839E+01 0.60959596850E+01 0.50674759041E+01 0.43130432633E+01 0.38184632808E+01
 0.35577040763E+01 0.35125972646E+01 0.36821597211E+01 0.40851938342E+01 0.47557483694E+01
 0.57270595649E+01 0.70006516763E+01 0.85080637709E+01 0.10090682217E+02 0.11527369691E+02
 0.12554445285E+02 0.13012522647E+02 0.13035802888E+02 0.12877524866E+02 0.12650058210E+02
 0.12232276949E+02 0.11426347448E+02 0.10211750236E+02 0.10830207327E+02 0.92688398674E+01
 0.76671731211E+01 0.62336323707E+01 0.50876370171E+01 0.42594475115E+01 0.37271778258E+01
 0.34560213127E+01 0.34232361309E+01 0.36300006049E+01 0.41034047402E+01 0.48868824854E+01
 0.60143178861E+01 0.74673570893E+01 0.91321579203E+01 0.10792104241E+02 0.12098796858E+02
 0.12690525042E+02 0.12629722820E+02 0.12349329521E+02 0.12271437997E+02 0.12444210142E+02
 0.12506602485E+02 0.12011722282E+02 0.12333543823E+02 0.11267015316E+02 0.95867770748E+01
 0.78314550361E+01 0.62710717249E+01 0.50430567577E+01 0.41748597744E+01 0.36344664569E+01
 0.33788328768E+01 0.33833452632E+01 0.36546433801E+01 0.42296832713E+01 0.51582687525E+01
 0.64645426587E+01 0.80921999040E+01 0.98624328515E+01 0.11425538191E+02 0.12190927312E+02
 0.11944944110E+02 0.11132548212E+02 0.10550263715E+02 0.10744539957E+02 0.11585844862E+02
 0.12364291654E+02 0.11912470642E+02 0.12416377320E+02 0.11493852212E+02 0.97224617701E+01
 0.78480950287E+01 0.62043708119E+01 0.49373138749E+01 0.40658302273E+01 0.35466478427E+01
 0.33306870840E+01 0.33952259063E+01 0.37556068032E+01 0.44588956333E+01 0.55557338848E+01
 0.70471412748E+01 0.88196379527E+01 0.10594386092E+02 0.11702812251E+02 0.11499373885E+02
 0.10111536930E+02 0.84754995589E+01 0.77451354433E+01 0.84845664357E+01 0.10253538551E+02
 0.87963659665E+01 0.11352340625E+02 0.12334116349E+02 0.11513294585E+02 0.96663096354E+01
 0.77162177421E+01 0.60397535937E+01 0.47794131775E+01 0.39405370710E+01 0.34693249408E+01
 0.33143326625E+01 0.34588663976E+01 0.39293876597E+01 0.47815185899E+01 0.60588978785E+01
 0.77246511645E+01 0.95913445179E+01 0.11149405781E+02 0.11425255888E+02 0.99436529556E+01
 0.73092683952E+01 0.49818045864E+01 0.43829147441E+01 0.59435513709E+01 0.37158474843E+01
 0.76230289100E+01 0.10900700092E+02 0.12167759766E+02 0.11343506415E+02 0.94267562144E+01
 0.74494480580E+01 0.57925978321E+01 0.45825815656E+01 0.38080254891E+01 0.34071761656E+01
 0.33307035883E+01 0.35717014392E+01 0.41688372807E+01 0.51828653996E+01 0.66411256765E+01
 0.84553493425E+01 0.10331799922E+02 0.11397067343E+02 0.10580711612E+02 0.77308211912E+01
 0.39957217517E+01 0.12943301167E+01 0.11546988307E+01 -.11985560324E+01 0.23584086825E+01
 0.70653303086E+01 0.10706643383E+02 0.11966202876E+02 0.11004994045E+02 0.90282108482E+01
 0.70734976023E+01 0.54851546026E+01 0.43627336969E+01 0.36774998489E+01 0.33637573675E+01
 0.33788467288E+01 0.37283647145E+01 0.44625662382E+01 0.56423332241E+01 0.72695766712E+01
 0.91957012281E+01 0.10948741720E+02 0.11330444669E+02 0.93656602280E+01 0.53220053023E+01
 0.86321396336E+00 -.17887250759E+01 0.14891754733E+01 0.23588863823E+01 0.54761235008E+01
 0.91781948610E+01 0.11646878152E+02 0.11988657369E+02 0.10594618698E+02 0.86010588262E+01
 0.67460197600E+01 0.52774401586E+01 0.42578255670E+01 0.36465817139E+01 0.33802764480E+01
 0.34230376957E+01 0.37860587305E+01 0.45207757995E+01 0.56840563864E+01 0.72721958053E+01
 0.91392030282E+01 0.10865375568E+02 0.11406828559E+02 0.99346786125E+01 0.67412206401E+01
 0.33056234231E+01 0.22151012960E+01 0.79308198282E+00 0.22153416005E+01 0.56905084497E+01
 0.93657344803E+01 0.11503731768E+02 0.11471832399E+02 0.98992427455E+01 0.79470521289E+01
 0.62087086192E+01 0.48826019251E+01 0.40008798869E+01 0.35123556225E+01 0.33576129655E+01
 0.35123592845E+01 0.40008605648E+01 0.48826011197E+01 0.62087568725E+01 0.79470532922E+01
 0.98991398839E+01 0.11471785849E+02 0.11503875229E+02 0.93658744580E+01 0.56903880815E+01
 0.54760367099E+01 0.23586448605E+01 0.14891399564E+01 0.33058217917E+01 0.67413462885E+01
 0.99346006781E+01 0.11406729901E+02 0.10865390343E+02 0.91392503451E+01 0.72721984298E+01
 0.56840505621E+01 0.45207791452E+01 0.37860441382E+01 0.34230307115E+01 0.33803036829E+01
 0.36465819969E+01 0.42577737674E+01 0.52774424728E+01 0.67461104257E+01 0.86010703903E+01
 0.10594470480E+02 0.11988572685E+02 0.11647039511E+02 0.91783835363E+01 0.95096395475E+01
 0.62001491260E+01 0.37160138801E+01 0.33950895926E+01 0.53223948435E+01 0.82911119243E+01
 0.10621469403E+02 0.11225224198E+02 0.10163224584E+02 0.83665044823E+01 0.66206472499E+01
 0.52050175559E+01 0.42129168402E+01 0.36247455618E+01 0.33832064766E+01 0.34474323658E+01
 0.38187889644E+01 0.45417884273E+01 0.56793098689E+01 0.72573364947E+01 0.91848714455E+01
 0.11175184013E+02 0.12427710966E+02 0.11928267080E+02 0.12351490761E+02 0.10314463882E+02
 0.76906185182E+01 0.59436128625E+01 0.60230805863E+01 0.77310194943E+01 0.98840050055E+01
 0.11138602131E+02 0.10855615340E+02 0.93925733818E+01 0.76235942463E+01 0.60293062131E+01
 0.47975318572E+01 0.39746129272E+01 0.35249316041E+01 0.33951935931E+01 0.35560986497E+01
 0.40196442390E+01 0.48346906737E+01 0.60585721353E+01 0.77007311877E+01 0.96480240564E+01
 0.11597429321E+02 0.12779524657E+02 0.12999723970E+02 0.12820983234E+02 0.11375533167E+02
 0.95560783053E+01 0.84845273188E+01 0.87351888116E+01 0.99436490794E+01 0.11098858154E+02
 0.11280911048E+02 0.10275276363E+02 0.86213781516E+01 0.69480955592E+01 0.55277387130E+01
 0.44806518133E+01 0.38164232512E+01 0.34912046638E+01 0.34589431169E+01 0.37012670727E+01
 0.42374368177E+01 0.51158780242E+01 0.63843668036E+01 0.80362280920E+01 0.99453805118E+01
 0.11820172592E+02 0.11808836104E+02 0.13018932055E+02 0.13173311957E+02 0.12377450647E+02
 0.11314003496E+02 0.10744416505E+02 0.10940558453E+02 0.11499206332E+02 0.11682016911E+02
 0.10997721028E+02 0.95618166240E+01 0.79073298946E+01 0.63740002283E+01 0.51389142570E+01
 0.42674060278E+01 0.37445113675E+01 0.35250768546E+01 0.35718921027E+01 0.38754739852E+01
 0.44582738609E+01 0.53638624464E+01 0.66280564078E+01 0.82309054842E+01 0.10044124843E+02
 0.99299199111E+01 0.11546716949E+02 0.12771561601E+02 0.13240362472E+02 0.13016640854E+02
 0.12545918874E+02 0.12271267841E+02 0.12265440045E+02 0.12190667512E+02 0.11614089684E+02
 0.10403854164E+02 0.88531347231E+01 0.72947278288E+01 0.59317899479E+01 0.48801807246E+01
 0.41659585888E+01 0.37613324252E+01 0.36250047867E+01 0.37286446397E+01 0.40687089144E+01
 0.46667836047E+01 0.55583343888E+01 0.67669407237E+01 0.82641812181E+01 0.81315340802E+01
 0.96102644116E+01 0.11048789549E+02 0.12231520090E+02 0.12918432912E+02 0.13106085357E+02
 0.13024342060E+02 0.12877354680E+02 0.12640170463E+02 0.12098514919E+02 0.11091524145E+02
 0.97237909901E+01 0.82373458923E+01 0.68288571426E+01 0.56476981611E+01 0.47640297617E+01
 0.41804421530E+01 0.38659804005E+01 0.37863324362E+01 0.39208194484E+01 0.42685931482E+01
 0.48471527154E+01 0.56824477925E+01 0.67876427108E+01 0.66882323120E+01 0.78454773445E+01
 0.91140064298E+01 0.10360660296E+02 0.11438330970E+02 0.12215347134E+02 0.12636276261E+02
 0.12768548439E+02 0.12665945532E+02 0.12280355784E+02 0.11527136282E+02 0.10432229836E+02
 0.91298141328E+01 0.77825972955E+01 0.65508067195E+01 0.55423397667E+01 0.47982931925E+01
 0.43113383423E+01 0.40542851738E+01 0.40011255573E+01 0.41369720115E+01 0.44609288431E+01
 0.49846499295E+01 0.57250765412E+01 0.56823201368E+01 0.64785138788E+01 0.74336901714E+01
 0.84872027332E+01 0.95433424877E+01 0.10495403887E+02 0.11256473252E+02 0.11771823723E+02
 0.12014425775E+02 0.11961695521E+02 0.11579048063E+02 0.10864246636E+02 0.98720226133E+01
 0.87179727369E+01 0.75483553815E+01 0.64923285052E+01 0.56292129620E+01 0.49858244302E+01
 0.45552044896E+01 0.43183993996E+01 0.42579305077E+01 0.43629511541E+01 0.46308476276E+01
 0.50673137925E+01 0.50874816061E+01 0.55581157860E+01 0.61785033914E+01 0.69346303463E+01
 0.77861968756E+01 0.86684621787E+01 0.95062889918E+01 0.10230240919E+02 0.10782484536E+02
 0.11111189324E+02 0.11166308212E+02 0.10910796618E+02 0.10345343121E+02 0.95270344070E+01
 0.85625812406E+01 0.75761770704E+01 0.66719512649E+01 0.59129520116E+01 0.53232973429E+01
 0.49036809008E+01 0.46461951951E+01 0.45417990236E+01 0.45826784612E+01 0.47642316544E+01
 0.48494168800E+01 0.50429476581E+01 0.53636417955E+01 0.58152870247E+01 0.63918263579E+01
 0.70698704564E+01 0.78091431892E+01 0.85594085555E+01 0.92666168754E+01 0.98728320766E+01
 0.10313411209E+02 0.10521839573E+02 0.10448270182E+02 0.10083968400E+02 0.94740581094E+01
 0.87066666105E+01 0.78837539180E+01 0.70916850401E+01 0.63870134572E+01 0.57993873399E+01
 0.53421728865E+01 0.50206134238E+01 0.48345394054E+01 0.47793581072E+01 0.49371377857E+01
 0.48786937834E+01 0.49372803796E+01 0.51157207894E+01 0.54192899943E+01 0.58482930295E+01
 0.63925977335E+01 0.70312057249E+01 0.77340659091E+01 0.84607963788E+01 0.91553275958E+01
 0.97433173294E+01 0.10141911870E+02 0.10283499769E+02 0.10141832280E+02 0.97433019734E+01
 0.91554137818E+01 0.84608414512E+01 0.77339800333E+01 0.70311088430E+01 0.63926443683E+01
 0.58484379134E+01 0.54193449849E+01 0.51156097304E+01 0.53635725679E+01 0.50427870998E+01
 0.48493538380E+01 0.47794594213E+01 0.48346745364E+01 0.50206137798E+01 0.53420458626E+01
 0.57993081536E+01 0.63870807792E+01 0.70917803367E+01 0.78837288051E+01 0.87065758125E+01
 0.94740603330E+01 0.10084056005E+02 0.10448284804E+02 0.10521750108E+02 0.10313375092E+02
 0.98729266695E+01 0.92666958304E+01 0.85593322267E+01 0.78090090229E+01 0.70698746457E+01
 0.63919771878E+01 0.58153944001E+01 0.61786339652E+01 0.55581078283E+01 0.50873470494E+01
 0.47641192457E+01 0.45827129081E+01 0.45419315598E+01 0.46462493376E+01 0.49035860122E+01
 0.53231976880E+01 0.59129924370E+01 0.66720501146E+01 0.75761650522E+01 0.85624875466E+01
 0.95270305882E+01 0.10345437599E+02 0.10910816912E+02 0.11166207695E+02 0.11111139455E+02
 0.10782585148E+02 0.10230343547E+02 0.95062292315E+01 0.86683145868E+01 0.77861604858E+01
 0.69347515441E+01 0.74337499653E+01 0.64786512133E+01 0.56823871550E+01 0.50672249452E+01
 0.46306931034E+01 0.43629201717E+01 0.42580594289E+01 0.43184957785E+01 0.45551271146E+01
 0.49857076861E+01 0.56292456788E+01 0.64924392092E+01 0.75483451207E+01 0.87178658283E+01
 0.98720168504E+01 0.10864355761E+02 0.11579075245E+02 0.11961580837E+02 0.12014354430E+02
 0.11771917533E+02 0.11256597003E+02 0.10495381496E+02 0.95432047503E+01 0.84871183163E+01
 0.91138917209E+01 0.78454588235E+01 0.66883465915E+01 0.57252048560E+01 0.49846187372E+01
 0.44607597143E+01 0.41368947428E+01 0.40012413179E+01 0.40543971188E+01 0.43112702264E+01
 0.47981784216E+01 0.55423784939E+01 0.65509170422E+01 0.77825754614E+01 0.91297036731E+01
 0.10432235519E+02 0.11527252597E+02 0.12280377641E+02 0.12665823762E+02 0.12768465492E+02
 0.12636348469E+02 0.12215468856E+02 0.11438352338E+02 0.10360565045E+02 0.11048767933E+02
 0.96101283332E+01 0.81314258867E+01 0.67877211543E+01 0.56826278064E+01 0.48471746733E+01
 0.42684192012E+01 0.39207150148E+01 0.37864416462E+01 0.38660967712E+01 0.41803739766E+01
 0.47639192653E+01 0.56477450929E+01 0.68289651699E+01 0.82373164362E+01 0.97236821827E+01
 0.11091531880E+02 0.12098624629E+02 0.12640196592E+02 0.12877251157E+02 0.13024247284E+02
 0.13106102432E+02 0.12918529927E+02 0.12231602714E+02 0.12771695342E+02 0.11546772470E+02
 0.99297834592E+01 0.82640091549E+01 0.67669826836E+01 0.55585320563E+01 0.46668328782E+01
 0.40685479382E+01 0.37285475559E+01 0.36251104943E+01 0.37614298370E+01 0.41658827611E+01
 0.48800894530E+01 0.59318514564E+01 0.72948226936E+01 0.88530922602E+01 0.10403752873E+02
 0.11614097922E+02 0.12190760458E+02 0.12265472584E+02 0.12271199433E+02 0.12545821040E+02