   2   2   0   0
  0.2001288E+02  0.3839590E-09  0.3839590E-09  0.3839590E-09  0.5000000E-15
  1.000000000000000E-004
  CAR 
 unknown system                          
     16.26054769     -7.92710186  301      6.15166386      1.00000000
     -7.927  0.0000E+00  0.0000E+00
     -7.846  0.0000E+00  0.0000E+00
     -7.766  0.0000E+00  0.0000E+00
     -7.685  0.0000E+00  0.0000E+00
     -7.605  0.0000E+00  0.0000E+00
     -7.524  0.0000E+00  0.0000E+00
     -7.443  0.0000E+00  0.0000E+00
     -7.363  0.0000E+00  0.0000E+00
     -7.282  0.0000E+00  0.0000E+00
     -7.201  0.0000E+00  0.0000E+00
     -7.121  0.0000E+00  0.0000E+00
     -7.040  0.9180E-16  0.7401E-17
     -6.960  0.7298E-14  0.5958E-15
     -6.879  0.4288E-12  0.3517E-13
     -6.798  0.1829E-10  0.1510E-11
     -6.718  0.5663E-09  0.4717E-10
     -6.637  0.1274E-07  0.1074E-08
     -6.556  0.2083E-06  0.1787E-07
     -6.476  0.2475E-05  0.2175E-06
     -6.395  0.2140E-04  0.1943E-05
     -6.315  0.1347E-03  0.1280E-04
     -6.234  0.6169E-03  0.6254E-04
     -6.153  0.2058E-02  0.2284E-03
     -6.073  0.5001E-02  0.6316E-03
     -5.992  0.8856E-02  0.1346E-02
     -5.911  0.1144E-01  0.2268E-02
     -5.831  0.1087E-01  0.3144E-02
     -5.750  0.8057E-02  0.3794E-02
     -5.670  0.6531E-02  0.4321E-02
     -5.589  0.9908E-02  0.5119E-02
     -5.508  0.1911E-01  0.6661E-02
     -5.428  0.3000E-01  0.9079E-02
     -5.347  0.3486E-01  0.1189E-01
     -5.266  0.2989E-01  0.1430E-01
     -5.186  0.2009E-01  0.1592E-01
     -5.105  0.1446E-01  0.1709E-01
     -5.025  0.1785E-01  0.1853E-01
     -4.944  0.2738E-01  0.2073E-01
     -4.863  0.3451E-01  0.2352E-01
     -4.783  0.3256E-01  0.2614E-01
     -4.702  0.2376E-01  0.2806E-01
     -4.621  0.1699E-01  0.2943E-01
     -4.541  0.1919E-01  0.3097E-01
     -4.460  0.2987E-01  0.3338E-01
     -4.380  0.4142E-01  0.3672E-01
     -4.299  0.4485E-01  0.4034E-01
     -4.218  0.3895E-01  0.4348E-01
     -4.138  0.3348E-01  0.4618E-01
     -4.057  0.4019E-01  0.4942E-01
     -3.976  0.5974E-01  0.5423E-01
     -3.896  0.7940E-01  0.6064E-01
     -3.815  0.8546E-01  0.6753E-01
     -3.735  0.7563E-01  0.7362E-01
     -3.654  0.5668E-01  0.7819E-01
     -3.573  0.3626E-01  0.8112E-01
     -3.493  0.2083E-01  0.8280E-01
     -3.412  0.1524E-01  0.8402E-01
     -3.331  0.2010E-01  0.8564E-01
     -3.251  0.2994E-01  0.8806E-01
     -3.170  0.3606E-01  0.9097E-01
     -3.090  0.3481E-01  0.9377E-01
     -3.009  0.3244E-01  0.9639E-01
     -2.928  0.3850E-01  0.9949E-01
     -2.848  0.5535E-01  0.1040E+00
     -2.767  0.7595E-01  0.1101E+00
     -2.686  0.8856E-01  0.1172E+00
     -2.606  0.8359E-01  0.1240E+00
     -2.525  0.6165E-01  0.1289E+00
     -2.445  0.3455E-01  0.1317E+00
     -2.364  0.1444E-01  0.1329E+00
     -2.283  0.4449E-02  0.1332E+00
     -2.203  0.1005E-02  0.1333E+00
     -2.122  0.1658E-03  0.1333E+00
     -2.041  0.1993E-04  0.1333E+00
     -1.961  0.1745E-05  0.1333E+00
     -1.880  0.1159E-06  0.1333E+00
     -1.800  0.1103E-06  0.1333E+00
     -1.719  0.1671E-05  0.1333E+00
     -1.638  0.1935E-04  0.1333E+00
     -1.558  0.1637E-03  0.1333E+00
     -1.477  0.1014E-02  0.1334E+00
     -1.396  0.4619E-02  0.1338E+00
     -1.316  0.1556E-01  0.1351E+00
     -1.235  0.3916E-01  0.1382E+00
     -1.155  0.7472E-01  0.1442E+00
     -1.074  0.1106E+00  0.1532E+00
     -0.993  0.1312E+00  0.1637E+00
     -0.913  0.1293E+00  0.1742E+00
     -0.832  0.1088E+00  0.1829E+00
     -0.751  0.7834E-01  0.1892E+00
     -0.671  0.4710E-01  0.1930E+00
     -0.590  0.2285E-01  0.1949E+00
     -0.510  0.8793E-02  0.1956E+00
     -0.429  0.3387E-02  0.1959E+00
     -0.348  0.4340E-02  0.1962E+00
     -0.268  0.1227E-01  0.1972E+00
     -0.187  0.2964E-01  0.1996E+00
     -0.106  0.5436E-01  0.2040E+00
     -0.026  0.7480E-01  0.2100E+00
      0.055  0.7667E-01  0.2162E+00
      0.135  0.5820E-01  0.2209E+00
      0.216  0.3257E-01  0.2235E+00
      0.297  0.1338E-01  0.2246E+00
      0.377  0.4045E-02  0.2249E+00
      0.458  0.1018E-02  0.2250E+00
      0.539  0.8811E-03  0.2251E+00
      0.619  0.3026E-02  0.2253E+00
      0.700  0.8937E-02  0.2260E+00
      0.780  0.1941E-01  0.2276E+00
      0.861  0.3116E-01  0.2301E+00
      0.942  0.3813E-01  0.2332E+00
      1.022  0.3875E-01  0.2363E+00
      1.103  0.3804E-01  0.2394E+00
      1.184  0.3896E-01  0.2425E+00
      1.264  0.3724E-01  0.2455E+00
      1.345  0.2910E-01  0.2479E+00
      1.425  0.1870E-01  0.2494E+00
      1.506  0.1508E-01  0.2506E+00
      1.587  0.2585E-01  0.2527E+00
      1.667  0.5252E-01  0.2569E+00
      1.748  0.8463E-01  0.2637E+00
      1.829  0.1016E+00  0.2719E+00
      1.909  0.9040E-01  0.2792E+00
      1.990  0.5986E-01  0.2840E+00
      2.070  0.3061E-01  0.2865E+00
      2.151  0.1642E-01  0.2878E+00
      2.232  0.2059E-01  0.2895E+00
      2.312  0.4208E-01  0.2929E+00
      2.393  0.7578E-01  0.2990E+00
      2.474  0.1088E+00  0.3078E+00
      2.554  0.1249E+00  0.3178E+00
      2.635  0.1183E+00  0.3274E+00
      2.715  0.1011E+00  0.3355E+00
      2.796  0.9024E-01  0.3428E+00
      2.877  0.8886E-01  0.3500E+00
      2.957  0.8860E-01  0.3571E+00
      3.038  0.8660E-01  0.3641E+00
      3.119  0.8553E-01  0.3710E+00
      3.199  0.8168E-01  0.3776E+00
      3.280  0.7082E-01  0.3833E+00
      3.360  0.6195E-01  0.3883E+00
      3.441  0.6891E-01  0.3938E+00
      3.522  0.8959E-01  0.4011E+00
      3.602  0.1055E+00  0.4096E+00
      3.683  0.1052E+00  0.4181E+00
      3.764  0.9952E-01  0.4261E+00
      3.844  0.1035E+00  0.4344E+00
      3.925  0.1121E+00  0.4435E+00
      4.005  0.1077E+00  0.4521E+00
      4.086  0.8768E-01  0.4592E+00
      4.167  0.6842E-01  0.4647E+00
      4.247  0.6121E-01  0.4697E+00
      4.328  0.6223E-01  0.4747E+00
      4.409  0.6618E-01  0.4800E+00
      4.489  0.7340E-01  0.4859E+00
      4.570  0.8108E-01  0.4925E+00
      4.650  0.8096E-01  0.4990E+00
      4.731  0.6952E-01  0.5046E+00
      4.812  0.5270E-01  0.5089E+00
      4.892  0.3980E-01  0.5121E+00
      4.973  0.3586E-01  0.5150E+00
      5.054  0.3745E-01  0.5180E+00
      5.134  0.3604E-01  0.5209E+00
      5.215  0.2779E-01  0.5231E+00
      5.295  0.1771E-01  0.5245E+00
      5.376  0.1310E-01  0.5256E+00
      5.457  0.1588E-01  0.5269E+00
      5.537  0.2143E-01  0.5286E+00
      5.618  0.2310E-01  0.5305E+00
      5.699  0.1842E-01  0.5320E+00
      5.779  0.1072E-01  0.5328E+00
      5.860  0.4550E-02  0.5332E+00
      5.940  0.1407E-02  0.5333E+00
      6.021  0.3167E-03  0.5333E+00
      6.102  0.5220E-04  0.5333E+00
      6.182  0.9835E-05  0.5333E+00
      6.263  0.3519E-04  0.5333E+00
      6.344  0.2400E-03  0.5334E+00
      6.424  0.1209E-02  0.5335E+00
      6.505  0.4439E-02  0.5338E+00
      6.585  0.1187E-01  0.5348E+00
      6.666  0.2313E-01  0.5366E+00
      6.747  0.3289E-01  0.5393E+00
      6.827  0.3438E-01  0.5421E+00
      6.908  0.2753E-01  0.5443E+00
      6.989  0.2044E-01  0.5459E+00
      7.069  0.2100E-01  0.5476E+00
      7.150  0.2872E-01  0.5499E+00
      7.230  0.3554E-01  0.5528E+00
      7.311  0.3483E-01  0.5556E+00
      7.392  0.2894E-01  0.5579E+00
      7.472  0.2595E-01  0.5600E+00
      7.553  0.3125E-01  0.5626E+00
      7.634  0.4448E-01  0.5661E+00
      7.714  0.6131E-01  0.5711E+00
      7.795  0.7645E-01  0.5772E+00
      7.875  0.8768E-01  0.5843E+00
      7.956  0.9659E-01  0.5921E+00
      8.037  0.1041E+00  0.6005E+00
      8.117  0.1089E+00  0.6093E+00
      8.198  0.1101E+00  0.6182E+00
      8.279  0.1054E+00  0.6267E+00
      8.359  0.9252E-01  0.6341E+00
      8.440  0.7749E-01  0.6404E+00
      8.520  0.7431E-01  0.6464E+00
      8.601  0.9100E-01  0.6537E+00
      8.682  0.1196E+00  0.6633E+00
      8.762  0.1392E+00  0.6746E+00
      8.843  0.1313E+00  0.6851E+00
      8.924  0.9682E-01  0.6930E+00
      9.004  0.5604E-01  0.6975E+00
      9.085  0.3030E-01  0.6999E+00
      9.166  0.3004E-01  0.7023E+00
      9.246  0.5682E-01  0.7069E+00
      9.327  0.1033E+00  0.7152E+00
      9.407  0.1498E+00  0.7273E+00
      9.488  0.1735E+00  0.7413E+00
      9.569  0.1655E+00  0.7547E+00
      9.649  0.1359E+00  0.7656E+00
      9.730  0.1017E+00  0.7738E+00
      9.811  0.7546E-01  0.7799E+00
      9.891  0.6354E-01  0.7850E+00
      9.972  0.6717E-01  0.7904E+00
     10.052  0.8155E-01  0.7970E+00
     10.133  0.9667E-01  0.8048E+00
     10.214  0.1022E+00  0.8130E+00
     10.294  0.9432E-01  0.8207E+00
     10.375  0.7845E-01  0.8270E+00
     10.456  0.6413E-01  0.8322E+00
     10.536  0.5778E-01  0.8368E+00
     10.617  0.5888E-01  0.8416E+00
     10.697  0.6347E-01  0.8467E+00
     10.778  0.7083E-01  0.8524E+00
     10.859  0.8147E-01  0.8590E+00
     10.939  0.9118E-01  0.8663E+00
     11.020  0.9653E-01  0.8741E+00
     11.101  0.1009E+00  0.8822E+00
     11.181  0.1070E+00  0.8908E+00
     11.262  0.1108E+00  0.8998E+00
     11.342  0.1065E+00  0.9084E+00
     11.423  0.9033E-01  0.9156E+00
     11.504  0.6555E-01  0.9209E+00
     11.584  0.4522E-01  0.9246E+00
     11.665  0.4459E-01  0.9282E+00
     11.746  0.6658E-01  0.9335E+00
     11.826  0.9556E-01  0.9412E+00
     11.907  0.1096E+00  0.9501E+00
     11.987  0.1033E+00  0.9584E+00
     12.068  0.9160E-01  0.9658E+00
     12.149  0.8494E-01  0.9726E+00
     12.229  0.7617E-01  0.9788E+00
     12.310  0.5682E-01  0.9834E+00
     12.391  0.3242E-01  0.9860E+00
     12.471  0.1405E-01  0.9871E+00
     12.552  0.6135E-02  0.9876E+00
     12.632  0.7341E-02  0.9882E+00
     12.713  0.1554E-01  0.9895E+00
     12.794  0.2703E-01  0.9916E+00
     12.874  0.3492E-01  0.9944E+00
     12.955  0.3468E-01  0.9972E+00
     13.036  0.3176E-01  0.9998E+00
     13.116  0.3873E-01  0.1003E+01
     13.197  0.6179E-01  0.1008E+01
     13.277  0.9003E-01  0.1015E+01
     13.358  0.1019E+00  0.1023E+01
     13.439  0.8660E-01  0.1030E+01
     13.519  0.5609E-01  0.1035E+01
     13.600  0.3035E-01  0.1037E+01
     13.681  0.1784E-01  0.1039E+01
     13.761  0.1386E-01  0.1040E+01
     13.842  0.1185E-01  0.1041E+01
     13.922  0.1139E-01  0.1042E+01
     14.003  0.1721E-01  0.1043E+01
     14.084  0.3285E-01  0.1046E+01
     14.164  0.5372E-01  0.1050E+01
     14.245  0.6689E-01  0.1056E+01
     14.326  0.6212E-01  0.1061E+01
     14.406  0.4289E-01  0.1064E+01
     14.487  0.2198E-01  0.1066E+01
     14.567  0.8345E-02  0.1066E+01
     14.648  0.2343E-02  0.1067E+01
     14.729  0.4853E-03  0.1067E+01
     14.809  0.7397E-04  0.1067E+01
     14.890  0.8279E-05  0.1067E+01
     14.971  0.6789E-06  0.1067E+01
     15.051  0.4072E-07  0.1067E+01
     15.132  0.1783E-08  0.1067E+01
     15.212  0.5691E-10  0.1067E+01
     15.293  0.1323E-11  0.1067E+01
     15.374  0.2236E-13  0.1067E+01
     15.454  0.2754E-15  0.1067E+01
     15.535  0.0000E+00  0.1067E+01
     15.616  0.0000E+00  0.1067E+01
     15.696  0.0000E+00  0.1067E+01
     15.777  0.0000E+00  0.1067E+01
     15.857  0.0000E+00  0.1067E+01
     15.938  0.0000E+00  0.1067E+01
     16.019  0.0000E+00  0.1067E+01
     16.099  0.0000E+00  0.1067E+01
     16.180  0.0000E+00  0.1067E+01
     16.261  0.0000E+00  0.1067E+01
