    2    2   15    1
  0.2001288E+02  0.3839590E-09  0.3839590E-09  0.3839590E-09  0.5000000E-15
  1.000000000000000E-004
  CAR 
 unknown system                          
      8     10      8
 
  0.1250000E+00  0.1250000E+00  0.1250000E+00  0.3125000E-01
    1       -5.925799   1.000000
    2        4.248514   1.000000
    3        5.562107   0.999986
    4        5.562107   0.999986
    5        8.361393   0.000000
    6        8.853210   0.000000
    7        8.853210   0.000000
    8       10.561139   0.000000
 
  0.3750000E+00  0.1250000E+00  0.1250000E+00  0.9375000E-01
    1       -4.878942   1.000000
    2        1.212524   1.000000
    3        3.531041   1.000000
    4        5.072344   1.000000
    5        8.583981   0.000000
    6        9.550954   0.000000
    7        9.738724   0.000000
    8       12.175674   0.000000
 
 -0.3750000E+00  0.1250000E+00  0.1250000E+00  0.9375000E-01
    1       -3.709673   1.000000
    2       -0.913853   1.000000
    3        3.561678   1.000000
    4        4.279430   1.000000
    5        8.058592   0.000000
    6        9.392582   0.000000
    7        9.990509   0.000000
    8       13.266880   0.000000
 
 -0.1250000E+00  0.1250000E+00  0.1250000E+00  0.9375000E-01
    1       -5.388041   1.000000
    2        2.616346   1.000000
    3        4.528202   1.000000
    4        4.604354   1.000000
    5        8.013546   0.000000
    6        9.572363   0.000000
    7       10.348981   0.000000
    8       10.645026   0.000000
 
  0.3750000E+00  0.3750000E+00  0.1250000E+00  0.9375000E-01
    1       -4.336948   1.000000
    2        0.897284   1.000000
    3        3.169362   1.000000
    4        3.632078   1.000000
    5        7.214460   0.000000
    6        8.770407   0.000000
    7       11.889611   0.000000
    8       12.170998   0.000000
 
 -0.3750000E+00  0.3750000E+00  0.1250000E+00  0.1875000E+00
    1       -2.659379   1.000000
    2       -1.096876   1.000000
    3        1.776295   1.000000
    4        2.878518   1.000000
    5        8.260997   0.000000
    6       10.168940   0.000000
    7       11.159749   0.000000
    8       13.337456   0.000000
 
 -0.1250000E+00  0.3750000E+00  0.1250000E+00  0.1875000E+00
    1       -3.910538   1.000000
    2       -0.005120   1.000000
    3        2.517837   1.000000
    4        3.912253   1.000000
    5        8.750435   0.000000
    6        9.428938   0.000000
    7       10.905072   0.000000
    8       11.835209   0.000000
 
 -0.3750000E+00 -0.3750000E+00  0.1250000E+00  0.9375000E-01
    1       -2.835715   1.000000
    2       -0.994446   1.000000
    3        2.401820   1.000000
    4        3.154643   1.000000
    5        6.757779   0.000010
    6        7.842645   0.000000
    7       14.190321   0.000000
    8       14.262091   0.000000
 
  0.3750000E+00  0.3750000E+00  0.3750000E+00  0.3125000E-01
    1       -4.435189   1.000000
    2       -0.111310   1.000000
    3        4.757990   1.000000
    4        4.757990   1.000000
    5        7.525732   0.000000
    6        9.335353   0.000000
    7        9.335353   0.000000
    8       13.738856   0.000000
 
 -0.3750000E+00  0.3750000E+00  0.3750000E+00  0.9375000E-01
    1       -3.205293   1.000000
    2       -0.805729   1.000000
    3        1.844903   1.000000
    4        3.955764   1.000000
    5        7.714545   0.000000
    6       11.360325   0.000000
    7       11.376100   0.000000
    8       12.857575   0.000000
