    2    2   15    1
  0.2001288E+02  0.3839590E-09  0.3839590E-09  0.3839590E-09  0.5000000E-15
  1.000000000000000E-004
  CAR 
 unknown system                          
      8     10      8
 
  0.1250000E+00  0.1250000E+00  0.1250000E+00  0.3125000E-01
    1       -5.927102   1.000000
    2        4.247237   1.000000
    3        5.560841   0.999985
    4        5.560841   0.999985
    5        8.360103   0.000000
    6        8.852772   0.000000
    7        8.852772   0.000000
    8       10.559084   0.000000
 
  0.3750000E+00  0.1250000E+00  0.1250000E+00  0.9375000E-01
    1       -4.880201   1.000000
    2        1.211228   1.000000
    3        3.529800   1.000000
    4        5.071191   1.000000
    5        8.582576   0.000000
    6        9.550545   0.000000
    7        9.737003   0.000000
    8       12.173262   0.000000
 
 -0.3750000E+00  0.1250000E+00  0.1250000E+00  0.9375000E-01
    1       -3.710830   1.000000
    2       -0.915273   1.000000
    3        3.560414   1.000000
    4        4.278397   1.000000
    5        8.056820   0.000000
    6        9.391085   0.000000
    7        9.989908   0.000000
    8       13.264612   0.000000
 
 -0.1250000E+00  0.1250000E+00  0.1250000E+00  0.9375000E-01
    1       -5.389325   1.000000
    2        2.615067   1.000000
    3        4.527150   1.000000
    4        4.603116   1.000000
    5        8.012000   0.000000
    6        9.571395   0.000000
    7       10.348276   0.000000
    8       10.643225   0.000000
 
  0.3750000E+00  0.3750000E+00  0.1250000E+00  0.9375000E-01
    1       -4.338195   1.000000
    2        0.896057   1.000000
    3        3.168163   1.000000
    4        3.631110   1.000000
    5        7.212408   0.000000
    6        8.768333   0.000000
    7       11.888290   0.000000
    8       12.170173   0.000000
 
 -0.3750000E+00  0.3750000E+00  0.1250000E+00  0.1875000E+00
    1       -2.660533   1.000000
    2       -1.098070   1.000000
    3        1.774872   1.000000
    4        2.877332   1.000000
    5        8.258944   0.000000
    6       10.166640   0.000000
    7       11.158586   0.000000
    8       13.336025   0.000000
 
 -0.1250000E+00  0.3750000E+00  0.1250000E+00  0.1875000E+00
    1       -3.911749   1.000000
    2       -0.006392   1.000000
    3        2.516504   1.000000
    4        3.911150   1.000000
    5        8.748705   0.000000
    6        9.427391   0.000000
    7       10.903406   0.000000
    8       11.833953   0.000000
 
 -0.3750000E+00 -0.3750000E+00  0.1250000E+00  0.9375000E-01
    1       -2.836918   1.000000
    2       -0.995631   1.000000
    3        2.400595   1.000000
    4        3.153704   1.000000
    5        6.755405   0.000010
    6        7.840437   0.000000
    7       14.189508   0.000000
    8       14.260548   0.000000
 
  0.3750000E+00  0.3750000E+00  0.3750000E+00  0.3125000E-01
    1       -4.436411   1.000000
    2       -0.112694   1.000000
    3        4.756891   1.000000
    4        4.756891   1.000000
    5        7.523656   0.000000
    6        9.334822   0.000000
    7        9.334822   0.000000
    8       13.733720   0.000000
 
 -0.3750000E+00  0.3750000E+00  0.3750000E+00  0.9375000E-01
    1       -3.206445   1.000000
    2       -0.807018   1.000000
    3        1.843479   1.000000
    4        3.954769   1.000000
    5        7.712607   0.000000
    6       11.357763   0.000000
    7       11.375541   0.000000
    8       12.855872   0.000000
