       N       E                     dE             d eps       ncg     rms          rms(c)
DAV:   1    -0.777946389481E+00   -0.77795E+00   -0.19750E+03   160   0.376E+02
DAV:   2    -0.108756855672E+02   -0.10098E+02   -0.99903E+01   256   0.558E+01
DAV:   3    -0.109751501660E+02   -0.99465E-01   -0.99465E-01   208   0.707E+00
DAV:   4    -0.109753260636E+02   -0.17590E-03   -0.17590E-03   240   0.275E-01
DAV:   5    -0.109753261742E+02   -0.11062E-06   -0.11078E-06   208   0.677E-03    0.299E+00
DAV:   6    -0.108510272979E+02    0.12430E+00   -0.80608E-02   184   0.147E+00    0.177E+00
DAV:   7    -0.107942716226E+02    0.56756E-01   -0.14856E-01   200   0.213E+00    0.152E-01
DAV:   8    -0.107955749554E+02   -0.13033E-02   -0.37189E-03   160   0.445E-01    0.246E-02
DAV:   9    -0.107956685616E+02   -0.93606E-04   -0.90642E-05   136   0.746E-02
   1 F= -.10795669E+02 E0= -.10795667E+02  d E =-.107957E+02
