 running on    8 total cores
 distrk:  each k-point on    8 cores,    1 groups
 distr:  one band on    1 cores,    8 groups
 using from now: INCAR     
 vasp.5.4.4.18Apr17-6-g9f103f2a35 (build Dec 09 2018 21:25:21) complex          
  
 POSCAR found type information on POSCAR  Si
 POSCAR found :  1 types and       2 ions
 scaLAPACK will be used

 ----------------------------------------------------------------------------- 
|                                                                             |
|           W    W    AA    RRRRR   N    N  II  N    N   GGGG   !!!           |
|           W    W   A  A   R    R  NN   N  II  NN   N  G    G  !!!           |
|           W    W  A    A  R    R  N N  N  II  N N  N  G       !!!           |
|           W WW W  AAAAAA  RRRRR   N  N N  II  N  N N  G  GGG   !            |
|           WW  WW  A    A  R   R   N   NN  II  N   NN  G    G                |
|           W    W  A    A  R    R  N    N  II  N    N   GGGG   !!!           |
|                                                                             |
|      For optimal performance we recommend to set                            |
|        NCORE= 4 - approx SQRT( number of cores)                             |
|      NCORE specifies how many cores store one orbital (NPAR=cpu/NCORE).     |
|      This setting can  greatly improve the performance of VASP for DFT.     |
|      The default,   NCORE=1            might be grossly inefficient         |
|      on modern multi-core architectures or massively parallel machines.     |
|      Do your own testing !!!!                                               |
|      Unfortunately you need to use the default for GW and RPA calculations. |
|      (for HF NCORE is supported but not extensively tested yet)             |
|                                                                             |
 ----------------------------------------------------------------------------- 

 LDA part: xc-table for Pade appr. of Perdew
 POSCAR, INCAR and KPOINTS ok, starting setup
 FFT: planning ...
 WAVECAR not read
 entering main loop
       N       E                     dE             d eps       ncg     rms          rms(c)
DAV:   1    -0.777946389481E+00   -0.77795E+00   -0.19750E+03   160   0.376E+02
DAV:   2    -0.108756855672E+02   -0.10098E+02   -0.99903E+01   256   0.558E+01
DAV:   3    -0.109751501660E+02   -0.99465E-01   -0.99465E-01   208   0.707E+00
DAV:   4    -0.109753260636E+02   -0.17590E-03   -0.17590E-03   240   0.275E-01
DAV:   5    -0.109753261742E+02   -0.11062E-06   -0.11078E-06   208   0.677E-03    0.299E+00
DAV:   6    -0.108510272979E+02    0.12430E+00   -0.80608E-02   184   0.147E+00    0.177E+00
DAV:   7    -0.107942716226E+02    0.56756E-01   -0.14856E-01   200   0.213E+00    0.152E-01
DAV:   8    -0.107955749554E+02   -0.13033E-02   -0.37189E-03   160   0.445E-01    0.246E-02
DAV:   9    -0.107956685616E+02   -0.93606E-04   -0.90642E-05   136   0.746E-02
   1 F= -.10795669E+02 E0= -.10795667E+02  d E =-.107957E+02
 curvature:   0.00 expect dE= 0.000E+00 dE for cont linesearch  0.000E+00
 trial: gam= 0.00000 g(F)=  0.460E-43 g(S)=  0.000E+00 ort = 0.000E+00 (trialstep = 0.100E+01)
 search vector abs. value=  0.100E-09
 reached required accuracy - stopping structural energy minimisation
 writing wavefunctions
