<?xml version="1.0" encoding="ISO-8859-1"?>
<modeling>
 <generator>
  <i name="program" type="string">vasp </i>
  <i name="version" type="string">5.4.4.18Apr17-6-g9f103f2a35  </i>
  <i name="subversion" type="string">(build Dec 09 2018 21:25:21) complex            parallel </i>
  <i name="platform" type="string">IFC18.0.1.163_CrayMPICH7.7.0_MKL18.0.1.163 </i>
  <i name="date" type="string">2019 03 20 </i>
  <i name="time" type="string">09:47:38 </i>
 </generator>
 <incar>
  <i type="string" name="PREC">normal</i>
  <i type="int" name="IBRION">     2</i>
  <i name="EDIFF">      0.00040000</i>
  <i name="EDIFFG">     -0.01000000</i>
  <i type="int" name="NSW">    15</i>
  <i type="int" name="ISIF">     3</i>
  <i name="ENCUT">    200.00000000</i>
  <i type="int" name="NBANDS">     8</i>
  <i type="logical" name="LREAL"> F  </i>
  <i type="int" name="ISMEAR">     0</i>
  <i name="SIGMA">      0.20000000</i>
  <v type="int" name="KPOINT_BSE">    -1     0     0     0</v>
 </incar>
 <structure name="primitive_cell" >
  <crystal>
   <varray name="basis" >
    <v>       0.00000000       2.71500000       2.71500000 </v>
    <v>       2.71500000       0.00000000       2.71500000 </v>
    <v>       2.71500000       2.71500000       0.00000000 </v>
   </varray>
   <i name="volume">     40.02575175 </i>
   <varray name="rec_basis" >
    <v>      -0.18416206       0.18416206       0.18416206 </v>
    <v>       0.18416206      -0.18416206       0.18416206 </v>
    <v>       0.18416206       0.18416206      -0.18416206 </v>
   </varray>
  </crystal>
  <varray name="positions" >
   <v>      -0.50000000      -0.50000000      -0.50000000 </v>
   <v>      -0.25000000      -0.25000000      -0.25000000 </v>
  </varray>
 </structure>
 <varray name="primitive_index" >
  <v type="int" >        1 </v>
  <v type="int" >        2 </v>
 </varray>
 <kpoints>
  <generation param="Monkhorst-Pack">
   <v type="int" name="divisions">       4        4        4 </v>
   <v name="usershift">      0.00000000       0.00000000       0.00000000 </v>
   <v name="genvec1">      0.25000000       0.00000000      -0.00000000 </v>
   <v name="genvec2">      0.00000000       0.25000000       0.00000000 </v>
   <v name="genvec3">     -0.00000000      -0.00000000       0.25000000 </v>
   <v name="shift">      0.50000000       0.50000000       0.50000000 </v>
  </generation>
  <varray name="kpointlist" >
   <v>       0.12500000       0.12500000       0.12500000 </v>
   <v>       0.37500000       0.12500000       0.12500000 </v>
   <v>      -0.37500000       0.12500000       0.12500000 </v>
   <v>      -0.12500000       0.12500000       0.12500000 </v>
   <v>       0.37500000       0.37500000       0.12500000 </v>
   <v>      -0.37500000       0.37500000       0.12500000 </v>
   <v>      -0.12500000       0.37500000       0.12500000 </v>
   <v>      -0.37500000      -0.37500000       0.12500000 </v>
   <v>       0.37500000       0.37500000       0.37500000 </v>
   <v>      -0.37500000       0.37500000       0.37500000 </v>
  </varray>
  <varray name="weights" >
   <v>       0.03125000 </v>
   <v>       0.09375000 </v>
   <v>       0.09375000 </v>
   <v>       0.09375000 </v>
   <v>       0.09375000 </v>
   <v>       0.18750000 </v>
   <v>       0.18750000 </v>
   <v>       0.09375000 </v>
   <v>       0.03125000 </v>
   <v>       0.09375000 </v>
  </varray>
 </kpoints>
 <parameters>
  <separator name="general" >
   <i type="string" name="SYSTEM">unknown system</i>
   <i type="logical" name="LCOMPAT"> F  </i>
  </separator>
  <separator name="electronic" >
   <i type="string" name="PREC">normal</i>
   <i name="ENMAX">    200.00000000</i>
   <i name="ENAUG">    322.06900000</i>
   <i name="EDIFF">      0.00040000</i>
   <i type="int" name="IALGO">    38</i>
   <i type="int" name="IWAVPR">    11</i>
   <i type="int" name="NBANDS">     8</i>
   <i name="NELECT">      8.00000000</i>
   <i type="int" name="TURBO">     0</i>
   <i type="int" name="IRESTART">     0</i>
   <i type="int" name="NREBOOT">     0</i>
   <i type="int" name="NMIN">     0</i>
   <i name="EREF">      0.00000000</i>
   <separator name="electronic smearing" >
    <i type="int" name="ISMEAR">     0</i>
    <i name="SIGMA">      0.20000000</i>
    <i name="KSPACING">      0.50000000</i>
    <i type="logical" name="KGAMMA"> T  </i>
   </separator>
   <separator name="electronic projectors" >
    <i type="logical" name="LREAL"> F  </i>
    <v name="ROPT">      0.00000000</v>
    <i type="int" name="LMAXPAW">  -100</i>
    <i type="int" name="LMAXMIX">     2</i>
    <i type="logical" name="NLSPLINE"> F  </i>
   </separator>
   <separator name="electronic startup" >
    <i type="int" name="ISTART">     0</i>
    <i type="int" name="ICHARG">     2</i>
    <i type="int" name="INIWAV">     1</i>
   </separator>
   <separator name="electronic spin" >
    <i type="int" name="ISPIN">     1</i>
    <i type="logical" name="LNONCOLLINEAR"> F  </i>
    <v name="MAGMOM">      1.00000000      1.00000000</v>
    <i name="NUPDOWN">     -1.00000000</i>
    <i type="logical" name="LSORBIT"> F  </i>
    <v name="SAXIS">      0.00000000      0.00000000      1.00000000</v>
    <i type="logical" name="LSPIRAL"> F  </i>
    <v name="QSPIRAL">      0.00000000      0.00000000      0.00000000</v>
    <i type="logical" name="LZEROZ"> F  </i>
   </separator>
   <separator name="electronic exchange-correlation" >
    <i type="logical" name="LASPH"> F  </i>
    <i type="logical" name="LMETAGGA"> F  </i>
   </separator>
   <separator name="electronic convergence" >
    <i type="int" name="NELM">    60</i>
    <i type="int" name="NELMDL">    -5</i>
    <i type="int" name="NELMIN">     2</i>
    <i name="ENINI">    200.00000000</i>
    <separator name="electronic convergence detail" >
     <i type="logical" name="LDIAG"> T  </i>
     <i type="logical" name="LSUBROT"> F  </i>
     <i name="WEIMIN">      0.00100000</i>
     <i name="EBREAK">      0.00001250</i>
     <i name="DEPER">      0.30000000</i>
     <i type="int" name="NRMM">     4</i>
     <i name="TIME">      0.40000000</i>
    </separator>
   </separator>
   <separator name="electronic mixer" >
    <i name="AMIX">      0.40000000</i>
    <i name="BMIX">      1.00000000</i>
    <i name="AMIN">      0.10000000</i>
    <i name="AMIX_MAG">      1.60000000</i>
    <i name="BMIX_MAG">      1.00000000</i>
    <separator name="electronic mixer details" >
     <i type="int" name="IMIX">     4</i>
     <i type="logical" name="MIXFIRST"> F  </i>
     <i type="int" name="MAXMIX">   -45</i>
     <i name="WC">    100.00000000</i>
     <i type="int" name="INIMIX">     1</i>
     <i type="int" name="MIXPRE">     1</i>
     <i type="int" name="MREMOVE">     5</i>
    </separator>
   </separator>
   <separator name="electronic dipolcorrection" >
    <i type="logical" name="LDIPOL"> F  </i>
    <i type="logical" name="LMONO"> F  </i>
    <i type="int" name="IDIPOL">     0</i>
    <i name="EPSILON">      1.00000000</i>
    <v name="DIPOL">   -100.00000000   -100.00000000   -100.00000000</v>
    <i name="EFIELD">      0.00000000</i>
   </separator>
  </separator>
  <separator name="grids" >
   <i type="int" name="NGX">    14</i>
   <i type="int" name="NGY">    14</i>
   <i type="int" name="NGZ">    14</i>
   <i type="int" name="NGXF">    28</i>
   <i type="int" name="NGYF">    28</i>
   <i type="int" name="NGZF">    28</i>
   <i type="logical" name="ADDGRID"> F  </i>
  </separator>
  <separator name="ionic" >
   <i type="int" name="NSW">    15</i>
   <i type="int" name="IBRION">     2</i>
   <i type="int" name="MDALGO">     0</i>
   <i type="int" name="ISIF">     3</i>
   <i name="PSTRESS">      0.00000000</i>
   <i name="EDIFFG">     -0.01000000</i>
   <i type="int" name="NFREE">     1</i>
   <i name="POTIM">      0.50000000</i>
   <i name="SMASS">     -3.00000000</i>
   <i name="SCALEE">      1.00000000</i>
  </separator>
  <separator name="ionic md" >
   <i name="TEBEG">      0.00010000</i>
   <i name="TEEND">      0.00010000</i>
   <i type="int" name="NBLOCK">     1</i>
   <i type="int" name="KBLOCK">    15</i>
   <i type="int" name="NPACO">   256</i>
   <i name="APACO">     16.00000000</i>
  </separator>
  <separator name="symmetry" >
   <i type="int" name="ISYM">     2</i>
   <i name="SYMPREC">      0.00001000</i>
  </separator>
  <separator name="dos" >
   <i type="int" name="LORBIT">     0</i>
   <v name="RWIGS">     -1.00000000</v>
   <i type="int" name="NEDOS">   301</i>
   <i name="EMIN">     10.00000000</i>
   <i name="EMAX">    -10.00000000</i>
   <i name="EFERMI">      0.00000000</i>
  </separator>
  <separator name="writing" >
   <i type="int" name="NWRITE">     2</i>
   <i type="logical" name="LWAVE"> T  </i>
   <i type="logical" name="LDOWNSAMPLE"> F  </i>
   <i type="logical" name="LCHARG"> T  </i>
   <i type="logical" name="LPARD"> F  </i>
   <i type="logical" name="LVTOT"> F  </i>
   <i type="logical" name="LVHAR"> F  </i>
   <i type="logical" name="LELF"> F  </i>
   <i type="logical" name="LOPTICS"> F  </i>
   <v name="STM">      0.00000000      0.00000000      0.00000000      0.00000000      0.00000000      0.00000000      0.00000000</v>
  </separator>
  <separator name="performance" >
   <i type="int" name="NPAR">     8</i>
   <i type="int" name="NSIM">     4</i>
   <i type="int" name="NBLK">    -1</i>
   <i type="logical" name="LPLANE"> T  </i>
   <i type="logical" name="LSCALAPACK"> T  </i>
   <i type="logical" name="LSCAAWARE"> F  </i>
   <i type="logical" name="LSCALU"> F  </i>
   <i type="logical" name="LASYNC"> F  </i>
   <i type="logical" name="LORBITALREAL"> F  </i>
  </separator>
  <separator name="miscellaneous" >
   <i type="int" name="IDIOT">     3</i>
   <i type="int" name="ISPECIAL">     0</i>
   <i type="logical" name="LMUSIC"> F  </i>
   <v name="POMASS">     28.08500000</v>
   <v name="DARWINR">      0.00000000</v>
   <v name="DARWINV">      1.00000000</v>
   <i type="logical" name="LCORR"> T  </i>
  </separator>
  <i type="logical" name="GGA_COMPAT"> T  </i>
  <i type="logical" name="LBERRY"> F  </i>
  <i type="int" name="ICORELEVEL">     0</i>
  <i type="logical" name="LDAU"> F  </i>
  <i type="int" name="I_CONSTRAINED_M">     0</i>
  <separator name="electronic exchange-correlation" >
   <i type="string" name="GGA">--</i>
   <i type="int" name="VOSKOWN">     0</i>
   <i type="logical" name="LHFCALC"> F  </i>
   <i type="string" name="PRECFOCK"></i>
   <i type="logical" name="LSYMGRAD"> F  </i>
   <i type="logical" name="LHFONE"> F  </i>
   <i type="logical" name="LRHFCALC"> F  </i>
   <i type="logical" name="LTHOMAS"> F  </i>
   <i type="logical" name="LMODELHF"> F  </i>
   <i name="ENCUT4O">     -1.00000000</i>
   <i type="int" name="EXXOEP">     0</i>
   <i type="int" name="FOURORBIT">     0</i>
   <i name="AEXX">      0.00000000</i>
   <i name="HFALPHA">      0.00000000</i>
   <i name="MCALPHA">      0.00000000</i>
   <i name="ALDAX">      1.00000000</i>
   <i name="AGGAX">      1.00000000</i>
   <i name="ALDAC">      1.00000000</i>
   <i name="AGGAC">      1.00000000</i>
   <i type="int" name="NKREDX">     1</i>
   <i type="int" name="NKREDY">     1</i>
   <i type="int" name="NKREDZ">     1</i>
   <i type="logical" name="SHIFTRED"> F  </i>
   <i type="logical" name="ODDONLY"> F  </i>
   <i type="logical" name="EVENONLY"> F  </i>
   <i type="int" name="LMAXFOCK">     0</i>
   <i type="int" name="NMAXFOCKAE">     0</i>
   <i type="logical" name="LFOCKAEDFT"> F  </i>
   <i name="HFSCREEN">      0.00000000</i>
   <i name="HFSCREENC">      0.00000000</i>
   <i type="int" name="NBANDSGWLOW">     0</i>
  </separator>
  <separator name="vdW DFT" >
   <i type="logical" name="LUSE_VDW"> F  </i>
   <i name="Zab_VDW">     -0.84910000</i>
   <i name="PARAM1">      0.12340000</i>
   <i name="PARAM2">      1.00000000</i>
   <i name="PARAM3">      0.00000000</i>
  </separator>
  <separator name="model GW" >
   <i type="int" name="MODEL_GW">     0</i>
   <i name="MODEL_EPS0">     12.00772552</i>
   <i name="MODEL_ALPHA">      1.00000000</i>
  </separator>
  <separator name="linear response parameters" >
   <i type="logical" name="LEPSILON"> F  </i>
   <i type="logical" name="LRPA"> F  </i>
   <i type="logical" name="LNABLA"> F  </i>
   <i type="logical" name="LVEL"> F  </i>
   <i type="int" name="KINTER">     0</i>
   <i name="CSHIFT">      0.10000000</i>
   <i name="OMEGAMAX">     -1.00000000</i>
   <i name="DEG_THRESHOLD">      0.00200000</i>
   <i name="RTIME">     -0.10000000</i>
   <i name="WPLASMAI">      0.00000000</i>
   <v name="DFIELD">      0.00000000      0.00000000      0.00000000</v>
   <v name="WPLASMA">      0.00000000      0.00000000      0.00000000      0.00000000      0.00000000      0.00000000      0.00000000      0.00000000      0.00000000</v>
  </separator>
  <separator name="orbital magnetization" >
   <i type="logical" name="NUCIND"> F  </i>
   <v name="MAGPOS">      0.00000000      0.00000000      0.00000000</v>
   <i type="logical" name="LNICSALL"> T  </i>
   <i type="logical" name="ORBITALMAG"> F  </i>
   <i type="logical" name="LMAGBLOCH"> F  </i>
   <i type="logical" name="LCHIMAG"> F  </i>
   <i type="logical" name="LGAUGE"> T  </i>
   <i type="int" name="MAGATOM">     0</i>
   <v name="MAGDIPOL">      0.00000000      0.00000000      0.00000000</v>
   <v name="AVECCONST">      0.00000000      0.00000000      0.00000000</v>
  </separator>
  <separator name="response functions" >
   <i type="logical" name="LADDER"> F  </i>
   <i type="logical" name="LRPAFORCE"> F  </i>
   <i type="logical" name="LFXC"> F  </i>
   <i type="logical" name="LHARTREE"> T  </i>
   <i type="int" name="IBSE">     0</i>
   <v type="int" name="KPOINT">    -1     0     0     0</v>
   <i type="logical" name="LTCTE"> F  </i>
   <i type="logical" name="LTETE"> F  </i>
   <i type="logical" name="LTRIPLET"> F  </i>
   <i type="logical" name="LFXCEPS"> F  </i>
   <i type="logical" name="LFXHEG"> F  </i>
   <i type="int" name="NATURALO">     2</i>
   <i type="logical" name="L2ORDER"> F  </i>
   <i type="logical" name="LMP2LT"> F  </i>
   <i type="logical" name="LUSEW"> F  </i>
   <i name="ENCUTGW">     -2.00000000</i>
   <i name="ENCUTGWSOFT">     -2.00000000</i>
   <i name="ENCUTLF">     -1.00000000</i>
   <i type="int" name="LMAXMP2">    -1</i>
   <i name="SCISSOR">      0.00000000</i>
   <i type="int" name="NOMEGA">     0</i>
   <i type="int" name="NOMEGAR">     0</i>
   <i type="int" name="NBANDSGW">    -1</i>
   <i type="int" name="NBANDSO">    -1</i>
   <i type="int" name="NBANDSV">    -1</i>
   <i type="int" name="NELM">     1</i>
   <i type="int" name="NELMHF">     1</i>
   <i type="int" name="DIM">     3</i>
   <i type="int" name="ANTIRES">     0</i>
   <i name="OMEGAMAX">    -30.00000000</i>
   <i name="OMEGAMIN">    -30.00000000</i>
   <i name="OMEGATL">   -200.00000000</i>
   <i type="int" name="OMEGAGRID">   140</i>
   <i name="CSHIFT">     -0.10000000</i>
   <i type="logical" name="SELFENERGY"> F  </i>
   <i type="logical" name="LSPECTRAL"> F  </i>
   <i type="logical" name="LSPECTRALGW"> F  </i>
   <i type="logical" name="LSINGLES"> F  </i>
   <i type="logical" name="LFERMIGW"> F  </i>
   <i type="logical" name="ODDONLYGW"> F  </i>
   <i type="logical" name="EVENONLYGW"> F  </i>
   <i type="int" name="NKREDLFX">     1</i>
   <i type="int" name="NKREDLFY">     1</i>
   <i type="int" name="NKREDLFZ">     1</i>
   <i type="int" name="MAXMEM">  2800</i>
   <i type="int" name="TELESCOPE">     0</i>
   <i type="int" name="TAUPAR">     1</i>
   <i type="int" name="OMEGAPAR">    -1</i>
   <i name="LAMBDA">      1.00000000</i>
  </separator>
  <separator name="External order field" >
   <i name="OFIELD_KAPPA">      0.00000000</i>
   <v name="OFIELD_K">      0.00000000      0.00000000      0.00000000</v>
   <i name="OFIELD_Q6_NEAR">      0.00000000</i>
   <i name="OFIELD_Q6_FAR">      0.00000000</i>
   <i name="OFIELD_A">      0.00000000</i>
  </separator>
 </parameters>
 <atominfo>
  <atoms>       2 </atoms>
  <types>       1 </types>
  <array name="atoms" >
   <dimension dim="1">ion</dimension>
   <field type="string">element</field>
   <field type="int">atomtype</field>
   <set>
    <rc><c>Si</c><c>   1</c></rc>
    <rc><c>Si</c><c>   1</c></rc>
   </set>
  </array>
  <array name="atomtypes" >
   <dimension dim="1">type</dimension>
   <field type="int">atomspertype</field>
   <field type="string">element</field>
   <field>mass</field>
   <field>valence</field>
   <field type="string">pseudopotential</field>
   <set>
    <rc><c>   2</c><c>Si</c><c>     28.08500000</c><c>      4.00000000</c><c> PAW_PBE Si 05Jan2001                   </c></rc>
   </set>
  </array>
 </atominfo>
 <structure name="initialpos" >
  <crystal>
   <varray name="basis" >
    <v>       0.00000000       2.71500000       2.71500000 </v>
    <v>       2.71500000       0.00000000       2.71500000 </v>
    <v>       2.71500000       2.71500000       0.00000000 </v>
   </varray>
   <i name="volume">     40.02575175 </i>
   <varray name="rec_basis" >
    <v>      -0.18416206       0.18416206       0.18416206 </v>
    <v>       0.18416206      -0.18416206       0.18416206 </v>
    <v>       0.18416206       0.18416206      -0.18416206 </v>
   </varray>
  </crystal>
  <varray name="positions" >
   <v>       0.50000000       0.50000000       0.50000000 </v>
   <v>       0.75000000       0.75000000       0.75000000 </v>
  </varray>
 </structure>
 <calculation>
  <scstep>
   <time name="dav">    0.06    0.07</time>
   <time name="total">    0.10    0.11</time>
   <energy>
    <i name="alphaZ">      3.36414203 </i>
    <i name="ewald">   -228.56352493 </i>
    <i name="hartreedc">    -11.00108243 </i>
    <i name="XCdc">    -18.60172597 </i>
    <i name="pawpsdc">     65.95520812 </i>
    <i name="pawaedc">    -30.76852678 </i>
    <i name="eentropy">     -0.00964140 </i>
    <i name="bandstr">     12.73473235 </i>
    <i name="atom">    206.11247263 </i>
    <i name="e_fr_energy">     -0.77794639 </i>
    <i name="e_wo_entrp">     -0.76830499 </i>
    <i name="e_0_energy">     -0.77312569 </i>
   </energy>
  </scstep>
  <scstep>
   <time name="dav">    0.10    0.11</time>
   <time name="total">    0.10    0.11</time>
   <energy>
    <i name="e_fr_energy">    -10.87568557 </i>
    <i name="e_wo_entrp">    -10.87568554 </i>
    <i name="e_0_energy">    -10.87568555 </i>
   </energy>
  </scstep>
  <scstep>
   <time name="dav">    0.08    0.09</time>
   <time name="total">    0.08    0.09</time>
   <energy>
    <i name="e_fr_energy">    -10.97515017 </i>
    <i name="e_wo_entrp">    -10.97515015 </i>
    <i name="e_0_energy">    -10.97515016 </i>
   </energy>
  </scstep>
  <scstep>
   <time name="dav">    0.09    0.10</time>
   <time name="total">    0.09    0.10</time>
   <energy>
    <i name="e_fr_energy">    -10.97532606 </i>
    <i name="e_wo_entrp">    -10.97532605 </i>
    <i name="e_0_energy">    -10.97532605 </i>
   </energy>
  </scstep>
  <scstep>
   <time name="dav">    0.08    0.08</time>
   <time name="total">    0.09    0.10</time>
   <energy>
    <i name="e_fr_energy">    -10.97532617 </i>
    <i name="e_wo_entrp">    -10.97532616 </i>
    <i name="e_0_energy">    -10.97532617 </i>
   </energy>
  </scstep>
  <scstep>
   <time name="dav">    0.07    0.07</time>
   <time name="total">    0.10    0.11</time>
   <energy>
    <i name="e_fr_energy">    -10.85102730 </i>
    <i name="e_wo_entrp">    -10.85102709 </i>
    <i name="e_0_energy">    -10.85102719 </i>
   </energy>
  </scstep>
  <scstep>
   <time name="dav">    0.08    0.07</time>
   <time name="total">    0.10    0.11</time>
   <energy>
    <i name="e_fr_energy">    -10.79427162 </i>
    <i name="e_wo_entrp">    -10.79426831 </i>
    <i name="e_0_energy">    -10.79426996 </i>
   </energy>
  </scstep>
  <scstep>
   <time name="dav">    0.06    0.06</time>
   <time name="total">    0.09    0.10</time>
   <energy>
    <i name="e_fr_energy">    -10.79557496 </i>
    <i name="e_wo_entrp">    -10.79557261 </i>
    <i name="e_0_energy">    -10.79557378 </i>
   </energy>
  </scstep>
  <scstep>
   <time name="dav">    0.06    0.05</time>
   <time name="total">    0.08    0.08</time>
   <energy>
    <i name="alphaZ">      3.36414203 </i>
    <i name="ewald">   -228.56352493 </i>
    <i name="hartreedc">    -14.90109365 </i>
    <i name="XCdc">    -17.93972761 </i>
    <i name="pawpsdc">     75.90791946 </i>
    <i name="pawaedc">    -40.95825612 </i>
    <i name="eentropy">     -0.00000231 </i>
    <i name="bandstr">      6.18240195 </i>
    <i name="atom">    206.11247263 </i>
    <i name="e_fr_energy">    -10.79566856 </i>
    <i name="e_wo_entrp">    -10.79566625 </i>
    <i name="e_0_energy">    -10.79566741 </i>
   </energy>
  </scstep>
  <structure>
   <crystal>
    <varray name="basis" >
     <v>       0.00000000       2.71500000       2.71500000 </v>
     <v>       2.71500000       0.00000000       2.71500000 </v>
     <v>       2.71500000       2.71500000       0.00000000 </v>
    </varray>
    <i name="volume">     40.02575175 </i>
    <varray name="rec_basis" >
     <v>      -0.18416206       0.18416206       0.18416206 </v>
     <v>       0.18416206      -0.18416206       0.18416206 </v>
     <v>       0.18416206       0.18416206      -0.18416206 </v>
    </varray>
   </crystal>
   <varray name="positions" >
    <v>       0.50000000       0.50000000       0.50000000 </v>
    <v>       0.75000000       0.75000000       0.75000000 </v>
   </varray>
  </structure>
  <varray name="forces" >
   <v>      -0.00000000      -0.00000000      -0.00000000 </v>
   <v>       0.00000000       0.00000000       0.00000000 </v>
  </varray>
  <varray name="stress" >
   <v>      18.63113976       0.00000000      -0.00000000 </v>
   <v>       0.00000000      18.63113976       0.00000000 </v>
   <v>      -0.00000000       0.00000000      18.63113976 </v>
  </varray>
  <energy>
   <i name="e_fr_energy">    -10.79566856 </i>
   <i name="e_wo_entrp">    -10.79566741 </i>
   <i name="e_0_energy">     -0.00000231 </i>
  </energy>
  <time name="totalsc">    1.20    1.97</time>
 </calculation>
 <calculation>
  <scstep>
   <time name="dav">    0.08    0.08</time>
   <time name="total">    0.11    0.12</time>
   <energy>
    <i name="alphaZ">      3.25333030 </i>
    <i name="ewald">   -226.02589820 </i>
    <i name="hartreedc">    -14.74738367 </i>
    <i name="XCdc">    -18.10338669 </i>
    <i name="pawpsdc">     75.89828876 </i>
    <i name="pawaedc">    -40.94958636 </i>
    <i name="eentropy">     -0.00000052 </i>
    <i name="bandstr">      3.75793519 </i>
    <i name="atom">    206.11247263 </i>
    <i name="e_fr_energy">    -10.80422856 </i>
    <i name="e_wo_entrp">    -10.80422804 </i>
    <i name="e_0_energy">    -10.80422830 </i>
   </energy>
  </scstep>
  <scstep>
   <time name="dav">    0.07    0.07</time>
   <time name="total">    0.10    0.12</time>
   <energy>
    <i name="e_fr_energy">    -10.80017670 </i>
    <i name="e_wo_entrp">    -10.80017596 </i>
    <i name="e_0_energy">    -10.80017633 </i>
   </energy>
  </scstep>
  <scstep>
   <time name="dav">    0.07    0.07</time>
   <time name="total">    0.10    0.12</time>
   <energy>
    <i name="e_fr_energy">    -10.79806389 </i>
    <i name="e_wo_entrp">    -10.79806274 </i>
    <i name="e_0_energy">    -10.79806332 </i>
   </energy>
  </scstep>
  <scstep>
   <time name="dav">    0.04    0.04</time>
   <time name="total">    0.06    0.09</time>
   <energy>
    <i name="alphaZ">      3.25333030 </i>
    <i name="ewald">   -226.02589820 </i>
    <i name="hartreedc">    -15.30745417 </i>
    <i name="XCdc">    -18.09172326 </i>
    <i name="pawpsdc">     74.87325818 </i>
    <i name="pawaedc">    -39.89597065 </i>
    <i name="eentropy">     -0.00000113 </i>
    <i name="bandstr">      4.28393489 </i>
    <i name="atom">    206.11247263 </i>
    <i name="e_fr_energy">    -10.79805142 </i>
    <i name="e_wo_entrp">    -10.79805029 </i>
    <i name="e_0_energy">    -10.79805086 </i>
   </energy>
  </scstep>
  <structure>
   <crystal>
    <varray name="basis" >
     <v>      -0.00000000       2.74548171       2.74548171 </v>
     <v>       2.74548171       0.00000000       2.74548171 </v>
     <v>       2.74548171       2.74548171      -0.00000000 </v>
    </varray>
    <i name="volume">     41.38906939 </i>
    <varray name="rec_basis" >
     <v>      -0.18211740       0.18211740       0.18211740 </v>
     <v>       0.18211740      -0.18211740       0.18211740 </v>
     <v>       0.18211740       0.18211740      -0.18211740 </v>
    </varray>
   </crystal>
   <varray name="positions" >
    <v>       0.50000000       0.50000000       0.50000000 </v>
    <v>       0.75000000       0.75000000       0.75000000 </v>
   </varray>
  </structure>
  <varray name="forces" >
   <v>      -0.00000000      -0.00000000      -0.00000000 </v>
   <v>       0.00000000       0.00000000       0.00000000 </v>
  </varray>
  <varray name="stress" >
   <v>     -11.77170172       0.00000000       0.00000000 </v>
   <v>       0.00000000     -11.77170172       0.00000000 </v>
   <v>      -0.00000000       0.00000000     -11.77170172 </v>
  </varray>
  <energy>
   <i name="e_fr_energy">    -10.79805142 </i>
   <i name="e_wo_entrp">    -10.79805086 </i>
   <i name="e_0_energy">     -0.00000113 </i>
  </energy>
  <time name="totalsc">    0.50    0.67</time>
 </calculation>
 <calculation>
  <scstep>
   <time name="dav">    0.07    0.07</time>
   <time name="total">    0.10    0.11</time>
   <energy>
    <i name="alphaZ">      3.29652927 </i>
    <i name="ewald">   -227.02192211 </i>
    <i name="hartreedc">    -15.37702171 </i>
    <i name="XCdc">    -18.02845396 </i>
    <i name="pawpsdc">     74.83759396 </i>
    <i name="pawaedc">    -39.85885853 </i>
    <i name="eentropy">     -0.00000198 </i>
    <i name="bandstr">      5.23852853 </i>
    <i name="atom">    206.11247263 </i>
    <i name="e_fr_energy">    -10.80113391 </i>
    <i name="e_wo_entrp">    -10.80113193 </i>
    <i name="e_0_energy">    -10.80113292 </i>
   </energy>
  </scstep>
  <scstep>
   <time name="dav">    0.07    0.07</time>
   <time name="total">    0.10    0.11</time>
   <energy>
    <i name="e_fr_energy">    -10.80048909 </i>
    <i name="e_wo_entrp">    -10.80048736 </i>
    <i name="e_0_energy">    -10.80048822 </i>
   </energy>
  </scstep>
  <scstep>
   <time name="dav">    0.05    0.05</time>
   <time name="total">    0.07    0.08</time>
   <energy>
    <i name="alphaZ">      3.29652927 </i>
    <i name="ewald">   -227.02192211 </i>
    <i name="hartreedc">    -15.15093097 </i>
    <i name="XCdc">    -18.03399653 </i>
    <i name="pawpsdc">     75.17578574 </i>
    <i name="pawaedc">    -40.20573119 </i>
    <i name="eentropy">     -0.00000145 </i>
    <i name="bandstr">      5.02762707 </i>
    <i name="atom">    206.11247263 </i>
    <i name="e_fr_energy">    -10.80016756 </i>
    <i name="e_wo_entrp">    -10.80016611 </i>
    <i name="e_0_energy">    -10.80016683 </i>
   </energy>
  </scstep>
  <structure>
   <crystal>
    <varray name="basis" >
     <v>      -0.00000000       2.73343633       2.73343633 </v>
     <v>       2.73343633       0.00000000       2.73343633 </v>
     <v>       2.73343633       2.73343633      -0.00000000 </v>
    </varray>
    <i name="volume">     40.84669136 </i>
    <varray name="rec_basis" >
     <v>      -0.18291994       0.18291994       0.18291994 </v>
     <v>       0.18291994      -0.18291994       0.18291994 </v>
     <v>       0.18291994       0.18291994      -0.18291994 </v>
    </varray>
   </crystal>
   <varray name="positions" >
    <v>       0.50000000       0.50000000       0.50000000 </v>
    <v>       0.75000000       0.75000000       0.75000000 </v>
   </varray>
  </structure>
  <varray name="forces" >
   <v>       0.00000000       0.00000000       0.00000000 </v>
   <v>      -0.00000000      -0.00000000      -0.00000000 </v>
  </varray>
  <varray name="stress" >
   <v>      -0.51706009       0.00000000       0.00000000 </v>
   <v>      -0.00000000      -0.51706009       0.00000000 </v>
   <v>      -0.00000000      -0.00000000      -0.51706009 </v>
  </varray>
  <energy>
   <i name="e_fr_energy">    -10.80016756 </i>
   <i name="e_wo_entrp">    -10.80016683 </i>
   <i name="e_0_energy">     -0.00000145 </i>
  </energy>
  <time name="totalsc">    0.41    0.56</time>
  <eigenvalues>
   <array>
    <dimension dim="1">band</dimension>
    <dimension dim="2">kpoint</dimension>
    <dimension dim="3">spin</dimension>
    <field>eigene</field>
    <field>occ</field>
    <set>
     <set comment="spin 1">
      <set comment="kpoint 1">
       <r>   -5.9947    1.0000 </r>
       <r>    4.0503    1.0000 </r>
       <r>    5.3641    1.0000 </r>
       <r>    5.3641    1.0000 </r>
       <r>    8.0965    0.0000 </r>
       <r>    8.6325    0.0000 </r>
       <r>    8.6325    0.0000 </r>
       <r>   10.1795    0.0000 </r>
      </set>
      <set comment="kpoint 2">
       <r>   -4.9672    1.0000 </r>
       <r>    1.0483    1.0000 </r>
       <r>    3.3676    1.0000 </r>
       <r>    4.8793    1.0000 </r>
       <r>    8.3153    0.0000 </r>
       <r>    9.3303    0.0000 </r>
       <r>    9.5149    0.0000 </r>
       <r>   11.8851    0.0000 </r>
      </set>
      <set comment="kpoint 3">
       <r>   -3.8259    1.0000 </r>
       <r>   -1.0338    1.0000 </r>
       <r>    3.3885    1.0000 </r>
       <r>    4.1028    1.0000 </r>
       <r>    7.8229    0.0000 </r>
       <r>    9.1628    0.0000 </r>
       <r>    9.7798    0.0000 </r>
       <r>   12.9995    0.0000 </r>
      </set>
      <set comment="kpoint 4">
       <r>   -5.4665    1.0000 </r>
       <r>    2.4275    1.0000 </r>
       <r>    4.3513    1.0000 </r>
       <r>    4.4153    1.0000 </r>
       <r>    7.8057    0.0000 </r>
       <r>    9.2834    0.0000 </r>
       <r>   10.1048    0.0000 </r>
       <r>   10.4295    0.0000 </r>
      </set>
      <set comment="kpoint 5">
       <r>   -4.4344    1.0000 </r>
       <r>    0.7147    1.0000 </r>
       <r>    3.0172    1.0000 </r>
       <r>    3.4706    1.0000 </r>
       <r>    7.0297    0.0000 </r>
       <r>    8.5747    0.0000 </r>
       <r>   11.5980    0.0000 </r>
       <r>   11.9067    0.0000 </r>
      </set>
      <set comment="kpoint 6">
       <r>   -2.7927    1.0000 </r>
       <r>   -1.2499    1.0000 </r>
       <r>    1.6588    1.0000 </r>
       <r>    2.7377    1.0000 </r>
       <r>    8.0637    0.0000 </r>
       <r>    9.9546    0.0000 </r>
       <r>   10.8922    0.0000 </r>
       <r>   13.0462    0.0000 </r>
      </set>
      <set comment="kpoint 7">
       <r>   -4.0181    1.0000 </r>
       <r>   -0.1605    1.0000 </r>
       <r>    2.3740    1.0000 </r>
       <r>    3.7464    1.0000 </r>
       <r>    8.5330    0.0000 </r>
       <r>    9.2009    0.0000 </r>
       <r>   10.6601    0.0000 </r>
       <r>   11.5764    0.0000 </r>
      </set>
      <set comment="kpoint 8">
       <r>   -2.9608    1.0000 </r>
       <r>   -1.1520    1.0000 </r>
       <r>    2.2700    1.0000 </r>
       <r>    3.0009    1.0000 </r>
       <r>    6.5893    0.0000 </r>
       <r>    7.6561    0.0000 </r>
       <r>   13.8955    0.0000 </r>
       <r>   13.9345    0.0000 </r>
      </set>
      <set comment="kpoint 9">
       <r>   -4.5337    1.0000 </r>
       <r>   -0.2444    1.0000 </r>
       <r>    4.5708    1.0000 </r>
       <r>    4.5708    1.0000 </r>
       <r>    7.2501    0.0000 </r>
       <r>    9.1330    0.0000 </r>
       <r>    9.1330    0.0000 </r>
       <r>   13.4916    0.0000 </r>
      </set>
      <set comment="kpoint 10">
       <r>   -3.3301    1.0000 </r>
       <r>   -0.9476    1.0000 </r>
       <r>    1.7182    1.0000 </r>
       <r>    3.7862    1.0000 </r>
       <r>    7.5213    0.0000 </r>
       <r>   11.0940    0.0000 </r>
       <r>   11.1350    0.0000 </r>
       <r>   12.5805    0.0000 </r>
      </set>
     </set>
    </set>
   </array>
  </eigenvalues>
  <separator name="orbital magnetization" >
   <v name="MAGDIPOLOUT">      0.00000000      0.00000000      0.00000000</v>
  </separator>
  <dos>
   <i name="efermi">      5.97038772 </i>
   <total>
    <array>
     <dimension dim="1">gridpoints</dimension>
     <dimension dim="2">spin</dimension>
     <field>energy</field>
     <field>total</field>
     <field>integrated</field>
     <set>
      <set comment="spin 1">
       <r>    -7.9947     0.0000     0.0000 </r>
       <r>    -7.9150     0.0000     0.0000 </r>
       <r>    -7.8352     0.0000     0.0000 </r>
       <r>    -7.7554     0.0000     0.0000 </r>
       <r>    -7.6757     0.0000     0.0000 </r>
       <r>    -7.5959     0.0000     0.0000 </r>
       <r>    -7.5161     0.0000     0.0000 </r>
       <r>    -7.4364     0.0000     0.0000 </r>
       <r>    -7.3566     0.0000     0.0000 </r>
       <r>    -7.2768     0.0000     0.0000 </r>
       <r>    -7.1971     0.0000     0.0000 </r>
       <r>    -7.1173     0.0000     0.0000 </r>
       <r>    -7.0376     0.0000     0.0000 </r>
       <r>    -6.9578     0.0000     0.0000 </r>
       <r>    -6.8780     0.0000     0.0000 </r>
       <r>    -6.7983     0.0000     0.0000 </r>
       <r>    -6.7185     0.0000     0.0000 </r>
       <r>    -6.6387     0.0000     0.0000 </r>
       <r>    -6.5590     0.0000     0.0000 </r>
       <r>    -6.4792     0.0002     0.0000 </r>
       <r>    -6.3994     0.0014     0.0001 </r>
       <r>    -6.3197     0.0068     0.0007 </r>
       <r>    -6.2399     0.0240     0.0026 </r>
       <r>    -6.1602     0.0624     0.0076 </r>
       <r>    -6.0804     0.1186     0.0170 </r>
       <r>    -6.0006     0.1655     0.0302 </r>
       <r>    -5.9209     0.1705     0.0438 </r>
       <r>    -5.8411     0.1349     0.0546 </r>
       <r>    -5.7613     0.1040     0.0629 </r>
       <r>    -5.6816     0.1355     0.0737 </r>
       <r>    -5.6018     0.2557     0.0941 </r>
       <r>    -5.5220     0.4202     0.1276 </r>
       <r>    -5.4423     0.5200     0.1691 </r>
       <r>    -5.3625     0.4775     0.2072 </r>
       <r>    -5.2827     0.3394     0.2342 </r>
       <r>    -5.2030     0.2365     0.2531 </r>
       <r>    -5.1232     0.2606     0.2739 </r>
       <r>    -5.0435     0.3907     0.3050 </r>
       <r>    -4.9637     0.5093     0.3457 </r>
       <r>    -4.8839     0.5048     0.3859 </r>
       <r>    -4.8042     0.3863     0.4167 </r>
       <r>    -4.7244     0.2760     0.4388 </r>
       <r>    -4.6446     0.2883     0.4618 </r>
       <r>    -4.5649     0.4329     0.4963 </r>
       <r>    -4.4851     0.6076     0.5447 </r>
       <r>    -4.4053     0.6773     0.5988 </r>
       <r>    -4.3256     0.6081     0.6473 </r>
       <r>    -4.2458     0.5293     0.6895 </r>
       <r>    -4.1661     0.6169     0.7387 </r>
       <r>    -4.0863     0.8984     0.8104 </r>
       <r>    -4.0065     1.1975     0.9059 </r>
       <r>    -3.9268     1.3038     1.0099 </r>
       <r>    -3.8470     1.1640     1.1027 </r>
       <r>    -3.7672     0.8728     1.1723 </r>
       <r>    -3.6875     0.5565     1.2167 </r>
       <r>    -3.6077     0.3224     1.2424 </r>
       <r>    -3.5279     0.2425     1.2618 </r>
       <r>    -3.4482     0.3184     1.2872 </r>
       <r>    -3.3684     0.4614     1.3240 </r>
       <r>    -3.2886     0.5436     1.3673 </r>
       <r>    -3.2089     0.5204     1.4089 </r>
       <r>    -3.1291     0.4924     1.4481 </r>
       <r>    -3.0494     0.5992     1.4959 </r>
       <r>    -2.9696     0.8680     1.5652 </r>
       <r>    -2.8898     1.1814     1.6594 </r>
       <r>    -2.8101     1.3529     1.7673 </r>
       <r>    -2.7303     1.2469     1.8668 </r>
       <r>    -2.6505     0.8973     1.9383 </r>
       <r>    -2.5708     0.4922     1.9776 </r>
       <r>    -2.4910     0.2025     1.9937 </r>
       <r>    -2.4112     0.0618     1.9987 </r>
       <r>    -2.3315     0.0139     1.9998 </r>
       <r>    -2.2517     0.0023     2.0000 </r>
       <r>    -2.1720     0.0003     2.0000 </r>
       <r>    -2.0922     0.0000     2.0000 </r>
       <r>    -2.0124     0.0000     2.0000 </r>
       <r>    -1.9327     0.0000     2.0000 </r>
       <r>    -1.8529     0.0000     2.0000 </r>
       <r>    -1.7731     0.0005     2.0000 </r>
       <r>    -1.6934     0.0037     2.0003 </r>
       <r>    -1.6136     0.0209     2.0020 </r>
       <r>    -1.5338     0.0885     2.0091 </r>
       <r>    -1.4541     0.2784     2.0313 </r>
       <r>    -1.3743     0.6569     2.0837 </r>
       <r>    -1.2945     1.1809     2.1779 </r>
       <r>    -1.2148     1.6590     2.3102 </r>
       <r>    -1.1350     1.8957     2.4614 </r>
       <r>    -1.0553     1.8489     2.6089 </r>
       <r>    -0.9755     1.5894     2.7357 </r>
       <r>    -0.8957     1.1940     2.8309 </r>
       <r>    -0.8160     0.7521     2.8909 </r>
       <r>    -0.7362     0.3800     2.9212 </r>
       <r>    -0.6564     0.1508     2.9332 </r>
       <r>    -0.5767     0.0568     2.9378 </r>
       <r>    -0.4969     0.0647     2.9429 </r>
       <r>    -0.4171     0.1821     2.9575 </r>
       <r>    -0.3374     0.4458     2.9930 </r>
       <r>    -0.2576     0.8234     3.0587 </r>
       <r>    -0.1778     1.1349     3.1492 </r>
       <r>    -0.0981     1.1633     3.2420 </r>
       <r>    -0.0183     0.8842     3.3125 </r>
       <r>     0.0614     0.4971     3.3522 </r>
       <r>     0.1412     0.2063     3.3686 </r>
       <r>     0.2210     0.0636     3.3737 </r>
       <r>     0.3007     0.0176     3.3751 </r>
       <r>     0.3805     0.0196     3.3767 </r>
       <r>     0.4603     0.0636     3.3817 </r>
       <r>     0.5400     0.1705     3.3953 </r>
       <r>     0.6198     0.3378     3.4223 </r>
       <r>     0.6996     0.4980     3.4620 </r>
       <r>     0.7793     0.5655     3.5071 </r>
       <r>     0.8591     0.5457     3.5506 </r>
       <r>     0.9388     0.5319     3.5931 </r>
       <r>     1.0186     0.5597     3.6377 </r>
       <r>     1.0984     0.5502     3.6816 </r>
       <r>     1.1781     0.4368     3.7164 </r>
       <r>     1.2579     0.2702     3.7380 </r>
       <r>     1.3377     0.1655     3.7512 </r>
       <r>     1.4174     0.2203     3.7688 </r>
       <r>     1.4972     0.4969     3.8084 </r>
       <r>     1.5770     0.9642     3.8853 </r>
       <r>     1.6567     1.4068     3.9975 </r>
       <r>     1.7365     1.5246     4.1191 </r>
       <r>     1.8163     1.2280     4.2171 </r>
       <r>     1.8960     0.7428     4.2763 </r>
       <r>     1.9758     0.3713     4.3059 </r>
       <r>     2.0555     0.2697     4.3275 </r>
       <r>     2.1353     0.4684     4.3648 </r>
       <r>     2.2151     0.9344     4.4393 </r>
       <r>     2.2948     1.5157     4.5602 </r>
       <r>     2.3746     1.9203     4.7134 </r>
       <r>     2.4544     1.9191     4.8665 </r>
       <r>     2.5341     1.6041     4.9944 </r>
       <r>     2.6139     1.3128     5.0992 </r>
       <r>     2.6937     1.2478     5.1987 </r>
       <r>     2.7734     1.3097     5.3032 </r>
       <r>     2.8532     1.3441     5.4104 </r>
       <r>     2.9329     1.3400     5.5173 </r>
       <r>     3.0127     1.3027     5.6212 </r>
       <r>     3.0925     1.1762     5.7150 </r>
       <r>     3.1722     1.0176     5.7962 </r>
       <r>     3.2520     1.0256     5.8780 </r>
       <r>     3.3318     1.2679     5.9791 </r>
       <r>     3.4115     1.5364     6.1016 </r>
       <r>     3.4913     1.5999     6.2293 </r>
       <r>     3.5711     1.5144     6.3501 </r>
       <r>     3.6508     1.5211     6.4714 </r>
       <r>     3.7306     1.6599     6.6038 </r>
       <r>     3.8104     1.6931     6.7388 </r>
       <r>     3.8901     1.4732     6.8563 </r>
       <r>     3.9699     1.1621     6.9490 </r>
       <r>     4.0496     0.9781     7.0271 </r>
       <r>     4.1294     0.9413     7.1021 </r>
       <r>     4.2092     0.9794     7.1803 </r>
       <r>     4.2889     1.0806     7.2664 </r>
       <r>     4.3687     1.2121     7.3631 </r>
       <r>     4.4485     1.2504     7.4629 </r>
       <r>     4.5282     1.1122     7.5516 </r>
       <r>     4.6080     0.8623     7.6204 </r>
       <r>     4.6878     0.6445     7.6718 </r>
       <r>     4.7675     0.5547     7.7160 </r>
       <r>     4.8473     0.5652     7.7611 </r>
       <r>     4.9270     0.5558     7.8054 </r>
       <r>     5.0068     0.4483     7.8412 </r>
       <r>     5.0866     0.2951     7.8647 </r>
       <r>     5.1663     0.2061     7.8812 </r>
       <r>     5.2461     0.2284     7.8994 </r>
       <r>     5.3259     0.3093     7.9240 </r>
       <r>     5.4056     0.3496     7.9519 </r>
       <r>     5.4854     0.2963     7.9756 </r>
       <r>     5.5652     0.1848     7.9903 </r>
       <r>     5.6449     0.0846     7.9971 </r>
       <r>     5.7247     0.0284     7.9993 </r>
       <r>     5.8045     0.0070     7.9999 </r>
       <r>     5.8842     0.0013     8.0000 </r>
       <r>     5.9640     0.0002     8.0000 </r>
       <r>     6.0437     0.0001     8.0000 </r>
       <r>     6.1235     0.0010     8.0001 </r>
       <r>     6.2033     0.0063     8.0006 </r>
       <r>     6.2830     0.0282     8.0028 </r>
       <r>     6.3628     0.0927     8.0102 </r>
       <r>     6.4426     0.2236     8.0281 </r>
       <r>     6.5223     0.3956     8.0596 </r>
       <r>     6.6021     0.5153     8.1007 </r>
       <r>     6.6819     0.5014     8.1407 </r>
       <r>     6.7616     0.3927     8.1720 </r>
       <r>     6.8414     0.3226     8.1978 </r>
       <r>     6.9212     0.3771     8.2278 </r>
       <r>     7.0009     0.5064     8.2682 </r>
       <r>     7.0807     0.5859     8.3150 </r>
       <r>     7.1604     0.5541     8.3592 </r>
       <r>     7.2402     0.4668     8.3964 </r>
       <r>     7.3200     0.4280     8.4305 </r>
       <r>     7.3997     0.5118     8.4714 </r>
       <r>     7.4795     0.7264     8.5293 </r>
       <r>     7.5593     1.0114     8.6100 </r>
       <r>     7.6390     1.2866     8.7126 </r>
       <r>     7.7188     1.5013     8.8324 </r>
       <r>     7.7986     1.6228     8.9618 </r>
       <r>     7.8783     1.6448     9.0930 </r>
       <r>     7.9581     1.6263     9.2227 </r>
       <r>     8.0378     1.6153     9.3516 </r>
       <r>     8.1176     1.5525     9.4754 </r>
       <r>     8.1974     1.3901     9.5863 </r>
       <r>     8.2771     1.2372     9.6850 </r>
       <r>     8.3569     1.2660     9.7860 </r>
       <r>     8.4367     1.5295     9.9080 </r>
       <r>     8.5164     1.8700    10.0571 </r>
       <r>     8.5962     1.9810    10.2151 </r>
       <r>     8.6760     1.6754    10.3488 </r>
       <r>     8.7557     1.1012    10.4366 </r>
       <r>     8.8355     0.6004    10.4845 </r>
       <r>     8.9153     0.4313    10.5189 </r>
       <r>     8.9950     0.6950    10.5743 </r>
       <r>     9.0748     1.3515    10.6821 </r>
       <r>     9.1545     2.1511    10.8537 </r>
       <r>     9.2343     2.6766    11.0672 </r>
       <r>     9.3141     2.6492    11.2785 </r>
       <r>     9.3938     2.1725    11.4518 </r>
       <r>     9.4736     1.5827    11.5780 </r>
       <r>     9.5534     1.1315    11.6683 </r>
       <r>     9.6331     0.8972    11.7399 </r>
       <r>     9.7129     0.8854    11.8105 </r>
       <r>     9.7927     1.0692    11.8958 </r>
       <r>     9.8724     1.3557    12.0039 </r>
       <r>     9.9522     1.5945    12.1311 </r>
       <r>    10.0319     1.6474    12.2625 </r>
       <r>    10.1117     1.4759    12.3802 </r>
       <r>    10.1915     1.1711    12.4736 </r>
       <r>    10.2712     0.8943    12.5450 </r>
       <r>    10.3510     0.7722    12.6066 </r>
       <r>    10.4308     0.8243    12.6723 </r>
       <r>    10.5105     0.9941    12.7516 </r>
       <r>    10.5903     1.2162    12.8486 </r>
       <r>    10.6701     1.4192    12.9618 </r>
       <r>    10.7498     1.5457    13.0851 </r>
       <r>    10.8296     1.6075    13.2133 </r>
       <r>    10.9094     1.6414    13.3443 </r>
       <r>    10.9891     1.6403    13.4751 </r>
       <r>    11.0689     1.5689    13.6002 </r>
       <r>    11.1486     1.3802    13.7103 </r>
       <r>    11.2284     1.0666    13.7954 </r>
       <r>    11.3082     0.7619    13.8562 </r>
       <r>    11.3879     0.6961    13.9117 </r>
       <r>    11.4677     0.9735    13.9893 </r>
       <r>    11.5475     1.4112    14.1019 </r>
       <r>    11.6272     1.6703    14.2351 </r>
       <r>    11.7070     1.6128    14.3638 </r>
       <r>    11.7868     1.4267    14.4776 </r>
       <r>    11.8665     1.3001    14.5813 </r>
       <r>    11.9463     1.1633    14.6741 </r>
       <r>    12.0260     0.8856    14.7447 </r>
       <r>    12.1058     0.5235    14.7865 </r>
       <r>    12.1856     0.2358    14.8053 </r>
       <r>    12.2653     0.0994    14.8132 </r>
       <r>    12.3451     0.1005    14.8212 </r>
       <r>    12.4249     0.2091    14.8379 </r>
       <r>    12.5046     0.3780    14.8681 </r>
       <r>    12.5844     0.5115    14.9089 </r>
       <r>    12.6642     0.5288    14.9510 </r>
       <r>    12.7439     0.4826    14.9895 </r>
       <r>    12.8237     0.5543    15.0337 </r>
       <r>    12.9035     0.8707    15.1032 </r>
       <r>    12.9832     1.3118    15.2078 </r>
       <r>    13.0630     1.5508    15.3315 </r>
       <r>    13.1427     1.3729    15.4410 </r>
       <r>    13.2225     0.9112    15.5137 </r>
       <r>    13.3023     0.4799    15.5520 </r>
       <r>    13.3820     0.2549    15.5723 </r>
       <r>    13.4618     0.1979    15.5881 </r>
       <r>    13.5416     0.1987    15.6039 </r>
       <r>    13.6213     0.2164    15.6212 </r>
       <r>    13.7011     0.3083    15.6458 </r>
       <r>    13.7809     0.5398    15.6889 </r>
       <r>    13.8606     0.8489    15.7566 </r>
       <r>    13.9404     1.0322    15.8389 </r>
       <r>    14.0202     0.9349    15.9135 </r>
       <r>    14.0999     0.6258    15.9634 </r>
       <r>    14.1797     0.3092    15.9880 </r>
       <r>    14.2594     0.1126    15.9970 </r>
       <r>    14.3392     0.0302    15.9994 </r>
       <r>    14.4190     0.0060    15.9999 </r>
       <r>    14.4987     0.0009    16.0000 </r>
       <r>    14.5785     0.0001    16.0000 </r>
       <r>    14.6583     0.0000    16.0000 </r>
       <r>    14.7380     0.0000    16.0000 </r>
       <r>    14.8178     0.0000    16.0000 </r>
       <r>    14.8976     0.0000    16.0000 </r>
       <r>    14.9773     0.0000    16.0000 </r>
       <r>    15.0571     0.0000    16.0000 </r>
       <r>    15.1368     0.0000    16.0000 </r>
       <r>    15.2166     0.0000    16.0000 </r>
       <r>    15.2964     0.0000    16.0000 </r>
       <r>    15.3761     0.0000    16.0000 </r>
       <r>    15.4559     0.0000    16.0000 </r>
       <r>    15.5357     0.0000    16.0000 </r>
       <r>    15.6154     0.0000    16.0000 </r>
       <r>    15.6952     0.0000    16.0000 </r>
       <r>    15.7750     0.0000    16.0000 </r>
       <r>    15.8547     0.0000    16.0000 </r>
       <r>    15.9345     0.0000    16.0000 </r>
      </set>
     </set>
    </array>
   </total>
  </dos>
 </calculation>
 <structure name="finalpos" >
  <crystal>
   <varray name="basis" >
    <v>      -0.00000000       2.73343633       2.73343633 </v>
    <v>       2.73343633       0.00000000       2.73343633 </v>
    <v>       2.73343633       2.73343633      -0.00000000 </v>
   </varray>
   <i name="volume">     40.84669136 </i>
   <varray name="rec_basis" >
    <v>      -0.18291994       0.18291994       0.18291994 </v>
    <v>       0.18291994      -0.18291994       0.18291994 </v>
    <v>       0.18291994       0.18291994      -0.18291994 </v>
   </varray>
  </crystal>
  <varray name="positions" >
   <v>       0.50000000       0.50000000       0.50000000 </v>
   <v>       0.75000000       0.75000000       0.75000000 </v>
  </varray>
 </structure>
</modeling>
