unknown system                          
   1.00000000000000     
    -2.335885    2.335885    1.333153
     2.335885   -2.335885    1.333153
     2.335885    2.335885   -1.333153
   Si
     2
Direct
  0.250000  0.750000  0.500000
  0.000000 -0.000000  0.000000
 
   28   28   28
 -.52253258888E+01 -.38526520219E+01 -.23825598036E+00 0.43443797185E+01 0.84280047207E+01
 0.10955394653E+02 0.11620167360E+02 0.10830366895E+02 0.93790275151E+01 0.79069166304E+01
 0.66233812960E+01 0.56132853140E+01 0.49012033031E+01 0.44817233337E+01 0.43434829880E+01
 0.44816670696E+01 0.49012035963E+01 0.56133469630E+01 0.66233909282E+01 0.79068585070E+01
 0.93790042919E+01 0.10830400175E+02 0.11620177787E+02 0.10955379832E+02 0.84280351824E+01
 0.43444227053E+01 -.23830112207E+00 -.38527457978E+01 -.38527457978E+01 -.44649008613E+01
 -.24576242902E+01 0.14234822006E+01 0.58226187781E+01 0.93775093247E+01 0.11256206071E+02
 0.11384029655E+02 0.10310202082E+02 0.88289059287E+01 0.74195058525E+01 0.62309506063E+01
 0.53259205503E+01 0.47160318090E+01 0.43917586675E+01 0.43434277353E+01 0.45700402145E+01
 0.50795709832E+01 0.58830511983E+01 0.69797063241E+01 0.83316339422E+01 0.98345728519E+01
 0.11204362651E+02 0.11709861186E+02 0.10628097899E+02 0.77219217722E+01 0.35025169303E+01
 -.83741529101E+00 -.23830112207E+00 -.24576853372E+01 -.23466175886E+01 0.32486794132E-01
 0.37810079898E+01 0.75882413469E+01 0.10306222029E+02 0.11380129831E+02 0.10954841747E+02
 0.96657006820E+01 0.82137432885E+01 0.68969386387E+01 0.58240819898E+01 0.50357225301E+01
 0.45327920973E+01 0.43042033449E+01 0.43433331532E+01 0.46527698697E+01 0.52421373920E+01
 0.61204750621E+01 0.72799674169E+01 0.86706075507E+01 0.10172934122E+02 0.11437129895E+02
 0.11722831822E+02 0.10419996455E+02 0.74613507062E+01 0.35025169303E+01 0.43444227053E+01
 0.14234653579E+01 0.32476704800E-01 0.68727178246E+00 0.31035858303E+01 0.63417370600E+01
 0.92513452261E+01 0.10969351652E+02 0.11224192389E+02 0.10333808525E+02 0.89477057612E+01
 0.75688573649E+01 0.63688520430E+01 0.54245075850E+01 0.47569526724E+01 0.43598965986E+01
 0.42230470628E+01 0.43432782275E+01 0.47257313842E+01 0.53800858056E+01 0.63121618611E+01
 0.75072997790E+01 0.89062047450E+01 0.10379397341E+02 0.11546422464E+02 0.11719297648E+02
 0.10419996455E+02 0.77219217722E+01 0.84280351824E+01 0.58226318343E+01 0.37810228595E+01
 0.31036237823E+01 0.40391788306E+01 0.61692909955E+01 0.86220835790E+01 0.10488127949E+02
 0.11211144634E+02 0.10766871295E+02 0.95775738113E+01 0.82068832695E+01 0.69318548021E+01
 0.58642820236E+01 0.50524656782E+01 0.45027331292E+01 0.42053034506E+01 0.41522105443E+01
 0.43433197490E+01 0.47848946976E+01 0.54853511456E+01 0.64468224705E+01 0.76489704876E+01
 0.90268488153E+01 0.10448552899E+02 0.11546422464E+02 0.11722831822E+02 0.10628097899E+02
 0.10955379832E+02 0.93774898165E+01 0.75882233571E+01 0.63417733853E+01 0.61693569543E+01
 0.71150343345E+01 0.87212792015E+01 0.10267114132E+02 0.11118422371E+02 0.11001416781E+02
 0.10073702023E+02 0.87816003243E+01 0.74881104967E+01 0.63384948111E+01 0.54090595075E+01
 0.47254648727E+01 0.42846118619E+01 0.40763108699E+01 0.40953488876E+01 0.43434465316E+01
 0.48266588916E+01 0.55513833288E+01 0.65162954256E+01 0.76970847684E+01 0.90268488153E+01
 0.10379397341E+02 0.11437129895E+02 0.11709861186E+02 0.11620177787E+02 0.11256195041E+02
 0.10306166221E+02 0.92513050954E+01 0.86221243043E+01 0.87213471769E+01 0.94665477371E+01
 0.10441452901E+02 0.11120308685E+02 0.11133404608E+02 0.10431379754E+02 0.92753244962E+01
 0.80177480050E+01 0.68329768131E+01 0.58191420227E+01 0.50240107930E+01 0.44575751836E+01
 0.41122283921E+01 0.39792134634E+01 0.40555567881E+01 0.43435831497E+01 0.48482838665E+01
 0.55738922498E+01 0.65162954256E+01 0.76489704876E+01 0.89062047450E+01 0.10172934122E+02
 0.11204362651E+02 0.10830400175E+02 0.11384079428E+02 0.11380129219E+02 0.10969284828E+02
 0.10488080274E+02 0.10267144314E+02 0.10441502398E+02 0.10876058908E+02 0.11247624858E+02
 0.11230041901E+02 0.10672774449E+02 0.96758338672E+01 0.85033168897E+01 0.73336102741E+01
 0.62755967892E+01 0.53967487488E+01 0.47243092645E+01 0.42592590912E+01 0.39930501271E+01
 0.39188891845E+01 0.40350744680E+01 0.43436415192E+01 0.48482838665E+01 0.55513833288E+01
 0.64468224705E+01 0.75072997790E+01 0.86706075507E+01 0.98345728519E+01 0.93790042919E+01
 0.10310240305E+02 0.10954910145E+02 0.11224205089E+02 0.11211090997E+02 0.11118381457E+02
 0.11120321278E+02 0.11247647122E+02 0.11367945337E+02 0.11270770509E+02 0.10802221482E+02
 0.99668579629E+01 0.89244472125E+01 0.78222015365E+01 0.67674503876E+01 0.58406802925E+01
 0.50866458116E+01 0.45198787956E+01 0.41375854531E+01 0.39321702963E+01 0.38984284087E+01
 0.40350744680E+01 0.43435831497E+01 0.48266588916E+01 0.54853511456E+01 0.63121618611E+01
 0.72799674169E+01 0.83316339422E+01 0.79068585070E+01 0.88288595678E+01 0.96657258117E+01
 0.10333871718E+02 0.10766894216E+02 0.11001389931E+02 0.11133379552E+02 0.11230038331E+02
 0.11270768223E+02 0.11157151656E+02 0.10783851695E+02 0.10122928215E+02 0.92536928650E+01
 0.82730598230E+01 0.72758462823E+01 0.63465980825E+01 0.55438965308E+01 0.48977488618E+01
 0.44164061534E+01 0.40965916529E+01 0.39321702963E+01 0.39188891845E+01 0.40555567881E+01
 0.43434465316E+01 0.47848946976E+01 0.53800858056E+01 0.61204750621E+01 0.69797063241E+01
 0.66233909282E+01 0.74194523205E+01 0.82136879015E+01 0.89477081093E+01 0.95776142948E+01
 0.10073727731E+02 0.10431380114E+02 0.10672767203E+02 0.10802208410E+02 0.10783834354E+02
 0.10562240520E+02 0.10111358937E+02 0.94573134260E+01 0.86526334544E+01 0.77723229613E+01
 0.68955888835E+01 0.60881757046E+01 0.53937407204E+01 0.48343698307E+01 0.44164061534E+01
 0.41375854531E+01 0.39930501271E+01 0.39792134634E+01 0.40953488876E+01 0.43433197490E+01
 0.47257313842E+01 0.52421373920E+01 0.58830511983E+01 0.56133469630E+01 0.62309816921E+01
 0.68969090696E+01 0.75688090750E+01 0.82068646996E+01 0.87816122510E+01 0.92753451493E+01
 0.96758522859E+01 0.99668646004E+01 0.10122913364E+02 0.10111337268E+02 0.99062361714E+01
 0.95022863415E+01 0.89234072814E+01 0.82202389758E+01 0.74579424966E+01 0.67008868128E+01
 0.60011285076E+01 0.53937407204E+01 0.48977488618E+01 0.45198787956E+01 0.42592590912E+01
 0.41122283921E+01 0.40763108699E+01 0.41522105443E+01 0.43432782275E+01 0.46527698697E+01
 0.50795709832E+01 0.49012035963E+01 0.53259701477E+01 0.58241263304E+01 0.63688532067E+01
 0.69318253445E+01 0.74880813861E+01 0.80177367064E+01 0.85033275779E+01 0.89244712521E+01
 0.92537068200E+01 0.94573025352E+01 0.95022681178E+01 0.93671367266E+01 0.90514779623E+01
 0.85792947906E+01 0.79945125747E+01 0.73508589547E+01 0.67008868128E+01 0.60881757046E+01
 0.55438965308E+01 0.50866458116E+01 0.47243092645E+01 0.44575751836E+01 0.42846118619E+01
 0.42053034506E+01 0.42230470628E+01 0.43433331532E+01 0.45700402145E+01 0.44816670696E+01
 0.47160048943E+01 0.50357457743E+01 0.54245515034E+01 0.58643071311E+01 0.63384875736E+01
 0.68329498680E+01 0.73335873062E+01 0.78222012760E+01 0.82730793128E+01 0.86526488601E+01
 0.89234027569E+01 0.90514660735E+01 0.90153347990E+01 0.88124021489E+01 0.84605905385E+01
 0.79945125747E+01 0.74579424966E+01 0.68955888835E+01 0.63465980825E+01 0.58406802925E+01
 0.53967487488E+01 0.50240107930E+01 0.47254648727E+01 0.45027331292E+01 0.43598965986E+01
 0.43042033449E+01 0.43434277353E+01 0.43434829880E+01 0.43917135966E+01 0.45327472251E+01
 0.47569474203E+01 0.50524964140E+01 0.54090934229E+01 0.58191525435E+01 0.62755815650E+01
 0.67674272514E+01 0.72758369492E+01 0.77723330547E+01 0.82202527064E+01 0.85792957066E+01
 0.88123948230E+01 0.88932724061E+01 0.88124021489E+01 0.85792947906E+01 0.82202389758E+01
 0.77723229613E+01 0.72758462823E+01 0.67674503876E+01 0.62755967892E+01 0.58191420227E+01
 0.54090595075E+01 0.50524656782E+01 0.47569526724E+01 0.45327920973E+01 0.43917586675E+01
 0.44817233337E+01 0.43434581569E+01 0.43041809519E+01 0.43598505914E+01 0.45027087271E+01
 0.47254755143E+01 0.50240379133E+01 0.53967687717E+01 0.58406805570E+01 0.63465816008E+01
 0.68955735324E+01 0.74579441080E+01 0.79945245284E+01 0.84605935612E+01 0.88123948230E+01
 0.90153347990E+01 0.90514779623E+01 0.89234072814E+01 0.86526334544E+01 0.82730598230E+01
 0.78222015365E+01 0.73336102741E+01 0.68329768131E+01 0.63384948111E+01 0.58642820236E+01
 0.54245075850E+01 0.50357225301E+01 0.47160318090E+01 0.49012033031E+01 0.45700909442E+01
 0.43433802760E+01 0.42230490834E+01 0.42052728646E+01 0.42845831217E+01 0.44575657918E+01
 0.47243199666E+01 0.50866680433E+01 0.55439104083E+01 0.60881665002E+01 0.67008685626E+01
 0.73508572271E+01 0.79945245284E+01 0.85792957066E+01 0.90514660735E+01 0.93671367266E+01
 0.95022863415E+01 0.94573134260E+01 0.92536928650E+01 0.89244472125E+01 0.85033168897E+01
 0.80177480050E+01 0.74881104967E+01 0.69318548021E+01 0.63688520430E+01 0.58240819898E+01
 0.53259205503E+01 0.56132853140E+01 0.50795465877E+01 0.46528003070E+01 0.43433212704E+01
 0.41522298187E+01 0.40763054922E+01 0.41122078591E+01 0.42592344859E+01 0.45198720952E+01
 0.48977698305E+01 0.53937623713E+01 0.60011223321E+01 0.67008685626E+01 0.74579441080E+01
 0.82202527064E+01 0.89234027569E+01 0.95022681178E+01 0.99062361714E+01 0.10111358937E+02
 0.10122928215E+02 0.99668579629E+01 0.96758338672E+01 0.92753244962E+01 0.87816003243E+01
 0.82068832695E+01 0.75688573649E+01 0.68969386387E+01 0.62309506063E+01 0.66233812960E+01
 0.58829985122E+01 0.52421029142E+01 0.47257343754E+01 0.43433405214E+01 0.40953747374E+01
 0.39792338578E+01 0.39930426630E+01 0.41375520262E+01 0.44163886420E+01 0.48343898669E+01
 0.53937623713E+01 0.60881665002E+01 0.68955735324E+01 0.77723330547E+01 0.86526488601E+01
 0.94573025352E+01 0.10111337268E+02 0.10562240520E+02 0.10783851695E+02 0.10802221482E+02
 0.10672774449E+02 0.10431379754E+02 0.10073702023E+02 0.95775738113E+01 0.89477057612E+01
 0.82137432885E+01 0.74195058525E+01 0.79069166304E+01 0.69797170509E+01 0.61204503567E+01
 0.53800588664E+01 0.47848718257E+01 0.43434371744E+01 0.40555813245E+01 0.39189281041E+01
 0.39321721116E+01 0.40965554246E+01 0.44163886420E+01 0.48977698305E+01 0.55439104083E+01
 0.63465816008E+01 0.72758369492E+01 0.82730793128E+01 0.92537068200E+01 0.10122913364E+02
 0.10783834354E+02 0.11157151656E+02 0.11270770509E+02 0.11230041901E+02 0.11133404608E+02
 0.11001416781E+02 0.10766871295E+02 0.10333808525E+02 0.96657006820E+01 0.88289059287E+01
 0.93790275151E+01 0.83316723527E+01 0.72799897266E+01 0.63121746434E+01 0.54853436418E+01
 0.48266175520E+01 0.43435487992E+01 0.40350959554E+01 0.38984739867E+01 0.39321721116E+01
 0.41375520262E+01 0.45198720952E+01 0.50866680433E+01 0.58406805570E+01 0.67674272514E+01
 0.78222012760E+01 0.89244712521E+01 0.99668646004E+01 0.10802208410E+02 0.11270768223E+02
 0.11367945337E+02 0.11247624858E+02 0.11120308685E+02 0.11118422371E+02 0.11211144634E+02
 0.11224192389E+02 0.10954841747E+02 0.10310202082E+02 0.10830366895E+02 0.98345660766E+01
 0.86706081236E+01 0.75073233923E+01 0.64468696077E+01 0.55513952836E+01 0.48482333604E+01
 0.43435975618E+01 0.40350959554E+01 0.39189281041E+01 0.39930426630E+01 0.42592344859E+01
 0.47243199666E+01 0.53967687717E+01 0.62755815650E+01 0.73335873062E+01 0.85033275779E+01
 0.96758522859E+01 0.10672767203E+02 0.11230038331E+02 0.11247647122E+02 0.10876058908E+02
 0.10441452901E+02 0.10267114132E+02 0.10488127949E+02 0.10969351652E+02 0.11380129831E+02
 0.11384029655E+02 0.11620167360E+02 0.11204351678E+02 0.10172899274E+02 0.89061645956E+01
 0.76489900680E+01 0.65163628120E+01 0.55739122495E+01 0.48482333604E+01 0.43435487992E+01
 0.40555813245E+01 0.39792338578E+01 0.41122078591E+01 0.44575657918E+01 0.50240379133E+01
 0.58191525435E+01 0.68329498680E+01 0.80177367064E+01 0.92753451493E+01 0.10431380114E+02
 0.11133379552E+02 0.11120321278E+02 0.10441502398E+02 0.94665477371E+01 0.87212792015E+01
 0.86220835790E+01 0.92513452261E+01 0.10306222029E+02 0.11256206071E+02 0.10955394653E+02
 0.11709898323E+02 0.11437147827E+02 0.10379343220E+02 0.90267825543E+01 0.76971019409E+01
 0.65163628120E+01 0.55513952836E+01 0.48266175520E+01 0.43434371744E+01 0.40953747374E+01
 0.40763054922E+01 0.42845831217E+01 0.47254755143E+01 0.54090934229E+01 0.63384875736E+01
 0.74880813861E+01 0.87816122510E+01 0.10073727731E+02 0.11001389931E+02 0.11118381457E+02
 0.10267144314E+02 0.87213471769E+01 0.71150343345E+01 0.61692909955E+01 0.63417370600E+01
 0.75882413469E+01 0.93775093247E+01 0.84280047207E+01 0.10628110875E+02 0.11722907491E+02
 0.11546460429E+02 0.10448492001E+02 0.90267825543E+01 0.76489900680E+01 0.64468696077E+01
 0.54853436418E+01 0.47848718257E+01 0.43433405214E+01 0.41522298187E+01 0.42052728646E+01
 0.45027087271E+01 0.50524964140E+01 0.58643071311E+01 0.69318253445E+01 0.82068646996E+01
 0.95776142948E+01 0.10766894216E+02 0.11211090997E+02 0.10488080274E+02 0.86221243043E+01
 0.61693569543E+01 0.40391788306E+01 0.31035858303E+01 0.37810079898E+01 0.58226187781E+01
 0.43443797185E+01 0.77218481090E+01 0.10420006489E+02 0.11719388084E+02 0.11546460429E+02
 0.10379343220E+02 0.89061645956E+01 0.75073233923E+01 0.63121746434E+01 0.53800588664E+01
 0.47257343754E+01 0.43433212704E+01 0.42230490834E+01 0.43598505914E+01 0.47569474203E+01
 0.54245515034E+01 0.63688532067E+01 0.75688090750E+01 0.89477081093E+01 0.10333871718E+02
 0.11224205089E+02 0.10969284828E+02 0.92513050954E+01 0.63417733853E+01 0.31036237823E+01
 0.68727178246E+00 0.32486794132E-01 0.14234822006E+01 -.23825598036E+00 0.35024556429E+01
 0.74612599973E+01 0.10420006489E+02 0.11722907491E+02 0.11437147827E+02 0.10172899274E+02
 0.86706081236E+01 0.72799897266E+01 0.61204503567E+01 0.52421029142E+01 0.46528003070E+01
 0.43433802760E+01 0.43041809519E+01 0.45327472251E+01 0.50357457743E+01 0.58241263304E+01
 0.68969090696E+01 0.82136879015E+01 0.96657258117E+01 0.10954910145E+02 0.11380129219E+02
 0.10306166221E+02 0.75882233571E+01 0.37810228595E+01 0.32476704800E-01 -.23466175886E+01
 -.24576242902E+01 -.38526520219E+01 -.83735883112E+00 0.35024556429E+01 0.77218481090E+01
 0.10628110875E+02 0.11709898323E+02 0.11204351678E+02 0.98345660766E+01 0.83316723527E+01
 0.69797170509E+01 0.58829985122E+01 0.50795465877E+01 0.45700909442E+01 0.43434581569E+01
 0.43917135966E+01 0.47160048943E+01 0.53259701477E+01 0.62309816921E+01 0.74194523205E+01
 0.88288595678E+01 0.10310240305E+02 0.11384079428E+02 0.11256195041E+02 0.93774898165E+01
 0.58226318343E+01 0.14234653579E+01 -.24576853372E+01 -.44649008613E+01 -.38526898155E+01
 -.28974504303E+01 0.23275384237E+00 0.44188550420E+01 0.82785944295E+01 0.10748279434E+02
 0.11450810684E+02 0.10710821755E+02 0.92691625917E+01 0.77793375455E+01 0.64672605664E+01
 0.54233338426E+01 0.46751877442E+01 0.42170918902E+01 0.40350049451E+01 0.41210291397E+01
 0.44786225468E+01 0.51206038586E+01 0.60576663758E+01 0.72751384994E+01 0.87029550410E+01
 0.10176248899E+02 0.11170634121E+02 0.10913435771E+02 0.89328435853E+01 0.54009316854E+01
 0.12132677822E+01 -.22865053693E+01 -.28975327645E+01 -.38527822845E+01 -.22865534853E+01
 0.12132839123E+01 0.54009491142E+01 0.89328128565E+01 0.10913422736E+02 0.11170720425E+02
 0.10176383119E+02 0.87030272271E+01 0.72751525313E+01 0.60577007747E+01 0.51206485748E+01
 0.44786072888E+01 0.41209794018E+01 0.40350109695E+01 0.42171423977E+01 0.46751894022E+01
 0.54232810568E+01 0.64672299107E+01 0.77793219957E+01 0.92690727527E+01 0.10710662932E+02
 0.11450707665E+02 0.10748297622E+02 0.82786606124E+01 0.44188774621E+01 0.23271405824E+00
 0.35305283510E+00 -.21567136849E+01 -.24577818007E+01 -.46236022916E+00 0.30620770852E+01
 0.68551131283E+01 0.97240698602E+01 0.11010824673E+02 0.10757197186E+02 0.95419600713E+01
 0.80887629891E+01 0.67507291413E+01 0.56489575882E+01 0.48315856736E+01 0.43016549705E+01
 0.40461785862E+01 0.40555300694E+01 0.43307950255E+01 0.48828994148E+01 0.57251672613E+01
 0.68568345371E+01 0.82374843587E+01 0.97600258327E+01 0.11132754372E+02 0.11648380668E+02
 0.10651829106E+02 0.79781142602E+01 0.41663334391E+01 0.47226378056E+01 0.15555821564E+01
 -.22286779664E+00 0.32365550843E-01 0.21794807318E+01 0.53640055972E+01 0.84247338865E+01
 0.10406457536E+02 0.10918131113E+02 0.10188834040E+02 0.88443981847E+01 0.74566594884E+01
 0.62324583106E+01 0.52605977606E+01 0.45686685747E+01 0.41510988350E+01 0.39951559581E+01
 0.40953774303E+01 0.44567756277E+01 0.50915899624E+01 0.60105116599E+01 0.72055978929E+01
 0.86256428319E+01 0.10151626472E+02 0.11444936522E+02 0.11815332475E+02 0.10722926241E+02
 0.81474417600E+01 0.87628250276E+01 0.59638439643E+01 0.35756024057E+01 0.24938189107E+01
 0.31035322575E+01 0.50988639053E+01 0.76404216298E+01 0.97587046308E+01 0.10781367239E+02
 0.10571802362E+02 0.94915959395E+01 0.81301743291E+01 0.68387038800E+01 0.57456847016E+01
 0.49099989887E+01 0.43423338929E+01 0.40322390534E+01 0.39693341486E+01 0.41522898318E+01
 0.45885775870E+01 0.52899275655E+01 0.62632230919E+01 0.74937721919E+01 0.89225046301E+01
 0.10424091560E+02 0.11649912655E+02 0.11975713403E+02 0.10984090709E+02 0.11370474942E+02
 0.96667367107E+01 0.76000839346E+01 0.59796819308E+01 0.54478297220E+01 0.61692982611E+01
 0.77575982537E+01 0.94775319283E+01 0.10605971602E+02 0.10753288208E+02 0.99893617900E+01
 0.87380600632E+01 0.74373857576E+01 0.62660299179E+01 0.53129752822E+01 0.46116906060E+01
 0.41610378549E+01 0.39492532463E+01 0.39693488763E+01 0.42231547101E+01 0.47188808127E+01
 0.54663307538E+01 0.64681434560E+01 0.77040149442E+01 0.91102621237E+01 0.10562121246E+02
 0.11739288593E+02 0.12110788700E+02 0.12163172048E+02 0.11751184501E+02 0.10617752862E+02
 0.92617155300E+01 0.82875543119E+01 0.81045468173E+01 0.87213179115E+01 0.97513898415E+01
 0.10623069721E+02 0.10870810086E+02 0.10348557131E+02 0.92633072765E+01 0.80051908644E+01
 0.68027833758E+01 0.57661643207E+01 0.49527755684E+01 0.43771047871E+01 0.40314904624E+01
 0.39054259590E+01 0.39951952624E+01 0.43043121857E+01 0.48402522320E+01 0.56100942188E+01
 0.66123948777E+01 0.78226667435E+01 0.91756222977E+01 0.10552960681E+02 0.11691210035E+02
 0.11478633388E+02 0.12059125938E+02 0.11974577389E+02 0.11365426122E+02 0.10603925818E+02
 0.10097518803E+02 0.10069249263E+02 0.10441493014E+02 0.10888863288E+02 0.11025661057E+02
 0.10616909534E+02 0.96958350612E+01 0.85247702567E+01 0.73389405385E+01 0.62587526681E+01
 0.53609932391E+01 0.46788327236E+01 0.42147156031E+01 0.39588467751E+01 0.39031521440E+01
 0.40462268520E+01 0.43918459928E+01 0.49458590922E+01 0.57124374984E+01 0.66865698398E+01
 0.78409561339E+01 0.91111777723E+01 0.10388563173E+02 0.10071253600E+02 0.11084748747E+02
 0.11739876585E+02 0.11920436027E+02 0.11723824043E+02 0.11395243286E+02 0.11176578169E+02
 0.11162079374E+02 0.11247649392E+02 0.11202092751E+02 0.10814380080E+02 0.10027331944E+02
 0.89779938369E+01 0.78557866268E+01 0.67774386739E+01 0.58306322747E+01 0.50660227000E+01
 0.45004419537E+01 0.41303923052E+01 0.39467216171E+01 0.39437023009E+01 0.41210121214E+01
 0.44817725231E+01 0.50300064588E+01 0.57672624077E+01 0.66855848076E+01 0.77559996555E+01
 0.89169242105E+01 0.86014752744E+01 0.96158102861E+01 0.10518580342E+02 0.11189384028E+02
 0.11540265362E+02 0.11619940487E+02 0.11564392099E+02 0.11492996412E+02 0.11425197927E+02
 0.11270776751E+02 0.10898161766E+02 0.10235613937E+02 0.93384711313E+01 0.83279923036E+01
 0.73023196503E+01 0.63504772915E+01 0.55359139200E+01 0.48909285787E+01 0.44232272907E+01
 0.41277132821E+01 0.39969659211E+01 0.40268087937E+01 0.42170868366E+01 0.45700909340E+01
 0.50884177124E+01 0.57715307610E+01 0.66091049571E+01 0.75714341325E+01 0.72975191875E+01
 0.81824273314E+01 0.90481462994E+01 0.98230367156E+01 0.10447817069E+02 0.10872716682E+02
 0.11104385983E+02 0.11197166023E+02 0.11191197681E+02 0.11072562360E+02 0.10783844975E+02
 0.10277304770E+02 0.95699326548E+01 0.87212111964E+01 0.78040980990E+01 0.69001035260E+01
 0.60786073433E+01 0.53851070892E+01 0.48408850424E+01 0.44499832312E+01 0.42080290213E+01
 0.41092359975E+01 0.41501880888E+01 0.43306916583E+01 0.46527485167E+01 0.51182965431E+01
 0.57252904901E+01 0.64615313010E+01 0.62516010590E+01 0.69505834018E+01 0.76854398848E+01
 0.84042020235E+01 0.90566728370E+01 0.96054844652E+01 0.10031141868E+02 0.10325975471E+02
 0.10492352988E+02 0.10526877782E+02 0.10407848131E+02 0.10111345747E+02 0.96336899864E+01
 0.89953068615E+01 0.82447539162E+01 0.74485081486E+01 0.66737727797E+01 0.59741054044E+01
 0.53834561792E+01 0.49179133642E+01 0.45811359553E+01 0.43701934654E+01 0.42804783301E+01
 0.43091620321E+01 0.44566373747E+01 0.47256410711E+01 0.51182755817E+01 0.56314477632E+01
 0.54954053205E+01 0.59916828962E+01 0.65517726598E+01 0.71419308555E+01 0.77259757516E+01
 0.82718983891E+01 0.87561120720E+01 0.91631415635E+01 0.94809626693E+01 0.96949042673E+01
 0.97844135993E+01 0.97259887080E+01 0.95022705066E+01 0.91131584491E+01 0.85825145400E+01
 0.79558127349E+01 0.72894630247E+01 0.66375917353E+01 0.60426670795E+01 0.55324588990E+01
 0.51215464422E+01 0.48145698807E+01 0.46100271241E+01 0.45045084105E+01 0.44965551918E+01
 0.45884407458E+01 0.47847593960E+01 0.50883578423E+01 0.50299148421E+01 0.53246708548E+01
 0.56968567225E+01 0.61252021586E+01 0.65857444164E+01 0.70563446374E+01 0.75189272995E+01
 0.79587395466E+01 0.83613562344E+01 0.87090355636E+01 0.89784516420E+01 0.91417652289E+01
 0.91719868749E+01 0.90514602139E+01 0.87799445524E+01 0.83779796731E+01 0.78832294053E+01
 0.73414498936E+01 0.67966626894E+01 0.62845937638E+01 0.58302919106E+01 0.54484032388E+01
 0.51448086001E+01 0.49196744515E+01 0.47718553000E+01 0.47029847879E+01 0.47187858535E+01
 0.48265123308E+01 0.48481558252E+01 0.49457449705E+01 0.51284835955E+01 0.53838583521E+01
 0.56957798509E+01 0.60495384329E+01 0.64341279608E+01 0.68409164683E+01 0.72600830905E+01
 0.76770303917E+01 0.80702421055E+01 0.84113055912E+01 0.86676945263E+01 0.88085551771E+01
 0.88123818980E+01 0.86737615389E+01 0.84059239235E+01 0.80375979210E+01 0.76057113259E+01
 0.71474559385E+01 0.66946076315E+01 0.62707529997E+01 0.58907050557E+01 0.55617758065E+01
 0.52870678845E+01 0.50699743448E+01 0.49175236355E+01 0.48402203763E+01 0.49458847488E+01
 0.48481942954E+01 0.48401291928E+01 0.49174250600E+01 0.50699558392E+01 0.52870835355E+01
 0.55617525938E+01 0.58906447131E+01 0.62706924249E+01 0.66945594384E+01 0.71474255964E+01
 0.76057116092E+01 0.80376179227E+01 0.84059322659E+01 0.86737538327E+01 0.88123796184E+01
 0.88085574845E+01 0.86676817336E+01 0.84112865119E+01 0.80702477278E+01 0.76770691238E+01
 0.72601469682E+01 0.68410060845E+01 0.64342190890E+01 0.60495659466E+01 0.56957290161E+01
 0.53838296922E+01 0.51285719243E+01 0.53247131732E+01 0.50300695202E+01 0.48266207225E+01
 0.47187705580E+01 0.47029201145E+01 0.47718225014E+01 0.49196633354E+01 0.51447844153E+01
 0.54483720162E+01 0.58302662250E+01 0.62845666318E+01 0.67966400027E+01 0.73414507012E+01
 0.78832431719E+01 0.83779764263E+01 0.87799271252E+01 0.90514543548E+01 0.91719894832E+01
 0.91417566415E+01 0.89784437359E+01 0.87090539916E+01 0.83613980594E+01 0.79587996204E+01
 0.75190249361E+01 0.70564600009E+01 0.65857841522E+01 0.61251204856E+01 0.56967643296E+01
 0.59915406756E+01 0.54953935236E+01 0.50885011945E+01 0.47849165713E+01 0.45885059310E+01
 0.44965513148E+01 0.45044886759E+01 0.46100015820E+01 0.48145441921E+01 0.51215394821E+01
 0.55324626853E+01 0.60426562152E+01 0.66375747854E+01 0.72894654136E+01 0.79558211894E+01
 0.85824991466E+01 0.91131309414E+01 0.95022612220E+01 0.97259913967E+01 0.97844109999E+01
 0.96949136820E+01 0.94809978482E+01 0.91631754493E+01 0.87561390835E+01 0.82719706155E+01
 0.77260975001E+01 0.71419887369E+01 0.65516802483E+01 0.69505088953E+01 0.62514493557E+01
 0.56314024432E+01 0.51183930000E+01 0.47258128693E+01 0.44567571369E+01 0.43092133665E+01
 0.42804790609E+01 0.43701624918E+01 0.45811126952E+01 0.49179266512E+01 0.53834796930E+01
 0.59741036371E+01 0.66737634973E+01 0.74485204066E+01 0.82447647270E+01 0.89952836156E+01
 0.96336530209E+01 0.10111327618E+02 0.10407839612E+02 0.10526871334E+02 0.10492377556E+02
 0.10326027464E+02 0.10031157451E+02 0.96054518104E+01 0.90566843567E+01 0.84043030567E+01
 0.76855143661E+01 0.81825067620E+01 0.72974855232E+01 0.64614163348E+01 0.57252444256E+01
 0.51183803430E+01 0.46528932516E+01 0.43308175323E+01 0.41502614349E+01 0.41092457713E+01
 0.42079969930E+01 0.44499693911E+01 0.48409171579E+01 0.53851421579E+01 0.60786110427E+01
 0.69001083189E+01 0.78041305785E+01 0.87212315643E+01 0.95699047080E+01 0.10277256766E+02
 0.10783807805E+02 0.11072524357E+02 0.11191169642E+02 0.11197196377E+02 0.11104452929E+02
 0.10872712459E+02 0.10447715312E+02 0.98229652411E+01 0.90481985978E+01 0.96157968837E+01
 0.86015407649E+01 0.75714459643E+01 0.66090549034E+01 0.57715075869E+01 0.50884610410E+01
 0.45701705893E+01 0.42171689493E+01 0.40268644565E+01 0.39969678897E+01 0.41276834187E+01
 0.44232309008E+01 0.48909799832E+01 0.55359562579E+01 0.63504872563E+01 0.73023449292E+01
 0.83280490133E+01 0.93384998084E+01 0.10235579340E+02 0.10898101538E+02 0.11270715533E+02
 0.11425119024E+02 0.11492932278E+02 0.11564416524E+02 0.11620019892E+02 0.11540251792E+02
 0.11189228979E+02 0.10518429065E+02 0.11084549233E+02 0.10071177960E+02 0.89169575168E+01
 0.77560411422E+01 0.66855979225E+01 0.57672650218E+01 0.50300026466E+01 0.44817665485E+01
 0.41210225835E+01 0.39437173357E+01 0.39467077248E+01 0.41303697173E+01 0.45004692640E+01
 0.50660932125E+01 0.58306799641E+01 0.67774566485E+01 0.78558326978E+01 0.89780665781E+01
 0.10027356629E+02 0.10814334097E+02 0.11202027866E+02 0.11247578218E+02 0.11161970571E+02
 0.11176478386E+02 0.11395252451E+02 0.11723910940E+02 0.11920430105E+02 0.11739705444E+02
 0.12058982667E+02 0.11478436083E+02 0.10388450349E+02 0.91111703454E+01 0.78410007812E+01
 0.66866209432E+01 0.57124523392E+01 0.49458073355E+01 0.43917608051E+01 0.40461720317E+01
 0.39031310063E+01 0.39588225216E+01 0.42147061484E+01 0.46788847836E+01 0.53610788453E+01
 0.62588025881E+01 0.73389648342E+01 0.85248284582E+01 0.96959047498E+01 0.10616912184E+02
 0.11025603100E+02 0.10888816704E+02 0.10441450794E+02 0.10069148900E+02 0.10097402998E+02
 0.10603914939E+02 0.11365509700E+02 0.11974591644E+02 0.11751218253E+02 0.12163089966E+02
 0.11691066229E+02 0.10552848535E+02 0.91755801664E+01 0.78226929836E+01 0.66124541104E+01
 0.56101055715E+01 0.48401635022E+01 0.43041795120E+01 0.39951098953E+01 0.39053932875E+01
 0.40314682300E+01 0.43771103501E+01 0.49528456505E+01 0.57662550682E+01 0.68028282506E+01
 0.80052144711E+01 0.92633630033E+01 0.10348602683E+02 0.10870777247E+02 0.10623008264E+02
 0.97513952942E+01 0.87213560677E+01 0.81045074310E+01 0.82874541869E+01 0.92616839434E+01
 0.10617815841E+02 0.96667609264E+01 0.11370514545E+02 0.12110779345E+02 0.11739232200E+02
 0.10562045830E+02 0.91102038073E+01 0.77040175191E+01 0.64681935224E+01 0.54663326944E+01
 0.47187768679E+01 0.42230177231E+01 0.39692757999E+01 0.39492353332E+01 0.41610254731E+01
 0.46117053164E+01 0.53130492944E+01 0.62661103763E+01 0.74374137579E+01 0.87380725460E+01
 0.99894020433E+01 0.10753298300E+02 0.10605903184E+02 0.94774817209E+01 0.77576822150E+01
 0.61694522461E+01 0.54478906106E+01 0.59796258342E+01 0.76000341652E+01 0.59637819813E+01
 0.87628012899E+01 0.10984118625E+02 0.11975766545E+02 0.11649950374E+02 0.10424073905E+02
 0.89224528480E+01 0.74937624489E+01 0.62632642697E+01 0.52899250828E+01 0.45884815256E+01
 0.41521836665E+01 0.39693020555E+01 0.40322473224E+01 0.43423279254E+01 0.49100105082E+01
 0.57457455396E+01 0.68387567116E+01 0.81301716435E+01 0.94915875182E+01 0.10571822910E+02
 0.10781347975E+02 0.97586158199E+01 0.76403939725E+01 0.50990232255E+01 0.31037920933E+01
 0.24939794472E+01 0.35756006070E+01 0.15556217283E+01 0.47225739487E+01 0.81473777522E+01
 0.10722932577E+02 0.11815425113E+02 0.11445049483E+02 0.10151666484E+02 0.86256143472E+01
 0.72055939960E+01 0.60105537411E+01 0.50915903086E+01 0.44567001161E+01 0.40953154594E+01
 0.39951683951E+01 0.41511256528E+01 0.45686571439E+01 0.52605939943E+01 0.62324929065E+01
 0.74566710279E+01 0.88443532228E+01 0.10188798975E+02 0.10918138409E+02 0.10406430965E+02
 0.84246490425E+01 0.53639987760E+01 0.21796721080E+01 0.32665991922E-01 -.22265652241E+00
 -.21565307761E+01 0.35310576774E+00 0.41662823670E+01 0.79780340882E+01 0.10651817060E+02
 0.11648488094E+02 0.11132908508E+02 0.97601049850E+01 0.82374829415E+01 0.68568486014E+01
 0.57252167011E+01 0.48829028122E+01 0.43307375561E+01 0.40555041777E+01 0.40462194130E+01
 0.43016827382E+01 0.48315581193E+01 0.56489346463E+01 0.67507346816E+01 0.80887286895E+01
 0.95418678782E+01 0.10757134785E+02 0.11010830667E+02 0.97240631084E+01 0.68550554310E+01
 0.30620754634E+01 -.46220758014E+00 -.24575404150E+01 -.23822401220E+00 0.35307890572E+00
 0.27831743183E+01 0.61504732393E+01 0.92771568153E+01 0.11223304024E+02 0.11633896091E+02
 0.10778595728E+02 0.93138060779E+01 0.78171727564E+01 0.64921983587E+01 0.54265984289E+01
 0.46478527556E+01 0.41502372241E+01 0.39188800365E+01 0.39437977844E+01 0.42256500196E+01
 0.47758377762E+01 0.56081102827E+01 0.67181205617E+01 0.80551871342E+01 0.94979769311E+01
 0.10705974358E+02 0.11006698595E+02 0.98934163173E+01 0.73794381208E+01 0.41185055028E+01
 0.12133184969E+01 0.23271356740E+00 -.83740820025E+00 0.23273711328E+00 0.30292761325E+01
 0.65088584600E+01 0.94812758995E+01 0.11113782741E+02 0.11211132798E+02 0.10173742220E+02
 0.86996762813E+01 0.72696706272E+01 0.60417455660E+01 0.50860506159E+01 0.44179999910E+01
 0.40268342362E+01 0.38984312605E+01 0.40269341154E+01 0.44180060298E+01 0.50859581156E+01
 0.60417459167E+01 0.72697665469E+01 0.86996672459E+01 0.10173619238E+02 0.11211115956E+02
 0.11113920571E+02 0.94813587612E+01 0.65087843075E+01 0.30291799077E+01 0.27831489770E+01
 0.35302908414E+00 -.23831581931E+00 0.12133060835E+01 0.41186417177E+01 0.73795461956E+01