unknown system                          
   1.00000000000000     
     0.000000    2.751241    2.751241
     2.751241   -0.000000    2.751241
     2.751241    2.751241    0.000000
   Si
     2
Direct
  0.500000  0.500000  0.500000
  0.750000  0.750000  0.750000
 
   28   28   28
 0.66184393328E+00 0.68852701256E+00 0.77080559550E+00 0.91574112917E+00 0.11356392846E+01
 0.14470483319E+01 0.18670100987E+01 0.24065247751E+01 0.30627601291E+01 0.38121601651E+01
 0.46062244035E+01 0.53717032015E+01 0.60178145861E+01 0.64526149621E+01 0.66062790874E+01
 0.64526041523E+01 0.60178248254E+01 0.53717467242E+01 0.46062670194E+01 0.38121586563E+01
 0.30627127150E+01 0.24064707855E+01 0.18669865426E+01 0.14470587274E+01 0.11356617026E+01
 0.91575458750E+00 0.77080556941E+00 0.68852228201E+00 0.68852701256E+00 0.73390956470E+00
 0.82795754798E+00 0.97768903998E+00 0.11938714030E+01 0.14894037637E+01 0.18753546781E+01
 0.23551132777E+01 0.29182124074E+01 0.35357069708E+01 0.41587304937E+01 0.47218054118E+01
 0.51524211605E+01 0.53866576193E+01 0.53866586152E+01 0.51524326717E+01 0.47218314737E+01
 0.41587464376E+01 0.35356832621E+01 0.29181575227E+01 0.23550705698E+01 0.18753548376E+01
 0.14894359962E+01 0.11939035762E+01 0.97770193217E+00 0.82795404452E+00 0.73390164226E+00
 0.68852345635E+00 0.77080559550E+00 0.82795754798E+00 0.92745567631E+00 0.10758959458E+01
 0.12820878069E+01 0.15550618560E+01 0.19003648091E+01 0.23152545299E+01 0.27842080552E+01
 0.32763868880E+01 0.37464662814E+01 0.41399062742E+01 0.44029537906E+01 0.44955944236E+01
 0.44029588547E+01 0.41399131790E+01 0.37464614825E+01 0.32763584698E+01 0.27841687706E+01
 0.23152360184E+01 0.19003819610E+01 0.15550956413E+01 0.12821094324E+01 0.10758965042E+01
 0.92744580755E+00 0.82794886096E+00 0.77080160669E+00 0.75216379119E+00 0.91574112917E+00
 0.97768903998E+00 0.10758959458E+01 0.12162662088E+01 0.14054219882E+01 0.16487166122E+01
 0.19471291324E+01 0.22936234039E+01 0.26702224037E+01 0.30472019905E+01 0.33854758565E+01
 0.36426332834E+01 0.37819565430E+01 0.37819567853E+01 0.36426336393E+01 0.33854733178E+01
 0.30471933495E+01 0.26702134132E+01 0.22936264407E+01 0.19471451879E+01 0.16487292066E+01
 0.14054171534E+01 0.12162498720E+01 0.10758832754E+01 0.97768513543E+00 0.91574107098E+00
 0.88584259408E+00 0.88584249380E+00 0.11356392846E+01 0.11938714030E+01 0.12820878069E+01
 0.14054219882E+01 0.15684556095E+01 0.17735292608E+01 0.20183774009E+01 0.22936218893E+01
 0.25811954979E+01 0.28547891360E+01 0.30830085759E+01 0.32351980320E+01 0.32887193192E+01
 0.32352004844E+01 0.30830173995E+01 0.28548032173E+01 0.25812075888E+01 0.22936265655E+01
 0.20183734948E+01 0.17735165452E+01 0.15684373949E+01 0.14054085809E+01 0.12820874928E+01
 0.11938791781E+01 0.11356437282E+01 0.11028217296E+01 0.10922600128E+01 0.11028225963E+01
 0.14470483319E+01 0.14894037637E+01 0.15550618560E+01 0.16487166122E+01 0.17735292608E+01
 0.19298716300E+01 0.21137320759E+01 0.23152536947E+01 0.25182103714E+01 0.27011648750E+01
 0.28407069399E+01 0.29164611102E+01 0.29164651407E+01 0.28407200777E+01 0.27011834097E+01
 0.25182199716E+01 0.23152412962E+01 0.21137020892E+01 0.19298434064E+01 0.17735193105E+01
 0.16487269876E+01 0.15550823719E+01 0.14894203503E+01 0.14470521648E+01 0.14227802072E+01
 0.14120160990E+01 0.14120202202E+01 0.14227860837E+01 0.18670100987E+01 0.18753546781E+01
 0.19003648091E+01 0.19471291324E+01 0.20183774009E+01 0.21137320759E+01 0.22289014041E+01
 0.23551167350E+01 0.24792868663E+01 0.25853649226E+01 0.26572354557E+01 0.26827190166E+01
 0.26572480664E+01 0.25853782730E+01 0.24792837024E+01 0.23550889841E+01 0.22288621471E+01
 0.21137079196E+01 0.20183839710E+01 0.19471560119E+01 0.19003876818E+01 0.18753597600E+01
 0.18670028368E+01 0.18686645814E+01 0.18733550497E+01 0.18756132655E+01 0.18733579503E+01
 0.18686720842E+01 0.24065247751E+01 0.23551132777E+01 0.23152545299E+01 0.22936234039E+01
 0.22936218893E+01 0.23152536947E+01 0.23551167350E+01 0.24065285460E+01 0.24599943288E+01
 0.25044784510E+01 0.25298265307E+01 0.25298351453E+01 0.25044909526E+01 0.24599878145E+01
 0.24065002881E+01 0.23550898659E+01 0.23152527282E+01 0.22936465475E+01 0.22936484630E+01
 0.23152548299E+01 0.23550886116E+01 0.24064994786E+01 0.24599908945E+01 0.25044936154E+01
 0.25298331980E+01 0.25298236663E+01 0.25044786875E+01 0.24599942756E+01 0.30627601291E+01
 0.29182124074E+01 0.27842080552E+01 0.26702224037E+01 0.25811954979E+01 0.25182103714E+01
 0.24792868663E+01 0.24599943288E+01 0.24540306203E+01 0.24543577896E+01 0.24552227738E+01
 0.24543664298E+01 0.24540259043E+01 0.24599710243E+01 0.24792720357E+01 0.25182291024E+01
 0.25812352730E+01 0.26702449698E+01 0.27841912122E+01 0.29181709389E+01 0.30627285903E+01
 0.32037806556E+01 0.33238405314E+01 0.34050765022E+01 0.34338562480E+01 0.34050501645E+01
 0.33238127770E+01 0.32037794262E+01 0.38121601651E+01 0.35357069708E+01 0.32763868880E+01
 0.30472019905E+01 0.28547891360E+01 0.27011648750E+01 0.25853649226E+01 0.25044784510E+01
 0.24543577896E+01 0.24307063345E+01 0.24307045618E+01 0.24543444484E+01 0.25044501349E+01
 0.25853454097E+01 0.27011812625E+01 0.28548319918E+01 0.30472320173E+01 0.32763814762E+01
 0.35356825808E+01 0.38121463787E+01 0.40854841371E+01 0.43291027032E+01 0.45137493729E+01
 0.46136891185E+01 0.46136847822E+01 0.45137366032E+01 0.43290863269E+01 0.40854773262E+01
 0.46062244035E+01 0.41587304937E+01 0.37464662814E+01 0.33854758565E+01 0.30830085759E+01
 0.28407069399E+01 0.26572354557E+01 0.25298265307E+01 0.24552227738E+01 0.24307045618E+01
 0.24551966320E+01 0.25297833738E+01 0.26572015779E+01 0.28407105282E+01 0.30830480522E+01
 0.33855189449E+01 0.37464875240E+01 0.41587358434E+01 0.46062317969E+01 0.50618071487E+01
 0.54874212377E+01 0.58382081083E+01 0.60704560579E+01 0.61518651974E+01 0.60704712752E+01
 0.58382226662E+01 0.54874213680E+01 0.50617968188E+01 0.53717032015E+01 0.47218054118E+01
 0.41399062742E+01 0.36426332834E+01 0.32351980320E+01 0.29164611102E+01 0.26827190166E+01
 0.25298351453E+01 0.24543664298E+01 0.24543444484E+01 0.25297833738E+01 0.26826736286E+01
 0.29164575547E+01 0.32352413327E+01 0.36426933663E+01 0.41399487995E+01 0.47218216019E+01
 0.53717051330E+01 0.60569992902E+01 0.67275946079E+01 0.73195042652E+01 0.77644255737E+01
 0.80038790768E+01 0.80038797392E+01 0.77644284187E+01 0.73195090317E+01 0.67275985815E+01
 0.60570012380E+01 0.60178145861E+01 0.51524211605E+01 0.44029537906E+01 0.37819565430E+01
 0.32887193192E+01 0.29164651407E+01 0.26572480664E+01 0.25044909526E+01 0.24540259043E+01
 0.25044501349E+01 0.26572015779E+01 0.29164575547E+01 0.32887672874E+01 0.37820319911E+01
 0.44030087732E+01 0.51524302650E+01 0.60177905731E+01 0.69656700695E+01 0.79368981555E+01
 0.88478999858E+01 0.96003562720E+01 0.10099008148E+02 0.10273825513E+02 0.10098967778E+02
 0.96003037901E+01 0.88478671272E+01 0.79368986380E+01 0.69656953968E+01 0.64526149621E+01
 0.53866576193E+01 0.44955944236E+01 0.37819567853E+01 0.32352004844E+01 0.28407200777E+01
 0.25853782730E+01 0.24599878145E+01 0.24599710243E+01 0.25853454097E+01 0.28407105282E+01
 0.32352413327E+01 0.37820319911E+01 0.44956528552E+01 0.53866610971E+01 0.64525766631E+01
 0.76667856183E+01 0.89689618672E+01 0.10261479582E+02 0.11415809347E+02 0.12291348849E+02
 0.12765279737E+02 0.12765257520E+02 0.12291288670E+02 0.11415731709E+02 0.10261417260E+02
 0.89689450408E+01 0.76668156638E+01 0.66062790874E+01 0.53866586152E+01 0.44029588547E+01
 0.36426336393E+01 0.30830173995E+01 0.27011834097E+01 0.24792837024E+01 0.24065002881E+01
 0.24792720357E+01 0.27011812625E+01 0.30830480522E+01 0.36426933663E+01 0.44030087732E+01
 0.53866610971E+01 0.66062464939E+01 0.80504871260E+01 0.96695974023E+01 0.11364636219E+02
 0.12986265990E+02 0.14348783376E+02 0.15263420281E+02 0.15586147118E+02 0.15263445661E+02
 0.14348782627E+02 0.12986203600E+02 0.11364543464E+02 0.96695416841E+01 0.80504960290E+01
 0.64526041523E+01 0.51524326717E+01 0.41399131790E+01 0.33854733178E+01 0.28548032173E+01
 0.25182199716E+01 0.23550889841E+01 0.23550898659E+01 0.25182291024E+01 0.28548319918E+01
 0.33855189449E+01 0.41399487995E+01 0.51524302650E+01 0.64525766631E+01 0.80504871260E+01
 0.99184236320E+01 0.11973071934E+02 0.14063771920E+02 0.15974561095E+02 0.17442703418E+02
 0.18237308317E+02 0.18237368219E+02 0.17442819424E+02 0.15974610641E+02 0.14063701596E+02
 0.11972943740E+02 0.99183380749E+01 0.80504805605E+01 0.60178248254E+01 0.47218314737E+01
 0.37464614825E+01 0.30471933495E+01 0.25812075888E+01 0.23152412962E+01 0.22288621471E+01
 0.23152527282E+01 0.25812352730E+01 0.30472320173E+01 0.37464875240E+01 0.47218216019E+01
 0.60177905731E+01 0.76667856183E+01 0.96695974023E+01 0.11973071934E+02 0.14448670218E+02
 0.16876695274E+02 0.18931524661E+02 0.20298154995E+02 0.20776345972E+02 0.20298272023E+02
 0.18931648508E+02 0.16876712964E+02 0.14448569226E+02 0.11972938289E+02 0.96695235050E+01
 0.76667904697E+01 0.53717467242E+01 0.41587464376E+01 0.32763584698E+01 0.26702134132E+01
 0.22936265655E+01 0.21137020892E+01 0.21137079196E+01 0.22936465475E+01 0.26702449698E+01
 0.32763814762E+01 0.41587358434E+01 0.53717051330E+01 0.69656700695E+01 0.89689618672E+01
 0.11364636219E+02 0.14063771920E+02 0.16876695274E+02 0.19460283035E+02 0.21424450860E+02
 0.22481505158E+02 0.22481554627E+02 0.21424554066E+02 0.19460345790E+02 0.16876659080E+02
 0.14063662423E+02 0.11364533643E+02 0.89689273024E+01 0.69656991900E+01 0.46062670194E+01
 0.35356832621E+01 0.27841687706E+01 0.22936264407E+01 0.20183734948E+01 0.19298434064E+01
 0.20183839710E+01 0.22936484630E+01 0.27841912122E+01 0.35356825808E+01 0.46062317969E+01
 0.60569992902E+01 0.79368981555E+01 0.10261479582E+02 0.12986265990E+02 0.15974561095E+02
 0.18931524661E+02 0.21424450860E+02 0.23081987701E+02 0.23662466274E+02 0.23082066401E+02
 0.21424537855E+02 0.18931543362E+02 0.15974495358E+02 0.12986168543E+02 0.10261420409E+02
 0.79369053369E+01 0.60570447595E+01 0.38121586563E+01 0.29181575227E+01 0.23152360184E+01
 0.19471451879E+01 0.17735165452E+01 0.17735193105E+01 0.19471560119E+01 0.23152548299E+01
 0.29181709389E+01 0.38121463787E+01 0.50618071487E+01 0.67275946079E+01 0.88478999858E+01
 0.11415809347E+02 0.14348783376E+02 0.17442703418E+02 0.20298154995E+02 0.22481505158E+02
 0.23662466274E+02 0.23662518446E+02 0.22481613272E+02 0.20298223164E+02 0.17442681506E+02
 0.14348705816E+02 0.11415749533E+02 0.88478994795E+01 0.67276372916E+01 0.50618488854E+01
 0.30627127150E+01 0.23550705698E+01 0.19003819610E+01 0.16487292066E+01 0.15684373949E+01
 0.16487269876E+01 0.19003876818E+01 0.23550886116E+01 0.30627285903E+01 0.40854841371E+01
 0.54874212377E+01 0.73195042652E+01 0.96003562720E+01 0.12291348849E+02 0.15263420281E+02
 0.18237308317E+02 0.20776345972E+02 0.22481554627E+02 0.23082066401E+02 0.22481613272E+02
 0.20776397685E+02 0.18237300106E+02 0.15263370480E+02 0.12291319864E+02 0.96003837239E+01
 0.73195664747E+01 0.54874711117E+01 0.40854960399E+01 0.24064707855E+01 0.18753548376E+01
 0.15550956413E+01 0.14054171534E+01 0.14054085809E+01 0.15550823719E+01 0.18753597600E+01
 0.24064994786E+01 0.32037806556E+01 0.43291027032E+01 0.58382081083E+01 0.77644255737E+01
 0.10099008148E+02 0.12765279737E+02 0.15586147118E+02 0.18237368219E+02 0.20298272023E+02
 0.21424554066E+02 0.21424537855E+02 0.20298223164E+02 0.18237300106E+02 0.15586100175E+02
 0.12765296804E+02 0.10099091764E+02 0.77645298517E+01 0.58382769098E+01 0.43291130449E+01
 0.32037523290E+01 0.18669865426E+01 0.14894359962E+01 0.12821094324E+01 0.12162498720E+01
 0.12820874928E+01 0.14894203503E+01 0.18670028368E+01 0.24599908945E+01 0.33238405314E+01
 0.45137493729E+01 0.60704560579E+01 0.80038790768E+01 0.10273825513E+02 0.12765257520E+02
 0.15263445661E+02 0.17442819424E+02 0.18931648508E+02 0.19460345790E+02 0.18931543362E+02
 0.17442681506E+02 0.15263370480E+02 0.12765296804E+02 0.10273953251E+02 0.80040185651E+01
 0.60705400704E+01 0.45137590398E+01 0.33238014752E+01 0.24599464929E+01 0.14470587274E+01
 0.11939035762E+01 0.10758965042E+01 0.10758832754E+01 0.11938791781E+01 0.14470521648E+01
 0.18686645814E+01 0.25044936154E+01 0.34050765022E+01 0.46136891185E+01 0.61518651974E+01
 0.80038797392E+01 0.10098967778E+02 0.12291288670E+02 0.14348782627E+02 0.15974610641E+02
 0.16876712964E+02 0.16876659080E+02 0.15974495358E+02 0.14348705816E+02 0.12291319864E+02
 0.10099091764E+02 0.80040185651E+01 0.61519479656E+01 0.46136982478E+01 0.34050387425E+01
 0.25044473490E+01 0.18686392745E+01 0.11356617026E+01 0.97770193217E+00 0.92744580755E+00
 0.97768513543E+00 0.11356437282E+01 0.14227802072E+01 0.18733550497E+01 0.25298331980E+01
 0.34338562480E+01 0.46136847822E+01 0.60704712752E+01 0.77644284187E+01 0.96003037901E+01
 0.11415731709E+02 0.12986203600E+02 0.14063701596E+02 0.14448569226E+02 0.14063662423E+02
 0.12986168543E+02 0.11415749533E+02 0.96003837239E+01 0.77645298517E+01 0.60705400704E+01
 0.46136982478E+01 0.34338315394E+01 0.25298012723E+01 0.18733370784E+01 0.14227830778E+01
 0.91575458750E+00 0.82795404452E+00 0.82794886096E+00 0.91574107098E+00 0.11028217296E+01
 0.14120160990E+01 0.18756132655E+01 0.25298236663E+01 0.34050501645E+01 0.45137366032E+01
 0.58382226662E+01 0.73195090317E+01 0.88478671272E+01 0.10261417260E+02 0.11364543464E+02
 0.11972943740E+02 0.11972938289E+02 0.11364533643E+02 0.10261420409E+02 0.88478994795E+01
 0.73195664747E+01 0.58382769098E+01 0.45137590398E+01 0.34050387425E+01 0.25298012723E+01
 0.18756027169E+01 0.14120227185E+01 0.11028370611E+01 0.77080556941E+00 0.73390164226E+00
 0.77080160669E+00 0.88584259408E+00 0.10922600128E+01 0.14120202202E+01 0.18733579503E+01
 0.25044786875E+01 0.33238127770E+01 0.43290863269E+01 0.54874213680E+01 0.67275985815E+01
 0.79368986380E+01 0.89689450408E+01 0.96695416841E+01 0.99183380749E+01 0.96695235050E+01
 0.89689273024E+01 0.79369053369E+01 0.67276372916E+01 0.54874711117E+01 0.43291130449E+01
 0.33238014752E+01 0.25044473490E+01 0.18733370784E+01 0.14120227185E+01 0.10922750067E+01
 0.88585424583E+00 0.68852228201E+00 0.68852345635E+00 0.75216379119E+00 0.88584249380E+00
 0.11028225963E+01 0.14227860837E+01 0.18686720842E+01 0.24599942756E+01 0.32037794262E+01
 0.40854773262E+01 0.50617968188E+01 0.60570012380E+01 0.69656953968E+01 0.76668156638E+01
 0.80504960290E+01 0.80504805605E+01 0.76667904697E+01 0.69656991900E+01 0.60570447595E+01
 0.50618488854E+01 0.40854960399E+01 0.32037523290E+01 0.24599464929E+01 0.18686392745E+01
 0.14227830778E+01 0.11028370611E+01 0.88585424583E+00 0.75216567235E+00 0.68852734622E+00
 0.73391122148E+00 0.82795939565E+00 0.97769050809E+00 0.11938731848E+01 0.14894059250E+01
 0.18753560212E+01 0.23551132977E+01 0.29182119733E+01 0.35357064186E+01 0.41587290357E+01
 0.47218031331E+01 0.51524195787E+01 0.53866574531E+01 0.53866588764E+01 0.51524326707E+01
 0.47218318090E+01 0.41587473207E+01 0.35356838315E+01 0.29181575443E+01 0.23550708825E+01
 0.18753554124E+01 0.14894355163E+01 0.11939016808E+01 0.97769996713E+00 0.82795290016E+00
 0.73390077640E+00 0.68852270855E+00 0.73391122148E+00 0.78941311729E+00 0.88582437942E+00
 0.10294152891E+01 0.12287567453E+01 0.14927676924E+01 0.18270074059E+01 0.22288996036E+01
 0.26833425224E+01 0.31603170790E+01 0.36157981247E+01 0.39969279506E+01 0.42516931452E+01
 0.43414078341E+01 0.42517016233E+01 0.39969402770E+01 0.36157952648E+01 0.31602799103E+01
 0.26832834545E+01 0.22288611109E+01 0.18270183472E+01 0.14928130491E+01 0.12287983269E+01
 0.10294309685E+01 0.88581895632E+00 0.78940158528E+00 0.73390370117E+00 0.71577775154E+00
 0.82795939565E+00 0.88582437942E+00 0.97717578352E+00 0.11075116385E+01 0.12833255971E+01
 0.15100914912E+01 0.17890780070E+01 0.21137347588E+01 0.24669576637E+01 0.28205343710E+01
 0.31376182382E+01 0.33784893533E+01 0.35089184348E+01 0.35089208554E+01 0.33784900023E+01
 0.31376027398E+01 0.28204967660E+01 0.24669149765E+01 0.21137170824E+01 0.17890976020E+01
 0.15101288574E+01 0.12833520641E+01 0.11075177203E+01 0.97717090530E+00 0.88581846915E+00
 0.82795533016E+00 0.79990740261E+00 0.79990895455E+00 0.97769050809E+00 0.10294152891E+01
 0.11075116385E+01 0.12169075388E+01 0.13623957000E+01 0.15467750414E+01 0.17683302657E+01
 0.20183803835E+01 0.22799896707E+01 0.25287391722E+01 0.27359185168E+01 0.28738642850E+01
 0.29223324353E+01 0.28738630813E+01 0.27359079904E+01 0.25287178608E+01 0.22799719877E+01
 0.20183837350E+01 0.17683526538E+01 0.15467941131E+01 0.13623946273E+01 0.12168938481E+01
 0.11075034814E+01 0.10294173311E+01 0.97769400939E+00 0.94834706431E+00 0.93885207130E+00
 0.94834681270E+00 0.11938731848E+01 0.12287567453E+01 0.12833255971E+01 0.13623957000E+01
 0.14696534589E+01 0.16061066563E+01 0.17683290648E+01 0.19471293996E+01 0.21273996462E+01
 0.22896108292E+01 0.24129764710E+01 0.24797887267E+01 0.24797886093E+01 0.24129739411E+01
 0.22896045045E+01 0.21273951902E+01 0.19471339234E+01 0.17683392582E+01 0.16061094981E+01
 0.14696425873E+01 0.13623815629E+01 0.12833229380E+01 0.12287655915E+01 0.11938805681E+01
 0.11738895888E+01 0.11649671900E+01 0.11649694273E+01 0.11738903987E+01 0.14894059250E+01
 0.14927676924E+01 0.15100914912E+01 0.15467750414E+01 0.16061066563E+01 0.16881957605E+01
 0.17890774854E+01 0.19003661352E+01 0.20098124805E+01 0.21029483381E+01 0.21657682513E+01
 0.21879762541E+01 0.21657680260E+01 0.21029450747E+01 0.20098054999E+01 0.19003579561E+01
 0.17890697658E+01 0.16881883665E+01 0.16061015630E+01 0.15467765727E+01 0.15101001264E+01
 0.14927767646E+01 0.14894076792E+01 0.14935936830E+01 0.14991668315E+01 0.15015878922E+01
 0.14991734774E+01 0.14935997276E+01 0.18753560212E+01 0.18270074059E+01 0.17890780070E+01
 0.17683302657E+01 0.17683290648E+01 0.17890774854E+01 0.18270105495E+01 0.18753594785E+01
 0.19249670746E+01 0.19657319470E+01 0.19887562357E+01 0.19887563109E+01 0.19657281552E+01
 0.19249549392E+01 0.18753437341E+01 0.18270008239E+01 0.17890776884E+01 0.17683356800E+01
 0.17683372817E+01 0.17890794764E+01 0.18269998833E+01 0.18753432382E+01 0.19249577055E+01
 0.19657305044E+01 0.19887546773E+01 0.19887536850E+01 0.19657318698E+01 0.19249667078E+01
 0.23551132977E+01 0.22288996036E+01 0.21137347588E+01 0.20183803835E+01 0.19471293996E+01
 0.19003661352E+01 0.18753594785E+01 0.18670138897E+01 0.18686717032E+01 0.18733571617E+01
 0.18756146719E+01 0.18733547183E+01 0.18686603368E+01 0.18669995906E+01 0.18753608308E+01
 0.19003889351E+01 0.19471542455E+01 0.20183829386E+01 0.21137104044E+01 0.22288642704E+01
 0.23550880425E+01 0.24792834676E+01 0.25853808731E+01 0.26572488337E+01 0.26827151043E+01
 0.26572314470E+01 0.25853642933E+01 0.24792860653E+01 0.29182119733E+01 0.26833425224E+01
 0.24669576637E+01 0.22799896707E+01 0.21273996462E+01 0.20098124805E+01 0.19249670746E+01
 0.18686717032E+01 0.18356307922E+01 0.18207223862E+01 0.18207198734E+01 0.18356208299E+01
 0.18686596029E+01 0.19249739542E+01 0.20098486909E+01 0.21274391690E+01 0.22799928429E+01
 0.24669178733E+01 0.26832941000E+01 0.29181920910E+01 0.31537211990E+01 0.33658513108E+01
 0.35277902857E+01 0.36158024366E+01 0.36157915141E+01 0.35277614685E+01 0.33658178785E+01
 0.31537052409E+01 0.35357064186E+01 0.31603170790E+01 0.28205343710E+01 0.25287391722E+01
 0.22896108292E+01 0.21029483381E+01 0.19657319470E+01 0.18733571617E+01 0.18207223862E+01
 0.18037065170E+01 0.18207106951E+01 0.18733436377E+01 0.19657372257E+01 0.21029836462E+01
 0.22896533811E+01 0.25287484772E+01 0.28205015035E+01 0.31602806543E+01 0.35357086185E+01
 0.39241531418E+01 0.42922867474E+01 0.45992841513E+01 0.48042494115E+01 0.48764065545E+01
 0.48042501934E+01 0.45992674000E+01 0.42922457013E+01 0.39241134985E+01 0.41587290357E+01
 0.36157981247E+01 0.31376182382E+01 0.27359185168E+01 0.24129764710E+01 0.21657682513E+01
 0.19887562357E+01 0.18756146719E+01 0.18207198734E+01 0.18207106951E+01 0.18755991727E+01
 0.19887601587E+01 0.21658043077E+01 0.24130237947E+01 0.27359391474E+01 0.31376017220E+01
 0.36157787091E+01 0.41587464760E+01 0.47407695605E+01 0.53194864749E+01 0.58377825921E+01
 0.62319745720E+01 0.64457635315E+01 0.64457784334E+01 0.62319996074E+01 0.58377801062E+01
 0.53194441005E+01 0.47407185849E+01 0.47218031331E+01 0.39969279506E+01 0.33784893533E+01
 0.28738642850E+01 0.24797887267E+01 0.21879762541E+01 0.19887563109E+01 0.18733547183E+01
 0.18356208299E+01 0.18733436377E+01 0.19887601587E+01 0.21880147543E+01 0.24798465955E+01
 0.28739026619E+01 0.33784893255E+01 0.39969140140E+01 0.47218140709E+01 0.55282194001E+01
 0.63677540780E+01 0.71675009657E+01 0.78370582739E+01 0.82852581416E+01 0.84432548149E+01
 0.82852835121E+01 0.78370822872E+01 0.71674936996E+01 0.63677134276E+01 0.55281773913E+01
 0.51524195787E+01 0.42516931452E+01 0.35089184348E+01 0.29223324353E+01 0.24797886093E+01
 0.21657680260E+01 0.19657281552E+01 0.18686603368E+01 0.18686596029E+01 0.19657372257E+01
 0.21658043077E+01 0.24798465955E+01 0.29223801505E+01 0.35089294420E+01 0.42516781456E+01
 0.51524164024E+01 0.61930407143E+01 0.73257579390E+01 0.84669939058E+01 0.95002594356E+01
 0.10292609001E+02 0.10724554419E+02 0.10724569047E+02 0.10292638071E+02 0.95002711224E+01
 0.84669690913E+01 0.73257118505E+01 0.61930100608E+01 0.53866574531E+01 0.43414078341E+01
 0.35089208554E+01 0.28738630813E+01 0.24129739411E+01 0.21029450747E+01 0.19249549392E+01
 0.18669995906E+01 0.19249739542E+01 0.21029836462E+01 0.24130237947E+01 0.28739026619E+01
 0.35089294420E+01 0.43413902586E+01 0.53866493456E+01 0.66405240574E+01 0.80653956795E+01
 0.95777419858E+01 0.11043270918E+02 0.12287786691E+02 0.13129493806E+02 0.13427833208E+02
 0.13129561426E+02 0.12287859851E+02 0.11043284824E+02 0.95776883768E+01 0.80653240369E+01
 0.66404880979E+01 0.53866588764E+01 0.42517016233E+01 0.33784900023E+01 0.27359079904E+01
 0.22896045045E+01 0.20098054999E+01 0.18753437341E+01 0.18753608308E+01 0.20098486909E+01
 0.22896533811E+01 0.27359391474E+01 0.33784893255E+01 0.42516781456E+01 0.53866493456E+01
 0.67986974441E+01 0.84703185995E+01 0.10332488725E+02 0.12249764393E+02 0.14019450414E+02
 0.15397622183E+02 0.16156516517E+02 0.16156594711E+02 0.15397792567E+02 0.14019580344E+02
 0.12249770595E+02 0.10332396490E+02 0.84702168266E+01 0.67986514738E+01 0.51524326707E+01
 0.39969402770E+01 0.31376027398E+01 0.25287178608E+01 0.21273951902E+01 0.19003579561E+01
 0.18270008239E+01 0.19003889351E+01 0.21274391690E+01 0.25287484772E+01 0.31376017220E+01
 0.39969140140E+01 0.51524164024E+01 0.66405240574E+01 0.84703185995E+01 0.10600643617E+02
 0.12915860324E+02 0.15209719605E+02 0.17195096704E+02 0.18556815544E+02 0.19043084433E+02
 0.18556983364E+02 0.17195311619E+02 0.15209842585E+02 0.12915840588E+02 0.10600537012E+02
 0.84702194987E+01 0.66404871809E+01 0.47218318090E+01 0.36157952648E+01 0.28204967660E+01
 0.22799719877E+01 0.19471339234E+01 0.17890697658E+01 0.17890776884E+01 0.19471542455E+01
 0.22799928429E+01 0.28205015035E+01 0.36157787091E+01 0.47218140709E+01 0.61930407143E+01
 0.80653956795E+01 0.10332488725E+02 0.12915860324E+02 0.15635220097E+02 0.18196182078E+02
 0.20222679645E+02 0.21347986859E+02 0.21348049684E+02 0.20222830455E+02 0.18196334121E+02
 0.15635296637E+02 0.12915842778E+02 0.10332419470E+02 0.80653370484E+01 0.61930262116E+01
 0.41587473207E+01 0.31602799103E+01 0.24669149765E+01 0.20183837350E+01 0.17683392582E+01
 0.16881883665E+01 0.17683356800E+01 0.20183829386E+01 0.24669178733E+01 0.31602806543E+01
 0.41587464760E+01 0.55282194001E+01 0.73257579390E+01 0.95777419858E+01 0.12249764393E+02
 0.15209719605E+02 0.18196182078E+02 0.20820613281E+02 0.22632855475E+02 0.23280389906E+02
 0.22632888491E+02 0.20820679483E+02 0.18196266305E+02 0.15209789033E+02 0.12249792554E+02
 0.95777329735E+01 0.73257392306E+01 0.55282114955E+01 0.35356838315E+01 0.26832834545E+01
 0.21137170824E+01 0.17683526538E+01 0.16061094981E+01 0.16061015630E+01 0.17683372817E+01
 0.21137104044E+01 0.26832941000E+01 0.35357086185E+01 0.47407695605E+01 0.63677540780E+01
 0.84669939058E+01 0.11043270918E+02 0.14019450414E+02 0.17195096704E+02 0.20222679645E+02
 0.22632855475E+02 0.23971861493E+02 0.23971850077E+02 0.22632842864E+02 0.20222706306E+02
 0.17195176058E+02 0.14019552016E+02 0.11043348281E+02 0.84670230226E+01 0.63677434952E+01
 0.47407422208E+01 0.29181575443E+01 0.22288611109E+01 0.17890976020E+01 0.15467941131E+01
 0.14696425873E+01 0.15467765727E+01 0.17890794764E+01 0.22288642704E+01 0.29181920910E+01
 0.39241531418E+01 0.53194864749E+01 0.71675009657E+01 0.95002594356E+01 0.12287786691E+02
 0.15397622183E+02 0.18556815544E+02 0.21347986859E+02 0.23280389906E+02 0.23971850077E+02
 0.23280348750E+02 0.21347952639E+02 0.18556843494E+02 0.15397725897E+02 0.12287923458E+02
 0.95003632572E+01 0.71675325959E+01 0.53194559133E+01 0.39241014889E+01 0.23550708825E+01
 0.18270183472E+01 0.15101288574E+01 0.13623946273E+01 0.13623815629E+01 0.15101001264E+01
 0.18269998833E+01 0.23550880425E+01 0.31537211990E+01 0.42922867474E+01 0.58377825921E+01
 0.78370582739E+01 0.10292609001E+02 0.13129493806E+02 0.16156516517E+02 0.19043084433E+02
 0.21348049684E+02 0.22632888491E+02 0.22632842864E+02 0.21347952639E+02 0.19043024990E+02
 0.16156562910E+02 0.13129637571E+02 0.10292771209E+02 0.78371537253E+01 0.58377832151E+01
 0.42922297774E+01 0.31536662389E+01 0.18753554124E+01 0.14928130491E+01 0.12833520641E+01
 0.12168938481E+01 0.12833229380E+01 0.14927767646E+01 0.18753432382E+01 0.24792834676E+01
 0.33658513108E+01 0.45992841513E+01 0.62319745720E+01 0.82852581416E+01 0.10724554419E+02
 0.13427833208E+02 0.16156594711E+02 0.18556983364E+02 0.20222830455E+02 0.20820679483E+02
 0.20222706306E+02 0.18556843494E+02 0.16156562910E+02 0.13427945487E+02 0.10724736418E+02
 0.82853964878E+01 0.62320084850E+01 0.45992358126E+01 0.33657855414E+01 0.24792510580E+01
 0.14894355163E+01 0.12287983269E+01 0.11075177203E+01 0.11075034814E+01 0.12287655915E+01
 0.14894076792E+01 0.19249577055E+01 0.25853808731E+01 0.35277902857E+01 0.48042494115E+01
 0.64457635315E+01 0.84432548149E+01 0.10724569047E+02 0.13129561426E+02 0.15397792567E+02
 0.17195311619E+02 0.18196334121E+02 0.18196266305E+02 0.17195176058E+02 0.15397725897E+02
 0.13129637571E+02 0.10724736418E+02 0.84433961612E+01 0.64458038110E+01 0.48042025052E+01
 0.35277196483E+01 0.25853377908E+01 0.19249564617E+01 0.11939016808E+01 0.10294309685E+01
 0.97717090530E+00 0.10294173311E+01 0.11938805681E+01 0.14935936830E+01 0.19657305044E+01
 0.26572488337E+01 0.36158024366E+01 0.48764065545E+01 0.64457784334E+01 0.82852835121E+01
 0.10292638071E+02 0.12287859851E+02 0.14019580344E+02 0.15209842585E+02 0.15635296637E+02
 0.15209789033E+02 0.14019552016E+02 0.12287923458E+02 0.10292771209E+02 0.82853964878E+01
 0.64458038110E+01 0.48763545781E+01 0.36157331564E+01 0.26572094305E+01 0.19657278312E+01
 0.14936112972E+01 0.97769996713E+00 0.88581895632E+00 0.88581846915E+00 0.97769400939E+00
 0.11738895888E+01 0.14991668315E+01 0.19887546773E+01 0.26827151043E+01 0.36157915141E+01
 0.48042501934E+01 0.62319996074E+01 0.78370822872E+01 0.95002711224E+01 0.11043284824E+02
 0.12249770595E+02 0.12915840588E+02 0.12915842778E+02 0.12249792554E+02 0.11043348281E+02
 0.95003632572E+01 0.78371537253E+01 0.62320084850E+01 0.48042025052E+01 0.36157331564E+01
 0.26826878325E+01 0.19887646037E+01 0.14991918792E+01 0.11739076925E+01 0.82795290016E+00
 0.78940158528E+00 0.82795533016E+00 0.94834706431E+00 0.11649671900E+01 0.15015878922E+01
 0.19887536850E+01 0.26572314470E+01 0.35277614685E+01 0.45992674000E+01 0.58377801062E+01
 0.71674936996E+01 0.84669690913E+01 0.95776883768E+01 0.10332396490E+02 0.10600537012E+02
 0.10332419470E+02 0.95777329735E+01 0.84670230226E+01 0.71675325959E+01 0.58377832151E+01
 0.45992358126E+01 0.35277196483E+01 0.26572094305E+01 0.19887646037E+01 0.15016193072E+01
 0.11649942274E+01 0.94835585132E+00 0.73390077640E+00 0.73390370117E+00 0.79990740261E+00
 0.93885207130E+00 0.11649694273E+01 0.14991734774E+01 0.19657318698E+01 0.25853642933E+01
 0.33658178785E+01 0.42922457013E+01 0.53194441005E+01 0.63677134276E+01 0.73257118505E+01
 0.80653240369E+01 0.84702168266E+01 0.84702194987E+01 0.80653370484E+01 0.73257392306E+01
 0.63677434952E+01 0.53194559133E+01 0.42922297774E+01 0.33657855414E+01 0.25853377908E+01
 0.19657278312E+01 0.14991918792E+01 0.11649942274E+01 0.93886544148E+00 0.79990661308E+00
 0.68852270855E+00 0.71577775154E+00 0.79990895455E+00 0.94834681270E+00 0.11738903987E+01
 0.14935997276E+01 0.19249667078E+01 0.24792860653E+01 0.31537052409E+01 0.39241134985E+01
 0.47407185849E+01 0.55281773913E+01 0.61930100608E+01 0.66404880979E+01 0.67986514738E+01
 0.66404871809E+01 0.61930262116E+01 0.55282114955E+01 0.47407422208E+01 0.39241014889E+01
 0.31536662389E+01 0.24792510580E+01 0.19249564617E+01 0.14936112972E+01 0.11739076925E+01
 0.94835585132E+00 0.79990661308E+00 0.71577185182E+00 0.77080782313E+00 0.82796128961E+00
 0.92745856577E+00 0.10758972718E+01 0.12820892262E+01 0.15550634801E+01 0.19003645719E+01
 0.23152521514E+01 0.27842056909E+01 0.32763851998E+01 0.37464638360E+01 0.41399034207E+01
 0.44029529946E+01 0.44955959650E+01 0.44029601833E+01 0.41399132961E+01 0.37464620424E+01
 0.32763598958E+01 0.27841693016E+01 0.23152353108E+01 0.19003816509E+01 0.15550956533E+01
 0.12821077495E+01 0.10758933184E+01 0.92744391283E+00 0.82794920854E+00 0.77080238134E+00
 0.75216446902E+00 0.82796128961E+00 0.88582646428E+00 0.97717682531E+00 0.11075114964E+01
 0.12833252347E+01 0.15100909540E+01 0.17890764267E+01 0.21137323603E+01 0.24669557335E+01
 0.28205332350E+01 0.31376172508E+01 0.33784887785E+01 0.35089192206E+01 0.35089225630E+01
 0.33784910697E+01 0.31376028580E+01 0.28204969907E+01 0.24669155195E+01 0.21137170440E+01
 0.17890968728E+01 0.15101282347E+01 0.12833515013E+01 0.11075165173E+01 0.97716961493E+00
 0.88581853947E+00 0.82795682209E+00 0.79990904312E+00 0.79991038018E+00 0.92745856577E+00
 0.97717682531E+00 0.10520775153E+01 0.11569931153E+01 0.12967691504E+01 0.14743482160E+01