 vasp.5.4.4.18Apr17-6-g9f103f2a35 (build Dec 09 2018 21:25:21) complex          
  
 executed on IFC18.0.1.163_CrayMP date 2019.03.20  09:22:11
 running on    8 total cores
 distrk:  each k-point on    8 cores,    1 groups
 distr:  one band on NCORES_PER_BAND=   1 cores,    8 groups


--------------------------------------------------------------------------------------------------------


 INCAR:
 POTCAR:   PAW_PBE Si 05Jan2001                   

 ----------------------------------------------------------------------------- 
|                                                                             |
|           W    W    AA    RRRRR   N    N  II  N    N   GGGG   !!!           |
|           W    W   A  A   R    R  NN   N  II  NN   N  G    G  !!!           |
|           W    W  A    A  R    R  N N  N  II  N N  N  G       !!!           |
|           W WW W  AAAAAA  RRRRR   N  N N  II  N  N N  G  GGG   !            |
|           WW  WW  A    A  R   R   N   NN  II  N   NN  G    G                |
|           W    W  A    A  R    R  N    N  II  N    N   GGGG   !!!           |
|                                                                             |
|      For optimal performance we recommend to set                            |
|        NCORE= 4 - approx SQRT( number of cores)                             |
|      NCORE specifies how many cores store one orbital (NPAR=cpu/NCORE).     |
|      This setting can  greatly improve the performance of VASP for DFT.     |
|      The default,   NCORE=1            might be grossly inefficient         |
|      on modern multi-core architectures or massively parallel machines.     |
|      Do your own testing !!!!                                               |
|      Unfortunately you need to use the default for GW and RPA calculations. |
|      (for HF NCORE is supported but not extensively tested yet)             |
|                                                                             |
 ----------------------------------------------------------------------------- 

 POTCAR:   PAW_PBE Si 05Jan2001                   
   VRHFIN =Si: s2p2                                                             
   LEXCH  = PE                                                                  
   EATOM  =   103.0669 eV,    7.5752 Ry                                         
                                                                                
   TITEL  = PAW_PBE Si 05Jan2001                                                
   LULTRA =        F    use ultrasoft PP ?                                      
   IUNSCR =        1    unscreen: 0-lin 1-nonlin 2-no                           
   RPACOR =    1.500    partial core radius                                     
   POMASS =   28.085; ZVAL   =    4.000    mass and valenz                      
   RCORE  =    1.900    outmost cutoff radius                                   
   RWIGS  =    2.480; RWIGS  =    1.312    wigner-seitz radius (au A)           
   ENMAX  =  245.345; ENMIN  =  184.009 eV                                      
   ICORE  =        2    local potential                                         
   LCOR   =        T    correct aug charges                                     
   LPAW   =        T    paw PP                                                  
   EAUG   =  322.069                                                            
   DEXC   =    -.007                                                            
   RMAX   =    2.944    core radius for proj-oper                               
   RAUG   =    1.300    factor for augmentation sphere                          
   RDEP   =    1.993    radius for radial grids                                 
   QCUT   =   -4.246; QGAM   =    8.493    optimization parameters              
                                                                                
   Description                                                                  
     l     E      TYP  RCUT    TYP  RCUT                                        
     0   .000     23  1.900                                                     
     0   .000     23  1.900                                                     
     1   .000     23  1.900                                                     
     1   .000     23  1.900                                                     
     2   .000      7  1.900                                                     
  local pseudopotential read in
  partial core-charges read in
  atomic valenz-charges read in
  non local Contribution for L=           0  read in
    real space projection operators read in
  non local Contribution for L=           0  read in
    real space projection operators read in
  non local Contribution for L=           1  read in
    real space projection operators read in
  non local Contribution for L=           1  read in
    real space projection operators read in
    PAW grid and wavefunctions read in
 
   number of l-projection  operators is LMAX  =           4
   number of lm-projection operators is LMMAX =           8
 
 PAW_PBE Si 05Jan2001                   :
 energy of atom  1       EATOM= -103.0669
 kinetic energy error for atom=    0.0052 (will be added to EATOM!!)
 
 
 POSCAR: Si2                                     
  positions in direct lattice
  No initial velocities read in
 exchange correlation table for  LEXCH =        8
   RHO(1)=    0.500       N(1)  =     2000
   RHO(2)=  100.500       N(2)  =     4000
 


--------------------------------------------------------------------------------------------------------


 ion  position               nearest neighbor table
   1  0.250  0.750  0.500-   2 2.53   2 2.53   2 2.53   2 2.53   2 3.11   2 3.11   2 3.11   2 3.11

   2  0.000  0.000  0.000-   1 2.53   1 2.53   1 2.53   1 2.53   1 3.11   1 3.11   1 3.11   1 3.11

 
  LATTYP: Found a body centered tetragonal cell.
 ALAT       =     4.9000000000
 C/A-ratio  =     0.5200000000
  
  Lattice vectors:
  
 A1 = (  -2.4500000000,   2.4500000000,   1.2740000000)
 A2 = (   2.4500000000,  -2.4500000000,   1.2740000000)
 A3 = (   2.4500000000,   2.4500000000,  -1.2740000000)


Analysis of symmetry for initial positions (statically):
=====================================================================
 Subroutine PRICEL returns:
 Original cell was already a primitive cell.
 

 Routine SETGRP: Setting up the symmetry group for a 
 body centered tetragonal supercell.


 Subroutine GETGRP returns: Found 16 space group operations
 (whereof  8 operations were pure point group operations)
 out of a pool of 16 trial point group operations.


The static configuration has the point symmetry D_2d.
 The point group associated with its full space group is D_4h.


Analysis of symmetry for dynamics (positions and initial velocities):
=====================================================================
 Subroutine PRICEL returns:
 Original cell was already a primitive cell.
 

 Routine SETGRP: Setting up the symmetry group for a 
 body centered tetragonal supercell.


 Subroutine GETGRP returns: Found 16 space group operations
 (whereof  8 operations were pure point group operations)
 out of a pool of 16 trial point group operations.


The dynamic configuration has the point symmetry D_2d.
 The point group associated with its full space group is D_4h.


 Subroutine INISYM returns: Found 16 space group operations
 (whereof  8 operations are pure point group operations),
 and found     1 'primitive' translations

 
 
 KPOINTS: Automatic kpoint scheme                 

Automatic generation of k-mesh.
Space group operators:
 irot       det(A)        alpha          n_x          n_y          n_z        tau_x        tau_y        tau_z
    1     1.000000     0.000000     1.000000     0.000000     0.000000     0.000000     0.000000     0.000000
    2    -1.000000    90.000000    -0.000000    -0.000000    -1.000000     0.000000     0.000000     0.000000
    3     1.000000   180.000000    -0.000000    -0.000000    -1.000000     0.000000     0.000000     0.000000
    4    -1.000000    90.000000    -0.000000     0.000000     1.000000     0.000000     0.000000     0.000000
    5    -1.000000   180.000000     0.000000    -1.000000     0.000000     0.000000     0.000000     0.000000
    6     1.000000   180.000000     0.707107     0.707107    -0.000000     0.000000     0.000000     0.000000
    7    -1.000000   180.000000     1.000000     0.000000     0.000000     0.000000     0.000000     0.000000
    8     1.000000   180.000000     0.707107    -0.707107     0.000000     0.000000     0.000000     0.000000
    9    -1.000000     0.000000     1.000000     0.000000     0.000000     0.250000     0.750000     0.500000
   10     1.000000    90.000000    -0.000000    -0.000000    -1.000000     0.250000     0.750000     0.500000
   11    -1.000000   180.000000    -0.000000    -0.000000    -1.000000     0.250000     0.750000     0.500000
   12     1.000000    90.000000    -0.000000     0.000000     1.000000     0.250000     0.750000     0.500000
   13     1.000000   180.000000     0.000000    -1.000000     0.000000     0.250000     0.750000     0.500000
   14    -1.000000   180.000000     0.707107     0.707107    -0.000000     0.250000     0.750000     0.500000
   15     1.000000   180.000000     1.000000     0.000000     0.000000     0.250000     0.750000     0.500000
   16    -1.000000   180.000000     0.707107    -0.707107     0.000000     0.250000     0.750000     0.500000
 
 Subroutine IBZKPT returns following result:
 ===========================================
 
 Found     40 irreducible k-points:
 
 Following reciprocal coordinates:
            Coordinates               Weight
  0.000000  0.000000  0.000000      1.000000
  0.142857 -0.000000  0.000000      8.000000
  0.285714 -0.000000  0.000000      8.000000
  0.428571 -0.000000  0.000000      8.000000
  0.142857  0.142857  0.000000      8.000000
  0.285714  0.142857  0.000000     16.000000
  0.428571  0.142857  0.000000     16.000000
 -0.428571  0.142857 -0.000000     16.000000
 -0.285714  0.142857 -0.000000     16.000000
 -0.142857  0.142857 -0.000000      4.000000
  0.285714  0.285714  0.000000      8.000000
  0.428571  0.285714  0.000000     16.000000
 -0.428571  0.285714 -0.000000     16.000000
 -0.285714  0.285714 -0.000000      4.000000
  0.428571  0.428571  0.000000      8.000000
 -0.428571  0.428571  0.000000      4.000000
  0.142857  0.142857  0.142857      8.000000
  0.285714  0.142857  0.142857     16.000000
 -0.142857  0.142857  0.142857      4.000000
  0.285714  0.285714  0.142857      8.000000
  0.428571  0.285714  0.142857      8.000000
 -0.285714  0.285714  0.142857      8.000000
 -0.142857  0.285714  0.142857      8.000000
 -0.428571  0.428571  0.142857      8.000000
 -0.285714  0.428571  0.142857     16.000000
 -0.142857  0.428571  0.142857      8.000000
 -0.428571 -0.428571  0.142857      8.000000
 -0.285714 -0.428571  0.142857     16.000000
 -0.142857 -0.428571  0.142857      8.000000
 -0.285714 -0.285714  0.142857      8.000000
 -0.142857 -0.285714  0.142857      8.000000
 -0.142857 -0.142857  0.142857      2.000000
 -0.285714  0.285714  0.285714      4.000000
 -0.428571  0.428571  0.285714      8.000000
 -0.285714  0.428571  0.285714      8.000000
 -0.428571 -0.428571  0.285714      8.000000
 -0.285714 -0.428571  0.285714      8.000000
 -0.285714 -0.285714  0.285714      2.000000
 -0.428571  0.428571  0.428571      4.000000
 -0.428571 -0.428571  0.428571      2.000000
 
 Following cartesian coordinates:
            Coordinates               Weight
  0.000000  0.000000  0.000000      1.000000
  0.000000  0.029155  0.056066      8.000000
  0.000000  0.058309  0.112133      8.000000
  0.000000  0.087464  0.168199      8.000000
  0.029155  0.029155  0.112133      8.000000
  0.029155  0.058309  0.168199     16.000000
  0.029155  0.087464  0.224266     16.000000
  0.029155 -0.087464 -0.112133     16.000000
  0.029155 -0.058309 -0.056066     16.000000
  0.029155 -0.029155  0.000000      4.000000
  0.058309  0.058309  0.224266      8.000000
  0.058309  0.087464  0.280332     16.000000
  0.058309 -0.087464 -0.056066     16.000000
  0.058309 -0.058309  0.000000      4.000000
  0.087464  0.087464  0.336398      8.000000
  0.087464 -0.087464  0.000000      4.000000
  0.058309  0.058309  0.112133      8.000000
  0.058309  0.087464  0.168199     16.000000
  0.058309 -0.000000 -0.000000      4.000000
  0.087464  0.087464  0.224266      8.000000
  0.087464  0.116618  0.280332      8.000000
  0.087464 -0.029155 -0.000000      8.000000
  0.087464  0.000000  0.056066      8.000000
  0.116618 -0.058309  0.000000      8.000000
  0.116618 -0.029155  0.056066     16.000000
  0.116618  0.000000  0.112133      8.000000
 -0.058309 -0.058309 -0.336398      8.000000
 -0.058309 -0.029155 -0.280332     16.000000
 -0.058309  0.000000 -0.224266      8.000000
 -0.029155 -0.029155 -0.224266      8.000000
 -0.029155 -0.000000 -0.168199      8.000000
  0.000000  0.000000 -0.112133      2.000000
  0.116618  0.000000 -0.000000      4.000000
  0.145773 -0.029155  0.000000      8.000000
  0.145773  0.000000  0.056066      8.000000
 -0.029155 -0.029155 -0.336398      8.000000
 -0.029155  0.000000 -0.280332      8.000000
  0.000000  0.000000 -0.224266      2.000000
  0.174927 -0.000000  0.000000      4.000000
 -0.000000  0.000000 -0.336398      2.000000
 


--------------------------------------------------------------------------------------------------------




 Dimension of arrays:
   k-points           NKPTS =     40   k-points in BZ     NKDIM =     40   number of bands    NBANDS=      8
   number of dos      NEDOS =    301   number of ions     NIONS =      2
   non local maximal  LDIM  =      4   non local SUM 2l+1 LMDIM =      8
   total plane-waves  NPLWV =   2744
   max r-space proj   IRMAX =      1   max aug-charges    IRDMAX=   3198
   dimension x,y,z NGX =    14 NGY =   14 NGZ =   14
   dimension x,y,z NGXF=    28 NGYF=   28 NGZF=   28
   support grid    NGXF=    28 NGYF=   28 NGZF=   28
   ions per type =               2
   NGX,Y,Z   is equivalent  to a cutoff of   6.30,  6.30,  6.30 a.u.
   NGXF,Y,Z  is equivalent  to a cutoff of  12.61, 12.61, 12.61 a.u.

 SYSTEM =  unknown system                          
 POSCAR =  Si2                                     

 Startparameter for this run:
   NWRITE =      2    write-flag & timer
   PREC   = normal    normal or accurate (medium, high low for compatibility)
   ISTART =      0    job   : 0-new  1-cont  2-samecut
   ICHARG =      2    charge: 1-file 2-atom 10-const
   ISPIN  =      1    spin polarized calculation?
   LNONCOLLINEAR =      F non collinear calculations
   LSORBIT =      F    spin-orbit coupling
   INIWAV =      1    electr: 0-lowe 1-rand  2-diag
   LASPH  =      F    aspherical Exc in radial PAW
   METAGGA=      F    non-selfconsistent MetaGGA calc.

 Electronic Relaxation 1
   ENCUT  =  250.0 eV  18.37 Ry    4.29 a.u.   4.76  4.76  4.76*2*pi/ulx,y,z
   ENINI  =  250.0     initial cutoff
   ENAUG  =  322.1 eV  augmentation charge cutoff
   NELM   =     60;   NELMIN=  2; NELMDL= -5     # of ELM steps 
   EDIFF  = 0.4E-03   stopping-criterion for ELM
   LREAL  =      F    real-space projection
   NLSPLINE    = F    spline interpolate recip. space projectors
   LCOMPAT=      F    compatible to vasp.4.4
   GGA_COMPAT  = T    GGA compatible to vasp.4.4-vasp.4.6
   LMAXPAW     = -100 max onsite density
   LMAXMIX     =    2 max onsite mixed and CHGCAR
   VOSKOWN=      0    Vosko Wilk Nusair interpolation
   ROPT   =    0.00000
 Ionic relaxation
   EDIFFG = -.1E-01   stopping-criterion for IOM
   NSW    =     15    number of steps for IOM
   NBLOCK =      1;   KBLOCK =     15    inner block; outer block 
   IBRION =      2    ionic relax: 0-MD 1-quasi-New 2-CG
   NFREE  =      1    steps in history (QN), initial steepest desc. (CG)
   ISIF   =      3    stress and relaxation
   IWAVPR =     11    prediction:  0-non 1-charg 2-wave 3-comb
   ISYM   =      2    0-nonsym 1-usesym 2-fastsym
   LCORR  =      T    Harris-Foulkes like correction to forces

   POTIM  = 0.5000    time-step for ionic-motion
   TEIN   =    0.0    initial temperature
   TEBEG  =    0.0;   TEEND  =   0.0 temperature during run
   SMASS  =  -3.00    Nose mass-parameter (am)
   estimated Nose-frequenzy (Omega)   =  0.10E-29 period in steps =****** mass=  -0.311E-27a.u.
   SCALEE = 1.0000    scale energy and forces
   NPACO  =    256;   APACO  = 16.0  distance and # of slots for P.C.
   PSTRESS=    0.0 pullay stress

  Mass of Ions in am
   POMASS =  28.09
  Ionic Valenz
   ZVAL   =   4.00
  Atomic Wigner-Seitz radii
   RWIGS  =  -1.00
  virtual crystal weights 
   VCA    =   1.00
   NELECT =       8.0000    total number of electrons
   NUPDOWN=      -1.0000    fix difference up-down

 DOS related values:
   EMIN   =  10.00;   EMAX   =-10.00  energy-range for DOS
   EFERMI =   0.00
   ISMEAR =     0;   SIGMA  =   0.20  broadening in eV -4-tet -1-fermi 0-gaus

 Electronic relaxation 2 (details)
   IALGO  =     38    algorithm
   LDIAG  =      T    sub-space diagonalisation (order eigenvalues)
   LSUBROT=      F    optimize rotation matrix (better conditioning)
   TURBO    =      0    0=normal 1=particle mesh
   IRESTART =      0    0=no restart 2=restart with 2 vectors
   NREBOOT  =      0    no. of reboots
   NMIN     =      0    reboot dimension
   EREF     =   0.00    reference energy to select bands
   IMIX   =      4    mixing-type and parameters
     AMIX     =   0.40;   BMIX     =  1.00
     AMIX_MAG =   1.60;   BMIX_MAG =  1.00
     AMIN     =   0.10
     WC   =   100.;   INIMIX=   1;  MIXPRE=   1;  MAXMIX= -45

 Intra band minimization:
   WEIMIN = 0.0010     energy-eigenvalue tresh-hold
   EBREAK =  0.13E-04  absolut break condition
   DEPER  =   0.30     relativ break condition  

   TIME   =   0.40     timestep for ELM

  volume/ion in A,a.u.               =      15.29       103.21
  Fermi-wavevector in a.u.,A,eV,Ry     =   1.046930  1.978411 14.912834  1.096062
  Thomas-Fermi vector in A             =   2.181789
 
 Write flags
   LWAVE        =      T    write WAVECAR
   LDOWNSAMPLE  =      F    k-point downsampling of WAVECAR
   LCHARG       =      T    write CHGCAR
   LVTOT        =      F    write LOCPOT, total local potential
   LVHAR        =      F    write LOCPOT, Hartree potential only
   LELF         =      F    write electronic localiz. function (ELF)
   LORBIT       =      0    0 simple, 1 ext, 2 COOP (PROOUT), +10 PAW based schemes


 Dipole corrections
   LMONO  =      F    monopole corrections only (constant potential shift)
   LDIPOL =      F    correct potential (dipole corrections)
   IDIPOL =      0    1-x, 2-y, 3-z, 4-all directions 
   EPSILON=  1.0000000 bulk dielectric constant

 Exchange correlation treatment:
   GGA     =    --    GGA type
   LEXCH   =     8    internal setting for exchange type
   VOSKOWN=      0    Vosko Wilk Nusair interpolation
   LHFCALC =     F    Hartree Fock is set to
   LHFONE  =     F    Hartree Fock one center treatment
   AEXX    =    0.0000 exact exchange contribution

 Linear response parameters
   LEPSILON=     F    determine dielectric tensor
   LRPA    =     F    only Hartree local field effects (RPA)
   LNABLA  =     F    use nabla operator in PAW spheres
   LVEL    =     F    velocity operator in full k-point grid
   LINTERFAST=   F  fast interpolation
   KINTER  =     0    interpolate to denser k-point grid
   CSHIFT  =0.1000    complex shift for real part using Kramers Kronig
   OMEGAMAX=  -1.0    maximum frequency
   DEG_THRESHOLD= 0.2000000E-02 threshold for treating states as degnerate
   RTIME   =   -0.100 relaxation time in fs
  (WPLASMAI=    0.000 imaginary part of plasma frequency in eV, 0.658/RTIME)
   DFIELD  = 0.0000000 0.0000000 0.0000000 field for delta impulse in time
 
 Orbital magnetization related:
   ORBITALMAG=     F  switch on orbital magnetization
   LCHIMAG   =     F  perturbation theory with respect to B field
   DQ        =  0.001000  dq finite difference perturbation B field
   LLRAUG    =     F  two centre corrections for induced B field



--------------------------------------------------------------------------------------------------------


 conjugate gradient relaxation of ions
 charge density and potential will be updated during run
 non-spin polarized calculation
 Variant of blocked Davidson
 Davidson routine will perform the subspace rotation
 perform sub-space diagonalisation
    after iterative eigenvector-optimisation
 modified Broyden-mixing scheme, WC =      100.0
 initial mixing is a Kerker type mixing with AMIX =  0.4000 and BMIX =      1.0000
 Hartree-type preconditioning will be used
 using additional bands            4
 reciprocal scheme for non local part
 use partial core corrections
 calculate Harris-corrections to forces 
   (improved forces if not selfconsistent)
 use gradient corrections 
 use of overlap-Matrix (Vanderbilt PP)
 Gauss-broadening in eV      SIGMA  =   0.20


--------------------------------------------------------------------------------------------------------


  energy-cutoff  :      250.00
  volume of cell :       30.59
      direct lattice vectors                 reciprocal lattice vectors
    -2.450000000  2.450000000  1.274000000     0.000000000  0.204081633  0.392464678
     2.450000000 -2.450000000  1.274000000     0.204081633  0.000000000  0.392464678
     2.450000000  2.450000000 -1.274000000     0.204081633  0.204081633 -0.000000000

  length of vectors
     3.691622408  3.691622408  3.691622408     0.442354876  0.442354876  0.288615013


 
 k-points in units of 2pi/SCALE and weight: Automatic kpoint scheme                 
   0.00000000  0.00000000  0.00000000       0.003
   0.00000000  0.02915452  0.05606638       0.023
   0.00000000  0.05830904  0.11213277       0.023
   0.00000000  0.08746356  0.16819915       0.023
   0.02915452  0.02915452  0.11213277       0.023
   0.02915452  0.05830904  0.16819915       0.047
   0.02915452  0.08746356  0.22426553       0.047
   0.02915452 -0.08746356 -0.11213277       0.047
   0.02915452 -0.05830904 -0.05606638       0.047
   0.02915452 -0.02915452  0.00000000       0.012
   0.05830904  0.05830904  0.22426553       0.023
   0.05830904  0.08746356  0.28033191       0.047
   0.05830904 -0.08746356 -0.05606638       0.047
   0.05830904 -0.05830904  0.00000000       0.012
   0.08746356  0.08746356  0.33639830       0.023
   0.08746356 -0.08746356  0.00000000       0.012
   0.05830904  0.05830904  0.11213277       0.023
   0.05830904  0.08746356  0.16819915       0.047
   0.05830904 -0.00000000  0.00000000       0.012
   0.08746356  0.08746356  0.22426553       0.023
   0.08746356  0.11661808  0.28033191       0.023
   0.08746356 -0.02915452  0.00000000       0.023
   0.08746356  0.00000000  0.05606638       0.023
   0.11661808 -0.05830904  0.00000000       0.023
   0.11661808 -0.02915452  0.05606638       0.047
   0.11661808  0.00000000  0.11213277       0.023
  -0.05830904 -0.05830904 -0.33639830       0.023
  -0.05830904 -0.02915452 -0.28033191       0.047
  -0.05830904 -0.00000000 -0.22426553       0.023
  -0.02915452 -0.02915452 -0.22426553       0.023
  -0.02915452 -0.00000000 -0.16819915       0.023
  -0.00000000 -0.00000000 -0.11213277       0.006
   0.11661808  0.00000000  0.00000000       0.012
   0.14577259 -0.02915452  0.00000000       0.023
   0.14577259 -0.00000000  0.05606638       0.023
  -0.02915452 -0.02915452 -0.33639830       0.023
  -0.02915452 -0.00000000 -0.28033191       0.023
   0.00000000  0.00000000 -0.22426553       0.006
   0.17492711 -0.00000000 -0.00000000       0.012
   0.00000000 -0.00000000 -0.33639830       0.006
 
 k-points in reciprocal lattice and weights: Automatic kpoint scheme                 
   0.00000000  0.00000000  0.00000000       0.003
   0.14285714 -0.00000000  0.00000000       0.023
   0.28571429 -0.00000000  0.00000000       0.023
   0.42857143 -0.00000000  0.00000000       0.023
   0.14285714  0.14285714  0.00000000       0.023
   0.28571429  0.14285714  0.00000000       0.047
   0.42857143  0.14285714  0.00000000       0.047
  -0.42857143  0.14285714 -0.00000000       0.047
  -0.28571429  0.14285714 -0.00000000       0.047
  -0.14285714  0.14285714 -0.00000000       0.012
   0.28571429  0.28571429  0.00000000       0.023
   0.42857143  0.28571429  0.00000000       0.047
  -0.42857143  0.28571429 -0.00000000       0.047
  -0.28571429  0.28571429 -0.00000000       0.012
   0.42857143  0.42857143  0.00000000       0.023
  -0.42857143  0.42857143  0.00000000       0.012
   0.14285714  0.14285714  0.14285714       0.023
   0.28571429  0.14285714  0.14285714       0.047
  -0.14285714  0.14285714  0.14285714       0.012
   0.28571429  0.28571429  0.14285714       0.023
   0.42857143  0.28571429  0.14285714       0.023
  -0.28571429  0.28571429  0.14285714       0.023
  -0.14285714  0.28571429  0.14285714       0.023
  -0.42857143  0.42857143  0.14285714       0.023
  -0.28571429  0.42857143  0.14285714       0.047
  -0.14285714  0.42857143  0.14285714       0.023
  -0.42857143 -0.42857143  0.14285714       0.023
  -0.28571429 -0.42857143  0.14285714       0.047
  -0.14285714 -0.42857143  0.14285714       0.023
  -0.28571429 -0.28571429  0.14285714       0.023
  -0.14285714 -0.28571429  0.14285714       0.023
  -0.14285714 -0.14285714  0.14285714       0.006
  -0.28571429  0.28571429  0.28571429       0.012
  -0.42857143  0.42857143  0.28571429       0.023
  -0.28571429  0.42857143  0.28571429       0.023
  -0.42857143 -0.42857143  0.28571429       0.023
  -0.28571429 -0.42857143  0.28571429       0.023
  -0.28571429 -0.28571429  0.28571429       0.006
  -0.42857143  0.42857143  0.42857143       0.012
  -0.42857143 -0.42857143  0.42857143       0.006
 
 position of ions in fractional coordinates (direct lattice) 
   0.25000000  0.75000000  0.50000000
   0.00000000  0.00000000  0.00000000
 
 position of ions in cartesian coordinates  (Angst):
   2.45000000  0.00000000  0.63700000
   0.00000000  0.00000000  0.00000000
 


--------------------------------------------------------------------------------------------------------


 k-point  1 :   0.0000 0.0000 0.0000  plane waves:     263
 k-point  2 :   0.1429-0.0000 0.0000  plane waves:     272
 k-point  3 :   0.2857-0.0000 0.0000  plane waves:     275
 k-point  4 :   0.4286-0.0000 0.0000  plane waves:     279
 k-point  5 :   0.1429 0.1429 0.0000  plane waves:     269
 k-point  6 :   0.2857 0.1429 0.0000  plane waves:     275
 k-point  7 :   0.4286 0.1429 0.0000  plane waves:     277
 k-point  8 :  -0.4286 0.1429-0.0000  plane waves:     270
 k-point  9 :  -0.2857 0.1429-0.0000  plane waves:     273
 k-point 10 :  -0.1429 0.1429-0.0000  plane waves:     283
 k-point 11 :   0.2857 0.2857 0.0000  plane waves:     269
 k-point 12 :   0.4286 0.2857 0.0000  plane waves:     271
 k-point 13 :  -0.4286 0.2857-0.0000  plane waves:     280
 k-point 14 :  -0.2857 0.2857-0.0000  plane waves:     283
 k-point 15 :   0.4286 0.4286 0.0000  plane waves:     278
 k-point 16 :  -0.4286 0.4286 0.0000  plane waves:     275
 k-point 17 :   0.1429 0.1429 0.1429  plane waves:     273
 k-point 18 :   0.2857 0.1429 0.1429  plane waves:     270
 k-point 19 :  -0.1429 0.1429 0.1429  plane waves:     275
 k-point 20 :   0.2857 0.2857 0.1429  plane waves:     270
 k-point 21 :   0.4286 0.2857 0.1429  plane waves:     273
 k-point 22 :  -0.2857 0.2857 0.1429  plane waves:     273
 k-point 23 :  -0.1429 0.2857 0.1429  plane waves:     275
 k-point 24 :  -0.4286 0.4286 0.1429  plane waves:     276
 k-point 25 :  -0.2857 0.4286 0.1429  plane waves:     277
 k-point 26 :  -0.1429 0.4286 0.1429  plane waves:     270
 k-point 27 :  -0.4286-0.4286 0.1429  plane waves:     272
 k-point 28 :  -0.2857-0.4286 0.1429  plane waves:     277
 k-point 29 :  -0.1429-0.4286 0.1429  plane waves:     275
 k-point 30 :  -0.2857-0.2857 0.1429  plane waves:     278
 k-point 31 :  -0.1429-0.2857 0.1429  plane waves:     269
 k-point 32 :  -0.1429-0.1429 0.1429  plane waves:     271
 k-point 33 :  -0.2857 0.2857 0.2857  plane waves:     278
 k-point 34 :  -0.4286 0.4286 0.2857  plane waves:     273
 k-point 35 :  -0.2857 0.4286 0.2857  plane waves:     279
 k-point 36 :  -0.4286-0.4286 0.2857  plane waves:     278
 k-point 37 :  -0.2857-0.4286 0.2857  plane waves:     277
 k-point 38 :  -0.2857-0.2857 0.2857  plane waves:     275
 k-point 39 :  -0.4286 0.4286 0.4286  plane waves:     280
 k-point 40 :  -0.4286-0.4286 0.4286  plane waves:     272

 maximum and minimum number of plane-waves per node :       283      263

 maximum number of plane-waves:       283
 maximum index in each direction: 
   IXMAX=    5   IYMAX=    5   IZMAX=    4
   IXMIN=   -5   IYMIN=   -5   IZMIN=   -5


 serial   3D FFT for wavefunctions
 parallel 3D FFT for charge:
    minimum data exchange during FFTs selected (reduces bandwidth)


 total amount of memory used by VASP MPI-rank0    31335. kBytes
=======================================================================

   base      :      30000. kBytes
   nonl-proj :        746. kBytes
   fftplans  :        119. kBytes
   grid      :        270. kBytes
   one-center:          6. kBytes
   wavefun   :        194. kBytes
 
     INWAV:  cpu time    0.0000: real time    0.0005
 Broyden mixing: mesh for mixing (old mesh)
   NGX =  9   NGY =  9   NGZ =  9
  (NGX  = 28   NGY  = 28   NGZ  = 28)
  gives a total of    729 points

 initial charge density was supplied:
 charge density of overlapping atoms calculated
 number of electron       8.0000000 magnetization 
 keeping initial charge density in first step


--------------------------------------------------------------------------------------------------------


 Maximum index for augmentation-charges          442 (set IRDMAX)


--------------------------------------------------------------------------------------------------------


 First call to EWALD:  gamma=   0.567
 Maximum number of real-space cells 4x 4x 3
 Maximum number of reciprocal cells 3x 3x 3

    FEWALD:  cpu time    0.0080: real time    0.0073


--------------------------------------- Iteration      1(   1)  ---------------------------------------


    POTLOK:  cpu time    0.0280: real time    0.0376
    SETDIJ:  cpu time    0.0080: real time    0.0092
     EDDAV:  cpu time    0.3280: real time    0.3340
       DOS:  cpu time    0.0040: real time    0.0030
    --------------------------------------------
      LOOP:  cpu time    0.3680: real time    0.3845

 eigenvalue-minimisations  :   664
 total energy-change (2. order) :-0.2287268E+01  (-0.2338272E+03)
 number of electron       8.0000000 magnetization 
 augmentation part        8.0000000 magnetization 

 Free energy of the ion-electron system (eV)
  ---------------------------------------------------
  alpha Z        PSCENC =         4.40202223
  Ewald energy   TEWEN  =      -265.18101312
  -Hartree energ DENC   =        -2.30415367
  -exchange      EXHF   =         0.00000000
  -V(xc)+E(xc)   XCENC  =       -17.81545108
  PAW double counting   =        65.95520812      -30.76852678
  entropy T*S    EENTRO =        -0.01346332
  eigenvalues    EBANDS =        37.31461027
  atomic energy  EATOM  =       206.12349923
  Solvation  Ediel_sol  =         0.00000000
  ---------------------------------------------------
  free energy    TOTEN  =        -2.28726812 eV

  energy without entropy =       -2.27380480  energy(sigma->0) =       -2.28053646


--------------------------------------------------------------------------------------------------------




--------------------------------------- Iteration      1(   2)  ---------------------------------------


     EDDAV:  cpu time    0.5000: real time    0.5122
       DOS:  cpu time    0.0000: real time    0.0028
    --------------------------------------------
      LOOP:  cpu time    0.5000: real time    0.5150

 eigenvalue-minimisations  :   976
 total energy-change (2. order) :-0.7895639E+01  (-0.7666368E+01)
 number of electron       8.0000000 magnetization 
 augmentation part        8.0000000 magnetization 

 Free energy of the ion-electron system (eV)
  ---------------------------------------------------
  alpha Z        PSCENC =         4.40202223
  Ewald energy   TEWEN  =      -265.18101312
  -Hartree energ DENC   =        -2.30415367
  -exchange      EXHF   =         0.00000000
  -V(xc)+E(xc)   XCENC  =       -17.81545108
  PAW double counting   =        65.95520812      -30.76852678
  entropy T*S    EENTRO =        -0.01488068
  eigenvalues    EBANDS =        29.42038823
  atomic energy  EATOM  =       206.12349923
  Solvation  Ediel_sol  =         0.00000000
  ---------------------------------------------------
  free energy    TOTEN  =       -10.18290752 eV

  energy without entropy =      -10.16802684  energy(sigma->0) =      -10.17546718


--------------------------------------------------------------------------------------------------------




--------------------------------------- Iteration      1(   3)  ---------------------------------------


     EDDAV:  cpu time    0.4280: real time    0.4334
       DOS:  cpu time    0.0040: real time    0.0027
    --------------------------------------------
      LOOP:  cpu time    0.4320: real time    0.4361

 eigenvalue-minimisations  :   832
 total energy-change (2. order) :-0.7278729E-01  (-0.7258364E-01)
 number of electron       8.0000000 magnetization 
 augmentation part        8.0000000 magnetization 

 Free energy of the ion-electron system (eV)
  ---------------------------------------------------
  alpha Z        PSCENC =         4.40202223
  Ewald energy   TEWEN  =      -265.18101312
  -Hartree energ DENC   =        -2.30415367
  -exchange      EXHF   =         0.00000000
  -V(xc)+E(xc)   XCENC  =       -17.81545108
  PAW double counting   =        65.95520812      -30.76852678
  entropy T*S    EENTRO =        -0.01627471
  eigenvalues    EBANDS =        29.34899497
  atomic energy  EATOM  =       206.12349923
  Solvation  Ediel_sol  =         0.00000000
  ---------------------------------------------------
  free energy    TOTEN  =       -10.25569481 eV

  energy without entropy =      -10.23942010  energy(sigma->0) =      -10.24755746


--------------------------------------------------------------------------------------------------------




--------------------------------------- Iteration      1(   4)  ---------------------------------------


     EDDAV:  cpu time    0.5240: real time    0.5367
       DOS:  cpu time    0.0040: real time    0.0029
    --------------------------------------------
      LOOP:  cpu time    0.5280: real time    0.5397

 eigenvalue-minimisations  :  1016
 total energy-change (2. order) :-0.1241034E-03  (-0.1240994E-03)
 number of electron       8.0000000 magnetization 
 augmentation part        8.0000000 magnetization 

 Free energy of the ion-electron system (eV)
  ---------------------------------------------------
  alpha Z        PSCENC =         4.40202223
  Ewald energy   TEWEN  =      -265.18101312
  -Hartree energ DENC   =        -2.30415367
  -exchange      EXHF   =         0.00000000
  -V(xc)+E(xc)   XCENC  =       -17.81545108
  PAW double counting   =        65.95520812      -30.76852678
  entropy T*S    EENTRO =        -0.01627791
  eigenvalues    EBANDS =        29.34887407
  atomic energy  EATOM  =       206.12349923
  Solvation  Ediel_sol  =         0.00000000
  ---------------------------------------------------
  free energy    TOTEN  =       -10.25581891 eV

  energy without entropy =      -10.23954100  energy(sigma->0) =      -10.24767996


--------------------------------------------------------------------------------------------------------




--------------------------------------- Iteration      1(   5)  ---------------------------------------


     EDDAV:  cpu time    0.4200: real time    0.4301
       DOS:  cpu time    0.0040: real time    0.0028
    CHARGE:  cpu time    0.0160: real time    0.0149
    MIXING:  cpu time    0.0000: real time    0.0018
    --------------------------------------------
      LOOP:  cpu time    0.4400: real time    0.4496

 eigenvalue-minimisations  :   824
 total energy-change (2. order) :-0.1653118E-06  (-0.1649036E-06)
 number of electron       7.9999993 magnetization 
 augmentation part       -0.4698492 magnetization 

 Broyden mixing:
  rms(total) = 0.14871E+00    rms(broyden)= 0.14869E+00
  rms(prec ) = 0.33311E+00
  weight for this iteration     100.00

 Free energy of the ion-electron system (eV)
  ---------------------------------------------------
  alpha Z        PSCENC =         4.40202223
  Ewald energy   TEWEN  =      -265.18101312
  -Hartree energ DENC   =        -2.30415367
  -exchange      EXHF   =         0.00000000
  -V(xc)+E(xc)   XCENC  =       -17.81545108
  PAW double counting   =        65.95520812      -30.76852678
  entropy T*S    EENTRO =        -0.01627792
  eigenvalues    EBANDS =        29.34887391
  atomic energy  EATOM  =       206.12349923
  Solvation  Ediel_sol  =         0.00000000
  ---------------------------------------------------
  free energy    TOTEN  =       -10.25581908 eV

  energy without entropy =      -10.23954116  energy(sigma->0) =      -10.24768012


--------------------------------------------------------------------------------------------------------




--------------------------------------- Iteration      1(   6)  ---------------------------------------


    POTLOK:  cpu time    0.0200: real time    0.0275
    SETDIJ:  cpu time    0.0080: real time    0.0086
     EDDAV:  cpu time    0.4280: real time    0.4279
       DOS:  cpu time    0.0000: real time    0.0028
    CHARGE:  cpu time    0.0160: real time    0.0134
    MIXING:  cpu time    0.0000: real time    0.0016
    --------------------------------------------
      LOOP:  cpu time    0.4720: real time    0.4818

 eigenvalue-minimisations  :   840
 total energy-change (2. order) : 0.5009102E-02  (-0.1744546E-03)
 number of electron       7.9999993 magnetization 
 augmentation part       -0.4714335 magnetization 

 Broyden mixing:
  rms(total) = 0.93082E-01    rms(broyden)= 0.93080E-01
  rms(prec ) = 0.20876E+00
  weight for this iteration     100.00

 eigenvalues of (default mixing * dielectric matrix)
  average eigenvalue GAMMA=   2.6693
  2.6693

 Free energy of the ion-electron system (eV)
  ---------------------------------------------------
  alpha Z        PSCENC =         4.40202223
  Ewald energy   TEWEN  =      -265.18101312
  -Hartree energ DENC   =        -2.33438282
  -exchange      EXHF   =         0.00000000
  -V(xc)+E(xc)   XCENC  =       -17.73204699
  PAW double counting   =        67.87895238      -32.73075158
  entropy T*S    EENTRO =        -0.01627618
  eigenvalues    EBANDS =        29.33918687
  atomic energy  EATOM  =       206.12349923
  Solvation  Ediel_sol  =         0.00000000
  ---------------------------------------------------
  free energy    TOTEN  =       -10.25080998 eV

  energy without entropy =      -10.23453380  energy(sigma->0) =      -10.24267189


--------------------------------------------------------------------------------------------------------




--------------------------------------- Iteration      1(   7)  ---------------------------------------


    POTLOK:  cpu time    0.0200: real time    0.0264
    SETDIJ:  cpu time    0.0080: real time    0.0086
     EDDAV:  cpu time    0.3560: real time    0.3581
       DOS:  cpu time    0.0040: real time    0.0027
    CHARGE:  cpu time    0.0120: real time    0.0132
    MIXING:  cpu time    0.0000: real time    0.0015
    --------------------------------------------
      LOOP:  cpu time    0.4000: real time    0.4107

 eigenvalue-minimisations  :   720
 total energy-change (2. order) : 0.4088974E-02  (-0.5173873E-03)
 number of electron       7.9999993 magnetization 
 augmentation part       -0.4744177 magnetization 

 Broyden mixing:
  rms(total) = 0.33085E-02    rms(broyden)= 0.33005E-02
  rms(prec ) = 0.84214E-02
  weight for this iteration     100.00

 eigenvalues of (default mixing * dielectric matrix)
  average eigenvalue GAMMA=   2.6012
  2.6012  2.6012

 Free energy of the ion-electron system (eV)
  ---------------------------------------------------
  alpha Z        PSCENC =         4.40202223
  Ewald energy   TEWEN  =      -265.18101312
  -Hartree energ DENC   =        -2.47991678
  -exchange      EXHF   =         0.00000000
  -V(xc)+E(xc)   XCENC  =       -17.57593022
  PAW double counting   =        70.96173830      -35.87929426
  entropy T*S    EENTRO =        -0.01626064
  eigenvalues    EBANDS =        29.39843424
  atomic energy  EATOM  =       206.12349923
  Solvation  Ediel_sol  =         0.00000000
  ---------------------------------------------------
  free energy    TOTEN  =       -10.24672100 eV

  energy without entropy =      -10.23046037  energy(sigma->0) =      -10.23859069


--------------------------------------------------------------------------------------------------------




--------------------------------------- Iteration      1(   8)  ---------------------------------------


    POTLOK:  cpu time    0.0200: real time    0.0273
    SETDIJ:  cpu time    0.0080: real time    0.0086
     EDDAV:  cpu time    0.2440: real time    0.2449
       DOS:  cpu time    0.0040: real time    0.0027
    --------------------------------------------
      LOOP:  cpu time    0.2760: real time    0.2833

 eigenvalue-minimisations  :   440
 total energy-change (2. order) : 0.1456642E-04  (-0.7365136E-05)
 number of electron       7.9999993 magnetization 
 augmentation part       -0.4744177 magnetization 

 Free energy of the ion-electron system (eV)
  ---------------------------------------------------
  alpha Z        PSCENC =         4.40202223
  Ewald energy   TEWEN  =      -265.18101312
  -Hartree energ DENC   =        -2.49838799
  -exchange      EXHF   =         0.00000000
  -V(xc)+E(xc)   XCENC  =       -17.57677034
  PAW double counting   =        70.75257496      -35.67020150
  entropy T*S    EENTRO =        -0.01625595
  eigenvalues    EBANDS =        29.41782604
  atomic energy  EATOM  =       206.12349923
  Solvation  Ediel_sol  =         0.00000000
  ---------------------------------------------------
  free energy    TOTEN  =       -10.24670644 eV

  energy without entropy =      -10.23045049  energy(sigma->0) =      -10.23857846


--------------------------------------------------------------------------------------------------------




 average (electrostatic) potential at core
  the test charge radii are     0.9892
  (the norm of the test charge is              1.0000)
       1 -80.5447       2 -80.5447
 
 
 
 E-fermi :   8.9960     XC(G=0): -10.8921     alpha+bet :-15.6819


 k-point     1 :       0.0000    0.0000    0.0000
  band No.  band energies     occupation 
      1      -4.6145      2.00000
      2       6.1906      2.00000
      3       6.2990      2.00000
      4       6.2991      2.00000
      5      10.5395      0.00000
      6      16.8710      0.00000
      7      17.3700      0.00000
      8      17.3701      0.00000

 k-point     2 :       0.1429   -0.0000    0.0000
  band No.  band energies     occupation 
      1      -4.0388      2.00000
      2       5.1618      2.00000
      3       6.2347      2.00000
      4       8.3209      2.00000
      5      11.6773      0.00000
      6      14.5390      0.00000
      7      14.9208      0.00000
      8      16.6275      0.00000

 k-point     3 :       0.2857   -0.0000    0.0000
  band No.  band energies     occupation 
      1      -2.3232      2.00000
      2       5.1432      2.00000
      3       6.5353      2.00000
      4       8.9655      1.17074
      5      11.2145      0.00000
      6      12.1587      0.00000
      7      13.5212      0.00000
      8      14.4066      0.00000

 k-point     4 :       0.4286   -0.0000    0.0000
  band No.  band energies     occupation 
      1       0.4872      2.00000
      2       4.3589      2.00000
      3       6.2278      2.00000
      4       7.4626      2.00000
      5       8.4536      1.99987
      6      10.9526      0.00000
      7      13.5811      0.00000
      8      14.4929      0.00000

 k-point     5 :       0.1429    0.1429    0.0000
  band No.  band energies     occupation 
      1      -2.5631      2.00000
      2       5.4328      2.00000
      3       7.9392      2.00000
      4       9.0751      0.57577
      5      10.6798      0.00000
      6      11.1507      0.00000
      7      13.6156      0.00000
      8      14.4154      0.00000

 k-point     6 :       0.2857    0.1429    0.0000
  band No.  band energies     occupation 
      1       0.0199      2.00000
      2       5.4514      2.00000
      3       6.3235      2.00000
      4       6.8888      2.00000
      5       9.4256      0.00238
      6      11.5494      0.00000
      7      12.3671      0.00000
      8      13.6673      0.00000

 k-point     7 :       0.4286    0.1429    0.0000
  band No.  band energies     occupation 
      1       1.4094      2.00000
      2       3.6530      2.00000
      3       4.6478      2.00000
      4       7.5327      2.00000
      5       8.8435      1.71890
      6      11.5300      0.00000
      7      12.6467      0.00000
      8      16.1245      0.00000

 k-point     8 :      -0.4286    0.1429   -0.0000
  band No.  band energies     occupation 
      1      -1.6059      2.00000
      2       3.2206      2.00000
      3       6.7187      2.00000
      4       8.2839      2.00000
      5      10.6756      0.00000
      6      12.5487      0.00000
      7      13.2807      0.00000
      8      15.2909      0.00000

 k-point     9 :      -0.2857    0.1429   -0.0000
  band No.  band energies     occupation 
      1      -3.5549      2.00000
      2       2.9616      2.00000
      3       6.3914      2.00000
      4       9.6717      0.00000
      5      12.4470      0.00000
      6      13.7584      0.00000
      7      14.3124      0.00000
      8      16.0179      0.00000

 k-point    10 :      -0.1429    0.1429   -0.0000
  band No.  band energies     occupation 
      1      -4.3718      2.00000
      2       3.7530      2.00000
      3       6.5244      2.00000
      4       7.9279      2.00000
      5      11.9860      0.00000
      6      14.3022      0.00000
      7      15.8736      0.00000
      8      19.4445      0.00000

 k-point    11 :       0.2857    0.2857    0.0000
  band No.  band energies     occupation 
      1       2.6472      2.00000
      2       2.8162      2.00000
      3       3.6442      2.00000
      4       7.6740      2.00000
      5       9.3286      0.01868
      6      10.4776      0.00000
      7      14.6174      0.00000
      8      15.2986      0.00000

 k-point    12 :       0.4286    0.2857    0.0000
  band No.  band energies     occupation 
      1      -0.4214      2.00000
      2       1.2088      2.00000
      3       7.5899      2.00000
      4       8.0089      2.00000
      5       9.2748      0.04861
      6      11.7965      0.00000
      7      14.3869      0.00000
      8      15.9370      0.00000

 k-point    13 :      -0.4286    0.2857   -0.0000
  band No.  band energies     occupation 
      1      -2.5921      2.00000
      2       0.7102      2.00000
      3       7.2697      2.00000
      4      10.3342      0.00000
      5      10.7647      0.00000
      6      13.1669      0.00000
      7      14.7634      0.00000
      8      15.1860      0.00000

 k-point    14 :      -0.2857    0.2857   -0.0000
  band No.  band energies     occupation 
      1      -3.6450      2.00000
      2       1.3123      2.00000
      3       7.1998      2.00000
      4       8.9874      1.04825
      5      11.8920      0.00000
      6      13.7542      0.00000
      7      15.2294      0.00000
      8      19.0383      0.00000

 k-point    15 :       0.4286    0.4286    0.0000
  band No.  band energies     occupation 
      1      -1.1628      2.00000
      2      -1.1611      2.00000
      3       8.5836      1.99645
      4       8.6270      1.99092
      5      11.7145      0.00000
      6      12.2925      0.00000
      7      14.1540      0.00000
      8      15.0384      0.00000

 k-point    16 :      -0.4286    0.4286    0.0000
  band No.  band energies     occupation 
      1      -2.4424      2.00000
      2      -0.7790      2.00000
      3       8.3241      2.00000
      4       9.8923      0.00000
      5      10.2295      0.00000
      6      11.8249      0.00000
      7      18.7081      0.00000
      8      18.8148      0.00000

 k-point    17 :       0.1429    0.1429    0.1429
  band No.  band energies     occupation 
      1      -1.8434      2.00000
      2       3.0517      2.00000
      3       8.3597      1.99999
      4       9.1967      0.15569
      5      10.2754      0.00000
      6      11.1774      0.00000
      7      14.0820      0.00000
      8      14.8129      0.00000

 k-point    18 :       0.2857    0.1429    0.1429
  band No.  band energies     occupation 
      1       0.9578      2.00000
      2       4.1107      2.00000
      3       4.9103      2.00000
      4       6.3469      2.00000
      5      10.6109      0.00000
      6      13.1728      0.00000
      7      13.8873      0.00000
      8      14.2381      0.00000

 k-point    19 :      -0.1429    0.1429    0.1429
  band No.  band energies     occupation 
      1      -4.1294      2.00000
      2       3.4505      2.00000
      3       4.9266      2.00000
      4       9.8307      0.00000
      5      12.2190      0.00000
      6      12.8452      0.00000
      7      17.7694      0.00000
      8      17.9829      0.00000

 k-point    20 :       0.2857    0.2857    0.1429
  band No.  band energies     occupation 
      1       2.3276      2.00000
      2       2.3579      2.00000
      3       4.6581      2.00000
      4       6.1502      2.00000
      5      11.6819      0.00000
      6      12.4932      0.00000
      7      14.4632      0.00000
      8      15.4570      0.00000

 k-point    21 :       0.4286    0.2857    0.1429
  band No.  band energies     occupation 
      1      -0.6530      2.00000
      2       0.9906      2.00000
      3       8.6950      1.96668
      4       8.9131      1.44226
      5      10.6666      0.00000
      6      11.6889      0.00000
      7      12.5543      0.00000
      8      13.6021      0.00000

 k-point    22 :      -0.2857    0.2857    0.1429
  band No.  band energies     occupation 
      1      -3.4052      2.00000
      2       1.4832      2.00000
      3       5.1222      2.00000
      4       9.8232      0.00000
      5      11.3344      0.00000
      6      15.6303      0.00000
      7      15.9753      0.00000
      8      18.4784      0.00000

 k-point    23 :      -0.1429    0.2857    0.1429
  band No.  band energies     occupation 
      1      -3.0742      2.00000
      2       2.8187      2.00000
      3       4.4472      2.00000
      4      10.0863      0.00000
      5      11.6997      0.00000
      6      13.7416      0.00000
      7      15.2491      0.00000
      8      16.9399      0.00000

 k-point    24 :      -0.4286    0.4286    0.1429
  band No.  band energies     occupation 
      1      -2.2084      2.00000
      2      -0.5589      2.00000
      3       6.2160      2.00000
      4       7.8006      2.00000
      5      12.6272      0.00000
      6      14.1645      0.00000
      7      18.0431      0.00000
      8      18.1914      0.00000

 k-point    25 :      -0.2857    0.4286    0.1429
  band No.  band energies     occupation 
      1      -2.1197      2.00000
      2       1.0981      2.00000
      3       4.7988      2.00000
      4       7.8975      2.00000
      5      11.9125      0.00000
      6      14.5129      0.00000
      7      16.7940      0.00000
      8      17.4226      0.00000

 k-point    26 :      -0.1429    0.4286    0.1429
  band No.  band energies     occupation 
      1      -0.8979      2.00000
      2       3.2854      2.00000
      3       4.9610      2.00000
      4       7.4419      2.00000
      5       8.9743      1.12148
      6      13.3970      0.00000
      7      14.9674      0.00000
      8      16.0514      0.00000

 k-point    27 :      -0.4286   -0.4286    0.1429
  band No.  band energies     occupation 
      1      -0.7117      2.00000
      2      -0.7065      2.00000
      3       6.1013      2.00000
      4       6.1064      2.00000
      5      11.8145      0.00000
      6      15.4734      0.00000
      7      16.2512      0.00000
      8      16.7598      0.00000

 k-point    28 :      -0.2857   -0.4286    0.1429
  band No.  band energies     occupation 
      1       0.2640      2.00000
      2       1.8221      2.00000
      3       5.4927      2.00000
      4       6.8180      2.00000
      5       7.2522      2.00000
      6      13.5354      0.00000
      7      16.5877      0.00000
      8      17.5722      0.00000

 k-point    29 :      -0.1429   -0.4286    0.1429
  band No.  band energies     occupation 
      1       2.2474      2.00000
      2       3.0650      2.00000
      3       4.9352      2.00000
      4       6.4430      2.00000
      5       8.5677      1.99754
      6      11.1392      0.00000
      7      12.3162      0.00000
      8      16.4782      0.00000

 k-point    30 :      -0.2857   -0.2857    0.1429
  band No.  band energies     occupation 
      1       2.6101      2.00000
      2       3.6626      2.00000
      3       3.8301      2.00000
      4       7.1001      2.00000
      5       7.2498      2.00000
      6      11.1788      0.00000
      7      13.8921      0.00000
      8      14.7623      0.00000

 k-point    31 :      -0.1429   -0.2857    0.1429
  band No.  band energies     occupation 
      1      -0.4525      2.00000
      2       6.5037      2.00000
      3       7.3540      2.00000
      4       8.2226      2.00000
      5       8.3058      2.00000
      6      10.7520      0.00000
      7      11.1737      0.00000
      8      12.4807      0.00000

 k-point    32 :      -0.1429   -0.1429    0.1429
  band No.  band energies     occupation 
      1      -2.8038      2.00000
      2       7.7667      2.00000
      3       7.7667      2.00000
      4       7.7712      2.00000
      5      11.0818      0.00000
      6      11.5142      0.00000
      7      12.3597      0.00000
      8      13.7418      0.00000

 k-point    33 :      -0.2857    0.2857    0.2857
  band No.  band energies     occupation 
      1      -2.6904      2.00000
      2       1.5430      2.00000
      3       3.2800      2.00000
      4       7.3987      2.00000
      5      13.9360      0.00000
      6      17.0451      0.00000
      7      17.2616      0.00000
      8      18.1006      0.00000

 k-point    34 :      -0.4286    0.4286    0.2857
  band No.  band energies     occupation 
      1      -1.5161      2.00000
      2       0.0601      2.00000
      3       3.8282      2.00000
      4       5.3651      2.00000
      5      15.4448      0.00000
      6      16.3855      0.00000
      7      17.9701      0.00000
      8      18.5332      0.00000

 k-point    35 :      -0.2857    0.4286    0.2857
  band No.  band energies     occupation 
      1      -1.1884      2.00000
      2       1.3838      2.00000
      3       3.1581      2.00000
      4       5.6728      2.00000
      5      11.4919      0.00000
      6      17.1882      0.00000
      7      18.4426      0.00000
      8      19.1548      0.00000

 k-point    36 :      -0.4286   -0.4286    0.2857
  band No.  band energies     occupation 
      1       0.1410      2.00000
      2       0.1504      2.00000
      3       3.9181      2.00000
      4       3.9203      2.00000
      5      11.3088      0.00000
      6      18.5865      0.00000
      7      18.7584      0.00000
      8      19.4248      0.00000

 k-point    37 :      -0.2857   -0.4286    0.2857
  band No.  band energies     occupation 
      1       1.3486      2.00000
      2       2.3376      2.00000
      3       4.0997      2.00000
      4       5.0601      2.00000
      5       6.6338      2.00000
      6      15.3819      0.00000
      7      16.7734      0.00000
      8      18.1128      0.00000

 k-point    38 :      -0.2857   -0.2857    0.2857
  band No.  band energies     occupation 
      1       2.4365      2.00000
      2       4.4147      2.00000
      3       4.5498      2.00000
      4       6.0491      2.00000
      5       6.0491      2.00000
      6      13.0176      0.00000
      7      13.6506      0.00000
      8      13.6507      0.00000

 k-point    39 :      -0.4286    0.4286    0.4286
  band No.  band energies     occupation 
      1      -0.4201      2.00000
      2       0.5760      2.00000
      3       2.3966      2.00000
      4       3.3802      2.00000
      5      16.2435      0.00000
      6      16.3845      0.00000
      7      19.6983      0.00000
      8      20.6297      0.00000

 k-point    40 :      -0.4286   -0.4286    0.4286
  band No.  band energies     occupation 
      1       0.8939      2.00000
      2       0.9083      2.00000
      3       2.7139      2.00000
      4       2.7139      2.00000
      5      11.1193      0.00000
      6      19.7399      0.00000
      7      20.7018      0.00000
      8      20.7018      0.00000


--------------------------------------------------------------------------------------------------------


 soft charge-density along one line, spin component           1
         0         1         2         3         4         5         6         7         8         9
 total charge-density along one line
 
 pseudopotential strength for first ion, spin component:           1
 18.065  -0.003   0.000  -0.000  -0.000  -0.000   0.000   0.000
 -0.003   0.005  -0.000   0.000   0.000   0.000  -0.000  -0.000
  0.000  -0.000   4.117   0.000   0.000  -0.006  -0.000  -0.000
 -0.000   0.000   0.000   4.118   0.000  -0.000  -0.006  -0.000
 -0.000   0.000   0.000   0.000   4.117  -0.000  -0.000  -0.006
 -0.000   0.000  -0.006  -0.000  -0.000   0.005   0.000   0.000
  0.000  -0.000  -0.000  -0.006  -0.000   0.000   0.005   0.000
  0.000  -0.000  -0.000  -0.000  -0.006   0.000   0.000   0.005
 total augmentation occupancy for first ion, spin component:           1
  1.622  -0.539   0.000   0.000   0.000   0.000   0.000   0.000
 -0.539   0.959   0.000   0.000   0.000   0.000   0.000  -0.000
  0.000   0.000   0.883   0.000  -0.000  -0.538  -0.000   0.000
  0.000   0.000   0.000   0.879   0.000   0.000  -0.546   0.000
  0.000   0.000  -0.000   0.000   0.883   0.000   0.000  -0.538
  0.000   0.000  -0.538   0.000   0.000   0.413  -0.000  -0.000
  0.000   0.000   0.000  -0.546   0.000  -0.000   0.439  -0.000
  0.000  -0.000   0.000   0.000  -0.538  -0.000  -0.000   0.413


------------------------ aborting loop because EDIFF is reached ----------------------------------------


    CHARGE:  cpu time    0.0120: real time    0.0129
    FORLOC:  cpu time    0.0000: real time    0.0005
    FORNL :  cpu time    0.0120: real time    0.0113
    STRESS:  cpu time    0.1000: real time    0.1016
    FORCOR:  cpu time    0.0120: real time    0.0124
    FORHAR:  cpu time    0.0040: real time    0.0035
    MIXING:  cpu time    0.0040: real time    0.0009
    OFIELD:  cpu time    0.0000: real time    0.0005

  FORCE on cell =-STRESS in cart. coord.  units (eV):
  Direction    XX          YY          ZZ          XY          YZ          ZX
  --------------------------------------------------------------------------------------
  Alpha Z     4.40202     4.40202     4.40202
  Ewald     -90.96023   -90.96023   -83.26083    -0.00000     0.00000     0.00000
  Hartree     0.54887     0.54887     1.40456     0.00000     0.00000     0.00000
  E(xc)     -25.43574   -25.43574   -25.38474     0.00005     0.00001     0.00001
  Local     -11.21527   -11.21527   -17.64180    -0.00002    -0.00005    -0.00005
  n-local    77.13590    77.18075    76.62463     0.90505    -0.23839    -0.45129
  augment   -12.07546   -12.07546   -12.05167     0.00004     0.00005     0.00005
  Kinetic    60.70599    52.96430    57.56461     3.80647    -1.25325    -3.57062
  Fock        0.00000     0.00000     0.00000     0.00000     0.00000     0.00000
  -------------------------------------------------------------------------------------
  Total      -0.74234    -0.74234     1.65677    -0.00000     0.00000    -0.00000
  in kB     -38.88208   -38.88208    86.77848    -0.00000     0.00000    -0.00000
  external pressure =        3.00 kB  Pullay stress =        0.00 kB


 VOLUME and BASIS-vectors are now :
 -----------------------------------------------------------------------------
  energy-cutoff  :      250.00
  volume of cell :       30.59
      direct lattice vectors                 reciprocal lattice vectors
    -2.450000000  2.450000000  1.274000000     0.000000000  0.204081633  0.392464678
     2.450000000 -2.450000000  1.274000000     0.204081633  0.000000000  0.392464678
     2.450000000  2.450000000 -1.274000000     0.204081633  0.204081633 -0.000000000

  length of vectors
     3.691622408  3.691622408  3.691622408     0.442354876  0.442354876  0.288615013


 FORCES acting on ions
    electron-ion (+dipol)            ewald-force                    non-local-force                 convergence-correction
 -----------------------------------------------------------------------------------------------
   0.936E-05 -.936E-05 0.383E-14   0.198E-14 0.156E-15 0.342E-17   0.569E-17 0.230E-16 0.102E-16   -.198E-06 0.198E-06 -.397E-16
   -.936E-05 0.936E-05 0.593E-14   -.185E-14 0.943E-16 0.891E-15   -.391E-17 -.282E-16 -.737E-17   0.198E-06 -.198E-06 -.240E-16
 -----------------------------------------------------------------------------------------------
   -.163E-13 0.151E-13 0.976E-14   0.139E-15 0.250E-15 0.894E-15   0.178E-17 -.516E-17 0.279E-17   -.127E-15 -.120E-15 -.637E-16
 
 
 POSITION                                       TOTAL-FORCE (eV/Angst)
 -----------------------------------------------------------------------------------
      2.45000      0.00000      0.63700        -0.000000      0.000000      0.000000
      0.00000      0.00000      0.00000         0.000000     -0.000000     -0.000000
 -----------------------------------------------------------------------------------
    total drift:                               -0.000000      0.000000      0.000000


--------------------------------------------------------------------------------------------------------



  FREE ENERGIE OF THE ION-ELECTRON SYSTEM (eV)
  ---------------------------------------------------
  free  energy   TOTEN  =       -10.24670644 eV

  energy  without entropy=      -10.23045049  energy(sigma->0) =      -10.23857846
 


--------------------------------------------------------------------------------------------------------


    POTLOK:  cpu time    0.0280: real time    0.0467


--------------------------------------------------------------------------------------------------------




--------------------------------------------------------------------------------------------------------


    WAVPRE:  cpu time    0.4560: real time    0.7028
    FEWALD:  cpu time    0.0000: real time    0.0008
    GENKIN:  cpu time    0.0160: real time    0.0131
    ORTHCH:  cpu time    0.0280: real time    0.0255
     LOOP+:  cpu time    4.1560: real time    4.5887


--------------------------------------- Iteration      2(   1)  ---------------------------------------


    POTLOK:  cpu time    0.0200: real time    0.0243
    SETDIJ:  cpu time    0.0080: real time    0.0086
     EDDAV:  cpu time    0.4520: real time    0.4551
       DOS:  cpu time    0.0040: real time    0.0027
    CHARGE:  cpu time    0.0120: real time    0.0132
    MIXING:  cpu time    0.0040: real time    0.0011
    --------------------------------------------
      LOOP:  cpu time    0.5000: real time    0.5057

 eigenvalue-minimisations  :   904
 total energy-change (2. order) :-0.7894326E-01  (-0.2303730E+00)
 number of electron       7.9999985 magnetization 
 augmentation part       -0.4731467 magnetization 

 Broyden mixing:
  rms(total) = 0.92706E-01    rms(broyden)= 0.92686E-01
  rms(prec ) = 0.28566E+00
  weight for this iteration     100.00

 Free energy of the ion-electron system (eV)
  ---------------------------------------------------
  alpha Z        PSCENC =         4.38862130
  Ewald energy   TEWEN  =      -265.02178733
  -Hartree energ DENC   =        -2.46765740
  -exchange      EXHF   =         0.00000000
  -V(xc)+E(xc)   XCENC  =       -17.59369429
  PAW double counting   =        70.74770897      -35.66564122
  entropy T*S    EENTRO =        -0.01055137
  eigenvalues    EBANDS =        29.17383785
  atomic energy  EATOM  =       206.12349923
  Solvation  Ediel_sol  =         0.00000000
  ---------------------------------------------------
  free energy    TOTEN  =       -10.32566427 eV

  energy without entropy =      -10.31511290  energy(sigma->0) =      -10.32038858


--------------------------------------------------------------------------------------------------------




--------------------------------------- Iteration      2(   2)  ---------------------------------------


    POTLOK:  cpu time    0.0160: real time    0.0304
    SETDIJ:  cpu time    0.0080: real time    0.0086
     EDDAV:  cpu time    0.4000: real time    0.3967
       DOS:  cpu time    0.0000: real time    0.0028
    CHARGE:  cpu time    0.0120: real time    0.0133
    MIXING:  cpu time    0.0040: real time    0.0012
    --------------------------------------------
      LOOP:  cpu time    0.4400: real time    0.4531

 eigenvalue-minimisations  :   800
 total energy-change (2. order) : 0.2417909E-01  (-0.5090866E-02)
 number of electron       7.9999985 magnetization 
 augmentation part       -0.4736007 magnetization 

 Broyden mixing:
  rms(total) = 0.51762E-01    rms(broyden)= 0.51761E-01
  rms(prec ) = 0.15920E+00
  weight for this iteration     100.00

 eigenvalues of (default mixing * dielectric matrix)
  average eigenvalue GAMMA=   2.2610
  2.2610

 Free energy of the ion-electron system (eV)
  ---------------------------------------------------
  alpha Z        PSCENC =         4.38862130
  Ewald energy   TEWEN  =      -265.02178733
  -Hartree energ DENC   =        -2.45616027
  -exchange      EXHF   =         0.00000000
  -V(xc)+E(xc)   XCENC  =       -17.59330518
  PAW double counting   =        70.79103017      -35.71009966
  entropy T*S    EENTRO =        -0.01060523
  eigenvalues    EBANDS =        29.18732181
  atomic energy  EATOM  =       206.12349923
  Solvation  Ediel_sol  =         0.00000000
  ---------------------------------------------------
  free energy    TOTEN  =       -10.30148517 eV

  energy without entropy =      -10.29087994  energy(sigma->0) =      -10.29618256


--------------------------------------------------------------------------------------------------------




--------------------------------------- Iteration      2(   3)  ---------------------------------------


    POTLOK:  cpu time    0.0160: real time    0.0287
    SETDIJ:  cpu time    0.0080: real time    0.0087
     EDDAV:  cpu time    0.4040: real time    0.4028
       DOS:  cpu time    0.0040: real time    0.0030
    CHARGE:  cpu time    0.0120: real time    0.0133
    MIXING:  cpu time    0.0000: real time    0.0012
    --------------------------------------------
      LOOP:  cpu time    0.4440: real time    0.4576

 eigenvalue-minimisations  :   816
 total energy-change (2. order) : 0.1154841E-01  (-0.3181124E-02)
 number of electron       7.9999985 magnetization 
 augmentation part       -0.4736146 magnetization 

 Broyden mixing:
  rms(total) = 0.47893E-02    rms(broyden)= 0.47888E-02
  rms(prec ) = 0.11200E-01
  weight for this iteration     100.00

 eigenvalues of (default mixing * dielectric matrix)
  average eigenvalue GAMMA=   1.3320
  2.2291  0.4349

 Free energy of the ion-electron system (eV)
  ---------------------------------------------------
  alpha Z        PSCENC =         4.38862130
  Ewald energy   TEWEN  =      -265.02178733
  -Hartree energ DENC   =        -2.47895072
  -exchange      EXHF   =         0.00000000
  -V(xc)+E(xc)   XCENC  =       -17.59048117
  PAW double counting   =        70.81484687      -35.73507082
  entropy T*S    EENTRO =        -0.01069122
  eigenvalues    EBANDS =        29.22007710
  atomic energy  EATOM  =       206.12349923
  Solvation  Ediel_sol  =         0.00000000
  ---------------------------------------------------
  free energy    TOTEN  =       -10.28993676 eV

  energy without entropy =      -10.27924554  energy(sigma->0) =      -10.28459115


--------------------------------------------------------------------------------------------------------




--------------------------------------- Iteration      2(   4)  ---------------------------------------


    POTLOK:  cpu time    0.0200: real time    0.0263
    SETDIJ:  cpu time    0.0080: real time    0.0087
     EDDAV:  cpu time    0.3400: real time    0.3405
       DOS:  cpu time    0.0040: real time    0.0027
    --------------------------------------------
      LOOP:  cpu time    0.3720: real time    0.3781

 eigenvalue-minimisations  :   688
 total energy-change (2. order) :-0.9706145E-04  (-0.1195578E-03)
 number of electron       7.9999985 magnetization 
 augmentation part       -0.4736146 magnetization 

 Free energy of the ion-electron system (eV)
  ---------------------------------------------------
  alpha Z        PSCENC =         4.38862130
  Ewald energy   TEWEN  =      -265.02178733
  -Hartree energ DENC   =        -2.47699214
  -exchange      EXHF   =         0.00000000
  -V(xc)+E(xc)   XCENC  =       -17.59088072
  PAW double counting   =        70.80842648      -35.72841516
  entropy T*S    EENTRO =        -0.01068904
  eigenvalues    EBANDS =        29.21818357
  atomic energy  EATOM  =       206.12349923
  Solvation  Ediel_sol  =         0.00000000
  ---------------------------------------------------
  free energy    TOTEN  =       -10.29003382 eV

  energy without entropy =      -10.27934479  energy(sigma->0) =      -10.28468930


--------------------------------------------------------------------------------------------------------




 average (electrostatic) potential at core
  the test charge radii are     0.9892
  (the norm of the test charge is              1.0000)
       1 -80.5731       2 -80.5731
 
 
 
 E-fermi :   8.9867     XC(G=0): -10.8804     alpha+bet :-15.6342


 k-point     1 :       0.0000    0.0000    0.0000
  band No.  band energies     occupation 
      1      -4.6107      2.00000
      2       6.5817      2.00000
      3       6.5817      2.00000
      4       6.9800      2.00000
      5      10.7001      0.00000
      6      16.7111      0.00000
      7      17.8805      0.00000
      8      17.8806      0.00000

 k-point     2 :       0.1429   -0.0000    0.0000
  band No.  band energies     occupation 
      1      -4.0660      2.00000
      2       5.5963      2.00000
      3       6.4309      2.00000
      4       8.8731      1.57843
      5      11.8381      0.00000
      6      13.9702      0.00000
      7      14.4979      0.00000
      8      16.5440      0.00000

 k-point     3 :       0.2857   -0.0000    0.0000
  band No.  band energies     occupation 
      1      -2.4440      2.00000
      2       5.4053      2.00000
      3       6.5408      2.00000
      4       8.5073      1.99930
      5      11.0028      0.00000
      6      12.3700      0.00000
      7      13.0050      0.00000
      8      14.6189      0.00000

 k-point     4 :       0.4286   -0.0000    0.0000
  band No.  band energies     occupation 
      1       0.1993      2.00000
      2       3.9075      2.00000
      3       6.4337      2.00000
      4       7.1841      2.00000
      5       8.3245      2.00000
      6      10.6981      0.00000
      7      13.6336      0.00000
      8      14.5125      0.00000

 k-point     5 :       0.1429    0.1429    0.0000
  band No.  band energies     occupation 
      1      -2.6935      2.00000
      2       5.6382      2.00000
      3       7.9331      2.00000
      4       9.2385      0.07503
      5      10.3332      0.00000
      6      10.8453      0.00000
      7      13.4255      0.00000
      8      14.0149      0.00000

 k-point     6 :       0.2857    0.1429    0.0000
  band No.  band energies     occupation 
      1      -0.2816      2.00000
      2       5.0355      2.00000
      3       6.2861      2.00000
      4       6.7545      2.00000
      5       9.2997      0.02688
      6      11.4236      0.00000
      7      12.2268      0.00000
      8      13.9283      0.00000

 k-point     7 :       0.4286    0.1429    0.0000
  band No.  band energies     occupation 
      1       1.1386      2.00000
      2       3.1788      2.00000
      3       4.6533      2.00000
      4       7.3951      2.00000
      5       8.7446      1.91319
      6      11.5016      0.00000
      7      12.5735      0.00000
      8      16.1798      0.00000

 k-point     8 :      -0.4286    0.1429   -0.0000
  band No.  band energies     occupation 
      1      -1.6978      2.00000
      2       3.3420      2.00000
      3       6.7392      2.00000
      4       7.7460      2.00000
      5      10.5391      0.00000
      6      12.5761      0.00000
      7      13.5807      0.00000
      8      14.9306      0.00000

 k-point     9 :      -0.2857    0.1429   -0.0000
  band No.  band energies     occupation 
      1      -3.5625      2.00000
      2       3.2422      2.00000
      3       6.6348      2.00000
      4      10.1682      0.00000
      5      12.4771      0.00000
      6      13.4975      0.00000
      7      14.2771      0.00000
      8      15.5052      0.00000

 k-point    10 :      -0.1429    0.1429   -0.0000
  band No.  band energies     occupation 
      1      -4.3581      2.00000
      2       4.1247      2.00000
      3       6.8119      2.00000
      4       8.5178      1.99909
      5      12.2620      0.00000
      6      14.6043      0.00000
      7      16.5338      0.00000
      8      18.0807      0.00000

 k-point    11 :       0.2857    0.2857    0.0000
  band No.  band energies     occupation 
      1       2.2229      2.00000
      2       2.6499      2.00000
      3       3.4480      2.00000
      4       7.5137      2.00000
      5       9.3341      0.01405
      6      10.4331      0.00000
      7      14.5706      0.00000
      8      15.3887      0.00000

 k-point    12 :       0.4286    0.2857    0.0000
  band No.  band energies     occupation 
      1      -0.4650      2.00000
      2       1.2342      2.00000
      3       7.0379      2.00000
      4       8.0085      2.00000
      5       9.4310      0.00168
      6      11.4440      0.00000
      7      14.8041      0.00000
      8      16.2865      0.00000

 k-point    13 :      -0.4286    0.2857   -0.0000
  band No.  band energies     occupation 
      1      -2.5605      2.00000
      2       0.8817      2.00000
      3       7.5367      2.00000
      4      10.5483      0.00000
      5      11.2000      0.00000
      6      12.8214      0.00000
      7      14.3800      0.00000
      8      15.0000      0.00000

 k-point    14 :      -0.2857    0.2857   -0.0000
  band No.  band energies     occupation 
      1      -3.6019      2.00000
      2       1.5654      2.00000
      3       7.5016      2.00000
      4       9.5557      0.00006
      5      12.2443      0.00000
      6      14.4256      0.00000
      7      15.6069      0.00000
      8      17.6481      0.00000

 k-point    15 :       0.4286    0.4286    0.0000
  band No.  band energies     occupation 
      1      -1.0730      2.00000
      2      -1.0694      2.00000
      3       8.8755      1.56845
      4       8.8891      1.51017
      5      11.6760      0.00000
      6      12.8503      0.00000
      7      13.8588      0.00000
      8      14.1834      0.00000

 k-point    16 :      -0.4286    0.4286    0.0000
  band No.  band energies     occupation 
      1      -2.3502      2.00000
      2      -0.6175      2.00000
      3       8.6467      1.98382
      4      10.2365      0.00000
      5      10.8189      0.00000
      6      12.4557      0.00000
      7      17.4106      0.00000
      8      17.5063      0.00000

 k-point    17 :       0.1429    0.1429    0.1429
  band No.  band energies     occupation 
      1      -1.9450      2.00000
      2       3.1514      2.00000
      3       8.1408      2.00000
      4       8.8277      1.73922
      5      10.1310      0.00000
      6      11.3507      0.00000
      7      14.4536      0.00000
      8      14.9174      0.00000

 k-point    18 :       0.2857    0.1429    0.1429
  band No.  band energies     occupation 
      1       0.6866      2.00000
      2       3.8294      2.00000
      3       4.6865      2.00000
      4       6.0863      2.00000
      5      10.6116      0.00000
      6      13.1705      0.00000
      7      14.0471      0.00000
      8      14.2107      0.00000

 k-point    19 :      -0.1429    0.1429    0.1429
  band No.  band energies     occupation 
      1      -4.1059      2.00000
      2       3.8867      2.00000
      3       5.1092      2.00000
      4      10.4648      0.00000
      5      12.6525      0.00000
      6      13.1235      0.00000
      7      17.3064      0.00000
      8      18.2950      0.00000

 k-point    20 :       0.2857    0.2857    0.1429
  band No.  band energies     occupation 
      1       2.0678      2.00000
      2       2.1454      2.00000
      3       4.3311      2.00000
      4       5.8628      2.00000
      5      11.7572      0.00000
      6      12.5877      0.00000
      7      14.6324      0.00000
      8      15.5305      0.00000

 k-point    21 :       0.4286    0.2857    0.1429
  band No.  band energies     occupation 
      1      -0.7069      2.00000
      2       1.0036      2.00000
      3       8.2084      2.00000
      4       8.3822      1.99998
      5      10.8387      0.00000
      6      12.0702      0.00000
      7      12.7948      0.00000
      8      13.9493      0.00000

 k-point    22 :      -0.2857    0.2857    0.1429
  band No.  band energies     occupation 
      1      -3.3519      2.00000
      2       1.7625      2.00000
      3       5.3810      2.00000
      4      10.2322      0.00000
      5      11.9219      0.00000
      6      15.9502      0.00000
      7      16.0933      0.00000
      8      17.3221      0.00000

 k-point    23 :      -0.1429    0.2857    0.1429
  band No.  band energies     occupation 
      1      -3.0619      2.00000
      2       3.1798      2.00000
      3       4.5464      2.00000
      4      10.3612      0.00000
      5      11.5718      0.00000
      6      13.7074      0.00000
      7      15.4424      0.00000
      8      16.2201      0.00000

 k-point    24 :      -0.4286    0.4286    0.1429
  band No.  band energies     occupation 
      1      -2.1051      2.00000
      2      -0.3833      2.00000
      3       6.5271      2.00000
      4       8.1611      2.00000
      5      13.1620      0.00000
      6      14.5984      0.00000
      7      16.8240      0.00000
      8      17.0428      0.00000

 k-point    25 :      -0.2857    0.4286    0.1429
  band No.  band energies     occupation 
      1      -2.0670      2.00000
      2       1.3094      2.00000
      3       4.9883      2.00000
      4       8.1937      2.00000
      5      11.1252      0.00000
      6      15.0056      0.00000
      7      16.0516      0.00000
      8      17.8995      0.00000

 k-point    26 :      -0.1429    0.4286    0.1429
  band No.  band energies     occupation 
      1      -0.9602      2.00000
      2       3.4812      2.00000
      3       4.9131      2.00000
      4       6.7818      2.00000
[...]
      6      10.8576      0.00000
      7      13.4456      0.00000
      8      14.0464      0.00000

 k-point     6 :       0.2857    0.1429    0.0000
  band No.  band energies     occupation 
      1      -0.2558      2.00000
      2       5.0701      2.00000
      3       6.2971      2.00000
      4       6.7566      2.00000
      5       9.3072      0.01852
      6      11.4323      0.00000
      7      12.2339      0.00000
      8      13.9019      0.00000

 k-point     7 :       0.4286    0.1429    0.0000
  band No.  band energies     occupation 
      1       1.1622      2.00000
      2       3.2178      2.00000
      3       4.6534      2.00000
      4       7.4043      2.00000
      5       8.7503      1.88662
      6      11.5017      0.00000
      7      12.5752      0.00000
      8      16.1707      0.00000

 k-point     8 :      -0.4286    0.1429   -0.0000
  band No.  band energies     occupation 
      1      -1.6902      2.00000
      2       3.3313      2.00000
      3       6.7398      2.00000
      4       7.7865      2.00000
      5      10.5553      0.00000
      6      12.5683      0.00000
      7      13.5493      0.00000
      8      14.9563      0.00000

 k-point     9 :      -0.2857    0.1429   -0.0000
  band No.  band energies     occupation 
      1      -3.5621      2.00000
      2       3.2171      2.00000
      3       6.6113      2.00000
      4      10.1243      0.00000
      5      12.4912      0.00000
      6      13.5231      0.00000
      7      14.2675      0.00000
      8      15.5360      0.00000

 k-point    10 :      -0.1429    0.1429   -0.0000
  band No.  band energies     occupation 
      1      -4.3594      2.00000
      2       4.0917      2.00000
      3       6.7844      2.00000
      4       8.4635      1.99970
      5      12.2338      0.00000
      6      14.5834      0.00000
      7      16.4749      0.00000
      8      18.1943      0.00000

 k-point    11 :       0.2857    0.2857    0.0000
  band No.  band energies     occupation 
      1       2.2609      2.00000
      2       2.6639      2.00000
      3       3.4623      2.00000
      4       7.5258      2.00000
      5       9.3298      0.01192
      6      10.4337      0.00000
      7      14.5710      0.00000
      8      15.3770      0.00000

 k-point    12 :       0.4286    0.2857    0.0000
  band No.  band energies     occupation 
      1      -0.4617      2.00000
      2       1.2315      2.00000
      3       7.0923      2.00000
      4       7.9995      2.00000
      5       9.4174      0.00173
      6      11.4689      0.00000
      7      14.7636      0.00000
      8      16.2558      0.00000

 k-point    13 :      -0.4286    0.2857   -0.0000
  band No.  band energies     occupation 
      1      -2.5637      2.00000
      2       0.8661      2.00000
      3       7.5116      2.00000
      4      10.5350      0.00000
      5      11.1639      0.00000
      6      12.8528      0.00000
      7      14.4454      0.00000
      8      14.9629      0.00000

 k-point    14 :      -0.2857    0.2857   -0.0000
  band No.  band energies     occupation 
      1      -3.6059      2.00000
      2       1.5425      2.00000
      3       7.4729      2.00000
      4       9.5035      0.00018
      5      12.2139      0.00000
      6      14.3639      0.00000
      7      15.5730      0.00000
      8      17.7646      0.00000

 k-point    15 :       0.4286    0.4286    0.0000
  band No.  band energies     occupation 
      1      -1.0813      2.00000
      2      -1.0779      2.00000
      3       8.8487      1.62503
      4       8.8666      1.55306
      5      11.6947      0.00000
      6      12.7998      0.00000
      7      13.8606      0.00000
      8      14.2531      0.00000

 k-point    16 :      -0.4286    0.4286    0.0000
  band No.  band energies     occupation 
      1      -2.3587      2.00000
      2      -0.6322      2.00000
      3       8.6164      1.98858
      4      10.2051      0.00000
      5      10.7646      0.00000
      6      12.3975      0.00000
      7      17.5269      0.00000
      8      17.6181      0.00000

 k-point    17 :       0.1429    0.1429    0.1429
  band No.  band energies     occupation 
      1      -1.9365      2.00000
      2       3.1422      2.00000
      3       8.1636      2.00000
      4       8.8650      1.56011
      5      10.1364      0.00000
      6      11.3252      0.00000
      7      14.4171      0.00000
      8      14.9081      0.00000

 k-point    18 :       0.2857    0.1429    0.1429
  band No.  band energies     occupation 
      1       0.7098      2.00000
      2       3.8558      2.00000
      3       4.7027      2.00000
      4       6.1068      2.00000
      5      10.6080      0.00000
      6      13.1682      0.00000
      7      14.0332      0.00000
      8      14.2039      0.00000

 k-point    19 :      -0.1429    0.1429    0.1429
  band No.  band energies     occupation 
      1      -4.1081      2.00000
      2       3.8479      2.00000
      3       5.0909      2.00000
      4      10.4070      0.00000
      5      12.6147      0.00000
      6      13.0954      0.00000
      7      17.3808      0.00000
      8      18.2546      0.00000

 k-point    20 :       0.2857    0.2857    0.1429
  band No.  band energies     occupation 
      1       2.0906      2.00000
      2       2.1635      2.00000
      3       4.3575      2.00000
      4       5.8861      2.00000
      5      11.7466      0.00000
      6      12.5759      0.00000
      7      14.6132      0.00000
      8      15.5206      0.00000

 k-point    21 :       0.4286    0.2857    0.1429
  band No.  band energies     occupation 
      1      -0.7027      2.00000
      2       1.0019      2.00000
      3       8.2519      2.00000
      4       8.4290      1.99988
      5      10.8195      0.00000
      6      12.0335      0.00000
      7      12.7678      0.00000
      8      13.9139      0.00000

 k-point    22 :      -0.2857    0.2857    0.1429
  band No.  band energies     occupation 
      1      -3.3569      2.00000
      2       1.7375      2.00000
      3       5.3559      2.00000
      4      10.1948      0.00000
      5      11.8695      0.00000
      6      15.9268      0.00000
      7      16.1165      0.00000
      8      17.4223      0.00000

 k-point    23 :      -0.1429    0.2857    0.1429
  band No.  band energies     occupation 
      1      -3.0633      2.00000
      2       3.1477      2.00000
      3       4.5353      2.00000
      4      10.3425      0.00000
      5      11.5972      0.00000
      6      13.6843      0.00000
      7      15.4263      0.00000
      8      16.2812      0.00000

 k-point    24 :      -0.4286    0.4286    0.1429
  band No.  band energies     occupation 
      1      -2.1145      2.00000
      2      -0.3992      2.00000
      3       6.4976      2.00000
      4       8.1275      2.00000
      5      13.1167      0.00000
      6      14.5707      0.00000
      7      16.9274      0.00000
      8      17.1272      0.00000

 k-point    25 :      -0.2857    0.4286    0.1429
  band No.  band energies     occupation 
      1      -2.0720      2.00000
      2       1.2905      2.00000
      3       4.9694      2.00000
      4       8.1668      2.00000
      5      11.1963      0.00000
      6      14.9569      0.00000
      7      16.1145      0.00000
      8      17.8632      0.00000

 k-point    26 :      -0.1429    0.4286    0.1429
  band No.  band energies     occupation 
      1      -0.9551      2.00000
      2       3.4648      2.00000
      3       4.9147      2.00000
      4       6.8363      2.00000
      5       9.1730      0.15971
      6      13.1511      0.00000
      7      14.4348      0.00000
      8      16.4876      0.00000

 k-point    27 :      -0.4286   -0.4286    0.1429
  band No.  band energies     occupation 
      1      -0.6094      2.00000
      2      -0.5988      2.00000
      3       6.3226      2.00000
      4       6.3387      2.00000
      5      11.0080      0.00000
      6      15.7977      0.00000
      7      16.2634      0.00000
      8      16.7418      0.00000

 k-point    28 :      -0.2857   -0.4286    0.1429
  band No.  band energies     occupation 
      1       0.2531      2.00000
      2       1.8859      2.00000
      3       5.4793      2.00000
      4       6.3578      2.00000
      5       7.2887      2.00000
      6      13.1655      0.00000
      7      16.3342      0.00000
      8      17.8303      0.00000

 k-point    29 :      -0.1429   -0.4286    0.1429
  band No.  band energies     occupation 
      1       1.8987      2.00000
      2       2.7566      2.00000
      3       5.0627      2.00000
      4       6.2002      2.00000
      5       8.5436      1.99767
      6      11.1186      0.00000
      7      12.0989      0.00000
      8      16.6486      0.00000

 k-point    30 :      -0.2857   -0.2857    0.1429
  band No.  band energies     occupation 
      1       2.0527      2.00000
      2       3.5822      2.00000
      3       3.8458      2.00000
      4       6.9953      2.00000
      5       7.1625      2.00000
      6      11.1019      0.00000
      7      13.8121      0.00000
      8      14.8096      0.00000

 k-point    31 :      -0.1429   -0.2857    0.1429
  band No.  band energies     occupation 
      1      -0.7431      2.00000
      2       6.2203      2.00000
      3       7.3427      2.00000
      4       7.8548      2.00000
      5       8.2757      2.00000
      6      10.6474      0.00000
      7      11.1359      0.00000
      8      12.7050      0.00000

 k-point    32 :      -0.1429   -0.1429    0.1429
  band No.  band energies     occupation 
      1      -2.9318      2.00000
      2       7.8036      2.00000
      3       7.8037      2.00000
      4       8.3924      1.99996
      5      10.7557      0.00000
      6      10.9939      0.00000
      7      12.3700      0.00000
      8      13.2543      0.00000

 k-point    33 :      -0.2857    0.2857    0.2857
  band No.  band energies     occupation 
      1      -2.6138      2.00000
      2       1.8799      2.00000
      3       3.3731      2.00000
      4       7.7200      2.00000
      5      14.2993      0.00000
      6      15.9601      0.00000
      7      17.1243      0.00000
      8      17.6144      0.00000

 k-point    34 :      -0.4286    0.4286    0.2857
  band No.  band energies     occupation 
      1      -1.3900      2.00000
      2       0.2671      2.00000
      3       4.0152      2.00000
      4       5.6232      2.00000
      5      15.1071      0.00000
      6      15.4592      0.00000
      7      17.7002      0.00000
      8      18.8519      0.00000

 k-point    35 :      -0.2857    0.4286    0.2857
  band No.  band energies     occupation 
      1      -1.1001      2.00000
      2       1.6656      2.00000
      3       3.1970      2.00000
      4       5.8882      2.00000
      5      10.5985      0.00000
      6      17.7366      0.00000
      7      17.8815      0.00000
      8      18.8741      0.00000

 k-point    36 :      -0.4286   -0.4286    0.2857
  band No.  band energies     occupation 
      1       0.2962      2.00000
      2       0.3166      2.00000
      3       4.0521      2.00000
      4       4.0661      2.00000
      5      10.3847      0.00000
      6      18.0040      0.00000
      7      19.2311      0.00000
      8      19.9357      0.00000

 k-point    37 :      -0.2857   -0.4286    0.2857
  band No.  band energies     occupation 
      1       1.3944      2.00000
      2       2.4857      2.00000
      3       4.0260      2.00000
      4       5.0425      2.00000
      5       6.0791      2.00000
      6      15.1818      0.00000
      7      16.3546      0.00000
      8      18.0133      0.00000

 k-point    38 :      -0.2857   -0.2857    0.2857
  band No.  band energies     occupation 
      1       1.8802      2.00000
      2       4.4695      2.00000
      3       4.7040      2.00000
      4       5.8006      2.00000
      5       5.8006      2.00000
      6      13.1967      0.00000
      7      13.5598      0.00000
      8      13.5599      0.00000

 k-point    39 :      -0.4286    0.4286    0.4286
  band No.  band energies     occupation 
      1      -0.2291      2.00000
      2       0.8808      2.00000
      3       2.4568      2.00000
      4       3.5512      2.00000
      5      15.1043      0.00000
      6      15.1609      0.00000
      7      20.3031      0.00000
      8      21.2691      0.00000

 k-point    40 :      -0.4286   -0.4286    0.4286
  band No.  band energies     occupation 
      1       1.1486      2.00000
      2       1.1844      2.00000
      3       2.7370      2.00000
      4       2.7370      2.00000
      5      10.1701      0.00000
      6      19.1390      0.00000
      7      20.5484      0.00000
      8      20.5485      0.00000


--------------------------------------------------------------------------------------------------------


 soft charge-density along one line, spin component           1
         0         1         2         3         4         5         6         7         8         9
 total charge-density along one line
 
 pseudopotential strength for first ion, spin component:           1
 18.068  -0.003   0.000  -0.000  -0.000  -0.000   0.000   0.000
 -0.003   0.005  -0.000   0.000   0.000   0.000  -0.000  -0.000
  0.000  -0.000   4.117   0.000   0.000  -0.006  -0.000  -0.000
 -0.000   0.000   0.000   4.118   0.000  -0.000  -0.006  -0.000
 -0.000   0.000   0.000   0.000   4.117  -0.000  -0.000  -0.006
 -0.000   0.000  -0.006  -0.000  -0.000   0.005   0.000   0.000
  0.000  -0.000  -0.000  -0.006  -0.000   0.000   0.005   0.000
  0.000  -0.000  -0.000  -0.000  -0.006   0.000   0.000   0.005
 total augmentation occupancy for first ion, spin component:           1
  1.618  -0.550   0.000   0.000   0.000   0.000   0.000   0.000
 -0.550   0.946   0.000   0.000   0.000  -0.000   0.000  -0.000
  0.000  -0.000   0.908   0.000  -0.000  -0.556   0.000   0.000
  0.000   0.000   0.000   0.835   0.000  -0.000  -0.514   0.000
  0.000   0.000  -0.000   0.000   0.908   0.000   0.000  -0.556
  0.000   0.000  -0.556   0.000   0.000   0.428   0.000  -0.000
  0.000   0.000   0.000  -0.514   0.000   0.000   0.406  -0.000
  0.000  -0.000   0.000   0.000  -0.556  -0.000  -0.000   0.428


------------------------ aborting loop because EDIFF is reached ----------------------------------------


    CHARGE:  cpu time    0.0120: real time    0.0142
    FORLOC:  cpu time    0.0000: real time    0.0003
    FORNL :  cpu time    0.0120: real time    0.0106
    STRESS:  cpu time    0.0960: real time    0.0979
    FORCOR:  cpu time    0.0120: real time    0.0108
    FORHAR:  cpu time    0.0000: real time    0.0027
    MIXING:  cpu time    0.0040: real time    0.0006
    OFIELD:  cpu time    0.0000: real time    0.0028

  FORCE on cell =-STRESS in cart. coord.  units (eV):
  Direction    XX          YY          ZZ          XY          YZ          ZX
  --------------------------------------------------------------------------------------
  Alpha Z     4.38944     4.38944     4.38944
  Ewald     -88.03374   -88.03374   -88.97567    -0.00000     0.00000    -0.00000
  Hartree     0.75066     0.75066     0.96578     0.00000     0.00000     0.00000
  E(xc)     -25.44520   -25.44520   -25.32012     0.00005     0.00001     0.00001
  Local     -14.26521   -14.26521   -11.54584    -0.00003    -0.00005    -0.00005
  n-local    77.64972    77.73142    75.52221     1.02127    -0.28711    -0.49691
  augment   -12.12180   -12.12180   -11.92438     0.00004     0.00005     0.00005
  Kinetic    60.66865    53.35349    56.89670     3.78859    -0.90621    -3.15242
  Fock        0.00000     0.00000     0.00000     0.00000     0.00000     0.00000
  -------------------------------------------------------------------------------------
  Total      -0.02421    -0.02421     0.00812    -0.00000     0.00000    -0.00000
  in kB      -1.26438    -1.26438     0.42397    -0.00000     0.00000    -0.00000
  external pressure =       -0.70 kB  Pullay stress =        0.00 kB


 VOLUME and BASIS-vectors are now :
 -----------------------------------------------------------------------------
  energy-cutoff  :      250.00
  volume of cell :       30.68
      direct lattice vectors                 reciprocal lattice vectors
    -2.410114180  2.410114180  1.320289701     0.000000000  0.207459051  0.378704764
     2.410114180 -2.410114180  1.320289701     0.207459051  0.000000000  0.378704764
     2.410114180  2.410114180 -1.320289701     0.207459051  0.207459051 -0.000000000

  length of vectors
     3.655197070  3.655197070  3.655197070     0.431806156  0.431806156  0.293391403


 FORCES acting on ions
    electron-ion (+dipol)            ewald-force                    non-local-force                 convergence-correction
 -----------------------------------------------------------------------------------------------
   0.873E-05 -.873E-05 -.168E-15   -.801E-14 0.146E-14 -.497E-14   0.817E-17 0.470E-17 0.570E-17   0.327E-10 -.327E-10 -.495E-15
   -.873E-05 0.873E-05 0.790E-14   0.802E-14 -.145E-14 0.561E-14   -.573E-17 -.522E-18 -.812E-18   -.327E-10 0.327E-10 -.563E-16
 -----------------------------------------------------------------------------------------------
   -.206E-13 0.924E-14 0.774E-14   0.173E-16 0.173E-16 0.642E-15   0.244E-17 0.418E-17 0.489E-17   -.121E-15 -.431E-15 -.551E-15
 
 
 POSITION                                       TOTAL-FORCE (eV/Angst)
 -----------------------------------------------------------------------------------
      2.41011     -0.00000      0.66014        -0.000000      0.000000     -0.000000
      0.00000     -0.00000     -0.00000         0.000000     -0.000000      0.000000
 -----------------------------------------------------------------------------------
    total drift:                               -0.000000      0.000000      0.000000


--------------------------------------------------------------------------------------------------------



  FREE ENERGIE OF THE ION-ELECTRON SYSTEM (eV)
  ---------------------------------------------------
  free  energy   TOTEN  =       -10.29029755 eV

  energy  without entropy=      -10.27955648  energy(sigma->0) =      -10.28492701
 
 d Force = 0.0000000E+00[ 0.000E+00, 0.000E+00]  d Energy = 0.2159777E-07-0.216E-07
 d Force = 0.0000000E+00[ 0.000E+00, 0.000E+00]  d Ewald  =-0.4005897E-05 0.401E-05


--------------------------------------------------------------------------------------------------------


    POTLOK:  cpu time    0.0240: real time    0.0430


--------------------------------------------------------------------------------------------------------




--------------------------------------------------------------------------------------------------------


 writing wavefunctions
     LOOP+:  cpu time    0.6440: real time    1.2498
    4ORBIT:  cpu time    0.0000: real time    0.0000

 total amount of memory used by VASP MPI-rank0    31335. kBytes
=======================================================================

   base      :      30000. kBytes
   nonl-proj :        746. kBytes
   fftplans  :        119. kBytes
   grid      :        270. kBytes
   one-center:          6. kBytes
   wavefun   :        194. kBytes
 
  
  
 General timing and accounting informations for this job:
 ========================================================
  
                  Total CPU time used (sec):       19.520
                            User time (sec):       17.088
                          System time (sec):        2.432
                         Elapsed time (sec):       24.860
  
                   Maximum memory used (kb):        9976.
                   Average memory used (kb):           0.
  
                          Minor page faults:        38183
                          Major page faults:           23
                 Voluntary context switches:        50421
