unknown system                          
   1.00000000000000     
     0.000000    2.715000    2.715000
     2.715000    0.000000    2.715000
     2.715000    2.715000    0.000000
   Si
     2
Direct
  0.500000  0.500000  0.500000
  0.750000  0.750000  0.750000
 
   24   24   24
 0.79500956276E+00 0.83317668762E+00 0.95260291426E+00 0.11675944044E+01 0.14995026400E+01
 0.19712826799E+01 0.25984193390E+01 0.33763577550E+01 0.42658564420E+01 0.51818476701E+01
 0.59963734646E+01 0.65644325933E+01 0.67688930732E+01 0.65645371338E+01 0.59965081913E+01
 0.51819248093E+01 0.42658420229E+01 0.33762887942E+01 0.25983629227E+01 0.19712782645E+01
 0.14995376253E+01 0.11676286777E+01 0.95261249072E+00 0.83317121883E+00 0.83317668762E+00
 0.89547988069E+00 0.10277090611E+01 0.12437717433E+01 0.15604472819E+01 0.19914606132E+01
 0.25393753391E+01 0.31859609167E+01 0.38830702238E+01 0.45494887390E+01 0.50812669300E+01
 0.53782587829E+01 0.53782709577E+01 0.50813224896E+01 0.45496031450E+01 0.38831982812E+01
 0.31860219255E+01 0.25393369227E+01 0.19913717405E+01 0.15603824276E+01 0.12437615429E+01
 0.10277324781E+01 0.89550411449E+00 0.83318567485E+00 0.95260291426E+00 0.10277090611E+01
 0.11625315326E+01 0.13690175139E+01 0.16585492673E+01 0.20364972189E+01 0.24958317106E+01
 0.30106603259E+01 0.35319099831E+01 0.39896425994E+01 0.43063498787E+01 0.44199030101E+01
 0.43063647226E+01 0.39896432531E+01 0.35318818025E+01 0.30106285641E+01 0.24958295390E+01
 0.20365180661E+01 0.16585538645E+01 0.13689903468E+01 0.11625045011E+01 0.10277141997E+01
 0.95262441731E+00 0.92860997466E+00 0.11675944044E+01 0.12437717433E+01 0.13690175139E+01
 0.15527658258E+01 0.18015977882E+01 0.21148045275E+01 0.24798267882E+01 0.28685059990E+01
 0.32363032708E+01 0.35277772253E+01 0.36899790239E+01 0.36900143416E+01 0.35278264280E+01
 0.32362675446E+01 0.28683696473E+01 0.24796832202E+01 0.21147575075E+01 0.18016602412E+01
 0.15528648665E+01 0.13690785113E+01 0.12437778826E+01 0.11675752487E+01 0.11319558895E+01
 0.11319665823E+01 0.14995026400E+01 0.15604472819E+01 0.16585492673E+01 0.18015977882E+01
 0.19932374964E+01 0.22294941711E+01 0.24958330708E+01 0.27657164257E+01 0.30024243810E+01
 0.31659664391E+01 0.32245471947E+01 0.31659583438E+01 0.30024102745E+01 0.27656974752E+01
 0.24958089060E+01 0.22294705241E+01 0.19932329656E+01 0.18016298082E+01 0.16586064690E+01
 0.15604899616E+01 0.14995053314E+01 0.14671911853E+01 0.14572095895E+01 0.14672081821E+01
 0.19712826799E+01 0.19914606132E+01 0.20364972189E+01 0.21148045275E+01 0.22294941711E+01
 0.23757017692E+01 0.25393756622E+01 0.26982378315E+01 0.28255513833E+01 0.28966698833E+01
 0.28966409625E+01 0.28254797699E+01 0.26981744730E+01 0.25393900352E+01 0.23758165622E+01
 0.22296396150E+01 0.21148715832E+01 0.20364463617E+01 0.19913576862E+01 0.19712187240E+01
 0.19656070445E+01 0.19654064856E+01 0.19653970922E+01 0.19656109031E+01 0.25984193390E+01
 0.25393753391E+01 0.24958317106E+01 0.24798267882E+01 0.24958330708E+01 0.25393756622E+01
 0.25984168682E+01 0.26569525070E+01 0.26994861680E+01 0.27149880294E+01 0.26994742049E+01
 0.26569109600E+01 0.25983632437E+01 0.25393730050E+01 0.24959170347E+01 0.24799404604E+01
 0.24958708232E+01 0.25393016404E+01 0.25982984409E+01 0.26568761027E+01 0.26994703230E+01
 0.27149991789E+01 0.26994972959E+01 0.26569588498E+01 0.33763577550E+01 0.31859609167E+01
 0.30106603259E+01 0.28685059990E+01 0.27657164257E+01 0.26982378315E+01 0.26569525070E+01
 0.26333226339E+01 0.26223753413E+01 0.26223707566E+01 0.26333240891E+01 0.26569726870E+01
 0.26982506318E+01 0.27656895673E+01 0.28684512769E+01 0.30106181319E+01 0.31859471751E+01
 0.33763552598E+01 0.35552532957E+01 0.36942212396E+01 0.37700995370E+01 0.37701035494E+01
 0.36942305791E+01 0.35552603670E+01 0.42658564420E+01 0.38830702238E+01 0.35319099831E+01
 0.32363032708E+01 0.30024243810E+01 0.28255513833E+01 0.26994861680E+01 0.26223753413E+01
 0.25961570793E+01 0.26223162414E+01 0.26994586296E+01 0.28256058274E+01 0.30025049717E+01
 0.32363265967E+01 0.35318566373E+01 0.38829829918E+01 0.42657932177E+01 0.46392796354E+01
 0.49539051785E+01 0.51638219543E+01 0.52374735051E+01 0.51637564336E+01 0.49538413533E+01
 0.46392776468E+01 0.51818476701E+01 0.45494887390E+01 0.39896425994E+01 0.35277772253E+01
 0.31659664391E+01 0.28966698833E+01 0.27149880294E+01 0.26223707566E+01 0.26223162414E+01
 0.27148921918E+01 0.28966478904E+01 0.31660447300E+01 0.35278877925E+01 0.39897156304E+01
 0.45495013787E+01 0.51818081893E+01 0.58320124664E+01 0.64234672722E+01 0.68746909740E+01
 0.71188809658E+01 0.71188819498E+01 0.68747090146E+01 0.64235181992E+01 0.58320770321E+01
 0.59963734646E+01 0.50812669300E+01 0.43063498787E+01 0.36899790239E+01 0.32245471947E+01
 0.28966409625E+01 0.26994742049E+01 0.26333240891E+01 0.26994586296E+01 0.28966478904E+01
 0.32245901372E+01 0.36900242873E+01 0.43063662690E+01 0.50812632814E+01 0.59963705490E+01
 0.69915650105E+01 0.79647034806E+01 0.87892406181E+01 0.93430749213E+01 0.95383406563E+01
 0.93431108349E+01 0.87892868064E+01 0.79647318220E+01 0.69915718309E+01 0.65644325933E+01
 0.53782587829E+01 0.44199030101E+01 0.36900143416E+01 0.31659583438E+01 0.28254797699E+01
 0.26569109600E+01 0.26569726870E+01 0.28256058274E+01 0.31660447300E+01 0.36900242873E+01
 0.44198659239E+01 0.53781919193E+01 0.65643284411E+01 0.79279902730E+01 0.93555658314E+01
 0.10678865671E+02 0.11706482011E+02 0.12269826877E+02 0.12269756356E+02 0.11706336924E+02
 0.10678776983E+02 0.93555996673E+01 0.79281004955E+01 0.67688930732E+01 0.53782709577E+01
 0.43063647226E+01 0.35278264280E+01 0.30024102745E+01 0.26981744730E+01 0.25983632437E+01
 0.26982506318E+01 0.30025049717E+01 0.35278877925E+01 0.43063662690E+01 0.53781919193E+01
 0.67687496000E+01 0.84548536052E+01 0.10335673395E+02 0.12223570285E+02 0.13864377338E+02
 0.14989417598E+02 0.15389740134E+02 0.14989371097E+02 0.13864276252E+02 0.12223471625E+02
 0.10335674821E+02 0.84549716617E+01 0.65645371338E+01 0.50813224896E+01 0.39896432531E+01
 0.32362675446E+01 0.27656974752E+01 0.25393900352E+01 0.25393730050E+01 0.27656895673E+01
 0.32363265967E+01 0.39897156304E+01 0.50812632814E+01 0.65643284411E+01 0.84548536052E+01
 0.10690395060E+02 0.13099622504E+02 0.15398426753E+02 0.17212031501E+02 0.18201204650E+02
 0.18201347121E+02 0.17212229987E+02 0.15398346092E+02 0.13099326003E+02 0.10690239816E+02
 0.84549852237E+01 0.59965081913E+01 0.45496031450E+01 0.35318818025E+01 0.28683696473E+01
 0.24958089060E+01 0.23758165622E+01 0.24959170347E+01 0.28684512769E+01 0.35318566373E+01
 0.45495013787E+01 0.59963705490E+01 0.79279902730E+01 0.10335673395E+02 0.13099622504E+02
 0.15955304941E+02 0.18456466926E+02 0.20134538601E+02 0.20720843597E+02 0.20134600733E+02
 0.18456402049E+02 0.15955071586E+02 0.13099420617E+02 0.10335660892E+02 0.79281119905E+01
 0.51819248093E+01 0.38831982812E+01 0.30106285641E+01 0.24796832202E+01 0.22294705241E+01
 0.22296396150E+01 0.24799404604E+01 0.30106181319E+01 0.38829829918E+01 0.51818081893E+01
 0.69915650105E+01 0.93555658314E+01 0.12223570285E+02 0.15398426753E+02 0.18456466926E+02
 0.20820257933E+02 0.22090745359E+02 0.22090624569E+02 0.20819986290E+02 0.18456257930E+02
 0.15398423116E+02 0.12223673505E+02 0.93555863101E+01 0.69915366865E+01 0.42658420229E+01
 0.31860219255E+01 0.24958295390E+01 0.21147575075E+01 0.19932329656E+01 0.21148715832E+01
 0.24958708232E+01 0.31859471751E+01 0.42657932177E+01 0.58320124664E+01 0.79647034806E+01
 0.10678865671E+02 0.13864377338E+02 0.17212031501E+02 0.20134538601E+02 0.22090745359E+02
 0.22773993264E+02 0.22090764777E+02 0.20134474799E+02 0.17211919833E+02 0.13864365587E+02
 0.10678948371E+02 0.79647408900E+01 0.58319997103E+01 0.33762887942E+01 0.25393369227E+01
 0.20365180661E+01 0.18016602412E+01 0.18016298082E+01 0.20364463617E+01 0.25393016404E+01
 0.33763552598E+01 0.46392796354E+01 0.64234672722E+01 0.87892406181E+01 0.11706482011E+02
 0.14989417598E+02 0.18201204650E+02 0.20720843597E+02 0.22090624569E+02 0.22090764777E+02
 0.20721022045E+02 0.18201104254E+02 0.14989167317E+02 0.11706420322E+02 0.87893787552E+01
 0.64235437719E+01 0.46392074786E+01 0.25983629227E+01 0.19913717405E+01 0.16585538645E+01
 0.15528648665E+01 0.16586064690E+01 0.19913576862E+01 0.25982984409E+01 0.35552532957E+01
 0.49539051785E+01 0.68746909740E+01 0.93430749213E+01 0.12269826877E+02 0.15389740134E+02
 0.18201347121E+02 0.20134600733E+02 0.20819986290E+02 0.20134474799E+02 0.18201104254E+02
 0.15389531300E+02 0.12269822282E+02 0.93432020015E+01 0.68747320433E+01 0.49538368779E+01
 0.35552369118E+01 0.19712782645E+01 0.15603824276E+01 0.13689903468E+01 0.13690785113E+01
 0.15604899616E+01 0.19712187240E+01 0.26568761027E+01 0.36942212396E+01 0.51638219543E+01
 0.71188809658E+01 0.95383406563E+01 0.12269756356E+02 0.14989371097E+02 0.17212229987E+02
 0.18456402049E+02 0.18456257930E+02 0.17211919833E+02 0.14989167317E+02 0.12269822282E+02
 0.95385313903E+01 0.71189231569E+01 0.51636976454E+01 0.36941696852E+01 0.26569828953E+01
 0.14995376253E+01 0.12437615429E+01 0.11625045011E+01 0.12437778826E+01 0.14995053314E+01
 0.19656070445E+01 0.26994703230E+01 0.37700995370E+01 0.52374735051E+01 0.71188819498E+01
 0.93431108349E+01 0.11706336924E+02 0.13864276252E+02 0.15398346092E+02 0.15955071586E+02
 0.15398423116E+02 0.13864365587E+02 0.11706420322E+02 0.93432020015E+01 0.71189231569E+01
 0.52373955077E+01 0.37699695859E+01 0.26994266537E+01 0.19656565329E+01 0.11676286777E+01
 0.10277324781E+01 0.10277141997E+01 0.11675752487E+01 0.14671911853E+01 0.19654064856E+01
 0.27149991789E+01 0.37701035494E+01 0.51637564336E+01 0.68747090146E+01 0.87892868064E+01
 0.10678776983E+02 0.12223471625E+02 0.13099326003E+02 0.13099420617E+02 0.12223673505E+02
 0.10678948371E+02 0.87893787552E+01 0.68747320433E+01 0.51636976454E+01 0.37699695859E+01
 0.27148760766E+01 0.19653793309E+01 0.14672423091E+01 0.95261249072E+00 0.89550411449E+00
 0.95262441731E+00 0.11319558895E+01 0.14572095895E+01 0.19653970922E+01 0.26994972959E+01
 0.36942305791E+01 0.49538413533E+01 0.64235181992E+01 0.79647318220E+01 0.93555996673E+01
 0.10335674821E+02 0.10690239816E+02 0.10335660892E+02 0.93555863101E+01 0.79647408900E+01
 0.64235437719E+01 0.49538368779E+01 0.36941696852E+01 0.26994266537E+01 0.19653793309E+01
 0.14572347195E+01 0.11319673678E+01 0.83317121883E+00 0.83318567485E+00 0.92860997466E+00
 0.11319665823E+01 0.14672081821E+01 0.19656109031E+01 0.26569588498E+01 0.35552603670E+01
 0.46392776468E+01 0.58320770321E+01 0.69915718309E+01 0.79281004955E+01 0.84549716617E+01
 0.84549852237E+01 0.79281119905E+01 0.69915366865E+01 0.58319997103E+01 0.46392074786E+01
 0.35552369118E+01 0.26569828953E+01 0.19656565329E+01 0.14672423091E+01 0.11319673678E+01
 0.92858622995E+00 0.83317679015E+00 0.89548254465E+00 0.10277110108E+01 0.12437719525E+01
 0.15604476790E+01 0.19914617198E+01 0.25393759671E+01 0.31859633311E+01 0.38830802925E+01
 0.45495075277E+01 0.50812849501E+01 0.53782612123E+01 0.53782477781E+01 0.50812750524E+01
 0.45495458819E+01 0.38831544151E+01 0.31860106816E+01 0.25393596160E+01 0.19914114184E+01
 0.15604184803E+01 0.12437832526E+01 0.10277401173E+01 0.89550324757E+00 0.83318298064E+00
 0.89548254465E+00 0.96563582788E+00 0.10926802314E+01 0.12891488974E+01 0.15668782187E+01
 0.19314007101E+01 0.23757031023E+01 0.28741632410E+01 0.33786917330E+01 0.38213171414E+01
 0.41272369441E+01 0.42368340405E+01 0.41272537643E+01 0.38214027482E+01 0.33788480350E+01
 0.28742962511E+01 0.23757139690E+01 0.19312976630E+01 0.15667638278E+01 0.12891065130E+01
 0.10927047785E+01 0.96567384473E+00 0.89550191183E+00 0.87318218232E+00 0.10277110108E+01
 0.10926802314E+01 0.12026960900E+01 0.13683666150E+01 0.15970056037E+01 0.18881587214E+01
 0.22294956038E+01 0.25937617964E+01 0.29385158653E+01 0.32115313972E+01 0.33633258059E+01
 0.33633337713E+01 0.32115581843E+01 0.29385610014E+01 0.25938082785E+01 0.22295150182E+01
 0.18881336499E+01 0.15969464164E+01 0.13683056787E+01 0.12026644960E+01 0.10926858797E+01
 0.10277346238E+01 0.99808554709E+00 0.99807310919E+00 0.12437719525E+01 0.12891488974E+01
 0.13683666150E+01 0.14904892357E+01 0.16597510136E+01 0.18724784115E+01 0.21148057445E+01
 0.23617378931E+01 0.25789950069E+01 0.27293738073E+01 0.27833034797E+01 0.27294080572E+01
 0.25790208099E+01 0.23617095868E+01 0.21147189010E+01 0.18723797713E+01 0.16597035017E+01
 0.14905186659E+01 0.13684375904E+01 0.12891981483E+01 0.12437705521E+01 0.12219063817E+01
 0.12156327727E+01 0.12219290836E+01 0.15604476790E+01 0.15668782187E+01 0.15970056037E+01
 0.16597510136E+01 0.17582806411E+01 0.18881581718E+01 0.20364995580E+01 0.21825881135E+01
 0.23009602402E+01 0.23675742700E+01 0.23675923207E+01 0.23010007364E+01 0.21826150081E+01
 0.20364746710E+01 0.18880766593E+01 0.17581923741E+01 0.16597293033E+01 0.15970761756E+01
 0.15669859123E+01 0.15605128193E+01 0.15658567361E+01 0.15719213332E+01 0.15719310608E+01
 0.15658528253E+01 0.19914617198E+01 0.19314007101E+01 0.18881587214E+01 0.18724784115E+01
 0.18881581718E+01 0.19314014226E+01 0.19914635036E+01 0.20527264999E+01 0.20983771689E+01
 0.21152715266E+01 0.20983969988E+01 0.20527391376E+01 0.19914570886E+01 0.19313982792E+01
 0.18881813097E+01 0.18725163396E+01 0.18881807601E+01 0.19313989918E+01 0.19914588724E+01
 0.20527398502E+01 0.20983964493E+01 0.21152715266E+01 0.20983777185E+01 0.20527257874E+01
 0.25393759671E+01 0.23757031023E+01 0.22294956038E+01 0.21148057445E+01 0.20364995580E+01
 0.19914635036E+01 0.19712831055E+01 0.19656079824E+01 0.19653951896E+01 0.19654131171E+01
 0.19656283647E+01 0.19712545501E+01 0.19913970410E+01 0.20364692814E+01 0.21148613749E+01
 0.22295967566E+01 0.23757596885E+01 0.25393428244E+01 0.26981516165E+01 0.28254819729E+01
 0.28966579469E+01 0.28966876643E+01 0.28255610625E+01 0.26982400194E+01 0.31859633311E+01
 0.28741632410E+01 0.25937617964E+01 0.23617378931E+01 0.21825881135E+01 0.20527264999E+01
 0.19656079824E+01 0.19155371580E+01 0.18992005004E+01 0.19155651933E+01 0.19656152179E+01
 0.20526662983E+01 0.21824760416E+01 0.23616556694E+01 0.25937831039E+01 0.28742711450E+01
 0.31860561345E+01 0.34981887190E+01 0.37689932238E+01 0.39545189192E+01 0.40207047937E+01
 0.39546167614E+01 0.37690971181E+01 0.34981998598E+01 0.38830802925E+01 0.33786917330E+01
 0.29385158653E+01 0.25789950069E+01 0.23009602402E+01 0.20983771689E+01 0.19653951896E+01
 0.18992005004E+01 0.18992000015E+01 0.19653726585E+01 0.20983071542E+01 0.23008690468E+01
 0.25789485149E+01 0.29385485473E+01 0.33787684097E+01 0.38831365085E+01 0.44133243713E+01
 0.49092470338E+01 0.52982874822E+01 0.55132234295E+01 0.55132330157E+01 0.52983134691E+01
 0.49092731463E+01 0.44133185806E+01 0.45495075277E+01 0.38213171414E+01 0.32115313972E+01
 0.27293738073E+01 0.23675742700E+01 0.21152715266E+01 0.19654131171E+01 0.19155651933E+01
 0.19653726585E+01 0.21151439930E+01 0.23674139907E+01 0.27293452789E+01 0.32117076873E+01
 0.38215562485E+01 0.45496043313E+01 0.53569952825E+01 0.61680480016E+01 0.68755858734E+01
 0.73626620885E+01 0.75367952227E+01 0.73626633247E+01 0.68756531493E+01 0.61681865845E+01
 0.53570822622E+01 0.50812849501E+01 0.41272369441E+01 0.33633258059E+01 0.27833034797E+01
 0.23675923207E+01 0.20983969988E+01 0.19656283647E+01 0.19656152179E+01 0.20983071542E+01
 0.23674139907E+01 0.27832047253E+01 0.33634758293E+01 0.41275470328E+01 0.50814841401E+01
 0.61977943041E+01 0.73970687334E+01 0.85421082102E+01 0.94557296509E+01 0.99661594087E+01
 0.99661793629E+01 0.94558147244E+01 0.85422861996E+01 0.73972712385E+01 0.61978476920E+01
 0.53782612123E+01 0.42368340405E+01 0.33633337713E+01 0.27294080572E+01 0.23010007364E+01
 0.20527391376E+01 0.19712545501E+01 0.20526662983E+01 0.23008690468E+01 0.27293452789E+01
 0.33634758293E+01 0.42370936618E+01 0.53783852073E+01 0.67849960392E+01 0.83938059353E+01
 0.10057192366E+02 0.11544590903E+02 0.12587322495E+02 0.12963746190E+02 0.12587345498E+02
 0.11544645009E+02 0.10057325229E+02 0.83940087464E+01 0.67851090356E+01 0.53782477781E+01
 0.41272537643E+01 0.32115581843E+01 0.25790208099E+01 0.21826150081E+01 0.19914570886E+01
 0.19913970410E+01 0.21824760416E+01 0.25789485149E+01 0.32117076873E+01 0.41275470328E+01
 0.53783852073E+01 0.69964149697E+01 0.89560037184E+01 0.11130795074E+02 0.13267820705E+02
 0.15011913148E+02 0.16000453941E+02 0.16000469369E+02 0.15011912970E+02 0.13267804839E+02
 0.11130900190E+02 0.89562568670E+01 0.69965757020E+01 0.50812750524E+01 0.38214027482E+01
 0.29385610014E+01 0.23617095868E+01 0.20364746710E+01 0.19313982792E+01 0.20364692814E+01
 0.23616556694E+01 0.29385485473E+01 0.38215562485E+01 0.50814841401E+01 0.67849960392E+01
 0.89560037184E+01 0.11520350203E+02 0.14250504468E+02 0.16751391282E+02 0.18534700495E+02
 0.19184140009E+02 0.18534744537E+02 0.16751382754E+02 0.14250488572E+02 0.11520457899E+02
 0.89561569253E+01 0.67849693952E+01 0.45495458819E+01 0.33788480350E+01 0.25938082785E+01
 0.21147189010E+01 0.18880766593E+01 0.18881813097E+01 0.21148613749E+01 0.25937831039E+01
 0.33787684097E+01 0.45496043313E+01 0.61977943041E+01 0.83938059353E+01 0.11130795074E+02
 0.14250504468E+02 0.17386676174E+02 0.19990286592E+02 0.21477926567E+02 0.21477940575E+02
 0.19990269621E+02 0.17386601038E+02 0.14250482821E+02 0.11130860204E+02 0.83938075749E+01
 0.61976782465E+01 0.38831544151E+01 0.28742962511E+01 0.22295150182E+01 0.18723797713E+01
 0.17581923741E+01 0.18725163396E+01 0.22295967566E+01 0.28742711450E+01 0.38831365085E+01
 0.53569952825E+01 0.73970687334E+01 0.10057192366E+02 0.13267820705E+02 0.16751391282E+02
 0.19990286592E+02 0.22314481968E+02 0.23159714001E+02 0.22314564205E+02 0.19990235995E+02
 0.16751199626E+02 0.13267727972E+02 0.10057278619E+02 0.73971601006E+01 0.53570045113E+01
 0.31860106816E+01 0.23757139690E+01 0.18881336499E+01 0.16597035017E+01 0.16597293033E+01
 0.18881807601E+01 0.23757596885E+01 0.31860561345E+01 0.44133243713E+01 0.61680480016E+01
 0.85421082102E+01 0.11544590903E+02 0.15011913148E+02 0.18534700495E+02 0.21477926567E+02
 0.23159714001E+02 0.23159906181E+02 0.21478184005E+02 0.18534586681E+02 0.15011562960E+02
 0.11544461785E+02 0.85422929819E+01 0.61682514321E+01 0.44133639860E+01 0.25393596160E+01
 0.19312976630E+01 0.15969464164E+01 0.14905186659E+01 0.15970761756E+01 0.19313989918E+01
 0.25393428244E+01 0.34981887190E+01 0.49092470338E+01 0.68755858734E+01 0.94557296509E+01
 0.12587322495E+02 0.16000453941E+02 0.19184140009E+02 0.21477940575E+02 0.22314564205E+02
 0.21478184005E+02 0.19184207576E+02 0.16000168998E+02 0.12586996004E+02 0.94556723906E+01
 0.68757435786E+01 0.49094205888E+01 0.34982973369E+01 0.19914114184E+01 0.15667638278E+01
 0.13683056787E+01 0.13684375904E+01 0.15669859123E+01 0.19914588724E+01 0.26981516165E+01
 0.37689932238E+01 0.52982874822E+01 0.73626620885E+01 0.99661594087E+01 0.12963746190E+02
 0.16000469369E+02 0.18534744537E+02 0.19990269621E+02 0.19990235995E+02 0.18534586681E+02
 0.16000168998E+02 0.12963467258E+02 0.99660682777E+01 0.73627367064E+01 0.52984320665E+01
 0.37691743687E+01 0.26982938534E+01 0.15604184803E+01 0.12891065130E+01 0.12026644960E+01
 0.12891981483E+01 0.15605128193E+01 0.20527398502E+01 0.28254819729E+01 0.39545189192E+01
 0.55132234295E+01 0.75367952227E+01 0.99661793629E+01 0.12587345498E+02 0.15011912970E+02
 0.16751382754E+02 0.17386601038E+02 0.16751199626E+02 0.15011562960E+02 0.12586996004E+02
 0.99660682777E+01 0.75369614284E+01 0.55134697709E+01 0.39546669418E+01 0.28255168824E+01
 0.20527015531E+01 0.12437832526E+01 0.10927047785E+01 0.10926858797E+01 0.12437705521E+01
 0.15658567361E+01 0.20983964493E+01 0.28966579469E+01 0.40207047937E+01 0.55132330157E+01
 0.73626633247E+01 0.94558147244E+01 0.11544645009E+02 0.13267804839E+02 0.14250488572E+02
 0.14250482821E+02 0.13267727972E+02 0.11544461785E+02 0.94556723906E+01 0.73627367064E+01
 0.55134697709E+01 0.40208754906E+01 0.28966394785E+01 0.20982829111E+01 0.15657930167E+01
 0.10277401173E+01 0.96567384473E+00 0.10277346238E+01 0.12219063817E+01 0.15719213332E+01
 0.21152715266E+01 0.28966876643E+01 0.39546167614E+01 0.52983134691E+01 0.68756531493E+01
 0.85422861996E+01 0.10057325229E+02 0.11130900190E+02 0.11520457899E+02 0.11130860204E+02
 0.10057278619E+02 0.85422929819E+01 0.68757435786E+01 0.52984320665E+01 0.39546669418E+01
 0.28966394785E+01 0.21151865451E+01 0.15718687715E+01 0.12218966231E+01 0.89550324757E+00
 0.89550191183E+00 0.99808554709E+00 0.12156327727E+01 0.15719310608E+01 0.20983777185E+01
 0.28255610625E+01 0.37690971181E+01 0.49092731463E+01 0.61681865845E+01 0.73972712385E+01
 0.83940087464E+01 0.89562568670E+01 0.89561569253E+01 0.83938075749E+01 0.73971601006E+01
 0.61682514321E+01 0.49094205888E+01 0.37691743687E+01 0.28255168824E+01 0.20982829111E+01
 0.15718687715E+01 0.12156172059E+01 0.99808754183E+00 0.83318298064E+00 0.87318218232E+00
 0.99807310919E+00 0.12219290836E+01 0.15658528253E+01 0.20527257874E+01 0.26982400194E+01
 0.34981998598E+01 0.44133185806E+01 0.53570822622E+01 0.61978476920E+01 0.67851090356E+01
 0.69965757020E+01 0.67849693952E+01 0.61976782465E+01 0.53570045113E+01 0.44133639860E+01
 0.34982973369E+01 0.26982938534E+01 0.20527015531E+01 0.15657930167E+01 0.12218966231E+01
 0.99808754183E+00 0.87320992288E+00 0.95260192849E+00 0.10277104136E+01 0.11625310389E+01
 0.13690154768E+01 0.16585483844E+01 0.20364975563E+01 0.24958326964E+01 0.30106656393E+01
 0.35319229649E+01 0.39896557859E+01 0.43063455194E+01 0.44198674922E+01 0.43063014049E+01
 0.39895729178E+01 0.35318337371E+01 0.30106265271E+01 0.24958762278E+01 0.20365900912E+01
 0.16586171823E+01 0.13690241748E+01 0.11625102370E+01 0.10277050873E+01 0.95261281205E+00
 0.92860297141E+00 0.10277104136E+01 0.10926792034E+01 0.12026935730E+01 0.13683640852E+01
 0.15970039800E+01 0.18881575127E+01 0.22294954704E+01 0.25937644120E+01 0.29385188521E+01
 0.32115260785E+01 0.33633037702E+01 0.33632962635E+01 0.32115185373E+01 0.29385383868E+01
 0.25938174025E+01 0.22295565637E+01 0.18881912390E+01 0.15969953088E+01 0.13683288274E+01
 0.12026619878E+01 0.10926699795E+01 0.10277181557E+01 0.99807515245E+00 0.99806923958E+00
 0.11625310389E+01 0.12026935730E+01 0.12755593592E+01 0.13907597792E+01 0.15528593916E+01
 0.17582802411E+01 0.19932382397E+01 0.22330764920E+01 0.24442137820E+01 0.25903574312E+01
 0.26427361838E+01 0.25903282902E+01 0.24441984983E+01 0.22331113346E+01 0.19933090970E+01
 0.17583333714E+01 0.15528533748E+01 0.13907016451E+01 0.12754907525E+01 0.12026497723E+01
 0.11625174045E+01 0.11441448891E+01 0.11390738781E+01 0.11441441812E+01 0.13690154768E+01
 0.13683640852E+01 0.13907597792E+01 0.14457742251E+01 0.15368863834E+01 0.16597493491E+01
 0.18015974965E+01 0.19420569259E+01 0.20562064500E+01 0.21205400412E+01 0.21205393756E+01
 0.20561978945E+01 0.19420329830E+01 0.18015663491E+01 0.16597284206E+01 0.15368815339E+01
 0.14457747271E+01 0.13907543879E+01 0.13683540909E+01 0.13690090711E+01 0.13799522286E+01
 0.13891051415E+01 0.13891040718E+01 0.13799524791E+01 0.16585483844E+01 0.15970039800E+01
 0.15528593916E+01 0.15368863834E+01 0.15528583473E+01 0.15970032881E+01 0.16585499005E+01
 0.17215998966E+01 0.17687525482E+01 0.17862314026E+01 0.17687603211E+01 0.17216100040E+01
 0.16585494529E+01 0.15969788709E+01 0.15528130253E+01 0.15368474877E+01 0.15528595527E+01
 0.15970498668E+01 0.16586133010E+01 0.17216444925E+01 0.17687645189E+01 0.17862202531E+01
 0.17687411044E+01 0.17215939227E+01 0.20364975563E+01 0.18881575127E+01 0.17582802411E+01
 0.16597493491E+01 0.15970032881E+01 0.15668773788E+01 0.15604489501E+01 0.15658550720E+01
 0.15719319307E+01 0.15719151493E+01 0.15658353924E+01 0.15604749426E+01 0.15669448608E+01
 0.15970539299E+01 0.16597405444E+01 0.17582347850E+01 0.18881335565E+01 0.20365239323E+01
 0.21826395613E+01 0.23009978594E+01 0.23675743035E+01 0.23675569365E+01 0.23009505375E+01
 0.21825838750E+01 0.24958326964E+01 0.22294954704E+01 0.19932382397E+01 0.18015974965E+01
 0.16585499005E+01 0.15604489501E+01 0.14995030144E+01 0.14672068828E+01 0.14572088462E+01
 0.14671914770E+01 0.14995046982E+01 0.15604882935E+01 0.16586060945E+01 0.18016311075E+01
 0.19932337089E+01 0.22294702324E+01 0.24958095392E+01 0.27656991434E+01 0.30024106490E+01
 0.31659570444E+01 0.32245464514E+01 0.31659667307E+01 0.30024237478E+01 0.27657147576E+01
 0.30106656393E+01 0.25937644120E+01 0.22330764920E+01 0.19420569259E+01 0.17215998966E+01
 0.15658550720E+01 0.14672068828E+01 0.14195111423E+01 0.14195253613E+01 0.14672439905E+01
 0.15658936815E+01 0.17216041005E+01 0.19420044626E+01 0.22329941704E+01 0.25937172421E+01
 0.30106897118E+01 0.34528380207E+01 0.38703168361E+01 0.42007539684E+01 0.43845060319E+01
 0.43845288477E+01 0.42007846978E+01 0.38702989236E+01 0.34527823274E+01 0.35319229649E+01
 0.29385188521E+01 0.24442137820E+01 0.20562064500E+01 0.17687525482E+01 0.15719319307E+01
 0.14572088462E+01 0.14195253613E+01 0.14572666945E+01 0.15719914242E+01 0.17687584654E+01
 0.20561414422E+01 0.24440972942E+01 0.29384076282E+01 0.35318943439E+01 0.41943302677E+01
 0.48651380358E+01 0.54553354326E+01 0.58645453922E+01 0.60114405903E+01 0.58645162833E+01
 0.54552436993E+01 0.48650048575E+01 0.41942464295E+01 0.39896557859E+01 0.32115260785E+01
 0.25903574312E+01 0.21205400412E+01 0.17862314026E+01 0.15719151493E+01 0.14671914770E+01
 0.14672439905E+01 0.15719914242E+01 0.17862157110E+01 0.21204507139E+01 0.25902920143E+01
 0.32115149604E+01 0.39896701121E+01 0.49048138913E+01 0.58951982827E+01 0.68488705501E+01
 0.76157282442E+01 0.80464512920E+01 0.80464373228E+01 0.76156723691E+01 0.68487747043E+01
 0.58951120839E+01 0.49047717308E+01 0.43063455194E+01 0.33633037702E+01 0.26427361838E+01
 0.21205393756E+01 0.17687603211E+01 0.15658353924E+01 0.14995046982E+01 0.15658936815E+01
 0.17687584654E+01 0.21204507139E+01 0.26426678571E+01 0.33633213661E+01 0.43064122555E+01
 0.54733808087E+01 0.68173720335E+01 0.82190955747E+01 0.94831882261E+01 0.10375187928E+02
 0.10698378497E+02 0.10375314166E+02 0.94832736851E+01 0.82190511880E+01 0.68172689913E+01
 0.54732927681E+01 0.44198674922E+01 0.33632962635E+01 0.25903282902E+01 0.20561978945E+01
 0.17216100040E+01 0.15604749426E+01 0.15604882935E+01 0.17216041005E+01 0.20561414422E+01
 0.25902920143E+01 0.33633213661E+01 0.44198890445E+01 0.57914466655E+01 0.74641362113E+01
 0.93376438168E+01 0.11195793236E+02 0.12723822961E+02 0.13594135625E+02 0.13594257452E+02
 0.12724020553E+02 0.11195827385E+02 0.93375443717E+01 0.74640759604E+01 0.57914468729E+01
 0.43063014049E+01 0.32115185373E+01 0.24441984983E+01 0.19420329830E+01 0.16585494529E+01
 0.15669448608E+01 0.16586060945E+01 0.19420044626E+01 0.24440972942E+01 0.32115149604E+01
 0.43064122555E+01 0.57914466655E+01 0.76975269825E+01 0.99713290438E+01 0.12417379102E+02
 0.14677791671E+02 0.16299459826E+02 0.16891834331E+02 0.16299501131E+02 0.14677791737E+02
 0.12417360682E+02 0.99713795903E+01 0.76975895026E+01 0.57913933844E+01 0.39895729178E+01
 0.29385383868E+01 0.22331113346E+01 0.18015663491E+01 0.15969788709E+01 0.15970539299E+01
 0.18016311075E+01 0.22329941704E+01 0.29384076282E+01 0.39896701121E+01 0.54733808087E+01
 0.74641362113E+01 0.99713290438E+01 0.12862109572E+02 0.15797865217E+02 0.18253632105E+02
 0.19666502659E+02 0.19666475598E+02 0.18253567133E+02 0.15797840127E+02 0.12862200418E+02
 0.99714363168E+01 0.74640604891E+01 0.54731547484E+01 0.35318337371E+01 0.25938174025E+01
 0.19933090970E+01 0.16597284206E+01 0.15528130253E+01 0.16597405444E+01 0.19932337089E+01
 0.25937172421E+01 0.35318943439E+01 0.49048138913E+01 0.68173720335E+01 0.93376438168E+01
 0.12417379102E+02 0.15797865217E+02 0.18969662585E+02 0.21267978806E+02 0.22111627599E+02
 0.21268023671E+02 0.18969668577E+02 0.15797852921E+02 0.12417425942E+02 0.93376723774E+01
 0.68172431809E+01 0.49046086212E+01 0.30106265271E+01 0.22295565637E+01 0.17583333714E+01
 0.15368815339E+01 0.15368474877E+01 0.17582347850E+01 0.22294702324E+01 0.30106897118E+01
 0.41943302677E+01 0.58951982827E+01 0.82190955747E+01 0.11195793236E+02 0.14677791671E+02
 0.18253632105E+02 0.21267978806E+02 0.23010003106E+02 0.23010066385E+02 0.21268064182E+02
 0.18253628527E+02 0.14677789603E+02 0.11195884358E+02 0.82191516736E+01 0.58950741231E+01
 0.41941325485E+01 0.24958762278E+01 0.18881912390E+01 0.15528533748E+01 0.14457747271E+01
 0.15528595527E+01 0.18881335565E+01 0.24958095392E+01 0.34528380207E+01 0.48651380358E+01
 0.68488705501E+01 0.94831882261E+01 0.12723822961E+02 0.16299459826E+02 0.19666502659E+02
 0.22111627599E+02 0.23010066385E+02 0.22111691088E+02 0.19666575941E+02 0.16299549207E+02
 0.12723949476E+02 0.94832570639E+01 0.68487724948E+01 0.48649586951E+01 0.34527704252E+01
 0.20365900912E+01 0.15969953088E+01 0.13907016451E+01 0.13907543879E+01 0.15970498668E+01
 0.20365239323E+01 0.27656991434E+01 0.38703168361E+01 0.54553354326E+01 0.76157282442E+01
 0.10375187928E+02 0.13594135625E+02 0.16891834331E+02 0.19666475598E+02 0.21268023671E+02
 0.21268064182E+02 0.19666575941E+02 0.16891958732E+02 0.13594244151E+02 0.10375205543E+02
 0.76156043559E+01 0.54551645401E+01 0.38702720489E+01 0.27657956768E+01 0.16586171823E+01
 0.13683288274E+01 0.12754907525E+01 0.13683540909E+01 0.16586133010E+01 0.21826395613E+01
 0.30024106490E+01 0.42007539684E+01 0.58645453922E+01 0.80464512920E+01 0.10698378497E+02
 0.13594257452E+02 0.16299501131E+02 0.18253567133E+02 0.18969668577E+02 0.18253628527E+02
 0.16299549207E+02 0.13594244151E+02 0.10698322905E+02 0.80463852102E+01 0.58644866302E+01
 0.42007303842E+01 0.30024400186E+01 0.21826836456E+01 0.13690241748E+01 0.12026619878E+01
 0.12026497723E+01 0.13690090711E+01 0.17216444925E+01 0.23009978594E+01 0.31659570444E+01
 0.43845060319E+01 0.60114405903E+01 0.80464373228E+01 0.10375314166E+02 0.12724020553E+02
 0.14677791737E+02 0.15797840127E+02 0.15797852921E+02 0.14677789603E+02 0.12723949476E+02
 0.10375205543E+02 0.80463852102E+01 0.60114852754E+01 0.43845875389E+01 0.31659969686E+01