    2    2   15    1
  0.1529437E+02  0.3691622E-09  0.3691622E-09  0.3691622E-09  0.5000000E-15
  1.000000000000000E-004
  CAR 
 unknown system                          
      8     11      8
 
  0.1250000E+00  0.1250000E+00  0.1250000E+00  0.1250000E+00
    1       -2.889290   1.000000
    2        3.548653   1.000000
    3        7.509376   1.000000
    4        8.476934   0.646936
    5       10.181058   0.000000
    6       11.565075   0.000000
    7       14.643698   0.000000
    8       14.890252   0.000000
 
  0.3750000E+00  0.1250000E+00  0.1250000E+00  0.1250000E+00
    1        0.611350   1.000000
    2        1.975464   1.000000
    3        4.253646   1.000000
    4        5.498707   1.000000
    5       10.196355   0.000000
    6       12.322815   0.000000
    7       14.033804   0.000000
    8       14.571569   0.000000
 
 -0.1250000E+00  0.1250000E+00  0.1250000E+00  0.6250000E-01
    1       -4.309682   1.000000
    2        5.068522   1.000000
    3        5.712708   1.000000
    4       11.361711   0.000000
    5       12.964741   0.000000
    6       13.135307   0.000000
    7       14.776455   0.000000
    8       16.155206   0.000000
 
  0.3750000E+00  0.3750000E+00  0.1250000E+00  0.6250000E-01
    1       -0.415727   1.000000
    2       -0.415727   1.000000
    3        7.461203   1.000000
    4        7.461206   1.000000
    5       11.967193   0.000000
    6       11.967194   0.000000
    7       13.862463   0.000000
    8       13.862465   0.000000
 
 -0.3750000E+00  0.3750000E+00  0.1250000E+00  0.1250000E+00
    1       -2.630455   1.000000
    2        0.665265   1.000000
    3        6.944499   1.000000
    4        9.766268   0.000000
    5       12.695315   0.000000
    6       13.541937   0.000000
    7       14.634171   0.000000
    8       16.502307   0.000000
 
 -0.1250000E+00  0.3750000E+00  0.1250000E+00  0.1250000E+00
    1       -2.063090   1.000000
    2        3.770053   1.000000
    3        4.817520   1.000000
    4        6.540400   1.000000
    5       10.391689   0.000000
    6       12.904266   0.000000
    7       13.245489   0.000000
    8       16.279956   0.000000
 
 -0.3750000E+00 -0.3750000E+00  0.1250000E+00  0.1250000E+00
    1        0.297247   1.000000
    2        0.442915   1.000000
    3        5.078842   1.000000
    4        6.813577   1.000000
    5        7.516258   1.000000
    6       12.093312   0.000000
    7       17.426432   0.000000
    8       17.684923   0.000000
 
 -0.1250000E+00 -0.3750000E+00  0.1250000E+00  0.1250000E+00
    1       -0.449749   1.000000
    2        3.150728   1.000000
    3        6.139370   1.000000
    4        6.161671   1.000000
    5        8.381813   0.853064
    6       10.758347   0.000000
    7       10.874114   0.000000
    8       15.752634   0.000000
 
 -0.1250000E+00 -0.1250000E+00  0.1250000E+00  0.3125000E-01
    1       -3.724599   1.000000
    2        7.533236   1.000000
    3        7.533239   1.000000
    4        9.789463   0.000000
    5       10.227181   0.000000
    6       10.554991   0.000000
    7       12.057352   0.000000
    8       12.760023   0.000000
 
 -0.3750000E+00  0.3750000E+00  0.3750000E+00  0.6250000E-01
    1       -0.982560   1.000000
    2        1.838890   1.000000
    3        2.806991   1.000000
    4        5.524267   1.000000
    5       11.831825   0.000000
    6       11.920780   0.000000
    7       20.340707   0.000000
    8       20.398880   0.000000
 
 -0.3750000E+00 -0.3750000E+00  0.3750000E+00  0.3125000E-01
    1        1.852315   1.000000
    2        2.520202   1.000000
    3        3.351097   1.000000
    4        3.351097   1.000000
    5        5.371213   1.000000
    6       16.190775   0.000000
    7       16.700816   0.000000
    8       16.700819   0.000000
