unknown system                          
   1.00000000000000     
     0.000000    2.715000    2.715000
     2.715000    0.000000    2.715000
     2.715000    2.715000    0.000000
   Si
     2
Direct
  0.500000  0.500000  0.500000
  0.750000  0.750000  0.750000
 
   36   36   36
 0.88214991096E+00 0.89849292445E+00 0.94858094605E+00 0.10354500622E+01 0.11637625238E+01
 0.13393245907E+01 0.15685512861E+01 0.18578410360E+01 0.22126728068E+01 0.26361747179E+01
 0.31270448549E+01 0.36770466654E+01 0.42687369010E+01 0.48743865166E+01 0.54569828213E+01
 0.59736787706E+01 0.63812768990E+01 0.66426558298E+01 0.67327320164E+01 0.66426461191E+01
 0.63812665782E+01 0.59736848238E+01 0.54570220163E+01 0.48744613537E+01 0.42688282222E+01
 0.36771226283E+01 0.31270810250E+01 0.26361682849E+01 0.22126401489E+01 0.18578038276E+01
 0.15685240060E+01 0.13393109859E+01 0.11637594896E+01 0.10354526431E+01 0.94858501109E+00
 0.89849568343E+00 0.89849292445E+00 0.92699435209E+00 0.98574665950E+00 0.10780428821E+01
 0.12083325575E+01 0.13817247404E+01 0.16034154338E+01 0.18779933382E+01 0.22084894578E+01
 0.25950308274E+01 0.30331046739E+01 0.35117235826E+01 0.40120911564E+01 0.45075146635E+01
 0.49651328277E+01 0.53495152205E+01 0.56275504615E+01 0.57735733937E+01 0.57735734617E+01
 0.56275531952E+01 0.53495288767E+01 0.49651677720E+01 0.45075718124E+01 0.40121535752E+01
 0.35117646092E+01 0.30331072691E+01 0.25949987574E+01 0.22084414377E+01 0.18779494270E+01
 0.16033876012E+01 0.13817145834E+01 0.12083337382E+01 0.10780463484E+01 0.98574673762E+00
 0.92699155025E+00 0.89849125208E+00 0.94858094605E+00 0.98574665950E+00 0.10500920844E+01
 0.11449201921E+01 0.12742756951E+01 0.14424388599E+01 0.16533324709E+01 0.19098016967E+01
 0.22126849087E+01 0.25596289650E+01 0.29437475515E+01 0.33524378271E+01 0.37668530545E+01
 0.41625466753E+01 0.45115714271E+01 0.47858765985E+01 0.49613780846E+01 0.50217973770E+01
 0.49613824186E+01 0.47858881530E+01 0.45115936788E+01 0.41625773421E+01 0.37668792981E+01
 0.33524420432E+01 0.29437212040E+01 0.25595799211E+01 0.22126311815E+01 0.19097598810E+01
 0.16533111692E+01 0.14424377410E+01 0.12742866477E+01 0.11449310808E+01 0.10500941296E+01
 0.98574023634E+00 0.94857398262E+00 0.93643868336E+00 0.10354500622E+01 0.10780428821E+01
 0.11449201921E+01 0.12392366358E+01 0.13645217895E+01 0.15241759932E+01 0.17208837922E+01
 0.19559168442E+01 0.22282915636E+01 0.25338043320E+01 0.28640942518E+01 0.32060280671E+01
 0.35417797183E+01 0.38499137020E+01 0.41075523011E+01 0.42933654301E+01 0.43907992368E+01
 0.43908003611E+01 0.42933697409E+01 0.41075601813E+01 0.38499208076E+01 0.35417768017E+01
 0.32060071355E+01 0.28640558562E+01 0.25337584187E+01 0.22282514566E+01 0.19558927090E+01
 0.17208799629E+01 0.15241904476E+01 0.13645457969E+01 0.12392573073E+01 0.11449276211E+01
 0.10780366866E+01 0.10354389997E+01 0.10147756392E+01 0.10147808757E+01 0.11637625238E+01
 0.12083325575E+01 0.12742756951E+01 0.13645217895E+01 0.14820521422E+01 0.16294151624E+01
 0.18081781190E+01 0.20183016402E+01 0.22574379784E+01 0.25202144486E+01 0.27976615510E+01
 0.30770304567E+01 0.33422561537E+01 0.35752285709E+01 0.37578374629E+01 0.38744984270E+01
 0.39146347129E+01 0.38744982304E+01 0.37578366654E+01 0.35752233772E+01 0.33422406037E+01
 0.30770031535E+01 0.27976295018E+01 0.25201885097E+01 0.22574257692E+01 0.20183054800E+01
 0.18081970768E+01 0.16294454197E+01 0.14820854033E+01 0.13645469569E+01 0.12742850422E+01
 0.12083267584E+01 0.11637497772E+01 0.11381014744E+01 0.11297473066E+01 0.11381110721E+01
 0.13393245907E+01 0.13817247404E+01 0.14424388599E+01 0.15241759932E+01 0.16294151624E+01
 0.17599618457E+01 0.19164705465E+01 0.20979313391E+01 0.23011390590E+01 0.25202144004E+01
 0.27463181387E+01 0.29677492656E+01 0.31706023688E+01 0.33400641555E+01 0.34622594362E+01
 0.35263415917E+01 0.35263414821E+01 0.34622580571E+01 0.33400582139E+01 0.31705884191E+01
 0.29677291958E+01 0.27463011312E+01 0.25202107009E+01 0.23011524006E+01 0.20979585483E+01
 0.19165061329E+01 0.17599996855E+01 0.16294472989E+01 0.15241946092E+01 0.14424412623E+01
 0.13817151888E+01 0.13393109118E+01 0.13127043026E+01 0.12999387049E+01 0.12999427677E+01
 0.13127152067E+01 0.15685512861E+01 0.16034154338E+01 0.16533324709E+01 0.17208837922E+01
 0.18081781190E+01 0.19164705465E+01 0.20457832389E+01 0.21945266856E+01 0.23591393701E+01
 0.25338043182E+01 0.27103581929E+01 0.28785462879E+01 0.30267557768E+01 0.31432630271E+01
 0.32178642425E+01 0.32435637917E+01 0.32178661096E+01 0.31432629733E+01 0.30267502918E+01
 0.28785372721E+01 0.27103535998E+01 0.25338124133E+01 0.23591624071E+01 0.21945604014E+01
 0.20458205266E+01 0.19165032902E+01 0.18081978233E+01 0.17208854074E+01 0.16533190224E+01
 0.16033965244E+01 0.15685358041E+01 0.15460704475E+01 0.15336670801E+01 0.15297240763E+01
 0.15336707341E+01 0.15460794071E+01 0.18578410360E+01 0.18779933382E+01 0.19098016967E+01
 0.19559168442E+01 0.20183016402E+01 0.20979313391E+01 0.21945266856E+01 0.23063095620E+01
 0.24297900176E+01 0.25596291101E+01 0.26886751410E+01 0.28083069806E+01 0.29091906121E+01
 0.29824430775E+01 0.30210260730E+01 0.30210293398E+01 0.29824499069E+01 0.29091956775E+01
 0.28083088559E+01 0.26886775517E+01 0.25596367948E+01 0.24298049033E+01 0.23063302901E+01
 0.21945489066E+01 0.20979470823E+01 0.20183015498E+01 0.19558971208E+01 0.19097694302E+01
 0.18779627677E+01 0.18578230384E+01 0.18463576253E+01 0.18406760090E+01 0.18384749233E+01
 0.18384733352E+01 0.18406740083E+01 0.18463622842E+01 0.22126728068E+01 0.22084894578E+01
 0.22126849087E+01 0.22282915636E+01 0.22574379784E+01 0.23011390590E+01 0.23591393701E+01
 0.24297900176E+01 0.25099620059E+01 0.25950309873E+01 0.26790175501E+01 0.27549969836E+01
 0.28158483037E+01 0.28552850480E+01 0.28689548114E+01 0.28552955717E+01 0.28158632763E+01
 0.27550099770E+01 0.26790253333E+01 0.25950325680E+01 0.25099580245E+01 0.24297834910E+01
 0.23591328883E+01 0.23011293205E+01 0.22574167446E+01 0.22282551226E+01 0.22126412752E+01
 0.22084539095E+01 0.22126563037E+01 0.22216071335E+01 0.22315156937E+01 0.22390216487E+01
 0.22417975909E+01 0.22390122373E+01 0.22315041689E+01 0.22216049378E+01 0.26361747179E+01
 0.25950308274E+01 0.25596289650E+01 0.25338043320E+01 0.25202144486E+01 0.25202144004E+01
 0.25338043182E+01 0.25596291101E+01 0.25950309873E+01 0.26361747630E+01 0.26783027432E+01
 0.27161934732E+01 0.27448439246E+01 0.27602787315E+01 0.27602868954E+01 0.27448643613E+01
 0.27162163581E+01 0.26783167483E+01 0.26361707029E+01 0.25950060828E+01 0.25595900628E+01
 0.25337627576E+01 0.25201763419E+01 0.25201768861E+01 0.25337640482E+01 0.25595914577E+01
 0.25950071736E+01 0.26361712894E+01 0.26783166659E+01 0.27162156802E+01 0.27448635130E+01
 0.27602862396E+01 0.27602782402E+01 0.27448434719E+01 0.27161931571E+01 0.26783026514E+01
 0.31270448549E+01 0.30331046739E+01 0.29437475515E+01 0.28640942518E+01 0.27976615510E+01
 0.27463181387E+01 0.27103581929E+01 0.26886751410E+01 0.26790175501E+01 0.26783027432E+01
 0.26829875812E+01 0.26895160547E+01 0.26948287402E+01 0.26968513770E+01 0.26948469365E+01
 0.26895432777E+01 0.26830070319E+01 0.26782961518E+01 0.26789760678E+01 0.26886072994E+01
 0.27102848934E+01 0.27462572580E+01 0.27976183220E+01 0.28640665025E+01 0.29437356443E+01
 0.30331111704E+01 0.31270675485E+01 0.32190936952E+01 0.33017873199E+01 0.33676595390E+01
 0.34101838389E+01 0.34248846677E+01 0.34101685640E+01 0.33676335827E+01 0.33017560478E+01
 0.32190627120E+01 0.36770466654E+01 0.35117235826E+01 0.33524378271E+01 0.32060280671E+01
 0.30770304567E+01 0.29677492656E+01 0.28785462879E+01 0.28083069806E+01 0.27549969836E+01
 0.27161934732E+01 0.26895160547E+01 0.26729451056E+01 0.26650376357E+01 0.26650474057E+01
 0.26729689479E+01 0.26895368094E+01 0.27161866807E+01 0.27549464370E+01 0.28082203531E+01
 0.28784523737E+01 0.29676775685E+01 0.30769941633E+01 0.32060250070E+01 0.33524610496E+01
 0.35117657071E+01 0.36770970457E+01 0.38395120328E+01 0.39885305219E+01 0.41131073160E+01
 0.42029646772E+01 0.42500931060E+01 0.42500895326E+01 0.42029537531E+01 0.41130871479E+01
 0.39884975218E+01 0.38394662666E+01 0.42687369010E+01 0.40120911564E+01 0.37668530545E+01
 0.35417797183E+01 0.33422561537E+01 0.31706023688E+01 0.30267557768E+01 0.29091906121E+01
 0.28158483037E+01 0.27448439246E+01 0.26948287402E+01 0.26650376357E+01 0.26551408137E+01
 0.26650528322E+01 0.26948453606E+01 0.27448362422E+01 0.28157943152E+01 0.29090949098E+01
 0.30266526359E+01 0.31705311451E+01 0.33422349532E+01 0.35418025564E+01 0.37669043200E+01
 0.40121554220E+01 0.42687994924E+01 0.45248586873E+01 0.47658144193E+01 0.49758315254E+01
 0.51394499549E+01 0.52435550198E+01 0.52793027121E+01 0.52435622806E+01 0.51394573566E+01
 0.49758278781E+01 0.47657900431E+01 0.45248113921E+01 0.48743865166E+01 0.45075146635E+01
 0.41625466753E+01 0.38499137020E+01 0.35752285709E+01 0.33400641555E+01 0.31432630271E+01
 0.29824430775E+01 0.28552850480E+01 0.27602787315E+01 0.26968513770E+01 0.26650474057E+01
 0.26650528322E+01 0.26968594961E+01 0.27602666428E+01 0.28552284260E+01 0.29823426509E+01
 0.31431556018E+01 0.33399971169E+01 0.35752226430E+01 0.38499547667E+01 0.41626080067E+01
 0.45075765388E+01 0.48744372054E+01 0.52479025012E+01 0.56086109635E+01 0.59346969749E+01
 0.62039607286E+01 0.63963934078E+01 0.64967526643E+01 0.64967634097E+01 0.63964197711E+01
 0.62039888934E+01 0.59347126741E+01 0.56086045573E+01 0.52478715914E+01 0.54569828213E+01
 0.49651328277E+01 0.45115714271E+01 0.41075523011E+01 0.37578374629E+01 0.34622594362E+01
 0.32178642425E+01 0.30210260730E+01 0.28689548114E+01 0.27602868954E+01 0.26948469365E+01
 0.26729689479E+01 0.26948453606E+01 0.27602666428E+01 0.28688932984E+01 0.30209213671E+01
 0.32177526268E+01 0.34621937653E+01 0.37578413333E+01 0.41076028396E+01 0.45116283202E+01
 0.49651727316E+01 0.54570028969E+01 0.59688611845E+01 0.64762222837E+01 0.69502306235E+01
 0.73604631226E+01 0.76781231324E+01 0.78793502809E+01 0.79482903249E+01 0.78793706093E+01
 0.76781564924E+01 0.73604992152E+01 0.69502596685E+01 0.64762370364E+01 0.59688588320E+01
 0.59736787706E+01 0.53495152205E+01 0.47858765985E+01 0.42933654301E+01 0.38744984270E+01
 0.35263415917E+01 0.32435637917E+01 0.30210293398E+01 0.28552955717E+01 0.27448643613E+01
 0.26895432777E+01 0.26895368094E+01 0.27448362422E+01 0.28552284260E+01 0.30209213671E+01
 0.32434491523E+01 0.35262749475E+01 0.38745066847E+01 0.42934207518E+01 0.47859259720E+01
 0.53495293106E+01 0.59736636827E+01 0.66382707935E+01 0.73141984827E+01 0.79653584635E+01
 0.85520815464E+01 0.90350325909E+01 0.93793213583E+01 0.95585924758E+01 0.95585914718E+01
 0.93793221440E+01 0.90350429418E+01 0.85521050311E+01 0.79653901883E+01 0.73142308600E+01
 0.66382987551E+01 0.63812768990E+01 0.56275504615E+01 0.49613780846E+01 0.43907992368E+01
 0.39146347129E+01 0.35263414821E+01 0.32178661096E+01 0.29824499069E+01 0.28158632763E+01
 0.27162163581E+01 0.26830070319E+01 0.27161866807E+01 0.28157943152E+01 0.29823426509E+01
 0.32177526268E+01 0.35262749475E+01 0.39146443039E+01 0.43908570774E+01 0.49614237315E+01
 0.56275474708E+01 0.63812354777E+01 0.72026323913E+01 0.80596077024E+01 0.89097811772E+01
 0.97042593064E+01 0.10392113994E+02 0.10925163291E+02 0.11263133123E+02 0.11378962743E+02
 0.11263085890E+02 0.10925099018E+02 0.10392069785E+02 0.97042527856E+01 0.89098058637E+01
 0.80596505636E+01 0.72026834834E+01 0.66426558298E+01 0.57735733937E+01 0.50217973770E+01
 0.43908003611E+01 0.38744982304E+01 0.34622580571E+01 0.31432629733E+01 0.29091956775E+01
 0.27550099770E+01 0.26783167483E+01 0.26782961518E+01 0.27549464370E+01 0.29090949098E+01
 0.31431556018E+01 0.34621937653E+01 0.38745066847E+01 0.43908570774E+01 0.50218414503E+01
 0.57735639422E+01 0.66426025944E+01 0.76118738367E+01 0.86489707039E+01 0.97075820186E+01
 0.10731211342E+02 0.11657802881E+02 0.12424662249E+02 0.12974272791E+02 0.13261567588E+02
 0.13261510905E+02 0.12974132216E+02 0.12424506469E+02 0.11657694338E+02 0.10731171060E+02
 0.97075947963E+01 0.86490155142E+01 0.76119354708E+01 0.67327320164E+01 0.57735734617E+01
 0.49613824186E+01 0.42933697409E+01 0.37578366654E+01 0.33400582139E+01 0.30267502918E+01
 0.28083088559E+01 0.26790253333E+01 0.26361707029E+01 0.26789760678E+01 0.28082203531E+01
 0.30266526359E+01 0.33399971169E+01 0.37578413333E+01 0.42934207518E+01 0.49614237315E+01
 0.57735639422E+01 0.67326795827E+01 0.78271215046E+01 0.90275351968E+01 0.10287224529E+02
 0.11545426059E+02 0.12731584850E+02 0.13769555704E+02 0.14582884595E+02 0.15102717231E+02
 0.15281376647E+02 0.15102570491E+02 0.14582653448E+02 0.13769331194E+02 0.12731434630E+02
 0.11545362879E+02 0.10287223628E+02 0.90275720645E+01 0.78271800443E+01 0.66426461191E+01
 0.56275531952E+01 0.47858881530E+01 0.41075601813E+01 0.35752233772E+01 0.31705884191E+01
 0.28785372721E+01 0.26886775517E+01 0.25950325680E+01 0.25950060828E+01 0.26886072994E+01
 0.28784523737E+01 0.31705311451E+01 0.35752226430E+01 0.41076028396E+01 0.47859259720E+01
 0.56275474708E+01 0.66426025944E+01 0.78271215046E+01 0.91581176048E+01 0.10592549543E+02
 0.12069847682E+02 0.13515579625E+02 0.14844213747E+02 0.15958590501E+02 0.16760806581E+02
 0.17180182298E+02 0.17180107325E+02 0.16760605922E+02 0.15958331286E+02 0.14843979488E+02
 0.13515424877E+02 0.12069774878E+02 0.10592532617E+02 0.91581378834E+01 0.78271671546E+01
 0.63812665782E+01 0.53495288767E+01 0.45115936788E+01 0.38499208076E+01 0.33422406037E+01
 0.29677291958E+01 0.27103535998E+01 0.25596367948E+01 0.25099580245E+01 0.25595900628E+01
 0.27102848934E+01 0.29676775685E+01 0.33422349532E+01 0.38499547667E+01 0.45116283202E+01
 0.53495293106E+01 0.63812354777E+01 0.76118738367E+01 0.90275351968E+01 0.10592549543E+02
 0.12251049001E+02 0.13930150435E+02 0.15540681096E+02 0.16965168376E+02 0.18080754414E+02
 0.18791564796E+02 0.19035678676E+02 0.18791466966E+02 0.18080573794E+02 0.16964948577E+02
 0.15540483000E+02 0.13930012982E+02 0.12250971891E+02 0.10592515947E+02 0.90275373124E+01
 0.76119039937E+01 0.59736848238E+01 0.49651677720E+01 0.41625773421E+01 0.35417768017E+01
 0.30770031535E+01 0.27463011312E+01 0.25338124133E+01 0.24298049033E+01 0.24297834910E+01
 0.25337627576E+01 0.27462572580E+01 0.30769941633E+01 0.35418025564E+01 0.41626080067E+01
 0.49651727316E+01 0.59736636827E+01 0.72026323913E+01 0.86489707039E+01 0.10287224529E+02
 0.12069847682E+02 0.13930150435E+02 0.15781925016E+02 0.17497208544E+02 0.18932353394E+02
 0.19966313622E+02 0.20508284346E+02 0.20508269172E+02 0.19966254181E+02 0.18932233114E+02
 0.17497045898E+02 0.15781766505E+02 0.13930029220E+02 0.12069768094E+02 0.10287180608E+02
 0.86489620309E+01 0.72026519403E+01 0.54570220163E+01 0.45075718124E+01 0.37668792981E+01
 0.32060071355E+01 0.27976295018E+01 0.25202107009E+01 0.23591624071E+01 0.23063302901E+01
 0.23591328883E+01 0.25201763419E+01 0.27976183220E+01 0.32060250070E+01 0.37669043200E+01
 0.45075765388E+01 0.54570028969E+01 0.66382707935E+01 0.80596077024E+01 0.97075820186E+01
 0.11545426059E+02 0.13515579625E+02 0.15540681096E+02 0.17497208544E+02 0.19226834045E+02
 0.20586913069E+02 0.21458600003E+02 0.21759224632E+02 0.21458621867E+02 0.20586905641E+02
 0.19226756758E+02 0.17497076576E+02 0.15540543331E+02 0.13515469090E+02 0.11545349389E+02
 0.97075384981E+01 0.80595998997E+01 0.66382898997E+01 0.48744613537E+01 0.40121535752E+01
 0.33524420432E+01 0.28640558562E+01 0.25201885097E+01 0.23011524006E+01 0.21945604014E+01
 0.21945489066E+01 0.23011293205E+01 0.25201768861E+01 0.28640665025E+01 0.33524610496E+01
 0.40121554220E+01 0.48744372054E+01 0.59688611845E+01 0.73141984827E+01 0.89097811772E+01
 0.10731211342E+02 0.12731584850E+02 0.14844213747E+02 0.16965168376E+02 0.18932353394E+02
 0.20586913069E+02 0.21787526869E+02 0.22420630528E+02 0.22420667734E+02 0.21787594596E+02
 0.20586929207E+02 0.18932281937E+02 0.16965043540E+02 0.14844088880E+02 0.12731485978E+02
 0.10731142759E+02 0.89097473234E+01 0.73142037877E+01 0.59688911986E+01 0.42688282222E+01
 0.35117646092E+01 0.29437212040E+01 0.25337584187E+01 0.22574257692E+01 0.20979585483E+01
 0.20458205266E+01 0.20979470823E+01 0.22574167446E+01 0.25337640482E+01 0.29437356443E+01
 0.35117657071E+01 0.42687994924E+01 0.52479025012E+01 0.64762222837E+01 0.79653584635E+01
 0.97042593064E+01 0.11657802881E+02 0.13769555704E+02 0.15958590501E+02 0.18080754414E+02
 0.19966313622E+02 0.21458600003E+02 0.22420630528E+02 0.22753575382E+02 0.22420715340E+02
 0.21458685454E+02 0.19966320596E+02 0.18080677785E+02 0.15958479055E+02 0.13769449754E+02
 0.11657716684E+02 0.97042025299E+01 0.79653454262E+01 0.64762530492E+01 0.52479494541E+01
 0.36771226283E+01 0.30331072691E+01 0.25595799211E+01 0.22282514566E+01 0.20183054800E+01
 0.19165061329E+01 0.19165032902E+01 0.20183015498E+01 0.22282551226E+01 0.25595914577E+01
 0.30331111704E+01 0.36770970457E+01 0.45248586873E+01 0.56086109635E+01 0.69502306235E+01
 0.85520815464E+01 0.10392113994E+02 0.12424662249E+02 0.14582884595E+02 0.16760806581E+02
 0.18791564796E+02 0.20508284346E+02 0.21759224632E+02 0.22420667734E+02 0.22420715340E+02
 0.21759324546E+02 0.20508354383E+02 0.18791562463E+02 0.16760748963E+02 0.14582804111E+02
 0.12424577072E+02 0.10392041967E+02 0.85520496974E+01 0.69502555132E+01 0.56086737725E+01
 0.45249172350E+01 0.31270810250E+01 0.25949987574E+01 0.22126311815E+01 0.19558927090E+01
 0.18081970768E+01 0.17599996855E+01 0.18081978233E+01 0.19558971208E+01 0.22126412752E+01
 0.25950071736E+01 0.31270675485E+01 0.38395120328E+01 0.47658144193E+01 0.59346969749E+01
 0.73604631226E+01 0.90350325909E+01 0.10925163291E+02 0.12974272791E+02 0.15102717231E+02
 0.17180182298E+02 0.19035678676E+02 0.20508269172E+02 0.21458621867E+02 0.21787594596E+02
 0.21458685454E+02 0.20508354383E+02 0.19035741727E+02 0.17180206026E+02 0.15102701636E+02
 0.12974221273E+02 0.10925095600E+02 0.90349892336E+01 0.73604798252E+01 0.59347694098E+01
 0.47658988061E+01 0.38395657705E+01 0.26361682849E+01 0.22084414377E+01 0.19097598810E+01
 0.17208799629E+01 0.16294454197E+01 0.16294472989E+01 0.17208854074E+01 0.19097694302E+01
 0.22084539095E+01 0.26361712894E+01 0.32190936952E+01 0.39885305219E+01 0.49758315254E+01
 0.62039607286E+01 0.76781231324E+01 0.93793213583E+01 0.11263133123E+02 0.13261567588E+02
 0.15281376647E+02 0.17180107325E+02 0.18791466966E+02 0.19966254181E+02 0.20586905641E+02
 0.20586929207E+02 0.19966320596E+02 0.18791562463E+02 0.17180206026E+02 0.15281443592E+02
 0.13261575635E+02 0.11263091436E+02 0.93792783853E+01 0.76781322584E+01 0.62040354582E+01
 0.49759336680E+01 0.39886081652E+01 0.32191241514E+01 0.22126401489E+01 0.18779494270E+01
 0.16533111692E+01 0.15241904476E+01 0.14820854033E+01 0.15241946092E+01 0.16533190224E+01
 0.18779627677E+01 0.22126563037E+01 0.26783166659E+01 0.33017873199E+01 0.41131073160E+01
 0.51394499549E+01 0.63963934078E+01 0.78793502809E+01 0.95585924758E+01 0.11378962743E+02
 0.13261510905E+02 0.15102570491E+02 0.16760605922E+02 0.18080573794E+02 0.18932233114E+02
 0.19226756758E+02 0.18932281937E+02 0.18080677785E+02 0.16760748963E+02 0.15102701636E+02
 0.13261575635E+02 0.11378952624E+02 0.95585556512E+01 0.78793514950E+01 0.63964616857E+01
 0.51395573460E+01 0.41131992332E+01 0.33018297518E+01 0.26783161898E+01 0.18578038276E+01
 0.16033876012E+01 0.14424377410E+01 0.13645457969E+01 0.13645469569E+01 0.14424412623E+01
 0.16033965244E+01 0.18578230384E+01 0.22216071335E+01 0.27162156802E+01 0.33676595390E+01
 0.42029646772E+01 0.52435550198E+01 0.64967526643E+01 0.79482903249E+01 0.95585914718E+01
 0.11263085890E+02 0.12974132216E+02 0.14582653448E+02 0.15958331286E+02 0.16964948577E+02
 0.17497045898E+02 0.17497076576E+02 0.16965043540E+02 0.15958479055E+02 0.14582804111E+02
 0.12974221273E+02 0.11263091436E+02 0.95585556512E+01 0.79482815022E+01 0.64968087401E+01
 0.52436571901E+01 0.42030607099E+01 0.33677083688E+01 0.27162150204E+01 0.22215842655E+01
 0.15685240060E+01 0.13817145834E+01 0.12742866477E+01 0.12392573073E+01 0.12742850422E+01
 0.13817151888E+01 0.15685358041E+01 0.18463576253E+01 0.22315156937E+01 0.27448635130E+01
 0.34101838389E+01 0.42500931060E+01 0.52793027121E+01 0.64967634097E+01 0.78793706093E+01
 0.93793221440E+01 0.10925099018E+02 0.12424506469E+02 0.13769331194E+02 0.14843979488E+02
 0.15540483000E+02 0.15781766505E+02 0.15540543331E+02 0.14844088880E+02 0.13769449754E+02
 0.12424577072E+02 0.10925095600E+02 0.93792783853E+01 0.78793514950E+01 0.64968087401E+01
 0.52793982687E+01 0.42501897389E+01 0.34102375548E+01 0.27448640334E+01 0.22314863377E+01
 0.18463298370E+01 0.13393109859E+01 0.12083337382E+01 0.11449310808E+01 0.11449276211E+01
 0.12083267584E+01 0.13393109118E+01 0.15460704475E+01 0.18406760090E+01 0.22390216487E+01
 0.27602862396E+01 0.34248846677E+01 0.42500895326E+01 0.52435622806E+01 0.63964197711E+01
 0.76781564924E+01 0.90350429418E+01 0.10392069785E+02 0.11657694338E+02 0.12731434630E+02
 0.13515424877E+02 0.13930012982E+02 0.13930029220E+02 0.13515469090E+02 0.12731485978E+02
 0.11657716684E+02 0.10392041967E+02 0.90349892336E+01 0.76781322584E+01 0.63964616857E+01
 0.52436571901E+01 0.42501897389E+01 0.34249454115E+01 0.27602922697E+01 0.22389904296E+01
 0.18406397916E+01 0.15460518185E+01 0.11637594896E+01 0.10780463484E+01 0.10500941296E+01
 0.10780366866E+01 0.11637497772E+01 0.13127043026E+01 0.15336670801E+01 0.18384749233E+01
 0.22417975909E+01 0.27602782402E+01 0.34101685640E+01 0.42029537531E+01 0.51394573566E+01
 0.62039888934E+01 0.73604992152E+01 0.85521050311E+01 0.97042527856E+01 0.10731171060E+02
 0.11545362879E+02 0.12069774878E+02 0.12250971891E+02 0.12069768094E+02 0.11545349389E+02
 0.10731142759E+02 0.97042025299E+01 0.85520496974E+01 0.73604798252E+01 0.62040354582E+01
 0.51395573460E+01 0.42030607099E+01 0.34102375548E+01 0.27602922697E+01 0.22417699048E+01
 0.18384345370E+01 0.15336399735E+01 0.13126996401E+01 0.10354526431E+01 0.98574673762E+00
 0.98574023634E+00 0.10354389997E+01 0.11381014744E+01 0.12999387049E+01 0.15297240763E+01
 0.18384733352E+01 0.22390122373E+01 0.27448434719E+01 0.33676335827E+01 0.41130871479E+01
 0.49758278781E+01 0.59347126741E+01 0.69502596685E+01 0.79653901883E+01 0.89098058637E+01
 0.97075947963E+01 0.10287223628E+02 0.10592532617E+02 0.10592515947E+02 0.10287180608E+02
 0.97075384981E+01 0.89097473234E+01 0.79653454262E+01 0.69502555132E+01 0.59347694098E+01
 0.49759336680E+01 0.41131992332E+01 0.33677083688E+01 0.27448640334E+01 0.22389904296E+01
 0.18384345370E+01 0.15296921868E+01 0.12999268722E+01 0.11381084749E+01 0.94858501109E+00
 0.92699155025E+00 0.94857398262E+00 0.10147756392E+01 0.11297473066E+01 0.12999427677E+01
 0.15336707341E+01 0.18406740083E+01 0.22315041689E+01 0.27161931571E+01 0.33017560478E+01
 0.39884975218E+01 0.47657900431E+01 0.56086045573E+01 0.64762370364E+01 0.73142308600E+01
 0.80596505636E+01 0.86490155142E+01 0.90275720645E+01 0.91581378834E+01 0.90275373124E+01
 0.86489620309E+01 0.80595998997E+01 0.73142037877E+01 0.64762530492E+01 0.56086737725E+01
 0.47658988061E+01 0.39886081652E+01 0.33018297518E+01 0.27162150204E+01 0.22314863377E+01
 0.18406397916E+01 0.15336399735E+01 0.12999268722E+01 0.11297487879E+01 0.10147879774E+01
 0.89849568343E+00 0.89849125208E+00 0.93643868336E+00 0.10147808757E+01 0.11381110721E+01
 0.13127152067E+01 0.15460794071E+01 0.18463622842E+01 0.22216049378E+01 0.26783026514E+01
 0.32190627120E+01 0.38394662666E+01 0.45248113921E+01 0.52478715914E+01 0.59688588320E+01
 0.66382987551E+01 0.72026834834E+01 0.76119354708E+01 0.78271800443E+01 0.78271671546E+01
 0.76119039937E+01 0.72026519403E+01 0.66382898997E+01 0.59688911986E+01 0.52479494541E+01
 0.45249172350E+01 0.38395657705E+01 0.32191241514E+01 0.26783161898E+01 0.22215842655E+01
 0.18463298370E+01 0.15460518185E+01 0.13126996401E+01 0.11381084749E+01 0.10147879774E+01
 0.93644841704E+00 0.89849301495E+00 0.92699435773E+00 0.98574670713E+00 0.10780429609E+01
 0.12083325610E+01 0.13817246764E+01 0.16034154087E+01 0.18779933615E+01 0.22084894569E+01
 0.25950308277E+01 0.30331047586E+01 0.35117236839E+01 0.40120910732E+01 0.45075142772E+01
 0.49651321452E+01 0.53495142749E+01 0.56275493947E+01 0.57735726012E+01 0.57735733953E+01
 0.56275539468E+01 0.53495300722E+01 0.49651688395E+01 0.45075722331E+01 0.40121530152E+01
 0.35117631230E+01 0.30331054158E+01 0.25949972977E+01 0.22084408331E+01 0.18779496946E+01
 0.16033885372E+01 0.13817159043E+01 0.12083350725E+01 0.10780473731E+01 0.98574739067E+00
 0.92699196522E+00 0.89849150643E+00 0.92699435773E+00 0.96354379373E+00 0.10267650336E+01
 0.11198541054E+01 0.12467696995E+01 0.14117596677E+01 0.16187765684E+01 0.18707381680E+01
 0.21685635444E+01 0.25099618517E+01 0.28880937261E+01 0.32904274989E+01 0.36982749829E+01
 0.40874917443E+01 0.44305887798E+01 0.47000754570E+01 0.48724158123E+01 0.49317323266E+01
 0.48724199401E+01 0.47000867235E+01 0.44306116543E+01 0.40875260905E+01 0.36983099477E+01
 0.32904452465E+01 0.28880824345E+01 0.25099248234E+01 0.21685158569E+01 0.18706964227E+01
 0.16187513665E+01 0.14117530004E+01 0.12467752812E+01 0.11198610458E+01 0.10267650922E+01
 0.96353698608E+00 0.92698762161E+00 0.91504674777E+00 0.98574670713E+00 0.10267650336E+01
 0.10910466627E+01 0.11815761738E+01 0.13017920417E+01 0.14551204912E+01 0.16443756404E+01
 0.18710043973E+01 0.21341765927E+01 0.24297899510E+01 0.27495689987E+01 0.30805453697E+01
 0.34052500916E+01 0.37028668551E+01 0.39513727242E+01 0.41303871339E+01 0.42241809951E+01
 0.42241813357E+01 0.41303897325E+01 0.39513802794E+01 0.37028787937E+01 0.34052598258E+01
 0.30805431914E+01 0.27495490812E+01 0.24297551584E+01 0.21341369456E+01 0.18709715556E+01
 0.16443579846E+01 0.14551201149E+01 0.13018034877E+01 0.11815886555E+01 0.10910506315E+01
 0.10267586594E+01 0.98573659130E+00 0.96580416535E+00 0.96580891255E+00 0.10780429609E+01
 0.11198541054E+01 0.11815761738E+01 0.12659827910E+01 0.13760421618E+01 0.15144460579E+01
 0.16830072703E+01 0.18819387098E+01 0.21090726630E+01 0.23591393916E+01 0.26232839353E+01
 0.28890309100E+01 0.31408808360E+01 0.33616223848E+01 0.35342777532E+01 0.36443968357E+01
 0.36822473317E+01 0.36443945888E+01 0.35342754080E+01 0.33616200749E+01 0.31408748661E+01
 0.28890173499E+01 0.26232628173E+01 0.23591148017E+01 0.21090501944E+01 0.18819238866E+01
 0.16830046470E+01 0.15144567343E+01 0.13760612184E+01 0.12660006976E+01 0.11815845646E+01
 0.11198510855E+01 0.10780336836E+01 0.10539072257E+01 0.10460338500E+01 0.10539147040E+01
 0.12083325610E+01 0.12467696995E+01 0.13017920417E+01 0.13760421618E+01 0.14721124376E+01
 0.15920721162E+01 0.17368963260E+01 0.19058417395E+01 0.20958556873E+01 0.23011390606E+01
 0.25130003338E+01 0.27201276097E+01 0.29093612373E+01 0.30669699930E+01 0.31803162419E+01
 0.32396497390E+01 0.32396484832E+01 0.31803129481E+01 0.30669645070E+01 0.29093515960E+01
 0.27201131633E+01 0.25129848101E+01 0.23011283333E+01 0.20958532349E+01 0.19058479965E+01
 0.17369109051E+01 0.15920935283E+01 0.14721358274E+01 0.13760602573E+01 0.13017998230E+01
 0.12467675833E+01 0.12083252178E+01 0.11841509788E+01 0.11725235796E+01 0.11725263927E+01
 0.11841580289E+01 0.13817246764E+01 0.14117596677E+01 0.14551204912E+01 0.15144460579E+01
 0.15920721162E+01 0.16895813915E+01 0.18073142321E+01 0.19438953267E+01 0.20958556808E+01
 0.22574379405E+01 0.24206711785E+01 0.25757867611E+01 0.27120146220E+01 0.28187390021E+01
 0.28868918702E+01 0.29103347749E+01 0.28868924071E+01 0.28187378665E+01 0.27120091680E+01
 0.25757773111E+01 0.24206627154E+01 0.22574370778E+01 0.20958656548E+01 0.19439146578E+01
 0.18073390392E+01 0.16896067978E+01 0.15920922263E+01 0.15144559365E+01 0.14551197478E+01
 0.14117527938E+01 0.13817171348E+01 0.13624590243E+01 0.13518513321E+01 0.13484814696E+01
 0.13518538971E+01 0.13624643324E+01 0.16034154087E+01 0.16187765684E+01 0.16443756404E+01
 0.16830072703E+01 0.17368963260E+01 0.18073142321E+01 0.18942186280E+01 0.19959556000E+01
 0.21090726544E+01 0.22282915841E+01 0.23466941605E+01 0.24561751312E+01 0.25481963909E+01
 0.26148121863E+01 0.26498263121E+01 0.26498285820E+01 0.26148163920E+01 0.25481976373E+01
 0.24561717745E+01 0.23466898271E+01 0.22282921113E+01 0.21090817293E+01 0.19959730124E+01
 0.18942406352E+01 0.18073342019E+01 0.17369066456E+01 0.16830037758E+01 0.16443614774E+01
 0.16187604363E+01 0.16034048768E+01 0.15953149774E+01 0.15917330529E+01 0.15905253826E+01
 0.15905247203E+01 0.15917325358E+01 0.15953183644E+01 0.18779933615E+01 0.18707381680E+01
 0.18710043973E+01 0.18819387098E+01 0.19058417395E+01 0.19438953267E+01 0.19959556000E+01
 0.20604188846E+01 0.21341766043E+01 0.22126850029E+01 0.22901956037E+01 0.23602058920E+01
 0.24161623156E+01 0.24523636780E+01 0.24648987834E+01 0.24523699708E+01 0.24161694637E+01
 0.23602086923E+01 0.22901932741E+01 0.22126803931E+01 0.21341735919E+01 0.20604207194E+01
 0.19959626472E+01 0.19439026314E+01 0.19058408041E+01 0.18819243704E+01 0.18709803244E+01
 0.18707146471E+01 0.18779795543E+01 0.18891245644E+01 0.19004465068E+01 0.19087212707E+01
 0.19117396968E+01 0.19087160864E+01 0.19004412255E+01 0.18891264861E+01 0.22084894569E+01
 0.21685635444E+01 0.21341765927E+01 0.21090726630E+01 0.20958556873E+01 0.20958556808E+01
 0.21090726544E+01 0.21341766043E+01 0.21685635886E+01 0.22084895209E+01 0.22493318328E+01
 0.22860387755E+01 0.23137809090E+01 0.23287217998E+01 0.23287263852E+01 0.23137912389E+01
 0.22860472745E+01 0.22493317653E+01 0.22084782480E+01 0.21685438113E+01 0.21341557340E+01
 0.21090580079E+01 0.20958476955E+01 0.20958471499E+01 0.21090566357E+01 0.21341541893E+01
 0.21685428000E+01 0.22084781872E+01 0.22493326339E+01 0.22860487085E+01 0.23137927661E+01
 0.23287276371E+01 0.23287226104E+01 0.23137813017E+01 0.22860388821E+01 0.22493318014E+01
 0.25950308277E+01 0.25099618517E+01 0.24297899510E+01 0.23591393916E+01 0.23011390606E+01
 0.22574379405E+01 0.22282915841E+01 0.22126850029E+01 0.22084895209E+01 0.22126728030E+01