    2    2   15    1
  0.2001288E+02  0.3839590E-09  0.3839590E-09  0.3839590E-09  0.5000000E-15
  1.000000000000000E-004
  CAR 
 unknown system                          
      8      2      8
 
  0.2500000E+00  0.2500000E+00  0.2500000E+00  0.2500000E+00
    1       -5.301563   1.000000
    2        1.935197   1.000000
    3        5.103881   1.000000
    4        5.103881   1.000000
    5        7.892582   0.000000
    6        9.361479   0.000000
    7        9.361479   0.000000
    8       12.792543   0.000000
 
 -0.2500000E+00  0.2500000E+00  0.2500000E+00  0.7500000E+00
    1       -3.380772   1.000000
    2       -0.519620   1.000000
    3        2.323995   1.000000
    4        3.655597   1.000000
    5        7.373528   0.000000
    6       10.305364   0.000000
    7       11.610601   0.000000
    8       11.776185   0.000000
