<?xml version="1.0" encoding="ISO-8859-1"?>
<modeling>
 <generator>
  <i name="program" type="string">vasp </i>
  <i name="version" type="string">5.4.4.18Apr17-6-g9f103f2a35  </i>
  <i name="subversion" type="string">(build Dec 09 2018 21:25:21) complex            parallel </i>
  <i name="platform" type="string">IFC18.0.1.163_CrayMPICH7.7.0_MKL18.0.1.163 </i>
  <i name="date" type="string">2019 03 19 </i>
  <i name="time" type="string">13:42:50 </i>
 </generator>
 <incar>
  <i type="string" name="PREC">normal</i>
  <i type="int" name="IBRION">     2</i>
  <i name="EDIFF">      0.00040000</i>
  <i name="EDIFFG">     -0.01000000</i>
  <i type="int" name="NSW">    15</i>
  <i type="int" name="ISIF">     2</i>
  <i name="ENCUT">    350.00000000</i>
  <i type="int" name="NBANDS">     8</i>
  <i type="logical" name="LREAL"> F  </i>
  <i type="int" name="ISMEAR">     0</i>
  <i name="SIGMA">      0.20000000</i>
  <v type="int" name="KPOINT_BSE">    -1     0     0     0</v>
 </incar>
 <structure name="primitive_cell" >
  <crystal>
   <varray name="basis" >
    <v>       0.00000000       2.71500000       2.71500000 </v>
    <v>       2.71500000       0.00000000       2.71500000 </v>
    <v>       2.71500000       2.71500000       0.00000000 </v>
   </varray>
   <i name="volume">     40.02575175 </i>
   <varray name="rec_basis" >
    <v>      -0.18416206       0.18416206       0.18416206 </v>
    <v>       0.18416206      -0.18416206       0.18416206 </v>
    <v>       0.18416206       0.18416206      -0.18416206 </v>
   </varray>
  </crystal>
  <varray name="positions" >
   <v>      -0.50000000      -0.50000000      -0.50000000 </v>
   <v>      -0.25000000      -0.25000000      -0.25000000 </v>
  </varray>
 </structure>
 <varray name="primitive_index" >
  <v type="int" >        1 </v>
  <v type="int" >        2 </v>
 </varray>
 <kpoints>
  <generation param="Monkhorst-Pack">
   <v type="int" name="divisions">       2        2        2 </v>
   <v name="usershift">      0.00000000       0.00000000       0.00000000 </v>
   <v name="genvec1">      0.50000000       0.00000000      -0.00000000 </v>
   <v name="genvec2">      0.00000000       0.50000000       0.00000000 </v>
   <v name="genvec3">     -0.00000000      -0.00000000       0.50000000 </v>
   <v name="shift">      0.50000000       0.50000000       0.50000000 </v>
  </generation>
  <varray name="kpointlist" >
   <v>       0.25000000       0.25000000       0.25000000 </v>
   <v>      -0.25000000       0.25000000       0.25000000 </v>
  </varray>
  <varray name="weights" >
   <v>       0.25000000 </v>
   <v>       0.75000000 </v>
  </varray>
 </kpoints>
 <parameters>
  <separator name="general" >
   <i type="string" name="SYSTEM">unknown system</i>
   <i type="logical" name="LCOMPAT"> F  </i>
  </separator>
  <separator name="electronic" >
   <i type="string" name="PREC">normal</i>
   <i name="ENMAX">    350.00000000</i>
   <i name="ENAUG">    322.06900000</i>
   <i name="EDIFF">      0.00040000</i>
   <i type="int" name="IALGO">    38</i>
   <i type="int" name="IWAVPR">    11</i>
   <i type="int" name="NBANDS">     8</i>
   <i name="NELECT">      8.00000000</i>
   <i type="int" name="TURBO">     0</i>
   <i type="int" name="IRESTART">     0</i>
   <i type="int" name="NREBOOT">     0</i>
   <i type="int" name="NMIN">     0</i>
   <i name="EREF">      0.00000000</i>
   <separator name="electronic smearing" >
    <i type="int" name="ISMEAR">     0</i>
    <i name="SIGMA">      0.20000000</i>
    <i name="KSPACING">      0.50000000</i>
    <i type="logical" name="KGAMMA"> T  </i>
   </separator>
   <separator name="electronic projectors" >
    <i type="logical" name="LREAL"> F  </i>
    <v name="ROPT">      0.00000000</v>
    <i type="int" name="LMAXPAW">  -100</i>
    <i type="int" name="LMAXMIX">     2</i>
    <i type="logical" name="NLSPLINE"> F  </i>
   </separator>
   <separator name="electronic startup" >
    <i type="int" name="ISTART">     0</i>
    <i type="int" name="ICHARG">     2</i>
    <i type="int" name="INIWAV">     1</i>
   </separator>
   <separator name="electronic spin" >
    <i type="int" name="ISPIN">     1</i>
    <i type="logical" name="LNONCOLLINEAR"> F  </i>
    <v name="MAGMOM">      1.00000000      1.00000000</v>
    <i name="NUPDOWN">     -1.00000000</i>
    <i type="logical" name="LSORBIT"> F  </i>
    <v name="SAXIS">      0.00000000      0.00000000      1.00000000</v>
    <i type="logical" name="LSPIRAL"> F  </i>
    <v name="QSPIRAL">      0.00000000      0.00000000      0.00000000</v>
    <i type="logical" name="LZEROZ"> F  </i>
   </separator>
   <separator name="electronic exchange-correlation" >
    <i type="logical" name="LASPH"> F  </i>
    <i type="logical" name="LMETAGGA"> F  </i>
   </separator>
   <separator name="electronic convergence" >
    <i type="int" name="NELM">    60</i>
    <i type="int" name="NELMDL">    -5</i>
    <i type="int" name="NELMIN">     2</i>
    <i name="ENINI">    350.00000000</i>
    <separator name="electronic convergence detail" >
     <i type="logical" name="LDIAG"> T  </i>
     <i type="logical" name="LSUBROT"> F  </i>
     <i name="WEIMIN">      0.00100000</i>
     <i name="EBREAK">      0.00001250</i>
     <i name="DEPER">      0.30000000</i>
     <i type="int" name="NRMM">     4</i>
     <i name="TIME">      0.40000000</i>
    </separator>
   </separator>
   <separator name="electronic mixer" >
    <i name="AMIX">      0.40000000</i>
    <i name="BMIX">      1.00000000</i>
    <i name="AMIN">      0.10000000</i>
    <i name="AMIX_MAG">      1.60000000</i>
    <i name="BMIX_MAG">      1.00000000</i>
    <separator name="electronic mixer details" >
     <i type="int" name="IMIX">     4</i>
     <i type="logical" name="MIXFIRST"> F  </i>
     <i type="int" name="MAXMIX">   -45</i>
     <i name="WC">    100.00000000</i>
     <i type="int" name="INIMIX">     1</i>
     <i type="int" name="MIXPRE">     1</i>
     <i type="int" name="MREMOVE">     5</i>
    </separator>
   </separator>
   <separator name="electronic dipolcorrection" >
    <i type="logical" name="LDIPOL"> F  </i>
    <i type="logical" name="LMONO"> F  </i>
    <i type="int" name="IDIPOL">     0</i>
    <i name="EPSILON">      1.00000000</i>
    <v name="DIPOL">   -100.00000000   -100.00000000   -100.00000000</v>
    <i name="EFIELD">      0.00000000</i>
   </separator>
  </separator>
  <separator name="grids" >
   <i type="int" name="NGX">    18</i>
   <i type="int" name="NGY">    18</i>
   <i type="int" name="NGZ">    18</i>
   <i type="int" name="NGXF">    36</i>
   <i type="int" name="NGYF">    36</i>
   <i type="int" name="NGZF">    36</i>
   <i type="logical" name="ADDGRID"> F  </i>
  </separator>
  <separator name="ionic" >
   <i type="int" name="NSW">    15</i>
   <i type="int" name="IBRION">     2</i>
   <i type="int" name="MDALGO">     0</i>
   <i type="int" name="ISIF">     2</i>
   <i name="PSTRESS">      0.00000000</i>
   <i name="EDIFFG">     -0.01000000</i>
   <i type="int" name="NFREE">     1</i>
   <i name="POTIM">      0.50000000</i>
   <i name="SMASS">     -3.00000000</i>
   <i name="SCALEE">      1.00000000</i>
  </separator>
  <separator name="ionic md" >
   <i name="TEBEG">      0.00010000</i>
   <i name="TEEND">      0.00010000</i>
   <i type="int" name="NBLOCK">     1</i>
   <i type="int" name="KBLOCK">    15</i>
   <i type="int" name="NPACO">   256</i>
   <i name="APACO">     16.00000000</i>
  </separator>
  <separator name="symmetry" >
   <i type="int" name="ISYM">     2</i>
   <i name="SYMPREC">      0.00001000</i>
  </separator>
  <separator name="dos" >
   <i type="int" name="LORBIT">     0</i>
   <v name="RWIGS">     -1.00000000</v>
   <i type="int" name="NEDOS">   301</i>
   <i name="EMIN">     10.00000000</i>
   <i name="EMAX">    -10.00000000</i>
   <i name="EFERMI">      0.00000000</i>
  </separator>
  <separator name="writing" >
   <i type="int" name="NWRITE">     2</i>
   <i type="logical" name="LWAVE"> T  </i>
   <i type="logical" name="LDOWNSAMPLE"> F  </i>
   <i type="logical" name="LCHARG"> T  </i>
   <i type="logical" name="LPARD"> F  </i>
   <i type="logical" name="LVTOT"> F  </i>
   <i type="logical" name="LVHAR"> F  </i>
   <i type="logical" name="LELF"> F  </i>
   <i type="logical" name="LOPTICS"> F  </i>
   <v name="STM">      0.00000000      0.00000000      0.00000000      0.00000000      0.00000000      0.00000000      0.00000000</v>
  </separator>
  <separator name="performance" >
   <i type="int" name="NPAR">     8</i>
   <i type="int" name="NSIM">     4</i>
   <i type="int" name="NBLK">    -1</i>
   <i type="logical" name="LPLANE"> T  </i>
   <i type="logical" name="LSCALAPACK"> T  </i>
   <i type="logical" name="LSCAAWARE"> F  </i>
   <i type="logical" name="LSCALU"> F  </i>
   <i type="logical" name="LASYNC"> F  </i>
   <i type="logical" name="LORBITALREAL"> F  </i>
  </separator>
  <separator name="miscellaneous" >
   <i type="int" name="IDIOT">     3</i>
   <i type="int" name="ISPECIAL">     0</i>
   <i type="logical" name="LMUSIC"> F  </i>
   <v name="POMASS">     28.08500000</v>
   <v name="DARWINR">      0.00000000</v>
   <v name="DARWINV">      1.00000000</v>
   <i type="logical" name="LCORR"> T  </i>
  </separator>
  <i type="logical" name="GGA_COMPAT"> T  </i>
  <i type="logical" name="LBERRY"> F  </i>
  <i type="int" name="ICORELEVEL">     0</i>
  <i type="logical" name="LDAU"> F  </i>
  <i type="int" name="I_CONSTRAINED_M">     0</i>
  <separator name="electronic exchange-correlation" >
   <i type="string" name="GGA">--</i>
   <i type="int" name="VOSKOWN">     0</i>
   <i type="logical" name="LHFCALC"> F  </i>
   <i type="string" name="PRECFOCK"></i>
   <i type="logical" name="LSYMGRAD"> F  </i>
   <i type="logical" name="LHFONE"> F  </i>
   <i type="logical" name="LRHFCALC"> F  </i>
   <i type="logical" name="LTHOMAS"> F  </i>
   <i type="logical" name="LMODELHF"> F  </i>
   <i name="ENCUT4O">     -1.00000000</i>
   <i type="int" name="EXXOEP">     0</i>
   <i type="int" name="FOURORBIT">     0</i>
   <i name="AEXX">      0.00000000</i>
   <i name="HFALPHA">      0.00000000</i>
   <i name="MCALPHA">      0.00000000</i>
   <i name="ALDAX">      1.00000000</i>
   <i name="AGGAX">      1.00000000</i>
   <i name="ALDAC">      1.00000000</i>
   <i name="AGGAC">      1.00000000</i>
   <i type="int" name="NKREDX">     1</i>
   <i type="int" name="NKREDY">     1</i>
   <i type="int" name="NKREDZ">     1</i>
   <i type="logical" name="SHIFTRED"> F  </i>
   <i type="logical" name="ODDONLY"> F  </i>
   <i type="logical" name="EVENONLY"> F  </i>
   <i type="int" name="LMAXFOCK">     0</i>
   <i type="int" name="NMAXFOCKAE">     0</i>
   <i type="logical" name="LFOCKAEDFT"> F  </i>
   <i name="HFSCREEN">      0.00000000</i>
   <i name="HFSCREENC">      0.00000000</i>
   <i type="int" name="NBANDSGWLOW">     0</i>
  </separator>
  <separator name="vdW DFT" >
   <i type="logical" name="LUSE_VDW"> F  </i>
   <i name="Zab_VDW">     -0.84910000</i>
   <i name="PARAM1">      0.12340000</i>
   <i name="PARAM2">      1.00000000</i>
   <i name="PARAM3">      0.00000000</i>
  </separator>
  <separator name="model GW" >
   <i type="int" name="MODEL_GW">     0</i>
   <i name="MODEL_EPS0">     12.00772552</i>
   <i name="MODEL_ALPHA">      1.00000000</i>
  </separator>
  <separator name="linear response parameters" >
   <i type="logical" name="LEPSILON"> F  </i>
   <i type="logical" name="LRPA"> F  </i>
   <i type="logical" name="LNABLA"> F  </i>
   <i type="logical" name="LVEL"> F  </i>
   <i type="int" name="KINTER">     0</i>
   <i name="CSHIFT">      0.10000000</i>
   <i name="OMEGAMAX">     -1.00000000</i>
   <i name="DEG_THRESHOLD">      0.00200000</i>
   <i name="RTIME">     -0.10000000</i>
   <i name="WPLASMAI">      0.00000000</i>
   <v name="DFIELD">      0.00000000      0.00000000      0.00000000</v>
   <v name="WPLASMA">      0.00000000      0.00000000      0.00000000      0.00000000      0.00000000      0.00000000      0.00000000      0.00000000      0.00000000</v>
  </separator>
  <separator name="orbital magnetization" >
   <i type="logical" name="NUCIND"> F  </i>
   <v name="MAGPOS">      0.00000000      0.00000000      0.00000000</v>
   <i type="logical" name="LNICSALL"> T  </i>
   <i type="logical" name="ORBITALMAG"> F  </i>
   <i type="logical" name="LMAGBLOCH"> F  </i>
   <i type="logical" name="LCHIMAG"> F  </i>
   <i type="logical" name="LGAUGE"> T  </i>
   <i type="int" name="MAGATOM">     0</i>
   <v name="MAGDIPOL">      0.00000000      0.00000000      0.00000000</v>
   <v name="AVECCONST">      0.00000000      0.00000000      0.00000000</v>
  </separator>
  <separator name="response functions" >
   <i type="logical" name="LADDER"> F  </i>
   <i type="logical" name="LRPAFORCE"> F  </i>
   <i type="logical" name="LFXC"> F  </i>
   <i type="logical" name="LHARTREE"> T  </i>
   <i type="int" name="IBSE">     0</i>
   <v type="int" name="KPOINT">    -1     0     0     0</v>
   <i type="logical" name="LTCTE"> F  </i>
   <i type="logical" name="LTETE"> F  </i>
   <i type="logical" name="LTRIPLET"> F  </i>
   <i type="logical" name="LFXCEPS"> F  </i>
   <i type="logical" name="LFXHEG"> F  </i>
   <i type="int" name="NATURALO">     2</i>
   <i type="logical" name="L2ORDER"> F  </i>
   <i type="logical" name="LMP2LT"> F  </i>
   <i type="logical" name="LUSEW"> F  </i>
   <i name="ENCUTGW">     -2.00000000</i>
   <i name="ENCUTGWSOFT">     -2.00000000</i>
   <i name="ENCUTLF">     -1.00000000</i>
   <i type="int" name="LMAXMP2">    -1</i>
   <i name="SCISSOR">      0.00000000</i>
   <i type="int" name="NOMEGA">     0</i>
   <i type="int" name="NOMEGAR">     0</i>
   <i type="int" name="NBANDSGW">    -1</i>
   <i type="int" name="NBANDSO">    -1</i>
   <i type="int" name="NBANDSV">    -1</i>
   <i type="int" name="NELM">     1</i>
   <i type="int" name="NELMHF">     1</i>
   <i type="int" name="DIM">     3</i>
   <i type="int" name="ANTIRES">     0</i>
   <i name="OMEGAMAX">    -30.00000000</i>
   <i name="OMEGAMIN">    -30.00000000</i>
   <i name="OMEGATL">   -200.00000000</i>
   <i type="int" name="OMEGAGRID">   140</i>
   <i name="CSHIFT">     -0.10000000</i>
   <i type="logical" name="SELFENERGY"> F  </i>
   <i type="logical" name="LSPECTRAL"> F  </i>
   <i type="logical" name="LSPECTRALGW"> F  </i>
   <i type="logical" name="LSINGLES"> F  </i>
   <i type="logical" name="LFERMIGW"> F  </i>
   <i type="logical" name="ODDONLYGW"> F  </i>
   <i type="logical" name="EVENONLYGW"> F  </i>
   <i type="int" name="NKREDLFX">     1</i>
   <i type="int" name="NKREDLFY">     1</i>
   <i type="int" name="NKREDLFZ">     1</i>
   <i type="int" name="MAXMEM">  2800</i>
   <i type="int" name="TELESCOPE">     0</i>
   <i type="int" name="TAUPAR">     1</i>
   <i type="int" name="OMEGAPAR">    -1</i>
   <i name="LAMBDA">      1.00000000</i>
  </separator>
  <separator name="External order field" >
   <i name="OFIELD_KAPPA">      0.00000000</i>
   <v name="OFIELD_K">      0.00000000      0.00000000      0.00000000</v>
   <i name="OFIELD_Q6_NEAR">      0.00000000</i>
   <i name="OFIELD_Q6_FAR">      0.00000000</i>
   <i name="OFIELD_A">      0.00000000</i>
  </separator>
 </parameters>
 <atominfo>
  <atoms>       2 </atoms>
  <types>       1 </types>
  <array name="atoms" >
   <dimension dim="1">ion</dimension>
   <field type="string">element</field>
   <field type="int">atomtype</field>
   <set>
    <rc><c>Si</c><c>   1</c></rc>
    <rc><c>Si</c><c>   1</c></rc>
   </set>
  </array>
  <array name="atomtypes" >
   <dimension dim="1">type</dimension>
   <field type="int">atomspertype</field>
   <field type="string">element</field>
   <field>mass</field>
   <field>valence</field>
   <field type="string">pseudopotential</field>
   <set>
    <rc><c>   2</c><c>Si</c><c>     28.08500000</c><c>      4.00000000</c><c> PAW_PBE Si 05Jan2001                   </c></rc>
   </set>
  </array>
 </atominfo>
 <structure name="initialpos" >
  <crystal>
   <varray name="basis" >
    <v>       0.00000000       2.71500000       2.71500000 </v>
    <v>       2.71500000       0.00000000       2.71500000 </v>
    <v>       2.71500000       2.71500000       0.00000000 </v>
   </varray>
   <i name="volume">     40.02575175 </i>
   <varray name="rec_basis" >
    <v>      -0.18416206       0.18416206       0.18416206 </v>
    <v>       0.18416206      -0.18416206       0.18416206 </v>
    <v>       0.18416206       0.18416206      -0.18416206 </v>
   </varray>
  </crystal>
  <varray name="positions" >
   <v>       0.50000000       0.50000000       0.50000000 </v>
   <v>       0.75000000       0.75000000       0.75000000 </v>
  </varray>
 </structure>
 <calculation>
  <scstep>
   <time name="dav">    0.02    0.03</time>
   <time name="total">    0.06    0.07</time>
   <energy>
    <i name="alphaZ">      3.36414203 </i>
    <i name="ewald">   -228.56352493 </i>
    <i name="hartreedc">    -11.00108243 </i>
    <i name="XCdc">    -18.60185131 </i>
    <i name="pawpsdc">     65.95520812 </i>
    <i name="pawaedc">    -30.76852678 </i>
    <i name="eentropy">     -0.04579866 </i>
    <i name="bandstr">     21.59254324 </i>
    <i name="atom">    206.13125414 </i>
    <i name="e_fr_energy">      8.06236341 </i>
    <i name="e_wo_entrp">      8.10816208 </i>
    <i name="e_0_energy">      8.08526274 </i>
   </energy>
  </scstep>
  <scstep>
   <time name="dav">    0.04    0.05</time>
   <time name="total">    0.04    0.05</time>
   <energy>
    <i name="e_fr_energy">    -10.70730170 </i>
    <i name="e_wo_entrp">    -10.70730170 </i>
    <i name="e_0_energy">    -10.70730170 </i>
   </energy>
  </scstep>
  <scstep>
   <time name="dav">    0.02    0.03</time>
   <time name="total">    0.02    0.03</time>
   <energy>
    <i name="e_fr_energy">    -10.87746179 </i>
    <i name="e_wo_entrp">    -10.87746179 </i>
    <i name="e_0_energy">    -10.87746179 </i>
   </energy>
  </scstep>
  <scstep>
   <time name="dav">    0.04    0.04</time>
   <time name="total">    0.04    0.05</time>
   <energy>
    <i name="e_fr_energy">    -10.87847590 </i>
    <i name="e_wo_entrp">    -10.87847590 </i>
    <i name="e_0_energy">    -10.87847590 </i>
   </energy>
  </scstep>
  <scstep>
   <time name="dav">    0.02    0.03</time>
   <time name="total">    0.04    0.04</time>
   <energy>
    <i name="e_fr_energy">    -10.87847635 </i>
    <i name="e_wo_entrp">    -10.87847635 </i>
    <i name="e_0_energy">    -10.87847635 </i>
   </energy>
  </scstep>
  <scstep>
   <time name="dav">    0.02    0.02</time>
   <time name="total">    0.06    0.07</time>
   <energy>
    <i name="e_fr_energy">    -10.74031823 </i>
    <i name="e_wo_entrp">    -10.74031823 </i>
    <i name="e_0_energy">    -10.74031823 </i>
   </energy>
  </scstep>
  <scstep>
   <time name="dav">    0.02    0.02</time>
   <time name="total">    0.06    0.08</time>
   <energy>
    <i name="e_fr_energy">    -10.67797811 </i>
    <i name="e_wo_entrp">    -10.67797811 </i>
    <i name="e_0_energy">    -10.67797811 </i>
   </energy>
  </scstep>
  <scstep>
   <time name="dav">    0.02    0.02</time>
   <time name="total">    0.06    0.08</time>
   <energy>
    <i name="e_fr_energy">    -10.67983655 </i>
    <i name="e_wo_entrp">    -10.67983655 </i>
    <i name="e_0_energy">    -10.67983655 </i>
   </energy>
  </scstep>
  <scstep>
   <time name="dav">    0.03    0.03</time>
   <time name="total">    0.06    0.06</time>
   <energy>
    <i name="alphaZ">      3.36414203 </i>
    <i name="ewald">   -228.56352493 </i>
    <i name="hartreedc">    -15.17987072 </i>
    <i name="XCdc">    -17.92660144 </i>
    <i name="pawpsdc">     74.51582795 </i>
    <i name="pawaedc">    -39.56068641 </i>
    <i name="eentropy">     -0.00000000 </i>
    <i name="bandstr">      6.53949647 </i>
    <i name="atom">    206.13125414 </i>
    <i name="e_fr_energy">    -10.67996291 </i>
    <i name="e_wo_entrp">    -10.67996291 </i>
    <i name="e_0_energy">    -10.67996291 </i>
   </energy>
  </scstep>
  <structure>
   <crystal>
    <varray name="basis" >
     <v>       0.00000000       2.71500000       2.71500000 </v>
     <v>       2.71500000       0.00000000       2.71500000 </v>
     <v>       2.71500000       2.71500000       0.00000000 </v>
    </varray>
    <i name="volume">     40.02575175 </i>
    <varray name="rec_basis" >
     <v>      -0.18416206       0.18416206       0.18416206 </v>
     <v>       0.18416206      -0.18416206       0.18416206 </v>
     <v>       0.18416206       0.18416206      -0.18416206 </v>
    </varray>
   </crystal>
   <varray name="positions" >
    <v>       0.50000000       0.50000000       0.50000000 </v>
    <v>       0.75000000       0.75000000       0.75000000 </v>
   </varray>
  </structure>
  <varray name="forces" >
   <v>      -0.00000000      -0.00000000      -0.00000000 </v>
   <v>       0.00000000       0.00000000       0.00000000 </v>
  </varray>
  <varray name="stress" >
   <v>      23.68071974       0.00000000      -0.00000000 </v>
   <v>      -0.00000000      23.68071974      -0.00000000 </v>
   <v>       0.00000000      -0.00000000      23.68071974 </v>
  </varray>
  <energy>
   <i name="e_fr_energy">    -10.67996291 </i>
   <i name="e_wo_entrp">    -10.67996291 </i>
   <i name="e_0_energy">     -0.00000000 </i>
  </energy>
  <time name="totalsc">    1.23    2.41</time>
  <eigenvalues>
   <array>
    <dimension dim="1">band</dimension>
    <dimension dim="2">kpoint</dimension>
    <dimension dim="3">spin</dimension>
    <field>eigene</field>
    <field>occ</field>
    <set>
     <set comment="spin 1">
      <set comment="kpoint 1">
       <r>   -5.3016    1.0000 </r>
       <r>    1.9352    1.0000 </r>
       <r>    5.1039    1.0000 </r>
       <r>    5.1039    1.0000 </r>
       <r>    7.8926    0.0000 </r>
       <r>    9.3615    0.0000 </r>
       <r>    9.3615    0.0000 </r>
       <r>   12.7925    0.0000 </r>
      </set>
      <set comment="kpoint 2">
       <r>   -3.3808    1.0000 </r>
       <r>   -0.5196    1.0000 </r>
       <r>    2.3240    1.0000 </r>
       <r>    3.6556    1.0000 </r>
       <r>    7.3735    0.0000 </r>
       <r>   10.3054    0.0000 </r>
       <r>   11.6106    0.0000 </r>
       <r>   11.7762    0.0000 </r>
      </set>
     </set>
    </set>
   </array>
  </eigenvalues>
  <separator name="orbital magnetization" >
   <v name="MAGDIPOLOUT">      0.00000000      0.00000000      0.00000000</v>
  </separator>
  <dos>
   <i name="efermi">      6.02861940 </i>
   <total>
    <array>
     <dimension dim="1">gridpoints</dimension>
     <dimension dim="2">spin</dimension>
     <field>energy</field>
     <field>total</field>
     <field>integrated</field>
     <set>
      <set comment="spin 1">
       <r>    -7.3016     0.0000     0.0000 </r>
       <r>    -7.2279     0.0000     0.0000 </r>
       <r>    -7.1543     0.0000     0.0000 </r>
       <r>    -7.0806     0.0000     0.0000 </r>
       <r>    -7.0070     0.0000     0.0000 </r>
       <r>    -6.9333     0.0000     0.0000 </r>
       <r>    -6.8597     0.0000     0.0000 </r>
       <r>    -6.7860     0.0000     0.0000 </r>
       <r>    -6.7124     0.0000     0.0000 </r>
       <r>    -6.6387     0.0000     0.0000 </r>
       <r>    -6.5651     0.0000     0.0000 </r>
       <r>    -6.4914     0.0000     0.0000 </r>
       <r>    -6.4178     0.0000     0.0000 </r>
       <r>    -6.3442     0.0000     0.0000 </r>
       <r>    -6.2705     0.0000     0.0000 </r>
       <r>    -6.1969     0.0000     0.0000 </r>
       <r>    -6.1232     0.0000     0.0000 </r>
       <r>    -6.0496     0.0000     0.0000 </r>
       <r>    -5.9759     0.0000     0.0000 </r>
       <r>    -5.9023     0.0001     0.0000 </r>
       <r>    -5.8286     0.0006     0.0000 </r>
       <r>    -5.7550     0.0039     0.0003 </r>
       <r>    -5.6813     0.0200     0.0018 </r>
       <r>    -5.6077     0.0787     0.0076 </r>
       <r>    -5.5340     0.2369     0.0251 </r>
       <r>    -5.4604     0.5472     0.0654 </r>
       <r>    -5.3867     0.9694     0.1367 </r>
       <r>    -5.3131     1.3172     0.2338 </r>
       <r>    -5.2394     1.3731     0.3349 </r>
       <r>    -5.1658     1.0979     0.4157 </r>
       <r>    -5.0922     0.6734     0.4653 </r>
       <r>    -5.0185     0.3168     0.4887 </r>
       <r>    -4.9449     0.1143     0.4971 </r>
       <r>    -4.8712     0.0316     0.4994 </r>
       <r>    -4.7976     0.0067     0.4999 </r>
       <r>    -4.7239     0.0011     0.5000 </r>
       <r>    -4.6503     0.0001     0.5000 </r>
       <r>    -4.5766     0.0000     0.5000 </r>
       <r>    -4.5030     0.0000     0.5000 </r>
       <r>    -4.4293     0.0000     0.5000 </r>
       <r>    -4.3557     0.0000     0.5000 </r>
       <r>    -4.2820     0.0000     0.5000 </r>
       <r>    -4.2084     0.0000     0.5000 </r>
       <r>    -4.1347     0.0000     0.5000 </r>
       <r>    -4.0611     0.0000     0.5000 </r>
       <r>    -3.9874     0.0002     0.5000 </r>
       <r>    -3.9138     0.0015     0.5001 </r>
       <r>    -3.8402     0.0102     0.5009 </r>
       <r>    -3.7665     0.0532     0.5048 </r>
       <r>    -3.6929     0.2133     0.5205 </r>
       <r>    -3.6192     0.6565     0.5688 </r>
       <r>    -3.5456     1.5492     0.6829 </r>
       <r>    -3.4719     2.8040     0.8894 </r>
       <r>    -3.3983     3.8929     1.1761 </r>
       <r>    -3.3246     4.1461     1.4815 </r>
       <r>    -3.2510     3.3873     1.7310 </r>
       <r>    -3.1773     2.1228     1.8873 </r>
       <r>    -3.1037     1.0204     1.9624 </r>
       <r>    -3.0300     0.3762     1.9901 </r>
       <r>    -2.9564     0.1063     1.9980 </r>
       <r>    -2.8827     0.0230     1.9997 </r>
       <r>    -2.8091     0.0038     2.0000 </r>
       <r>    -2.7354     0.0005     2.0000 </r>
       <r>    -2.6618     0.0000     2.0000 </r>
       <r>    -2.5882     0.0000     2.0000 </r>
       <r>    -2.5145     0.0000     2.0000 </r>
       <r>    -2.4409     0.0000     2.0000 </r>
       <r>    -2.3672     0.0000     2.0000 </r>
       <r>    -2.2936     0.0000     2.0000 </r>
       <r>    -2.2199     0.0000     2.0000 </r>
       <r>    -2.1463     0.0000     2.0000 </r>
       <r>    -2.0726     0.0000     2.0000 </r>
       <r>    -1.9990     0.0000     2.0000 </r>
       <r>    -1.9253     0.0000     2.0000 </r>
       <r>    -1.8517     0.0000     2.0000 </r>
       <r>    -1.7780     0.0000     2.0000 </r>
       <r>    -1.7044     0.0000     2.0000 </r>
       <r>    -1.6307     0.0000     2.0000 </r>
       <r>    -1.5571     0.0000     2.0000 </r>
       <r>    -1.4834     0.0000     2.0000 </r>
       <r>    -1.4098     0.0000     2.0000 </r>
       <r>    -1.3362     0.0000     2.0000 </r>
       <r>    -1.2625     0.0000     2.0000 </r>
       <r>    -1.1889     0.0000     2.0000 </r>
       <r>    -1.1152     0.0002     2.0000 </r>
       <r>    -1.0416     0.0020     2.0002 </r>
       <r>    -0.9679     0.0132     2.0011 </r>
       <r>    -0.8943     0.0666     2.0061 </r>
       <r>    -0.8206     0.2570     2.0250 </r>
       <r>    -0.7470     0.7598     2.0809 </r>
       <r>    -0.6733     1.7228     2.2078 </r>
       <r>    -0.5997     2.9963     2.4285 </r>
       <r>    -0.5260     3.9972     2.7229 </r>
       <r>    -0.4524     4.0906     3.0241 </r>
       <r>    -0.3787     3.2113     3.2606 </r>
       <r>    -0.3051     1.9338     3.4030 </r>
       <r>    -0.2314     0.8932     3.4688 </r>
       <r>    -0.1578     0.3164     3.4921 </r>
       <r>    -0.0842     0.0859     3.4984 </r>
       <r>    -0.0105     0.0179     3.4998 </r>
       <r>     0.0631     0.0029     3.5000 </r>
       <r>     0.1368     0.0003     3.5000 </r>
       <r>     0.2104     0.0000     3.5000 </r>
       <r>     0.2841     0.0000     3.5000 </r>
       <r>     0.3577     0.0000     3.5000 </r>
       <r>     0.4314     0.0000     3.5000 </r>
       <r>     0.5050     0.0000     3.5000 </r>
       <r>     0.5787     0.0000     3.5000 </r>
       <r>     0.6523     0.0000     3.5000 </r>
       <r>     0.7260     0.0000     3.5000 </r>
       <r>     0.7996     0.0000     3.5000 </r>
       <r>     0.8733     0.0000     3.5000 </r>
       <r>     0.9469     0.0000     3.5000 </r>
       <r>     1.0206     0.0000     3.5000 </r>
       <r>     1.0942     0.0000     3.5000 </r>
       <r>     1.1678     0.0000     3.5000 </r>
       <r>     1.2415     0.0000     3.5000 </r>
       <r>     1.3151     0.0000     3.5000 </r>
       <r>     1.3888     0.0003     3.5000 </r>
       <r>     1.4624     0.0024     3.5002 </r>
       <r>     1.5361     0.0134     3.5012 </r>
       <r>     1.6097     0.0563     3.5053 </r>
       <r>     1.6834     0.1820     3.5187 </r>
       <r>     1.7570     0.4512     3.5520 </r>
       <r>     1.8307     0.8602     3.6153 </r>
       <r>     1.9043     1.2725     3.7090 </r>
       <r>     1.9780     1.5097     3.8202 </r>
       <r>     2.0516     1.5988     3.9380 </r>
       <r>     2.1253     1.8635     4.0752 </r>
       <r>     2.1989     2.6008     4.2667 </r>
       <r>     2.2725     3.6119     4.5328 </r>
       <r>     2.3462     4.2078     4.8426 </r>
       <r>     2.4198     3.8529     5.1264 </r>
       <r>     2.4935     2.7230     5.3269 </r>
       <r>     2.5671     1.4784     5.4358 </r>
       <r>     2.6408     0.6159     5.4812 </r>
       <r>     2.7144     0.1968     5.4957 </r>
       <r>     2.7881     0.0482     5.4992 </r>
       <r>     2.8617     0.0091     5.4999 </r>
       <r>     2.9354     0.0013     5.5000 </r>
       <r>     3.0090     0.0002     5.5000 </r>
       <r>     3.0827     0.0005     5.5000 </r>
       <r>     3.1563     0.0037     5.5003 </r>
       <r>     3.2300     0.0224     5.5020 </r>
       <r>     3.3036     0.1038     5.5096 </r>
       <r>     3.3773     0.3690     5.5368 </r>
       <r>     3.4509     1.0055     5.6108 </r>
       <r>     3.5245     2.1012     5.7656 </r>
       <r>     3.5982     3.3679     6.0136 </r>
       <r>     3.6718     4.1410     6.3186 </r>
       <r>     3.7455     3.9058     6.6062 </r>
       <r>     3.8191     2.8259     6.8144 </r>
       <r>     3.8928     1.5684     6.9299 </r>
       <r>     3.9664     0.6676     6.9790 </r>
       <r>     4.0401     0.2179     6.9951 </r>
       <r>     4.1137     0.0545     6.9991 </r>
       <r>     4.1874     0.0105     6.9999 </r>
       <r>     4.2610     0.0015     7.0000 </r>
       <r>     4.3347     0.0002     7.0000 </r>
       <r>     4.4083     0.0000     7.0000 </r>
       <r>     4.4820     0.0001     7.0000 </r>
       <r>     4.5556     0.0006     7.0001 </r>
       <r>     4.6293     0.0046     7.0004 </r>
       <r>     4.7029     0.0257     7.0023 </r>
       <r>     4.7765     0.1090     7.0103 </r>
       <r>     4.8502     0.3544     7.0364 </r>
       <r>     4.9238     0.8836     7.1015 </r>
       <r>     4.9975     1.6896     7.2259 </r>
       <r>     5.0711     2.4782     7.4084 </r>
       <r>     5.1448     2.7883     7.6138 </r>
       <r>     5.2184     2.4065     7.7910 </r>
       <r>     5.2921     1.5932     7.9084 </r>
       <r>     5.3657     0.8091     7.9680 </r>
       <r>     5.4394     0.3151     7.9912 </r>
       <r>     5.5130     0.0941     7.9981 </r>
       <r>     5.5867     0.0216     7.9997 </r>
       <r>     5.6603     0.0038     8.0000 </r>
       <r>     5.7340     0.0005     8.0000 </r>
       <r>     5.8076     0.0001     8.0000 </r>
       <r>     5.8813     0.0000     8.0000 </r>
       <r>     5.9549     0.0000     8.0000 </r>
       <r>     6.0285     0.0000     8.0000 </r>
       <r>     6.1022     0.0000     8.0000 </r>
       <r>     6.1758     0.0000     8.0000 </r>
       <r>     6.2495     0.0000     8.0000 </r>
       <r>     6.3231     0.0000     8.0000 </r>
       <r>     6.3968     0.0000     8.0000 </r>
       <r>     6.4704     0.0000     8.0000 </r>
       <r>     6.5441     0.0000     8.0000 </r>
       <r>     6.6177     0.0000     8.0000 </r>
       <r>     6.6914     0.0000     8.0000 </r>
       <r>     6.7650     0.0002     8.0000 </r>
       <r>     6.8387     0.0014     8.0001 </r>
       <r>     6.9123     0.0097     8.0008 </r>
       <r>     6.9860     0.0512     8.0046 </r>
       <r>     7.0596     0.2067     8.0198 </r>
       <r>     7.1333     0.6404     8.0670 </r>
       <r>     7.2069     1.5213     8.1790 </r>
       <r>     7.2805     2.7718     8.3832 </r>
       <r>     7.3542     3.8741     8.6685 </r>
       <r>     7.4278     4.1559     8.9745 </r>
       <r>     7.5015     3.4312     9.2272 </r>
       <r>     7.5751     2.2194     9.3907 </r>
       <r>     7.6488     1.2460     9.4825 </r>
       <r>     7.7224     0.8764     9.5470 </r>
       <r>     7.7961     1.0133     9.6216 </r>
       <r>     7.8697     1.3024     9.7176 </r>
       <r>     7.9434     1.3921     9.8201 </r>
       <r>     8.0170     1.1566     9.9053 </r>
       <r>     8.0907     0.7387     9.9597 </r>
       <r>     8.1643     0.3620     9.9863 </r>
       <r>     8.2380     0.1361     9.9964 </r>
       <r>     8.3116     0.0392     9.9992 </r>
       <r>     8.3853     0.0087     9.9999 </r>
       <r>     8.4589     0.0015    10.0000 </r>
       <r>     8.5325     0.0002    10.0000 </r>
       <r>     8.6062     0.0000    10.0000 </r>
       <r>     8.6798     0.0000    10.0000 </r>
       <r>     8.7535     0.0001    10.0000 </r>
       <r>     8.8271     0.0010    10.0001 </r>
       <r>     8.9008     0.0066    10.0006 </r>
       <r>     8.9744     0.0345    10.0031 </r>
       <r>     9.0481     0.1391    10.0133 </r>
       <r>     9.1217     0.4299    10.0450 </r>
       <r>     9.1954     1.0194    10.1201 </r>
       <r>     9.2690     1.8539    10.2566 </r>
       <r>     9.3427     2.5861    10.4471 </r>
       <r>     9.4163     2.7674    10.6509 </r>
       <r>     9.4900     2.2717    10.8182 </r>
       <r>     9.5636     1.4304    10.9235 </r>
       <r>     9.6373     0.6909    10.9744 </r>
       <r>     9.7109     0.2561    10.9933 </r>
       <r>     9.7845     0.0748    10.9988 </r>
       <r>     9.8582     0.0294    11.0010 </r>
       <r>     9.9318     0.0708    11.0062 </r>
       <r>    10.0055     0.2621    11.0255 </r>
       <r>    10.0791     0.7709    11.0822 </r>
       <r>    10.1528     1.7409    11.2105 </r>
       <r>    10.2264     3.0155    11.4325 </r>
       <r>    10.3001     4.0066    11.7276 </r>
       <r>    10.3737     4.0836    12.0284 </r>
       <r>    10.4474     3.1928    12.2635 </r>
       <r>    10.5210     1.9149    12.4045 </r>
       <r>    10.5947     0.8809    12.4694 </r>
       <r>    10.6683     0.3108    12.4923 </r>
       <r>    10.7420     0.0841    12.4985 </r>
       <r>    10.8156     0.0174    12.4998 </r>
       <r>    10.8893     0.0028    12.5000 </r>
       <r>    10.9629     0.0004    12.5000 </r>
       <r>    11.0365     0.0005    12.5000 </r>
       <r>    11.1102     0.0036    12.5003 </r>
       <r>    11.1838     0.0221    12.5019 </r>
       <r>    11.2575     0.1038    12.5096 </r>
       <r>    11.3311     0.3770    12.5373 </r>
       <r>    11.4048     1.0633    12.6156 </r>
       <r>    11.4784     2.3528    12.7889 </r>
       <r>    11.5521     4.1425    13.0940 </r>
       <r>    11.6257     5.9114    13.5294 </r>
       <r>    11.6994     6.9686    14.0426 </r>
       <r>    11.7730     6.8693    14.5485 </r>
       <r>    11.8467     5.6556    14.9650 </r>
       <r>    11.9203     3.8356    15.2475 </r>
       <r>    11.9940     2.1016    15.4023 </r>
       <r>    12.0676     0.9138    15.4696 </r>
       <r>    12.1412     0.3112    15.4925 </r>
       <r>    12.2149     0.0824    15.4986 </r>
       <r>    12.2885     0.0179    15.4999 </r>
       <r>    12.3622     0.0093    15.5006 </r>
       <r>    12.4358     0.0319    15.5029 </r>
       <r>    12.5095     0.1143    15.5113 </r>
       <r>    12.5831     0.3168    15.5347 </r>
       <r>    12.6568     0.6734    15.5843 </r>
       <r>    12.7304     1.0979    15.6651 </r>
       <r>    12.8041     1.3731    15.7662 </r>
       <r>    12.8777     1.3172    15.8633 </r>
       <r>    12.9514     0.9694    15.9346 </r>
       <r>    13.0250     0.5472    15.9749 </r>
       <r>    13.0987     0.2369    15.9924 </r>
       <r>    13.1723     0.0787    15.9982 </r>
       <r>    13.2460     0.0200    15.9997 </r>
       <r>    13.3196     0.0039    16.0000 </r>
       <r>    13.3932     0.0006    16.0000 </r>
       <r>    13.4669     0.0001    16.0000 </r>
       <r>    13.5405     0.0000    16.0000 </r>
       <r>    13.6142     0.0000    16.0000 </r>
       <r>    13.6878     0.0000    16.0000 </r>
       <r>    13.7615     0.0000    16.0000 </r>
       <r>    13.8351     0.0000    16.0000 </r>
       <r>    13.9088     0.0000    16.0000 </r>
       <r>    13.9824     0.0000    16.0000 </r>
       <r>    14.0561     0.0000    16.0000 </r>
       <r>    14.1297     0.0000    16.0000 </r>
       <r>    14.2034     0.0000    16.0000 </r>
       <r>    14.2770     0.0000    16.0000 </r>
       <r>    14.3507     0.0000    16.0000 </r>
       <r>    14.4243     0.0000    16.0000 </r>
       <r>    14.4980     0.0000    16.0000 </r>
       <r>    14.5716     0.0000    16.0000 </r>
       <r>    14.6452     0.0000    16.0000 </r>
       <r>    14.7189     0.0000    16.0000 </r>
       <r>    14.7925     0.0000    16.0000 </r>
      </set>
     </set>
    </array>
   </total>
  </dos>
 </calculation>
 <structure name="finalpos" >
  <crystal>
   <varray name="basis" >
    <v>       0.00000000       2.71500000       2.71500000 </v>
    <v>       2.71500000       0.00000000       2.71500000 </v>
    <v>       2.71500000       2.71500000       0.00000000 </v>
   </varray>
   <i name="volume">     40.02575175 </i>
   <varray name="rec_basis" >
    <v>      -0.18416206       0.18416206       0.18416206 </v>
    <v>       0.18416206      -0.18416206       0.18416206 </v>
    <v>       0.18416206       0.18416206      -0.18416206 </v>
   </varray>
  </crystal>
  <varray name="positions" >
   <v>       0.50000000       0.50000000       0.50000000 </v>
   <v>       0.75000000       0.75000000       0.75000000 </v>
  </varray>
 </structure>
</modeling>
