unknown system                          
   1.00000000000000     
    -2.411483    2.411483    1.321332
     2.411483   -2.411483    1.321332
     2.411483    2.411483   -1.321332
   Si
     2
Direct
  0.250000  0.750000  0.500000
 -0.000000  0.000000 -0.000000
 
   36   36   36
 -.52803231206E+01 -.43606485872E+01 -.18294602771E+01 0.17070128740E+01 0.54603127843E+01
 0.86906098874E+01 0.10887978855E+02 0.11858304971E+02 0.11712429985E+02 0.10783048950E+02
 0.95001879304E+01 0.81902151695E+01 0.69782864910E+01 0.59364695229E+01 0.50996240732E+01
 0.44729723066E+01 0.40445139301E+01 0.37968742917E+01 0.37160791546E+01 0.37968741578E+01
 0.40445212135E+01 0.44729845734E+01 0.50996301609E+01 0.59364688343E+01 0.69782888999E+01
 0.81902215607E+01 0.95001890773E+01 0.10783043954E+02 0.11712427713E+02 0.11858306965E+02
 0.10887978476E+02 0.86906079228E+01 0.54603158455E+01 0.17070172514E+01 -.18294643597E+01
 -.43606573579E+01 -.43606573579E+01 -.48045757746E+01 -.34602376551E+01 -.66348787806E+00
 0.29206134080E+01 0.65090421482E+01 0.94218315953E+01 0.11237636833E+02 0.11851390529E+02
 0.11441733219E+02 0.10375455354E+02 0.90738098734E+01 0.77918475773E+01 0.66308998067E+01
 0.56520605619E+01 0.48808356107E+01 0.43165176268E+01 0.39447392573E+01 0.37484975643E+01
 0.37159188153E+01 0.38446016218E+01 0.41424531681E+01 0.46249844164E+01 0.53091771087E+01
 0.62039065058E+01 0.72976227659E+01 0.85466314894E+01 0.98697533550E+01 0.11110748546E+02
 0.11895886683E+02 0.11809222129E+02 0.10565507926E+02 0.81260176154E+01 0.47651103394E+01
 0.10571444984E+01 -.22354434444E+01 -.18294643597E+01 -.34602440580E+01 -.34366770219E+01
 -.17719180463E+01 0.11149349922E+01 0.45396636710E+01 0.77656526054E+01 0.10203614672E+02
 0.11536168123E+02 0.11747851058E+02 0.11074546553E+02 0.98999933061E+01 0.86046447044E+01
 0.73656230650E+01 0.62680515119E+01 0.53608978417E+01 0.46604461838E+01 0.41608732283E+01
 0.38463706205E+01 0.37010413876E+01 0.37155090759E+01 0.38902115270E+01 0.42353119468E+01
 0.47672363330E+01 0.55018731978E+01 0.64444185164E+01 0.75770351859E+01 0.88483368997E+01
 0.10170218478E+02 0.11354149595E+02 0.12008310907E+02 0.11746699071E+02 0.10339908777E+02
 0.78188601035E+01 0.45218019282E+01 0.10571444984E+01 0.17070172514E+01 -.66349004356E+00
 -.17719205539E+01 -.13452045118E+01 0.49727307473E+00 0.32864016210E+01 0.63594938396E+01
 0.90614255113E+01 0.10914728627E+02 0.11711474205E+02 0.11518530413E+02 0.10613434788E+02
 0.93768634989E+01 0.81081581167E+01 0.69263042964E+01 0.59023688376E+01 0.50728986481E+01
 0.44457279991E+01 0.40110396801E+01 0.37525610994E+01 0.36561238359E+01 0.37150431727E+01
 0.39323759171E+01 0.43200243487E+01 0.48946829471E+01 0.56705494880E+01 0.66488740340E+01
 0.78060268616E+01 0.90845321647E+01 0.10391168981E+02 0.11513906259E+02 0.12067022142E+02
 0.11705647576E+02 0.10259036866E+02 0.78188601035E+01 0.47651103394E+01 0.54603158455E+01
 0.29206152998E+01 0.11149351995E+01 0.49727467129E+00 0.12189204110E+01 0.30788188986E+01
 0.55947435783E+01 0.81619475773E+01 0.10232101367E+02 0.11449412305E+02 0.11711320450E+02
 0.11153248313E+02 0.10075451791E+02 0.88258128003E+01 0.76006664946E+01 0.64885891304E+01
 0.55458552333E+01 0.47971810480E+01 0.42432454834E+01 0.38715262684E+01 0.36662034467E+01
 0.36152795001E+01 0.37147407008E+01 0.39698790812E+01 0.43937563706E+01 0.50027276532E+01
 0.58088514991E+01 0.68094529432E+01 0.79759856767E+01 0.92467954785E+01 0.10525941510E+02
 0.11592726255E+02 0.12084997137E+02 0.11705647576E+02 0.10339908777E+02 0.81260176154E+01
 0.86906079228E+01 0.65090414898E+01 0.45396628579E+01 0.32864038207E+01 0.30788235554E+01
 0.39622760601E+01 0.56850685513E+01 0.77870812878E+01 0.97492652724E+01 0.11143550971E+02
 0.11734616298E+02 0.11513136957E+02 0.10664697393E+02 0.94917145422E+01 0.82643152886E+01
 0.70986610202E+01 0.60664192417E+01 0.52093458962E+01 0.45416924634E+01 0.40586117942E+01
 0.37461763259E+01 0.35897793639E+01 0.35798202541E+01 0.37147446305E+01 0.40015924014E+01
 0.44539965891E+01 0.50874362337E+01 0.59115473703E+01 0.69200189676E+01 0.80805531406E+01
 0.93293808210E+01 0.10571195512E+02 0.11592726255E+02 0.12067022142E+02 0.11746699071E+02
 0.10565507926E+02 0.10887978476E+02 0.94218303942E+01 0.77656488474E+01 0.63594908847E+01
 0.55947468005E+01 0.56850745008E+01 0.65944200815E+01 0.80528175782E+01 0.96511012040E+01
 0.10972493825E+02 0.11710850373E+02 0.11740771442E+02 0.11128184285E+02 0.10087893839E+02
 0.88943446239E+01 0.77106709140E+01 0.66180818038E+01 0.56723948458E+01 0.49021333152E+01
 0.43129989713E+01 0.38963634444E+01 0.36380645265E+01 0.35252502305E+01 0.35507294084E+01
 0.37150543832E+01 0.40264786431E+01 0.44986440309E+01 0.51457040055E+01 0.59747552820E+01
 0.69763679651E+01 0.81158440328E+01 0.93293808210E+01 0.10525941510E+02 0.11513906259E+02
 0.12008310907E+02 0.11809222129E+02 0.11858306965E+02 0.11237639912E+02 0.10203614574E+02
 0.90614202250E+01 0.81619435602E+01 0.77870844253E+01 0.80528230417E+01 0.88701553477E+01
 0.99796740061E+01 0.11042599796E+02 0.11749483635E+02 0.11907728566E+02 0.11484489196E+02
 0.10599464838E+02 0.94744280517E+01 0.83051265599E+01 0.71832041541E+01 0.61736054725E+01
 0.53173494765E+01 0.46317848147E+01 0.41162374168E+01 0.37599537573E+01 0.35494792394E+01
 0.34740193490E+01 0.35286277486E+01 0.37155261732E+01 0.40436406114E+01 0.45261023004E+01
 0.51753857741E+01 0.59960922057E+01 0.69763679651E+01 0.80805531406E+01 0.92467954785E+01
 0.10391168981E+02 0.11354149595E+02 0.11895886683E+02 0.11712427713E+02 0.11851392760E+02
 0.11536173418E+02 0.10914729757E+02 0.10232096365E+02 0.97492613860E+01 0.96511034387E+01
 0.99796777677E+01 0.10620608489E+02 0.11346841096E+02 0.11899089805E+02 0.12070275258E+02
 0.11765604912E+02 0.11023253193E+02 0.99939492371E+01 0.88666980811E+01 0.77455095934E+01
 0.66992376541E+01 0.57780340668E+01 0.50101166381E+01 0.44041406560E+01 0.39552046723E+01
 0.36518464330E+01 0.34819876287E+01 0.34369765007E+01 0.35138221470E+01 0.37159402822E+01
 0.40524039653E+01 0.45353691306E+01 0.51753857741E+01 0.59747552820E+01 0.69200189676E+01
 0.79759856767E+01 0.90845321647E+01 0.10170218478E+02 0.11110748546E+02 0.10783043954E+02
 0.11441728453E+02 0.11747852644E+02 0.11711480034E+02 0.11449414441E+02 0.11143547624E+02
 0.10972491004E+02 0.11042600816E+02 0.11346842737E+02 0.11768402618E+02 0.12125766020E+02
 0.12238860463E+02 0.11990515741E+02 0.11363440432E+02 0.10443555855E+02 0.93831246306E+01
 0.82910561641E+01 0.72361868948E+01 0.62741049380E+01 0.54418780233E+01 0.47574940686E+01
 0.42234558307E+01 0.38325402822E+01 0.35736758053E+01 0.34365628760E+01 0.34146081441E+01
 0.35064131755E+01 0.37161037124E+01 0.40524039653E+01 0.45261023004E+01 0.51457040055E+01
 0.59115473703E+01 0.68094529432E+01 0.78060268616E+01 0.88483368997E+01 0.98697533550E+01
 0.95001890773E+01 0.10375450070E+02 0.11074540697E+02 0.11518530783E+02 0.11711325272E+02
 0.11734618903E+02 0.11710849231E+02 0.11749482338E+02 0.11899089763E+02 0.12125765808E+02
 0.12326452520E+02 0.12369976936E+02 0.12147851801E+02 0.11615562282E+02 0.10810975074E+02
 0.98418779909E+01 0.88069526268E+01 0.77722446606E+01 0.67955576168E+01 0.59204172870E+01
 0.51731980815E+01 0.45643827904E+01 0.40926336060E+01 0.37499515686E+01 0.35264324008E+01
 0.34137371979E+01 0.34071324140E+01 0.35064131755E+01 0.37159402822E+01 0.40436406114E+01
 0.44986440309E+01 0.50874362337E+01 0.58088514991E+01 0.66488740340E+01 0.75770351859E+01
 0.85466314894E+01 0.81902215607E+01 0.90738126218E+01 0.98999894011E+01 0.10613429398E+02
 0.11153247434E+02 0.11513139811E+02 0.11740773856E+02 0.11907729395E+02 0.12070275451E+02
 0.12238859763E+02 0.12369975521E+02 0.12383341906E+02 0.12195943878E+02 0.11758280450E+02
 0.11078901700E+02 0.10226664886E+02 0.92785608262E+01 0.82945756079E+01 0.73320304878E+01
 0.64386125901E+01 0.56477344751E+01 0.49777110310E+01 0.44340494525E+01 0.40134926856E+01
 0.37084320732E+01 0.35106319361E+01 0.34137371979E+01 0.34146081441E+01 0.35138221470E+01
 0.37155261732E+01 0.40264786431E+01 0.44539965891E+01 0.50027276532E+01 0.56705494880E+01
 0.64444185164E+01 0.72976227659E+01 0.69782888999E+01 0.77918533710E+01 0.86046484499E+01
 0.93768619561E+01 0.10075448114E+02 0.10664695705E+02 0.11128184942E+02 0.11484490885E+02
 0.11765606997E+02 0.11990517021E+02 0.12147850863E+02 0.12195941973E+02 0.12079910745E+02
 0.11757648075E+02 0.11223329840E+02 0.10516093582E+02 0.96870308961E+01 0.87872560351E+01
 0.78709947190E+01 0.69877649008E+01 0.61764601987E+01 0.54626532716E+01 0.48590910803E+01
 0.43684368497E+01 0.39870105143E+01 0.37084320732E+01 0.35264324008E+01 0.34365628760E+01
 0.34369765007E+01 0.35286277486E+01 0.37150543832E+01 0.40015924014E+01 0.43937563706E+01
 0.48946829471E+01 0.55018731978E+01 0.62039065058E+01 0.59364688343E+01 0.66309001217E+01
 0.73656268209E+01 0.81081619044E+01 0.88258136878E+01 0.94917131854E+01 0.10087891981E+02
 0.10599463695E+02 0.11023253937E+02 0.11363442958E+02 0.11615564070E+02 0.11758279570E+02
 0.11757646266E+02 0.11581848818E+02 0.11219341401E+02 0.10685729711E+02 0.10008984932E+02
 0.92295101708E+01 0.83954874550E+01 0.75554895607E+01 0.67518717320E+01 0.60164576329E+01
 0.53691822598E+01 0.48193411508E+01 0.43684368497E+01 0.40134926856E+01 0.37499515686E+01
 0.35736758053E+01 0.34819876287E+01 0.34740193490E+01 0.35507294084E+01 0.37147446305E+01
 0.39698790812E+01 0.43200243487E+01 0.47672363330E+01 0.53091771087E+01 0.50996301609E+01
 0.56520596417E+01 0.62680498149E+01 0.69263052973E+01 0.76006693480E+01 0.82643179131E+01
 0.88943454529E+01 0.94744265525E+01 0.99939470435E+01 0.10443555776E+02 0.10810977373E+02
 0.11078903422E+02 0.11223329163E+02 0.11219340080E+02 0.11050495392E+02 0.10713044332E+02
 0.10219088274E+02 0.95960780382E+01 0.88828494967E+01 0.81235770507E+01 0.73612244826E+01
 0.66320984204E+01 0.59626912426E+01 0.53691822598E+01 0.48590910803E+01 0.44340494525E+01
 0.40926336060E+01 0.38325402822E+01 0.36518464330E+01 0.35494792394E+01 0.35252502305E+01
 0.35798202541E+01 0.37147407008E+01 0.39323759171E+01 0.42353119468E+01 0.46249844164E+01
 0.44729845734E+01 0.48808411298E+01 0.53608970601E+01 0.59023657922E+01 0.64885874630E+01
 0.70986622976E+01 0.77106742210E+01 0.83051288565E+01 0.88666971807E+01 0.93831221975E+01
 0.98418774235E+01 0.10226666528E+02 0.10516094787E+02 0.10685729288E+02 0.10713043705E+02
 0.10583395491E+02 0.10294830314E+02 0.98601309581E+01 0.93056103658E+01 0.86671349559E+01
 0.79845098665E+01 0.72956702168E+01 0.66320984204E+01 0.60164576329E+01 0.54626532716E+01
 0.49777110310E+01 0.45643827904E+01 0.42234558307E+01 0.39552046723E+01 0.37599537573E+01
 0.36380645265E+01 0.35897793639E+01 0.36152795001E+01 0.37150431727E+01 0.38902115270E+01
 0.41424531681E+01 0.40445212135E+01 0.43165243059E+01 0.46604497603E+01 0.50728981198E+01
 0.55458516824E+01 0.60664156399E+01 0.66180814151E+01 0.71832071584E+01 0.77455123793E+01
 0.82910558235E+01 0.88069506083E+01 0.92785601342E+01 0.96870316614E+01 0.10008985359E+02
 0.10219088110E+02 0.10294830422E+02 0.10221847582E+02 0.99979643696E+01 0.96347078562E+01
 0.91559262135E+01 0.85939752338E+01 0.79845098665E+01 0.73612244826E+01 0.67518717320E+01
 0.61764601987E+01 0.56477344751E+01 0.51731980815E+01 0.47574940686E+01 0.44041406560E+01
 0.41162374168E+01 0.38963634444E+01 0.37461763259E+01 0.36662034467E+01 0.36561238359E+01
 0.37155090759E+01 0.38446016218E+01 0.37968741578E+01 0.39447377526E+01 0.41608727378E+01
 0.44457285885E+01 0.47971805586E+01 0.52093425376E+01 0.56723904018E+01 0.61736038645E+01
 0.66992397260E+01 0.72361892819E+01 0.77722446974E+01 0.82945743979E+01 0.87872554641E+01
 0.92295100006E+01 0.95960776364E+01 0.98601310278E+01 0.99979650906E+01 0.99939546350E+01
 0.98442177577E+01 0.95579232054E+01 0.91559262135E+01 0.86671349559E+01 0.81235770507E+01
 0.75554895607E+01 0.69877649008E+01 0.64386125901E+01 0.59204172870E+01 0.54418780233E+01
 0.50101166381E+01 0.46317848147E+01 0.43129989713E+01 0.40586117942E+01 0.38715262684E+01
 0.37525610994E+01 0.37010413876E+01 0.37159188153E+01 0.37160791546E+01 0.37484908357E+01
 0.38463609086E+01 0.40110322842E+01 0.42432427835E+01 0.45416916754E+01 0.49021305993E+01
 0.53173453313E+01 0.57780320038E+01 0.62741058772E+01 0.67955590476E+01 0.73320307230E+01
 0.78709944406E+01 0.83954870892E+01 0.88828484842E+01 0.93056092807E+01 0.96347080961E+01
 0.98442188293E+01 0.99161934216E+01 0.98442177577E+01 0.96347078562E+01 0.93056103658E+01
 0.88828494967E+01 0.83954874550E+01 0.78709947190E+01 0.73320304878E+01 0.67955576168E+01
 0.62741049380E+01 0.57780340668E+01 0.53173494765E+01 0.49021333152E+01 0.45416924634E+01
 0.42432454834E+01 0.40110396801E+01 0.38463706205E+01 0.37484975643E+01 0.37968742917E+01
 0.37159140124E+01 0.37010297436E+01 0.37525457586E+01 0.38715140684E+01 0.40586065230E+01
 0.43129977690E+01 0.46317830228E+01 0.50101137259E+01 0.54418762801E+01 0.59204172236E+01
 0.64386129049E+01 0.69877652301E+01 0.75554901102E+01 0.81235768565E+01 0.86671333497E+01
 0.91559247441E+01 0.95579235083E+01 0.98442188293E+01 0.99939546350E+01 0.99979643696E+01
 0.98601309581E+01 0.95960780382E+01 0.92295101708E+01 0.87872560351E+01 0.82945756079E+01
 0.77722446606E+01 0.72361868948E+01 0.66992376541E+01 0.61736054725E+01 0.56723948458E+01
 0.52093458962E+01 0.47971810480E+01 0.44457279991E+01 0.41608732283E+01 0.39447392573E+01
 0.40445139301E+01 0.38445949239E+01 0.37155003942E+01 0.36561099510E+01 0.36661863810E+01
 0.37461627599E+01 0.38963572811E+01 0.41162361279E+01 0.44041400066E+01 0.47574929489E+01
 0.51731971823E+01 0.56477336978E+01 0.61764595565E+01 0.67518721140E+01 0.73612255932E+01
 0.79845097615E+01 0.85939734124E+01 0.91559247441E+01 0.96347080961E+01 0.99979650906E+01
 0.10221847582E+02 0.10294830314E+02 0.10219088274E+02 0.10008984932E+02 0.96870308961E+01
 0.92785608262E+01 0.88069526268E+01 0.82910561641E+01 0.77455095934E+01 0.71832041541E+01
 0.66180818038E+01 0.60664192417E+01 0.55458552333E+01 0.50728986481E+01 0.46604461838E+01
 0.43165176268E+01 0.44729723066E+01 0.41424387703E+01 0.38901994960E+01 0.37150324841E+01
 0.36152665447E+01 0.35897648667E+01 0.36380534574E+01 0.37599488578E+01 0.39552039779E+01
 0.42234564788E+01 0.45643835709E+01 0.49777111196E+01 0.54626520786E+01 0.60164563734E+01
 0.66320988319E+01 0.72956715251E+01 0.79845097615E+01 0.86671333497E+01 0.93056092807E+01
 0.98601310278E+01 0.10294830422E+02 0.10583395491E+02 0.10713044332E+02 0.10685729711E+02
 0.10516093582E+02 0.10226664886E+02 0.98418779909E+01 0.93831246306E+01 0.88666980811E+01
 0.83051265599E+01 0.77106709140E+01 0.70986610202E+01 0.64885891304E+01 0.59023688376E+01
 0.53608978417E+01 0.48808356107E+01 0.50996240732E+01 0.46249695547E+01 0.42352940862E+01
 0.39323617009E+01 0.37147306727E+01 0.35798113202E+01 0.35252419544E+01 0.35494738478E+01
 0.36518446449E+01 0.38325408351E+01 0.40926355302E+01 0.44340517989E+01 0.48590919319E+01
 0.53691808866E+01 0.59626897730E+01 0.66320988319E+01 0.73612255932E+01 0.81235768565E+01
 0.88828484842E+01 0.95960776364E+01 0.10219088110E+02 0.10713043705E+02 0.11050495392E+02
 0.11219341401E+02 0.11223329840E+02 0.11078901700E+02 0.10810975074E+02 0.10443555855E+02
 0.99939492371E+01 0.94744280517E+01 0.88943446239E+01 0.82643152886E+01 0.76006664946E+01
 0.69263042964E+01 0.62680515119E+01 0.56520605619E+01 0.59364695229E+01 0.53091717920E+01
 0.47672225301E+01 0.43200078136E+01 0.39698668114E+01 0.37147381870E+01 0.35507268358E+01
 0.34740193891E+01 0.34819894381E+01 0.35736778962E+01 0.37499535559E+01 0.40134955711E+01
 0.43684400766E+01 0.48193422866E+01 0.53691808866E+01 0.60164563734E+01 0.67518721140E+01
 0.75554901102E+01 0.83954870892E+01 0.92295100006E+01 0.10008985359E+02 0.10685729288E+02
 0.11219340080E+02 0.11581848818E+02 0.11757648075E+02 0.11758280450E+02 0.11615562282E+02
 0.11363440432E+02 0.11023253193E+02 0.10599464838E+02 0.10087893839E+02 0.94917145422E+01
 0.88258128003E+01 0.81081581167E+01 0.73656230650E+01 0.66308998067E+01 0.69782864910E+01
 0.62039066212E+01 0.55018697235E+01 0.48946736284E+01 0.43937458102E+01 0.40015859788E+01
 0.37150537983E+01 0.35286324588E+01 0.34369848189E+01 0.34365712368E+01 0.35264376693E+01
 0.37084350164E+01 0.39870137600E+01 0.43684400766E+01 0.48590919319E+01 0.54626520786E+01
 0.61764595565E+01 0.69877652301E+01 0.78709944406E+01 0.87872554641E+01 0.96870316614E+01
 0.10516094787E+02 0.11223329163E+02 0.11757646266E+02 0.12079910745E+02 0.12195943878E+02
 0.12147851801E+02 0.11990515741E+02 0.11765604912E+02 0.11484489196E+02 0.11128184285E+02
 0.10664697393E+02 0.10075451791E+02 0.93768634989E+01 0.86046447044E+01 0.77918475773E+01
 0.81902151695E+01 0.72976189830E+01 0.64444180174E+01 0.56705485355E+01 0.50027251806E+01
 0.44539951245E+01 0.40264803409E+01 0.37155321246E+01 0.35138332289E+01 0.34146225248E+01
 0.34137494404E+01 0.35106384275E+01 0.37084350164E+01 0.40134955711E+01 0.44340517989E+01
 0.49777111196E+01 0.56477336978E+01 0.64386129049E+01 0.73320307230E+01 0.82945743979E+01
 0.92785601342E+01 0.10226666528E+02 0.11078903422E+02 0.11758279570E+02 0.12195941973E+02
 0.12383341906E+02 0.12369976936E+02 0.12238860463E+02 0.12070275258E+02 0.11907728566E+02
 0.11740771442E+02 0.11513136957E+02 0.11153248313E+02 0.10613434788E+02 0.98999933061E+01
 0.90738098734E+01 0.95001879304E+01 0.85466263093E+01 0.75770313811E+01 0.66488732320E+01
 0.58088532875E+01 0.50874413127E+01 0.44986522048E+01 0.40436500831E+01 0.37159513595E+01
 0.35064279765E+01 0.34071490162E+01 0.34137494404E+01 0.35264376693E+01 0.37499535559E+01
 0.40926355302E+01 0.45643835709E+01 0.51731971823E+01 0.59204172236E+01 0.67955590476E+01
 0.77722446974E+01 0.88069506083E+01 0.98418774235E+01 0.10810977373E+02 0.11615564070E+02
 0.12147850863E+02 0.12369975521E+02 0.12326452520E+02 0.12125766020E+02 0.11899089805E+02
 0.11749483635E+02 0.11710850373E+02 0.11734616298E+02 0.11711320450E+02 0.11518530413E+02
 0.11074546553E+02 0.10375455354E+02 0.10783048950E+02 0.98697539148E+01 0.88483345514E+01
 0.78060244643E+01 0.68094522939E+01 0.59115516227E+01 0.51457154866E+01 0.45261177759E+01
 0.40524181732E+01 0.37161167303E+01 0.35064279765E+01 0.34146225248E+01 0.34365712368E+01
 0.35736778962E+01 0.38325408351E+01 0.42234564788E+01 0.47574929489E+01 0.54418762801E+01
 0.62741058772E+01 0.72361892819E+01 0.82910558235E+01 0.93831221975E+01 0.10443555776E+02
 0.11363442958E+02 0.11990517021E+02 0.12238859763E+02 0.12125765808E+02 0.11768402618E+02
 0.11346841096E+02 0.11042599796E+02 0.10972493825E+02 0.11143550971E+02 0.11449412305E+02
 0.11711474205E+02 0.11747851058E+02 0.11441733219E+02 0.11712429985E+02 0.11110751486E+02
 0.10170220432E+02 0.90845335073E+01 0.79759855083E+01 0.69200187554E+01 0.59747612492E+01
 0.51754009152E+01 0.45353873228E+01 0.40524181732E+01 0.37159513595E+01 0.35138332289E+01
 0.34369848189E+01 0.34819894381E+01 0.36518446449E+01 0.39552039779E+01 0.44041400066E+01
 0.50101137259E+01 0.57780320038E+01 0.66992397260E+01 0.77455123793E+01 0.88666971807E+01
 0.99939470435E+01 0.11023253937E+02 0.11765606997E+02 0.12070275451E+02 0.11899089763E+02
 0.11346842737E+02 0.10620608489E+02 0.99796740061E+01 0.96511012040E+01 0.97492652724E+01
 0.10232101367E+02 0.10914728627E+02 0.11536168123E+02 0.11851390529E+02 0.11858304971E+02
 0.11895885641E+02 0.11354149326E+02 0.10391171831E+02 0.92468002468E+01 0.80805549735E+01
 0.69763681139E+01 0.59960987880E+01 0.51754009152E+01 0.45261177759E+01 0.40436500831E+01
 0.37155321246E+01 0.35286324588E+01 0.34740193891E+01 0.35494738478E+01 0.37599488578E+01
 0.41162361279E+01 0.46317830228E+01 0.53173453313E+01 0.61736038645E+01 0.71832071584E+01
 0.83051288565E+01 0.94744265525E+01 0.10599463695E+02 0.11484490885E+02 0.11907729395E+02
 0.11749482338E+02 0.11042600816E+02 0.99796777677E+01 0.88701553477E+01 0.80528175782E+01
 0.77870812878E+01 0.81619475773E+01 0.90614255113E+01 0.10203614672E+02 0.11237636833E+02
 0.10887978855E+02 0.11809221140E+02 0.12008306576E+02 0.11513902773E+02 0.10525944803E+02
 0.93293876436E+01 0.81158466645E+01 0.69763681139E+01 0.59747612492E+01 0.51457154866E+01
 0.44986522048E+01 0.40264803409E+01 0.37150537983E+01 0.35507268358E+01 0.35252419544E+01
 0.36380534574E+01 0.38963572811E+01 0.43129977690E+01 0.49021305993E+01 0.56723904018E+01
 0.66180814151E+01 0.77106742210E+01 0.88943454529E+01 0.10087891981E+02 0.11128184942E+02
 0.11740773856E+02 0.11710849231E+02 0.10972491004E+02 0.96511034387E+01 0.80528230417E+01
 0.65944200815E+01 0.56850685513E+01 0.55947435783E+01 0.63594938396E+01 0.77656526054E+01
 0.94218315953E+01 0.86906098874E+01 0.10565512055E+02 0.11746699343E+02 0.12067015411E+02
 0.11592720769E+02 0.10571198929E+02 0.93293876436E+01 0.80805549735E+01 0.69200187554E+01
 0.59115516227E+01 0.50874413127E+01 0.44539951245E+01 0.40015859788E+01 0.37147381870E+01
 0.35798113202E+01 0.35897648667E+01 0.37461627599E+01 0.40586065230E+01 0.45416916754E+01
 0.52093425376E+01 0.60664156399E+01 0.70986622976E+01 0.82643179131E+01 0.94917131854E+01
 0.10664695705E+02 0.11513139811E+02 0.11734618903E+02 0.11143547624E+02 0.97492613860E+01
 0.77870844253E+01 0.56850745008E+01 0.39622760601E+01 0.30788188986E+01 0.32864016210E+01
 0.45396636710E+01 0.65090421482E+01 0.54603127843E+01 0.81260199813E+01 0.10339915793E+02
 0.11705648704E+02 0.12084989528E+02 0.11592720769E+02 0.10525944803E+02 0.92468002468E+01
 0.79759855083E+01 0.68094522939E+01 0.58088532875E+01 0.50027251806E+01 0.43937458102E+01
 0.39698668114E+01 0.37147306727E+01 0.36152665447E+01 0.36661863810E+01 0.38715140684E+01
 0.42432427835E+01 0.47971805586E+01 0.55458516824E+01 0.64885874630E+01 0.76006693480E+01
 0.88258136878E+01 0.10075448114E+02 0.11153247434E+02 0.11711325272E+02 0.11449414441E+02
 0.10232096365E+02 0.81619435602E+01 0.55947468005E+01 0.30788235554E+01 0.12189204110E+01
 0.49727307473E+00 0.11149349922E+01 0.29206134080E+01 0.17070128740E+01 0.47651042673E+01
 0.78188626166E+01 0.10259044964E+02 0.11705648704E+02 0.12067015411E+02 0.11513902773E+02
 0.10391171831E+02 0.90845335073E+01 0.78060244643E+01 0.66488732320E+01 0.56705485355E+01
 0.48946736284E+01 0.43200078136E+01 0.39323617009E+01 0.37150324841E+01 0.36561099510E+01
 0.37525457586E+01 0.40110322842E+01 0.44457285885E+01 0.50728981198E+01 0.59023657922E+01
 0.69263052973E+01 0.81081619044E+01 0.93768619561E+01 0.10613429398E+02 0.11518530783E+02
 0.11711480034E+02 0.10914729757E+02 0.90614202250E+01 0.63594908847E+01 0.32864038207E+01
 0.49727467129E+00 -.13452045118E+01 -.17719180463E+01 -.66348787806E+00 -.18294602771E+01
 0.10571386355E+01 0.45217947018E+01 0.78188626166E+01 0.10339915793E+02 0.11746699343E+02
 0.12008306576E+02 0.11354149326E+02 0.10170220432E+02 0.88483345514E+01 0.75770313811E+01
 0.64444180174E+01 0.55018697235E+01 0.47672225301E+01 0.42352940862E+01 0.38901994960E+01
 0.37155003942E+01 0.37010297436E+01 0.38463609086E+01 0.41608727378E+01 0.46604497603E+01
 0.53608970601E+01 0.62680498149E+01 0.73656268209E+01 0.86046484499E+01 0.98999894011E+01
 0.11074540697E+02 0.11747852644E+02 0.11536173418E+02 0.10203614574E+02 0.77656488474E+01
 0.45396628579E+01 0.11149351995E+01 -.17719205539E+01 -.34366770219E+01 -.34602376551E+01
 -.43606485872E+01 -.22354386271E+01 0.10571386355E+01 0.47651042673E+01 0.81260199813E+01
 0.10565512055E+02 0.11809221140E+02 0.11895885641E+02 0.11110751486E+02 0.98697539148E+01
 0.85466263093E+01 0.72976189830E+01 0.62039066212E+01 0.53091717920E+01 0.46249695547E+01
 0.41424387703E+01 0.38445949239E+01 0.37159140124E+01 0.37484908357E+01 0.39447377526E+01
 0.43165243059E+01 0.48808411298E+01 0.56520596417E+01 0.66309001217E+01 0.77918533710E+01
 0.90738126218E+01 0.10375450070E+02 0.11441728453E+02 0.11851392760E+02 0.11237639912E+02
 0.94218303942E+01 0.65090414898E+01 0.29206152998E+01 -.66349004356E+00 -.34602440580E+01
 -.48045757746E+01 -.43606507246E+01 -.36943963000E+01 -.14609039035E+01 0.18027664425E+01
 0.53587678967E+01 0.84865791768E+01 0.10665111654E+02 0.11669577177E+02 0.11574978390E+02
 0.10685042165E+02 0.94151228739E+01 0.81029513458E+01 0.68813186990E+01 0.58248973708E+01
 0.49709766357E+01 0.43261441234E+01 0.38786180154E+01 0.36104129440E+01 0.35063928771E+01
 0.35598065272E+01 0.37744433882E+01 0.41633797996E+01 0.47443442086E+01 0.55316292627E+01
 0.65246487359E+01 0.76951976361E+01 0.89786351291E+01 0.10267148291E+02 0.11283291794E+02
 0.11609248507E+02 0.10901832820E+02 0.90193277522E+01 0.61072531431E+01 0.26164925247E+01
 -.76919055910E+00 -.32968783723E+01 -.36944043059E+01 -.43606613313E+01 -.32968880400E+01
 -.76920134503E+00 0.26164779111E+01 0.61072382005E+01 0.90193209402E+01 0.10901837689E+02
 0.11609258652E+02 0.11283298900E+02 0.10267151495E+02 0.89786380029E+01 0.76952000402E+01
 0.65246481794E+01 0.55316274875E+01 0.47443450038E+01 0.41633817458E+01 0.37744420648E+01
 0.35598030261E+01 0.35063926530E+01 0.36104164468E+01 0.38786200279E+01 0.43261428465E+01
 0.49709758773E+01 0.58248985490E+01 0.68813180788E+01 0.81029471056E+01 0.94151178466E+01
 0.10685037142E+02 0.11574969805E+02 0.11669565271E+02 0.10665104823E+02 0.84865848557E+01
 0.53587823799E+01 0.18027781165E+01 -.14609028711E+01 -.13819525247E+01 -.32126943035E+01
 -.34602563151E+01 -.20709001097E+01 0.60271405841E+00 0.39191395572E+01 0.71490312834E+01
 0.96781432926E+01 0.11145812006E+02 0.11491538573E+02 0.10917430484E+02 0.97915891883E+01
 0.85067396893E+01 0.72655397497E+01 0.61579772488E+01 0.52370904596E+01 0.45218418201E+01
 0.40074936291E+01 0.36781423711E+01 0.35170926532E+01 0.35138060179E+01 0.36675320406E+01
 0.39876687452E+01 0.44908112917E+01 0.51944343670E+01 0.61070680345E+01 0.72158570881E+01
 0.84752478066E+01 0.98027378600E+01 0.11035950564E+02 0.11803273643E+02 0.11710851054E+02
 0.10504486183E+02 0.81758649018E+01 0.50159845355E+01 0.15896312071E+01 0.20084530829E+01
 -.54120961893E+00 -.19120213067E+01 -.17719371896E+01 -.17037565526E+00 0.24792900804E+01
 0.55369645971E+01 0.83329187027E+01 0.10348198490E+02 0.11323839531E+02 0.11282374642E+02
 0.10474241807E+02 0.92746180454E+01 0.80136579193E+01 0.68278297164E+01 0.57932785866E+01
 0.49506885132E+01 0.43102952487E+01 0.38630821490E+01 0.35925192044E+01 0.34836087863E+01
 0.35286196122E+01 0.37297072633E+01 0.40984469522E+01 0.46522130600E+01 0.54072422006E+01
 0.63683154727E+01 0.75165089038E+01 0.87993548426E+01 0.10128741570E+02 0.11315476232E+02
 0.11981115188E+02 0.11766117405E+02 0.10470662516E+02 0.81469564335E+01 0.51333940303E+01
 0.56988961843E+01 0.30058196977E+01 0.95505947165E+00 0.46215069870E-01 0.49725739894E+00
 0.21720987596E+01 0.46281762896E+01 0.72625957131E+01 0.94945104791E+01 0.10916427630E+02
 0.11373193907E+02 0.10961138223E+02 0.99625104445E+01 0.87354772898E+01 0.75141212012E+01
 0.63957236203E+01 0.54418383286E+01 0.46809842294E+01 0.41157904607E+01 0.37342207509E+01
 0.35200657961E+01 0.34605270397E+01 0.35507304401E+01 0.37954031444E+01 0.42077140433E+01
 0.48051332386E+01 0.56020464510E+01 0.65992558422E+01 0.77723719952E+01 0.90637361295E+01
 0.10381660032E+02 0.11521309081E+02 0.12118016178E+02 0.11854887039E+02 0.10586082054E+02
 0.84129649222E+01 0.89382347927E+01 0.66362155471E+01 0.44526942671E+01 0.29206316796E+01
 0.24254207043E+01 0.30788081892E+01 0.46825045898E+01 0.67976458849E+01 0.88888977063E+01
 0.10483701814E+02 0.11291514847E+02 0.11254285671E+02 0.10527052590E+02 0.94046347505E+01
 0.81895879165E+01 0.70229625690E+01 0.59821298043E+01 0.51137915552E+01 0.44353794407E+01
 0.39434661463E+01 0.36243146007E+01 0.34628455012E+01 0.34487435441E+01 0.35798289369E+01
 0.38629252517E+01 0.43121651306E+01 0.49444689917E+01 0.57719003868E+01 0.67913249315E+01
 0.79738221142E+01 0.92584641665E+01 0.10552641461E+02 0.11650715878E+02 0.12216067569E+02
 0.11978323513E+02 0.10840546262E+02 0.11193084870E+02 0.96447773949E+01 0.78179272782E+01
 0.61656106338E+01 0.51192199892E+01 0.49513489198E+01 0.56850623130E+01 0.70883860420E+01
 0.87558784610E+01 0.10241215938E+02 0.11188361269E+02 0.11419118468E+02 0.10958608403E+02
 0.10001524749E+02 0.88317736297E+01 0.76527252452E+01 0.65546095136E+01 0.55987188651E+01
 0.48177859042E+01 0.42199240943E+01 0.37974019854E+01 0.35360045386E+01 0.34223776143E+01
 0.34487463267E+01 0.36152926163E+01 0.39303831558E+01 0.44084843010E+01 0.50653881167E+01
 0.59105249058E+01 0.69371191078E+01 0.81128903912E+01 0.93756199496E+01 0.10634960354E+02
 0.11699038397E+02 0.12268276097E+02 0.12118535104E+02 0.12242059708E+02 0.11579554049E+02
 0.10425818746E+02 0.90865451877E+01 0.79360804383E+01 0.73015566353E+01 0.73544226781E+01
 0.80528145455E+01 0.91591692589E+01 0.10324311941E+02 0.11201838332E+02 0.11549843743E+02
 0.11289628657E+02 0.10510491306E+02 0.94258287607E+01 0.82655745033E+01 0.71411081425E+01
 0.61225092891E+01 0.52555454017E+01 0.45608136677E+01 0.40392716359E+01 0.36806065622E+01
 0.34711320605E+01 0.33995668401E+01 0.34605350640E+01 0.36561381557E+01 0.39957058052E+01
 0.44934362059E+01 0.51635014784E+01 0.60125592077E+01 0.70307088894E+01 0.81836272282E+01
 0.94097307083E+01 0.10623847837E+02 0.11659688481E+02 0.12259633263E+02 0.12170618319E+02
 0.12306739823E+02 0.11924436567E+02 0.11163971932E+02 0.10279938703E+02 0.95629760207E+01
 0.92428436778E+01 0.94087758306E+01 0.99796731999E+01 0.10736103483E+02 0.11399040579E+02
 0.11722650623E+02 0.11568082883E+02 0.10937473489E+02 0.99625310386E+01 0.88466752242E+01
 0.77248460978E+01 0.66705661004E+01 0.57385843465E+01 0.49608352523E+01 0.43482181010E+01
 0.38967671890E+01 0.35950959757E+01 0.34307727298E+01 0.33947019198E+01 0.34836209158E+01
 0.37010550637E+01 0.40567229667E+01 0.45639994352E+01 0.52350537076E+01 0.60738110075E+01
 0.70679443632E+01 0.81824671233E+01 0.93582204543E+01 0.10517061556E+02 0.11525655281E+02
 0.11292133282E+02 0.11982335451E+02 0.12270601108E+02 0.12154657666E+02 0.11750791391E+02
 0.11256552477E+02 0.10882005220E+02 0.10773638716E+02 0.10960823522E+02 0.11346842153E+02