    2    2   15    1
  0.1529437E+02  0.3691622E-09  0.3691622E-09  0.3691622E-09  0.5000000E-15
  1.000000000000000E-004
  CAR 
 unknown system                          
      8     40      8
 
  0.0000000E+00  0.0000000E+00  0.0000000E+00  0.2915452E-02
    1       -4.619643   1.000000
    2        6.533986   1.000000
    3        6.533986   1.000000
    4        6.875343   1.000000
    5       10.641607   0.000000
    6       16.618004   0.000000
    7       17.797413   0.000000
    8       17.797414   0.000000
 
  0.1428571E+00 -0.1404355E-16  0.1404355E-16  0.2332362E-01
    1       -4.073174   1.000000
    2        5.533246   1.000000
    3        6.389929   1.000000
    4        8.789472   0.859374
    5       11.777650   0.000000
    6       13.977666   0.000000
    7       14.481959   0.000000
    8       16.489633   0.000000
 
  0.2857143E+00 -0.2600542E-16  0.2600542E-16  0.2332362E-01
    1       -2.446006   1.000000
    2        5.357943   1.000000
    3        6.514979   1.000000
    4        8.513069   0.998785
    5       10.984692   0.000000
    6       12.299089   0.000000
    7       12.997101   0.000000
    8       14.554665   0.000000
 
  0.4285714E+00 -0.1733103E-16  0.1733103E-16  0.2332362E-01
    1        0.206164   1.000000
    2        3.922104   1.000000
    3        6.390184   1.000000
    4        7.179558   1.000000
    5        8.297897   0.999997
    6       10.669855   0.000000
    7       13.587570   0.000000
    8       14.449128   0.000000
 
  0.1428571E+00  0.1428571E+00  0.2808709E-16  0.2332362E-01
    1       -2.694428   1.000000
    2        5.595989   1.000000
    3        7.907247   1.000000
    4        9.199182   0.034412
    5       10.319213   0.000000
    6       10.813300   0.000000
    7       13.393359   0.000000
    8       13.993158   0.000000
 
  0.2857143E+00  0.1428571E+00  0.4508661E-16  0.4664723E-01
    1       -0.272775   1.000000
    2        5.044411   1.000000
    3        6.270989   1.000000
    4        6.731629   1.000000
    5        9.272754   0.009647
    6       11.387502   0.000000
    7       12.189483   0.000000
    8       13.854201   0.000000
 
  0.4285714E+00  0.1428571E+00  0.7177282E-16  0.4664723E-01
    1        1.142439   1.000000
    2        3.195141   1.000000
    3        4.632022   1.000000
    4        7.378571   1.000000
    5        8.714973   0.945676
    6       11.457026   0.000000
    7       12.529165   0.000000
    8       16.115054   0.000000
 
 -0.4285714E+00  0.1428571E+00 -0.1801182E-16  0.4664723E-01
    1       -1.703629   1.000000
    2        3.309786   1.000000
    3        6.714590   1.000000
    4        7.754378   1.000000
    5       10.515279   0.000000
    6       12.522090   0.000000
    7       13.502890   0.000000
    8       14.904970   0.000000
 
 -0.2857143E+00  0.1428571E+00 -0.1576439E-16  0.4664723E-01
    1       -3.571980   1.000000
    2        3.196538   1.000000
    3        6.588061   1.000000
    4       10.088618   0.000000
    5       12.445260   0.000000
    6       13.472403   0.000000
    7       14.215417   0.000000
    8       15.487145   0.000000
 
 -0.1428571E+00  0.1428571E+00 -0.3929902E-17  0.1166181E-01
    1       -4.367992   1.000000
    2        4.070088   1.000000
    3        6.763252   1.000000
    4        8.430932   0.999849
    5       12.191405   0.000000
    6       14.531118   0.000000
    7       16.429960   0.000000
    8       18.143758   0.000000
 
  0.2857143E+00  0.2857143E+00  0.5201085E-16  0.2332362E-01
    1        2.235490   1.000000
    2        2.642934   1.000000
    3        3.445600   1.000000
    4        7.498587   1.000000
    5        9.295874   0.006152
    6       10.388313   0.000000
    7       14.514895   0.000000
    8       15.327748   0.000000
 
  0.4285714E+00  0.2857143E+00  0.7869706E-16  0.4664723E-01
    1       -0.476797   1.000000
    2        1.213681   1.000000
    3        7.061293   1.000000
    4        7.971238   1.000000
    5        9.384088   0.000883
    6       11.421597   0.000000
    7       14.712825   0.000000
    8       16.206895   0.000000
 
 -0.4285714E+00  0.2857143E+00 -0.2288370E-16  0.4664723E-01
    1       -2.574736   1.000000
    2        0.849836   1.000000
    3        7.486311   1.000000
    4       10.499856   0.000000
    5       11.125842   0.000000
    6       12.806146   0.000000
    7       14.394074   0.000000
    8       14.916354   0.000000
 
 -0.2857143E+00  0.2857143E+00 -0.7859804E-17  0.1166181E-01
    1       -3.615452   1.000000
    2        1.525424   1.000000
    3        7.449783   1.000000
    4        9.467803   0.000100
    5       12.174485   0.000000
    6       14.320152   0.000000
    7       15.522505   0.000000
    8       17.715870   0.000000
 
  0.4285714E+00  0.4285714E+00  0.1053833E-15  0.2332362E-01
    1       -1.094857   1.000000
    2       -1.091392   1.000000
    3        8.819554   0.806425
    4        8.837139   0.770488
    5       11.652508   0.000000
    6       12.758984   0.000000
    7       13.813893   0.000000
    8       14.200035   0.000000
 
 -0.4285714E+00  0.4285714E+00  0.4248060E-17  0.1166181E-01
    1       -2.369816   1.000000
    2       -0.646328   1.000000
    3        8.589642   0.993622
    4       10.172497   0.000000
    5       10.726515   0.000000
    6       12.357558   0.000000
    7       17.479889   0.000000
    8       17.571389   0.000000
 
  0.1428571E+00  0.1428571E+00  0.1428571E+00  0.2332362E-01
    1       -1.949527   1.000000
    2        3.121635   1.000000
    3        8.134543   1.000000
    4        8.830049   0.785408
    5       10.096329   0.000000
    6       11.283661   0.000000
    7       14.362083   0.000000
    8       14.862999   0.000000
 
  0.2857143E+00  0.1428571E+00  0.1428571E+00  0.4664723E-01
    1        0.691275   1.000000
    2        3.830375   1.000000
    3        4.681832   1.000000
    4        6.081126   1.000000
    5       10.568005   0.000000
    6       13.118098   0.000000
    7       13.979805   0.000000
    8       14.162450   0.000000
 
 -0.1428571E+00  0.1428571E+00  0.1428571E+00  0.1166181E-01
    1       -4.117029   1.000000
    2        3.824507   1.000000
    3        5.071581   1.000000
    4       10.372759   0.000000
    5       12.570442   0.000000
    6       13.050116   0.000000
    7       17.312313   0.000000
    8       18.207995   0.000000
 
  0.2857143E+00  0.2857143E+00  0.1428571E+00  0.2332362E-01
    1        2.068730   1.000000
    2        2.142808   1.000000
    3        4.336325   1.000000
    4        5.861852   1.000000
    5       11.705540   0.000000
    6       12.527308   0.000000
    7       14.568726   0.000000
    8       15.472443   0.000000
 
  0.4285714E+00  0.2857143E+00  0.1428571E+00  0.2332362E-01
    1       -0.717401   1.000000
    2        0.984872   1.000000
    3        8.219754   1.000000
    4        8.394614   0.999945
    5       10.778878   0.000000
    6       11.991165   0.000000
    7       12.721268   0.000000
    8       13.871418   0.000000
 
 -0.2857143E+00  0.2857143E+00  0.1428571E+00  0.2332362E-01
    1       -3.366822   1.000000
    2        1.719116   1.000000
    3        5.334384   1.000000
    4       10.160375   0.000000
    5       11.829701   0.000000
    6       15.872374   0.000000
    7       16.049270   0.000000
    8       17.371576   0.000000
 
 -0.1428571E+00  0.2857143E+00  0.1428571E+00  0.2332362E-01
    1       -3.073831   1.000000
    2        3.124980   1.000000
    3        4.516838   1.000000
    4       10.307518   0.000000
    5       11.554346   0.000000
    6       13.638076   0.000000
    7       15.370865   0.000000
    8       16.229283   0.000000
 
 -0.4285714E+00  0.4285714E+00  0.1428571E+00  0.2332362E-01
    1       -2.126125   1.000000
    2       -0.413758   1.000000
    3        6.473449   1.000000
    4        8.099476   1.000000
    5       13.072436   0.000000
    6       14.520650   0.000000
    7       16.871506   0.000000
    8       17.074372   0.000000
 
 -0.2857143E+00  0.4285714E+00  0.1428571E+00  0.4664723E-01
    1       -2.083870   1.000000
    2        1.272723   1.000000
    3        4.948450   1.000000
    4        8.138082   1.000000
    5       11.151062   0.000000
    6       14.909894   0.000000
    7       16.058721   0.000000
    8       17.807423   0.000000
 
 -0.1428571E+00  0.4285714E+00  0.1428571E+00  0.2332362E-01
    1       -0.969800   1.000000
    2        3.440807   1.000000
    3        4.895137   1.000000
    4        6.805539   1.000000
    5        9.139576   0.081042
    6       13.100877   0.000000
    7       14.378349   0.000000
    8       16.433017   0.000000
 
 -0.4285714E+00 -0.4285714E+00  0.1428571E+00  0.2332362E-01
    1       -0.623938   1.000000
    2       -0.613100   1.000000
    3        6.298355   1.000000
    4        6.314292   1.000000
    5       10.963754   0.000000
    6       15.745378   0.000000
    7       16.200520   0.000000
    8       16.687014   0.000000
 
 -0.2857143E+00 -0.4285714E+00  0.1428571E+00  0.4664723E-01
    1        0.236703   1.000000
    2        1.866149   1.000000
    3        5.456050   1.000000
    4        6.331190   1.000000
    5        7.263297   1.000000
    6       13.115603   0.000000
    7       16.273404   0.000000
    8       17.773322   0.000000
 
 -0.1428571E+00 -0.4285714E+00  0.1428571E+00  0.2332362E-01
    1        1.874647   1.000000
    2        2.738100   1.000000
    3        5.038932   1.000000
    4        6.177186   1.000000
    5        8.513206   0.998781
    6       11.074299   0.000000
    7       12.049841   0.000000
    8       16.595106   0.000000
 
 -0.2857143E+00 -0.2857143E+00  0.1428571E+00  0.2332362E-01
    1        2.028016   1.000000
    2        3.560007   1.000000
    3        3.827726   1.000000
    4        6.969318   1.000000
    5        7.135535   1.000000
    6       11.058103   0.000000
    7       13.761058   0.000000
    8       14.759780   0.000000
 
 -0.1428571E+00 -0.2857143E+00  0.1428571E+00  0.2332362E-01
    1       -0.759384   1.000000
    2        6.191312   1.000000
    3        7.313669   1.000000
    4        7.826114   1.000000
    5        8.245701   1.000000
    6       10.603107   0.000000
    7       11.088619   0.000000
    8       12.658005   0.000000
 
 -0.1428571E+00 -0.1428571E+00  0.1428571E+00  0.5830904E-02
    1       -2.943583   1.000000
    2        7.778866   1.000000
    3        7.778866   1.000000
    4        8.359632   0.999981
    5       10.715091   0.000000
    6       10.947443   0.000000
    7       12.324879   0.000000
    8       13.201515   0.000000
 
 -0.2857143E+00  0.2857143E+00  0.2857143E+00  0.1166181E-01
    1       -2.624632   1.000000
    2        1.859147   1.000000
    3        3.357535   1.000000
    4        7.692534   1.000000
    5       14.246320   0.000000
    6       15.897560   0.000000
    7       17.075546   0.000000
    8       17.549895   0.000000
 
 -0.4285714E+00  0.4285714E+00  0.2857143E+00  0.2332362E-01
    1       -1.402750   1.000000
    2        0.250860   1.000000
    3        3.996215   1.000000
    4        5.600685   1.000000
    5       15.044262   0.000000
    6       15.396904   0.000000
    7       17.648124   0.000000
    8       18.794184   0.000000
 
 -0.2857143E+00  0.4285714E+00  0.2857143E+00  0.2332362E-01
    1       -1.113524   1.000000
    2        1.644582   1.000000
    3        3.181744   1.000000
    4        5.865074   1.000000
    5       10.555530   0.000000
    6       17.677008   0.000000
    7       17.824975   0.000000
    8       18.805773   0.000000
 
 -0.4285714E+00 -0.4285714E+00  0.2857143E+00  0.2332362E-01
    1        0.279625   1.000000
    2        0.300148   1.000000
    3        4.032721   1.000000
    4        4.047400   1.000000
    5       10.341163   0.000000
    6       17.947762   0.000000
    7       19.161601   0.000000
    8       19.876349   0.000000
 
 -0.2857143E+00 -0.4285714E+00  0.2857143E+00  0.2332362E-01
    1        1.375402   1.000000
    2        2.462603   1.000000
    3        4.008658   1.000000
    4        5.020384   1.000000
    5        6.053520   1.000000
    6       15.128565   0.000000
    7       16.292188   0.000000
    8       17.952206   0.000000
 
 -0.2857143E+00 -0.2857143E+00  0.2857143E+00  0.5830904E-02
    1        1.856604   1.000000
    2        4.444556   1.000000
    3        4.682399   1.000000
    4        5.778527   1.000000
    5        5.778527   1.000000
    6       13.153970   0.000000
    7       13.507954   0.000000
    8       13.507958   0.000000
 
 -0.4285714E+00  0.4285714E+00  0.4285714E+00  0.1166181E-01
    1       -0.244372   1.000000
    2        0.861423   1.000000
    3        2.443755   1.000000
    4        3.533332   1.000000
    5       15.042878   0.000000
    6       15.099945   0.000000
    7       20.241342   0.000000
    8       21.211805   0.000000
 
 -0.4285714E+00 -0.4285714E+00  0.4285714E+00  0.5830904E-02
    1        1.127720   1.000000
    2        1.164051   1.000000
    3        2.722858   1.000000
    4        2.722858   1.000000
    5       10.123895   0.000000
    6       19.087146   0.000000
    7       20.474562   0.000000
    8       20.474568   0.000000
