unknown system                          
   1.00000000000000     
    -2.378859    2.378859    1.344630
     2.378859   -2.378859    1.344630
     2.378859    2.378859   -1.344630
   Si
     2
Direct
  0.250000  0.750000  0.500000
  0.000000 -0.000000  0.000000
 
   28   28   28
 -.56049002988E+01 -.41282414588E+01 -.25497855693E+00 0.46111086320E+01 0.88668069739E+01
 0.11385037681E+02 0.11885836826E+02 0.10872343045E+02 0.92336196826E+01 0.76157578089E+01
 0.62256999883E+01 0.51453624820E+01 0.43908680123E+01 0.39492610857E+01 0.38042667092E+01
 0.39492639370E+01 0.43908822523E+01 0.51453861553E+01 0.62257175816E+01 0.76157608810E+01
 0.92336178923E+01 0.10872348411E+02 0.11885846959E+02 0.11385041583E+02 0.88668002717E+01
 0.46110963501E+01 -.25498968614E+00 -.41282476943E+01 -.41282476943E+01 -.47919608220E+01
 -.26404444797E+01 0.15033435167E+01 0.61491239475E+01 0.98169712413E+01 0.11634618431E+02
 0.11576662032E+02 0.10290652468E+02 0.86427306513E+01 0.71017793721E+01 0.58185984265E+01
 0.48506737160E+01 0.42022194144E+01 0.38578939250E+01 0.38042380478E+01 0.40392154925E+01
 0.45735227187E+01 0.54246872559E+01 0.66009702734E+01 0.80724930049E+01 0.97339532737E+01
 0.11309904854E+02 0.12039790389E+02 0.11095483976E+02 0.81570474466E+01 0.37341093306E+01
 -.88922163404E+00 -.25498968614E+00 -.26404451844E+01 -.25282070132E+01 0.13699801228E-01
 0.39954029390E+01 0.79822404272E+01 0.10738227417E+02 0.11700085637E+02 0.11078077251E+02
 0.95985584521E+01 0.79968185291E+01 0.65617618690E+01 0.54035141294E+01 0.45570181501E+01
 0.40175999774E+01 0.37698534302E+01 0.38041784879E+01 0.41229982697E+01 0.47400006005E+01
 0.56721652723E+01 0.69212108769E+01 0.84432724456E+01 0.10113711224E+02 0.11594887018E+02
 0.12096690523E+02 0.10907295392E+02 0.78946289433E+01 0.37341093306E+01 0.46110963501E+01
 0.15033393047E+01 0.13707968821E-01 0.71160884106E+00 0.32836878129E+01 0.66977364215E+01
 0.97025525563E+01 0.11382483366E+02 0.11485699366E+02 0.10401658234E+02 0.88498038462E+01
 0.73337861181E+01 0.60265560216E+01 0.50029860116E+01 0.42795640759E+01 0.38462637166E+01
 0.36895703764E+01 0.38041465534E+01 0.41961550271E+01 0.48808050556E+01 0.58727379986E+01
 0.71660476075E+01 0.87044506432E+01 0.10350148106E+02 0.11733554375E+02 0.12108749225E+02
 0.10907295392E+02 0.81570474466E+01 0.88668002717E+01 0.61491124914E+01 0.39954074858E+01
 0.32837045839E+01 0.42865356807E+01 0.65422685353E+01 0.90972877944E+01 0.10972480787E+02
 0.11593814092E+02 0.10976518936E+02 0.96098356211E+01 0.80905288291E+01 0.66903938657E+01
 0.55240610167E+01 0.46365906030E+01 0.40312758402E+01 0.36961414102E+01 0.36208843376E+01
 0.38041859186E+01 0.42547758038E+01 0.49877495328E+01 0.60139177838E+01 0.73196362200E+01
 0.88393369840E+01 0.10430239135E+02 0.11733554375E+02 0.12096690523E+02 0.11095483976E+02
 0.11385041583E+02 0.98169632137E+01 0.79822307490E+01 0.66977483991E+01 0.65422899306E+01
 0.75599590660E+01 0.92462732912E+01 0.10818300858E+02 0.11605480683E+02 0.11344841021E+02
 0.10242401293E+02 0.87934692385E+01 0.73627739026E+01 0.60991770494E+01 0.50773811582E+01
 0.43199510398E+01 0.38223844622E+01 0.35735260268E+01 0.35668538707E+01 0.38042887243E+01
 0.42957117114E+01 0.50545522658E+01 0.60868144574E+01 0.73719710752E+01 0.88393369840E+01
 0.10350148106E+02 0.11594887018E+02 0.12039790389E+02 0.11885846959E+02 0.11634628862E+02
 0.10738219433E+02 0.97025459153E+01 0.90973031375E+01 0.92462929801E+01 0.10051898967E+02
 0.11056333805E+02 0.11696005471E+02 0.11594333194E+02 0.10731384281E+02 0.94146871460E+01
 0.80130273219E+01 0.67040721798E+01 0.55864522348E+01 0.47040005836E+01 0.40644764605E+01
 0.36603074484E+01 0.34830035452E+01 0.35296858265E+01 0.38043972148E+01 0.43167508923E+01
 0.50772680490E+01 0.60868144574E+01 0.73196362200E+01 0.87044506432E+01 0.10113711224E+02
 0.11309904854E+02 0.10872348411E+02 0.11576686025E+02 0.11700100434E+02 0.11382477823E+02
 0.10972478402E+02 0.10818314266E+02 0.11056345507E+02 0.11529863623E+02 0.11885701448E+02
 0.11783223396E+02 0.11086645042E+02 0.99331269413E+01 0.86136765299E+01 0.73133750722E+01
 0.61450024917E+01 0.51716581971E+01 0.44159441745E+01 0.38777318729E+01 0.35499342593E+01
 0.34275846309E+01 0.35107710038E+01 0.38044433282E+01 0.43167508923E+01 0.50545522658E+01
 0.60139177838E+01 0.71660476075E+01 0.84432724456E+01 0.97339532737E+01 0.92336178923E+01
 0.10290669545E+02 0.11078107188E+02 0.11485715099E+02 0.11593813574E+02 0.11605483234E+02
 0.11696012473E+02 0.11885701461E+02 0.12021294123E+02 0.11876002995E+02 0.11299817665E+02
 0.10323874492E+02 0.91370669934E+01 0.79008946178E+01 0.67320132290E+01 0.57083601044E+01
 0.48678523380E+01 0.42206503849E+01 0.37642001641E+01 0.34941093471E+01 0.34089355760E+01
 0.35107710038E+01 0.38043972148E+01 0.42957117114E+01 0.49877495328E+01 0.58727379986E+01
 0.69212108769E+01 0.80724930049E+01 0.76157608810E+01 0.86427345520E+01 0.95985795722E+01
 0.10401684323E+02 0.10976532164E+02 0.11344847056E+02 0.11594340391E+02 0.11783222149E+02
 0.11875991754E+02 0.11758437594E+02 0.11320824540E+02 0.10550152275E+02 0.95495559948E+01
 0.84371579296E+01 0.73240719605E+01 0.62974774265E+01 0.54096261704E+01 0.46829054659E+01
 0.41221526168E+01 0.37261329252E+01 0.34941093471E+01 0.34275846309E+01 0.35296858265E+01
 0.38042887243E+01 0.42547758038E+01 0.48808050556E+01 0.56721652723E+01 0.66009702734E+01
 0.62257175816E+01 0.71017846360E+01 0.79968262845E+01 0.88498208762E+01 0.96098499720E+01
 0.10242409542E+02 0.10731396242E+02 0.11086655478E+02 0.11299809663E+02 0.11320806419E+02
 0.11084532920E+02 0.10567813412E+02 0.98099031538E+01 0.88863330102E+01 0.78931800443E+01
 0.69195287517E+01 0.60292937054E+01 0.52581088423E+01 0.46208504429E+01 0.41221526168E+01
 0.37642001641E+01 0.35499342593E+01 0.34830035452E+01 0.35668538707E+01 0.38041859186E+01
 0.41961550271E+01 0.47400006005E+01 0.54246872559E+01 0.51453861553E+01 0.58186139495E+01
 0.65617695657E+01 0.73337953868E+01 0.80905363998E+01 0.87934687563E+01 0.94146892917E+01
 0.99331417421E+01 0.10323885950E+02 0.10550141569E+02 0.10567794748E+02 0.10343849497E+02
 0.98771045045E+01 0.92069878082E+01 0.84041543590E+01 0.75490860521E+01 0.67113117706E+01
 0.59386844930E+01 0.52581088423E+01 0.46829054659E+01 0.42206503849E+01 0.38777318729E+01
 0.36603074484E+01 0.35735260268E+01 0.36208843376E+01 0.38041465534E+01 0.41229982697E+01
 0.45735227187E+01 0.43908822523E+01 0.48506890624E+01 0.54035242574E+01 0.60265654067E+01
 0.66904025588E+01 0.73627714605E+01 0.80130145090E+01 0.86136726335E+01 0.91370799644E+01
 0.95495661409E+01 0.98098943768E+01 0.98770907027E+01 0.97257070868E+01 0.93596157123E+01
 0.88151099032E+01 0.81509704361E+01 0.74314366909E+01 0.67113117706E+01 0.60292937054E+01
 0.54096261704E+01 0.48678523380E+01 0.44159441745E+01 0.40644764605E+01 0.38223844622E+01
 0.36961414102E+01 0.36895703764E+01 0.38041784879E+01 0.40392154925E+01 0.39492639370E+01
 0.42022241620E+01 0.45570205319E+01 0.50029893068E+01 0.55240701062E+01 0.60991839353E+01
 0.67040638989E+01 0.73133564420E+01 0.79008854969E+01 0.84371646612E+01 0.88863402324E+01
 0.92069839477E+01 0.93596088119E+01 0.93188143858E+01 0.90835835712E+01 0.86794344118E+01
 0.81509704361E+01 0.75490860521E+01 0.69195287517E+01 0.62974774265E+01 0.57083601044E+01
 0.51716581971E+01 0.47040005836E+01 0.43199510398E+01 0.40312758402E+01 0.38462637166E+01
 0.37698534302E+01 0.38042380478E+01 0.38042667092E+01 0.38578928777E+01 0.40175938365E+01
 0.42795548533E+01 0.46365873716E+01 0.50773870300E+01 0.55864571259E+01 0.61449950253E+01
 0.67319960911E+01 0.73240587921E+01 0.78931783996E+01 0.84041583819E+01 0.88151109192E+01
 0.90835815033E+01 0.91771435604E+01 0.90835835712E+01 0.88151099032E+01 0.84041543590E+01
 0.78931800443E+01 0.73240719605E+01 0.67320132290E+01 0.61450024917E+01 0.55864522348E+01
 0.50773811582E+01 0.46365906030E+01 0.42795640759E+01 0.40175999774E+01 0.38578939250E+01
 0.39492610857E+01 0.38042377132E+01 0.37698486410E+01 0.38462510072E+01 0.40312612834E+01
 0.43199426055E+01 0.47040003044E+01 0.51716616737E+01 0.57083592080E+01 0.62974665393E+01
 0.69195128446E+01 0.75490773183E+01 0.81509724059E+01 0.86794374350E+01 0.90835815033E+01
 0.93188143858E+01 0.93596157123E+01 0.92069878082E+01 0.88863330102E+01 0.84371579296E+01
 0.79008946178E+01 0.73133750722E+01 0.67040721798E+01 0.60991770494E+01 0.55240610167E+01
 0.50029860116E+01 0.45570181501E+01 0.42022194144E+01 0.43908680123E+01 0.40392102032E+01
 0.38041770238E+01 0.36895637453E+01 0.36961301785E+01 0.38223726264E+01 0.40644643939E+01
 0.44159360470E+01 0.48678552008E+01 0.54096338322E+01 0.60292893533E+01 0.67112944830E+01
 0.74314251917E+01 0.81509724059E+01 0.88151109192E+01 0.93596088119E+01 0.97257070868E+01
 0.98771045045E+01 0.98099031538E+01 0.95495559948E+01 0.91370669934E+01 0.86136765299E+01
 0.80130273219E+01 0.73627739026E+01 0.66903938657E+01 0.60265560216E+01 0.54035141294E+01
 0.48506737160E+01 0.51453624820E+01 0.45735054789E+01 0.41229927750E+01 0.38041427511E+01
 0.36208787228E+01 0.35735242768E+01 0.36603044634E+01 0.38777175332E+01 0.42206349295E+01
 0.46829082507E+01 0.52581223680E+01 0.59386828663E+01 0.67112944830E+01 0.75490773183E+01
 0.84041583819E+01 0.92069839477E+01 0.98770907027E+01 0.10343849497E+02 0.10567813412E+02
 0.10550152275E+02 0.10323874492E+02 0.99331269413E+01 0.94146871460E+01 0.87934692385E+01
 0.80905288291E+01 0.73337861181E+01 0.65617618690E+01 0.58185984265E+01 0.62256999883E+01
 0.54246643307E+01 0.47399891015E+01 0.41961513051E+01 0.38041787693E+01 0.35668517106E+01
 0.34830153992E+01 0.35499416654E+01 0.37641846007E+01 0.41221327328E+01 0.46208532668E+01
 0.52581223680E+01 0.60292893533E+01 0.69195128446E+01 0.78931783996E+01 0.88863402324E+01
 0.98098943768E+01 0.10567794748E+02 0.11084532920E+02 0.11320824540E+02 0.11299817665E+02
 0.11086645042E+02 0.10731384281E+02 0.10242401293E+02 0.96098356211E+01 0.88498038462E+01
 0.79968185291E+01 0.71017793721E+01 0.76157578089E+01 0.66009550310E+01 0.56721529693E+01
 0.48808065329E+01 0.42547748677E+01 0.38042779979E+01 0.35296878741E+01 0.34276082377E+01
 0.34941235912E+01 0.37261169771E+01 0.41221327328E+01 0.46829082507E+01 0.54096338322E+01
 0.62974665393E+01 0.73240587921E+01 0.84371646612E+01 0.95495661409E+01 0.10550141569E+02
 0.11320806419E+02 0.11758437594E+02 0.11876002995E+02 0.11783223396E+02 0.11594333194E+02
 0.11344841021E+02 0.10976518936E+02 0.10401658234E+02 0.95985584521E+01 0.86427306513E+01
 0.92336196826E+01 0.80724914161E+01 0.69212019283E+01 0.58727427995E+01 0.49877666484E+01
 0.42957134168E+01 0.38043837380E+01 0.35107758844E+01 0.34089637989E+01 0.34941235912E+01
 0.37641846007E+01 0.42206349295E+01 0.48678552008E+01 0.57083592080E+01 0.67319960911E+01
 0.79008854969E+01 0.91370799644E+01 0.10323885950E+02 0.11299809663E+02 0.11875991754E+02
 0.12021294123E+02 0.11885701448E+02 0.11696005471E+02 0.11605480683E+02 0.11593814092E+02
 0.11485699366E+02 0.11078077251E+02 0.10290652468E+02 0.10872343045E+02 0.97339614937E+01
 0.84432716288E+01 0.71660467183E+01 0.60139398484E+01 0.50545819232E+01 0.43167541660E+01
 0.38044288195E+01 0.35107758844E+01 0.34276082377E+01 0.35499416654E+01 0.38777175332E+01
 0.44159360470E+01 0.51716616737E+01 0.61449950253E+01 0.73133564420E+01 0.86136726335E+01
 0.99331417421E+01 0.11086655478E+02 0.11783222149E+02 0.11885701461E+02 0.11529863623E+02
 0.11056333805E+02 0.10818300858E+02 0.10972480787E+02 0.11382483366E+02 0.11700085637E+02
 0.11576662032E+02 0.11885836826E+02 0.11309915373E+02 0.10113725279E+02 0.87044501240E+01
 0.73196420285E+01 0.60868472715E+01 0.50773024817E+01 0.43167541660E+01 0.38043837380E+01
 0.35296878741E+01 0.34830153992E+01 0.36603044634E+01 0.40644643939E+01 0.47040003044E+01
 0.55864571259E+01 0.67040638989E+01 0.80130145090E+01 0.94146892917E+01 0.10731396242E+02
 0.11594340391E+02 0.11696012473E+02 0.11056345507E+02 0.10051898967E+02 0.92462732912E+01
 0.90972877944E+01 0.97025525563E+01 0.10738227417E+02 0.11634618431E+02 0.11385037681E+02
 0.12039797032E+02 0.11594912423E+02 0.10350166202E+02 0.88393365416E+01 0.73719794788E+01
 0.60868472715E+01 0.50545819232E+01 0.42957134168E+01 0.38042779979E+01 0.35668517106E+01
 0.35735242768E+01 0.38223726264E+01 0.43199426055E+01 0.50773870300E+01 0.60991839353E+01
 0.73627714605E+01 0.87934687563E+01 0.10242409542E+02 0.11344847056E+02 0.11605483234E+02
 0.10818314266E+02 0.92462929801E+01 0.75599590660E+01 0.65422685353E+01 0.66977364215E+01
 0.79822404272E+01 0.98169712413E+01 0.88668069739E+01 0.11095486530E+02 0.12096710641E+02
 0.11733588716E+02 0.10430258673E+02 0.88393365416E+01 0.73196420285E+01 0.60139398484E+01
 0.49877666484E+01 0.42547748677E+01 0.38041787693E+01 0.36208787228E+01 0.36961301785E+01
 0.40312612834E+01 0.46365873716E+01 0.55240701062E+01 0.66904025588E+01 0.80905363998E+01
 0.96098499720E+01 0.10976532164E+02 0.11593813574E+02 0.10972478402E+02 0.90973031375E+01
 0.65422899306E+01 0.42865356807E+01 0.32836878129E+01 0.39954029390E+01 0.61491239475E+01
 0.46111086320E+01 0.81570527103E+01 0.10907301942E+02 0.12108774478E+02 0.11733588716E+02
 0.10350166202E+02 0.87044501240E+01 0.71660467183E+01 0.58727427995E+01 0.48808065329E+01
 0.41961513051E+01 0.38041427511E+01 0.36895637453E+01 0.38462510072E+01 0.42795548533E+01
 0.50029893068E+01 0.60265654067E+01 0.73337953868E+01 0.88498208762E+01 0.10401684323E+02
 0.11485715099E+02 0.11382477823E+02 0.97025459153E+01 0.66977483991E+01 0.32837045839E+01
 0.71160884106E+00 0.13699801228E-01 0.15033435167E+01 -.25497855693E+00 0.37341218910E+01
 0.78946336111E+01 0.10907301942E+02 0.12096710641E+02 0.11594912423E+02 0.10113725279E+02
 0.84432716288E+01 0.69212019283E+01 0.56721529693E+01 0.47399891015E+01 0.41229927750E+01
 0.38041770238E+01 0.37698486410E+01 0.40175938365E+01 0.45570205319E+01 0.54035242574E+01
 0.65617695657E+01 0.79968262845E+01 0.95985795722E+01 0.11078107188E+02 0.11700100434E+02
 0.10738219433E+02 0.79822307490E+01 0.39954074858E+01 0.13707968821E-01 -.25282070132E+01
 -.26404444797E+01 -.41282414588E+01 -.88920789176E+00 0.37341218910E+01 0.81570527103E+01
 0.11095486530E+02 0.12039797032E+02 0.11309915373E+02 0.97339614937E+01 0.80724914161E+01
 0.66009550310E+01 0.54246643307E+01 0.45735054789E+01 0.40392102032E+01 0.38042377132E+01
 0.38578928777E+01 0.42022241620E+01 0.48506890624E+01 0.58186139495E+01 0.71017846360E+01
 0.86427345520E+01 0.10290669545E+02 0.11576686025E+02 0.11634628862E+02 0.98169632137E+01
 0.61491124914E+01 0.15033393047E+01 -.26404451844E+01 -.47919608220E+01 -.41281437473E+01
 -.30986260672E+01 0.25443399926E+00 0.46939472766E+01 0.87066751601E+01 0.11157982631E+02
 0.11693529976E+02 0.10730073044E+02 0.91049759495E+01 0.74788177283E+01 0.60692863967E+01
 0.49624472278E+01 0.41768634335E+01 0.36991759644E+01 0.35106922968E+01 0.36018448932E+01
 0.39770280380E+01 0.46520770048E+01 0.56430219562E+01 0.69430900356E+01 0.84889370445E+01
 0.10119226298E+02 0.11322246844E+02 0.11249238865E+02 0.93318043894E+01 0.56964273123E+01
 0.12821289828E+01 -.24504577177E+01 -.30986277046E+01 -.41281493160E+01 -.24504692570E+01
 0.12821148588E+01 0.56964152976E+01 0.93317898794E+01 0.11249212684E+02 0.11322213576E+02
 0.10119204747E+02 0.84889357340E+01 0.69430950279E+01 0.56430178921E+01 0.46520675957E+01
 0.39770244046E+01 0.36018457805E+01 0.35106906918E+01 0.36991762350E+01 0.41768751544E+01
 0.49624665855E+01 0.60692995220E+01 0.74788215100E+01 0.91049824471E+01 0.10730092329E+02
 0.11693558458E+02 0.11158009466E+02 0.87066928217E+01 0.46939549122E+01 0.25443530736E+00
 0.38788221037E+00 -.23082812283E+01 -.26403698372E+01 -.51333631318E+00 0.32225255471E+01
 0.71849303415E+01 0.10090494498E+02 0.11268301041E+02 0.10822654571E+02 0.94234589104E+01
 0.78365155555E+01 0.63966513147E+01 0.52231910975E+01 0.43574250808E+01 0.37967605245E+01
 0.35247317708E+01 0.35296273167E+01 0.38124222159E+01 0.43870257681E+01 0.52732234353E+01
 0.64795280730E+01 0.79743695091E+01 0.96510092305E+01 0.11230413245E+02 0.11973610597E+02
 0.11122740785E+02 0.84338272955E+01 0.44469211205E+01 0.50396435719E+01 0.16646213475E+01
 -.24799319273E+00 0.13748253583E-01 0.22893141130E+01 0.56356242145E+01 0.87888103574E+01
 0.10736285389E+02 0.11102297873E+02 0.10185884617E+02 0.86872596419E+01 0.71813080128E+01
 0.58673517488E+01 0.48302380622E+01 0.40920924329E+01 0.36440608318E+01 0.34712828967E+01
 0.35668369808E+01 0.39365527070E+01 0.45972726266E+01 0.55679124118E+01 0.68504239937E+01
 0.84004353433E+01 0.10094991970E+02 0.11608498580E+02 0.12201663968E+02 0.11236369735E+02
 0.86310237334E+01 0.92735026101E+01 0.63433340161E+01 0.38047723398E+01 0.26442276089E+01
 0.32837056309E+01 0.53813942832E+01 0.80164563934E+01 0.10145285755E+02 0.11072097946E+02
 0.10696052750E+02 0.94457094305E+01 0.79527752267E+01 0.65550526162E+01 0.53799265113E+01
 0.44815517570E+01 0.38673121175E+01 0.35253507680E+01 0.34439344125E+01 0.36209199161E+01
 0.40658974177E+01 0.47968605810E+01 0.58299032556E+01 0.71593815121E+01 0.87297982147E+01
 0.10408113252E+02 0.11855594820E+02 0.12393553339E+02 0.11518041858E+02 0.11901944011E+02
 0.10199510247E+02 0.80543287810E+01 0.63480493644E+01 0.57851823528E+01 0.65422565132E+01
 0.81903824373E+01 0.99302863924E+01 0.10996748562E+02 0.11005480302E+02 0.10072332481E+02
 0.86748253395E+01 0.72545192570E+01 0.59859082047E+01 0.49548459941E+01 0.41908841835E+01
 0.36916860288E+01 0.34452937363E+01 0.34439493373E+01 0.36896561235E+01 0.41942503888E+01
 0.49749564639E+01 0.60433851295E+01 0.73861031580E+01 0.89393801605E+01 0.10567574112E+02
 0.11957128895E+02 0.12527699318E+02 0.12549596099E+02 0.12258518222E+02 0.11161410281E+02
 0.97846399200E+01 0.87837424144E+01 0.86032338726E+01 0.92462377467E+01 0.10287236192E+02
 0.11113385187E+02 0.11246662985E+02 0.10566078026E+02 0.93245102577E+01 0.79365044081E+01
 0.66242948491E+01 0.54971541034E+01 0.46077676888E+01 0.39681816558E+01 0.35711235360E+01
 0.34067184507E+01 0.34713204593E+01 0.37699729739E+01 0.43150571197E+01 0.51212406419E+01
 0.61945205246E+01 0.75143573235E+01 0.90124797663E+01 0.10557986029E+02 0.11891637413E+02
 0.11638763715E+02 0.12393336158E+02 0.12439854393E+02 0.11903178923E+02 0.11172533407E+02
 0.10684725620E+02 0.10676529307E+02 0.11056285267E+02 0.11469787565E+02 0.11513507292E+02
 0.10962708250E+02 0.98849648306E+01 0.85753248285E+01 0.72696035043E+01 0.60893787074E+01
 0.51065941314E+01 0.43496015574E+01 0.38198361516E+01 0.35090319937E+01 0.34106846286E+01
 0.35247733856E+01 0.38580205412E+01 0.44217309455E+01 0.52266324823E+01 0.62726922905E+01
 0.75337513290E+01 0.89410054495E+01 0.10374147106E+02 0.10024394007E+02 0.11192843056E+02
 0.12011143153E+02 0.12331668076E+02 0.12236434554E+02 0.11976088253E+02 0.11803806368E+02
 0.11813407678E+02 0.11885651630E+02 0.11773661892E+02 0.11267870920E+02 0.10334839215E+02
 0.91438075058E+01 0.78943007331E+01 0.67085891754E+01 0.56714327362E+01 0.48267183929E+01
 0.41870963627E+01 0.37492442340E+01 0.35066751592E+01 0.34566539715E+01 0.36018692713E+01
 0.39493654632E+01 0.45080958310E+01 0.52841001175E+01 0.62717097488E+01 0.74412614739E+01
 0.87272572616E+01 0.83846309775E+01 0.95304324460E+01 0.10575429786E+02 0.11398532576E+02
 0.11892669644E+02 0.12089959506E+02 0.12122444038E+02 0.12108515155E+02 0.12060248834E+02
 0.11875961142E+02 0.11420622039E+02 0.10636476844E+02 0.96055113321E+01 0.84656028217E+01
 0.73275225800E+01 0.62820645603E+01 0.53863508848E+01 0.46654484471E+01 0.41237303418E+01
 0.37574932673E+01 0.35635737587E+01 0.35426910255E+01 0.36991646187E+01 0.40392694357E+01
 0.45688998280E+01 0.52894369874E+01 0.61907490854E+01 0.72421360606E+01 0.69497973268E+01
 0.79367363267E+01 0.89257897212E+01 0.98382890332E+01 0.10604943671E+02 0.11168405433E+02
 0.11519763826E+02 0.11704005054E+02 0.11754165303E+02 0.11647591308E+02 0.11320794975E+02
 0.10731112133E+02 0.99123884664E+01 0.89423665930E+01 0.79128564193E+01 0.69136754976E+01
 0.60117498996E+01 0.52447883587E+01 0.46271386481E+01 0.41606186752E+01 0.38439546367E+01
 0.36777992757E+01 0.36656028108E+01 0.38123696975E+01 0.41229967890E+01 0.46003111106E+01
 0.52418464185E+01 0.60347696260E+01 0.58142133800E+01 0.65845658259E+01 0.74148484487E+01
 0.82520129126E+01 0.90383960734E+01 0.97241289793E+01 0.10277180240E+02 0.10681829420E+02
 0.10931365147E+02 0.11014192589E+02 0.10901646233E+02 0.10567795534E+02 0.10014178186E+02
 0.92770105023E+01 0.84240249990E+01 0.75353226670E+01 0.66818220678E+01 0.59123953726E+01
 0.52529260930E+01 0.47134490841E+01 0.42971345045E+01 0.40065707065E+01 0.38460333588E+01
 0.38209508841E+01 0.39364668628E+01 0.41961039983E+01 0.46003064316E+01 0.51441834950E+01
 0.50027628340E+01 0.55439547303E+01 0.61713575854E+01 0.68541611828E+01 0.75535329896E+01
 0.82279472711E+01 0.88404830672E+01 0.93635654965E+01 0.97770919090E+01 0.10061026217E+02
 0.10189531850E+02 0.10134215396E+02 0.98770950092E+01 0.94251245803E+01 0.88156381935E+01
 0.81082825412E+01 0.73682711290E+01 0.66505417128E+01 0.59920190396E+01 0.54130044515E+01
 0.49237349044E+01 0.45309913798E+01 0.42416903739E+01 0.40633367423E+01 0.40029316536E+01
 0.40657950617E+01 0.42546899623E+01 0.45688837379E+01 0.45080634434E+01 0.48267347170E+01
 0.52416653630E+01 0.57368182592E+01 0.62897093541E+01 0.68725570515E+01 0.74554577167E+01
 0.80103582787E+01 0.85129766174E+01 0.89406617258E+01 0.92678834690E+01 0.94644788451E+01
 0.95009410678E+01 0.93596114005E+01 0.90451289483E+01 0.85869718084E+01 0.80319718749E+01
 0.74310844506E+01 0.68276017104E+01 0.62519276255E+01 0.57232624036E+01 0.52547098364E+01
 0.48576640708E+01 0.45434378581E+01 0.43226813204E+01 0.42041991210E+01 0.41941513971E+01
 0.42956077791E+01 0.43166423947E+01 0.44216778264E+01 0.46271325157E+01 0.49259191636E+01
 0.53065179826E+01 0.57528894779E+01 0.62451802443E+01 0.67615690522E+01 0.72804215048E+01
 0.77808434378E+01 0.82404858032E+01 0.86322076108E+01 0.89235082847E+01 0.90816897593E+01
 0.90835827732E+01 0.89246822804E+01 0.86221193868E+01 0.82095024203E+01 0.77265930654E+01
 0.72095357642E+01 0.66861810761E+01 0.61771024435E+01 0.56993370198E+01 0.52692216678E+01
 0.49027665760E+01 0.46144154713E+01 0.44157656548E+01 0.43149779065E+01 0.44216799951E+01
 0.43166469382E+01 0.43149831248E+01 0.44157715803E+01 0.46144214661E+01 0.49027742850E+01
 0.52692368669E+01 0.56993589522E+01 0.61771167410E+01 0.66861764830E+01 0.72095228025E+01
 0.77265906523E+01 0.82095108184E+01 0.86221242039E+01 0.89246808615E+01 0.90835853186E+01
 0.90816956430E+01 0.89235045235E+01 0.86321939874E+01 0.82404791915E+01 0.77808504065E+01
 0.72804262164E+01 0.67615570235E+01 0.62451577853E+01 0.57528708035E+01 0.53065069985E+01
 0.49259126966E+01 0.46271301080E+01 0.48267359999E+01 0.45080726679E+01 0.42956193033E+01
 0.41941622106E+01 0.42042094455E+01 0.43226876676E+01 0.45434389570E+01 0.48576698609E+01
 0.52547277826E+01 0.57232794949E+01 0.62519257658E+01 0.68275867403E+01 0.74310778200E+01
 0.80319773131E+01 0.85869749553E+01 0.90451274866E+01 0.93596175449E+01 0.95009526531E+01
 0.94644767274E+01 0.92678639045E+01 0.89406450915E+01 0.85129753501E+01 0.80103594564E+01
 0.74554469513E+01 0.68725389664E+01 0.62896946030E+01 0.57368082448E+01 0.52416591571E+01
 0.55439511830E+01 0.50027689432E+01 0.45688974040E+01 0.42547030159E+01 0.40658083419E+01
 0.40029474737E+01 0.40633448498E+01 0.42416836698E+01 0.45309856494E+01 0.49237474410E+01
 0.54130229973E+01 0.59920198264E+01 0.66505285934E+01 0.73682662955E+01 0.81082872425E+01
 0.88156360991E+01 0.94251177957E+01 0.98771009933E+01 0.10134229871E+02 0.10189529890E+02
 0.10061002636E+02 0.97770689277E+01 0.93635566416E+01 0.88404783092E+01 0.82279378493E+01
 0.75535242140E+01 0.68541562394E+01 0.61713521950E+01 0.65845668985E+01 0.58142156390E+01
 0.51441956402E+01 0.46003203532E+01 0.41961120253E+01 0.39364791537E+01 0.38209721813E+01
 0.38460439226E+01 0.40065575625E+01 0.42971196527E+01 0.47134565659E+01 0.52529426224E+01
 0.59123958690E+01 0.66818127979E+01 0.75353237496E+01 0.84240298316E+01 0.92770007185E+01
 0.10014162969E+02 0.10567797171E+02 0.10901658131E+02 0.11014188586E+02 0.10931342101E+02
 0.10681807180E+02 0.10277167273E+02 0.97241188383E+01 0.90383899024E+01 0.82520166466E+01
 0.74148553375E+01 0.79367524336E+01 0.69498042797E+01 0.60347799912E+01 0.52418647464E+01
 0.46003209696E+01 0.41229948218E+01 0.38123781152E+01 0.36656274218E+01 0.36778113252E+01
 0.38439382987E+01 0.41606003185E+01 0.46271423980E+01 0.52447984134E+01 0.60117457860E+01
 0.69136694392E+01 0.79128635678E+01 0.89423706726E+01 0.99123713042E+01 0.10731089500E+02
 0.11320789784E+02 0.11647595366E+02 0.11754158173E+02 0.11703988483E+02 0.11519750046E+02
 0.11168393409E+02 0.10604931849E+02 0.98382892659E+01 0.89258060167E+01 0.95304578233E+01
 0.83846500686E+01 0.72421460164E+01 0.61907674603E+01 0.52894598476E+01 0.45689027851E+01
 0.40392561139E+01 0.36991674604E+01 0.35427146333E+01 0.35635845496E+01 0.37574773607E+01
 0.41237146486E+01 0.46654498382E+01 0.53863510382E+01 0.62820525005E+01 0.73275170599E+01
 0.84656122376E+01 0.96055127238E+01 0.10636455848E+02 0.11420597187E+02 0.11875949773E+02
 0.12060242848E+02 0.12108506155E+02 0.12122439228E+02 0.12089959468E+02 0.11892663273E+02
 0.11398524456E+02 0.10575439216E+02 0.11192862346E+02 0.10024422377E+02 0.87272718442E+01
 0.74412700912E+01 0.62717329366E+01 0.52841241022E+01 0.45080915456E+01 0.39493435362E+01
 0.36018662906E+01 0.34566713379E+01 0.35066810496E+01 0.37492311579E+01 0.41870872850E+01
 0.48267182099E+01 0.56714224409E+01 0.67085689303E+01 0.78942927901E+01 0.91438135612E+01
 0.10334836332E+02 0.11267851911E+02 0.11773642336E+02 0.11885637878E+02 0.11813393845E+02
 0.11803798951E+02 0.11976097806E+02 0.12236449031E+02 0.12331669868E+02 0.12011143333E+02
 0.12393346112E+02 0.11638790413E+02 0.10374171732E+02 0.89410095530E+01 0.75337541451E+01
 0.62727145958E+01 0.52266532277E+01 0.44217214979E+01 0.38579956738E+01 0.35247657319E+01
 0.34106916122E+01 0.35090299965E+01 0.38198262161E+01 0.43495992747E+01 0.51065924283E+01
 0.60893610070E+01 0.72695787606E+01 0.85753132360E+01 0.98849631720E+01 0.10962701168E+02
 0.11513496363E+02 0.11469780199E+02 0.11056274599E+02 0.10676513384E+02 0.10684723952E+02
 0.11172556065E+02 0.11903203850E+02 0.12439863553E+02 0.12258530729E+02 0.12549613084E+02
 0.11891666291E+02 0.10558001763E+02 0.90124710976E+01 0.75143512685E+01 0.61945355649E+01
 0.51212540808E+01 0.43150458864E+01 0.37699514080E+01 0.34713102841E+01 0.34067138712E+01
 0.35711128968E+01 0.39681734408E+01 0.46077689838E+01 0.54971505541E+01 0.66242755593E+01
 0.79364818606E+01 0.93244967390E+01 0.10566068042E+02 0.11246653924E+02 0.11113386487E+02
 0.10287244546E+02 0.92462349915E+01 0.86032225792E+01 0.87837492921E+01 0.97846707233E+01
 0.11161438195E+02 0.10199532892E+02 0.11901953936E+02 0.12527717062E+02 0.11957153479E+02
 0.10567578993E+02 0.89393608683E+01 0.73860877576E+01 0.60433881876E+01 0.49749601086E+01
 0.41942404958E+01 0.36896422379E+01 0.34439391129E+01 0.34452801377E+01 0.36916690925E+01
 0.41908759248E+01 0.49548463062E+01 0.59859027279E+01 0.72545049616E+01 0.86748123522E+01
 0.10072321390E+02 0.11005465674E+02 0.10996741199E+02 0.99303005669E+01 0.81904052328E+01
 0.65422637068E+01 0.57851802654E+01 0.63480645544E+01 0.80543605277E+01 0.63433595241E+01
 0.92735137744E+01 0.11518043512E+02 0.12393564275E+02 0.11855609455E+02 0.10408108837E+02
 0.87297739981E+01 0.71593592830E+01 0.58298932212E+01 0.47968544490E+01 0.40658905791E+01
 0.36209147148E+01 0.34439261359E+01 0.35253336500E+01 0.38672939854E+01 0.44815429463E+01
 0.53799225814E+01 0.65550459398E+01 0.79527709471E+01 0.94457112156E+01 0.10696049266E+02
 0.11072085030E+02 0.10145283663E+02 0.80164802526E+01 0.53814257730E+01 0.32837209452E+01
 0.26442349991E+01 0.38047921735E+01 0.16646397857E+01 0.50396579323E+01 0.86310213484E+01
 0.11236359909E+02 0.12201662118E+02 0.11608500234E+02 0.10094982351E+02 0.84004132686E+01
 0.68503997580E+01 0.55678924507E+01 0.45972594801E+01 0.39365489811E+01 0.35668381228E+01
 0.34712775030E+01 0.36440466469E+01 0.40920793833E+01 0.48302302935E+01 0.58673435099E+01
 0.71813018410E+01 0.86872671058E+01 0.10185902095E+02 0.11102305564E+02 0.10736280258E+02
 0.87888152433E+01 0.56356516476E+01 0.22893460046E+01 0.13766515697E-01 -.24798060931E+00
 -.23082705811E+01 0.38789293866E+00 0.44469231509E+01 0.84338140750E+01 0.11122720171E+02
 0.11973593958E+02 0.11230402452E+02 0.96509992590E+01 0.79743553662E+01 0.64795073109E+01
 0.52732000186E+01 0.43870105099E+01 0.38124206662E+01 0.35296306044E+01 0.35247290530E+01
 0.37967543099E+01 0.43574222824E+01 0.52231876010E+01 0.63966420992E+01 0.78365121610E+01
 0.94234760208E+01 0.10822683779E+02 0.11268319944E+02 0.10090500053E+02 0.71849409077E+01
 0.32225493672E+01 -.51331205614E+00 -.26403552134E+01 -.25476224523E+00 0.38802527575E+00
 0.29869540326E+01 0.65468289925E+01 0.97776811244E+01 0.11676054864E+02 0.11907493393E+02
 0.10827215515E+02 0.91807615180E+01 0.75483993802E+01 0.61269281969E+01 0.49989592950E+01
 0.41829501005E+01 0.36657075473E+01 0.34275979291E+01 0.34567031003E+01 0.37540555268E+01
 0.43325146606E+01 0.52083727795E+01 0.63826712921E+01 0.78123702825E+01 0.93794919660E+01
 0.10764053151E+02 0.11254595274E+02 0.10259026231E+02 0.77337460675E+01 0.43462299735E+01
 0.12822451582E+01 0.25458101141E+00 -.88896988229E+00 0.25457536912E+00 0.32270149581E+01
 0.68791255623E+01 0.99170625467E+01 0.11467143467E+02 0.11375226456E+02 0.10132062204E+02
 0.85061749340E+01 0.69633800272E+01 0.56572099935E+01 0.46505000725E+01 0.39509689121E+01
 0.35427760818E+01 0.34089453043E+01 0.35427680736E+01 0.39509655859E+01 0.46504991848E+01
 0.56571944632E+01 0.69633500409E+01 0.85061543115E+01 0.10132064899E+02 0.11375238526E+02
 0.11467147180E+02 0.99170595907E+01 0.68791266814E+01 0.32270215861E+01 0.29869586788E+01
 0.38803269857E+00 -.25475756620E+00 0.12822394771E+01 0.43462210772E+01 0.77337504436E+01