    2    2   15    1
  0.1529437E+02  0.3691622E-09  0.3691622E-09  0.3691622E-09  0.5000000E-15
  1.000000000000000E-004
  CAR 
 unknown system                          
      8      6      8
 
  0.0000000E+00  0.0000000E+00  0.0000000E+00  0.3703704E-01
    1       -4.574342   1.000000
    2        6.813280   1.000000
    3        6.813290   1.000000
    4        7.515988   1.000000
    5       10.919719   0.000000
    6       16.681607   0.000000
    7       18.238690   0.000000
    8       18.238704   0.000000
 
  0.3333333E+00 -0.7127914E-16  0.7127914E-16  0.2962963E+00
    1       -1.688345   1.000000
    2        5.619558   1.000000
    3        6.780044   1.000000
    4        7.070938   1.000000
    5       10.072001   0.000000
    6       12.107454   0.000000
    7       13.626328   0.000000
    8       14.521390   0.000000
 
  0.3333333E+00  0.3333333E+00  0.1273482E-15  0.2962963E+00
    1        1.007387   1.000000
    2        1.065904   1.000000
    3        5.513007   1.000000
    4        8.272114   1.000000
    5        9.217114   0.250000
    6       10.805766   0.000000
    7       16.137965   0.000000
    8       16.862419   0.000000
 
 -0.3333333E+00  0.3333333E+00  0.6449678E-17  0.1481481E+00
    1       -3.168767   1.000000
    2        0.961834   1.000000
    3        8.087207   1.000000
    4       10.361853   0.000000
    5       11.833433   0.000000
    6       14.236854   0.000000
    7       17.149546   0.000000
    8       17.447066   0.000000
 
 -0.3333333E+00  0.3333333E+00  0.3333333E+00  0.1481481E+00
    1       -1.787960   1.000000
    2        1.723945   1.000000
    3        3.084876   1.000000
    4        6.504626   1.000000
    5       14.767589   0.000000
    6       15.127704   0.000000
    7       18.051843   0.000000
    8       19.757189   0.000000
 
 -0.3333333E+00 -0.3333333E+00  0.3333333E+00  0.7407407E-01
    1        2.725028   1.000000
    2        3.224858   1.000000
    3        4.484906   1.000000
    4        4.484908   1.000000
    5        4.716898   1.000000
    6       15.464294   0.000000
    7       15.743928   0.000000
    8       15.743947   0.000000
