<?xml version="1.0" encoding="ISO-8859-1"?>
<modeling>
 <generator>
  <i name="program" type="string">vasp </i>
  <i name="version" type="string">5.4.4.18Apr17-6-g9f103f2a35  </i>
  <i name="subversion" type="string">(build Dec 09 2018 21:25:21) complex            parallel </i>
  <i name="platform" type="string">IFC18.0.1.163_CrayMPICH7.7.0_MKL18.0.1.163 </i>
  <i name="date" type="string">2019 03 20 </i>
  <i name="time" type="string">09:13:27 </i>
 </generator>
 <incar>
  <i type="string" name="PREC">normal</i>
  <i type="int" name="IBRION">     2</i>
  <i name="EDIFF">      0.00040000</i>
  <i name="EDIFFG">     -0.01000000</i>
  <i type="int" name="NSW">    15</i>
  <i type="int" name="ISIF">     3</i>
  <i name="ENCUT">    200.00000000</i>
  <i type="int" name="NBANDS">     8</i>
  <i type="logical" name="LREAL"> F  </i>
  <i type="int" name="ISMEAR">     0</i>
  <i name="SIGMA">      0.20000000</i>
  <v type="int" name="KPOINT_BSE">    -1     0     0     0</v>
 </incar>
 <structure name="primitive_cell" >
  <crystal>
   <varray name="basis" >
    <v>      -2.45000000       2.45000000       1.27400000 </v>
    <v>       2.45000000      -2.45000000       1.27400000 </v>
    <v>       2.45000000       2.45000000      -1.27400000 </v>
   </varray>
   <i name="volume">     30.58874000 </i>
   <varray name="rec_basis" >
    <v>       0.00000000       0.20408163       0.39246468 </v>
    <v>       0.20408163       0.00000000       0.39246468 </v>
    <v>       0.20408163       0.20408163      -0.00000000 </v>
   </varray>
  </crystal>
  <varray name="positions" >
   <v>       0.25000000      -0.25000000      -0.50000000 </v>
   <v>       0.00000000       0.00000000       0.00000000 </v>
  </varray>
 </structure>
 <varray name="primitive_index" >
  <v type="int" >        1 </v>
  <v type="int" >        2 </v>
 </varray>
 <kpoints>
  <generation param="Monkhorst-Pack">
   <v type="int" name="divisions">       3        3        3 </v>
   <v name="usershift">      0.00000000       0.00000000       0.00000000 </v>
   <v name="genvec1">      0.33333333      -0.00000000       0.00000000 </v>
   <v name="genvec2">     -0.00000000       0.33333333       0.00000000 </v>
   <v name="genvec3">     -0.00000000      -0.00000000       0.33333333 </v>
   <v name="shift">      0.00000000       0.00000000       0.00000000 </v>
  </generation>
  <varray name="kpointlist" >
   <v>       0.00000000       0.00000000       0.00000000 </v>
   <v>       0.33333333      -0.00000000       0.00000000 </v>
   <v>       0.33333333       0.33333333       0.00000000 </v>
   <v>      -0.33333333       0.33333333       0.00000000 </v>
   <v>      -0.33333333       0.33333333       0.33333333 </v>
   <v>      -0.33333333      -0.33333333       0.33333333 </v>
  </varray>
  <varray name="weights" >
   <v>       0.03703704 </v>
   <v>       0.29629630 </v>
   <v>       0.29629630 </v>
   <v>       0.14814815 </v>
   <v>       0.14814815 </v>
   <v>       0.07407407 </v>
  </varray>
 </kpoints>
 <parameters>
  <separator name="general" >
   <i type="string" name="SYSTEM">unknown system</i>
   <i type="logical" name="LCOMPAT"> F  </i>
  </separator>
  <separator name="electronic" >
   <i type="string" name="PREC">normal</i>
   <i name="ENMAX">    200.00000000</i>
   <i name="ENAUG">    322.06900000</i>
   <i name="EDIFF">      0.00040000</i>
   <i type="int" name="IALGO">    38</i>
   <i type="int" name="IWAVPR">    11</i>
   <i type="int" name="NBANDS">     8</i>
   <i name="NELECT">      8.00000000</i>
   <i type="int" name="TURBO">     0</i>
   <i type="int" name="IRESTART">     0</i>
   <i type="int" name="NREBOOT">     0</i>
   <i type="int" name="NMIN">     0</i>
   <i name="EREF">      0.00000000</i>
   <separator name="electronic smearing" >
    <i type="int" name="ISMEAR">     0</i>
    <i name="SIGMA">      0.20000000</i>
    <i name="KSPACING">      0.50000000</i>
    <i type="logical" name="KGAMMA"> T  </i>
   </separator>
   <separator name="electronic projectors" >
    <i type="logical" name="LREAL"> F  </i>
    <v name="ROPT">      0.00000000</v>
    <i type="int" name="LMAXPAW">  -100</i>
    <i type="int" name="LMAXMIX">     2</i>
    <i type="logical" name="NLSPLINE"> F  </i>
   </separator>
   <separator name="electronic startup" >
    <i type="int" name="ISTART">     0</i>
    <i type="int" name="ICHARG">     2</i>
    <i type="int" name="INIWAV">     1</i>
   </separator>
   <separator name="electronic spin" >
    <i type="int" name="ISPIN">     1</i>
    <i type="logical" name="LNONCOLLINEAR"> F  </i>
    <v name="MAGMOM">      1.00000000      1.00000000</v>
    <i name="NUPDOWN">     -1.00000000</i>
    <i type="logical" name="LSORBIT"> F  </i>
    <v name="SAXIS">      0.00000000      0.00000000      1.00000000</v>
    <i type="logical" name="LSPIRAL"> F  </i>
    <v name="QSPIRAL">      0.00000000      0.00000000      0.00000000</v>
    <i type="logical" name="LZEROZ"> F  </i>
   </separator>
   <separator name="electronic exchange-correlation" >
    <i type="logical" name="LASPH"> F  </i>
    <i type="logical" name="LMETAGGA"> F  </i>
   </separator>
   <separator name="electronic convergence" >
    <i type="int" name="NELM">    60</i>
    <i type="int" name="NELMDL">    -5</i>
    <i type="int" name="NELMIN">     2</i>
    <i name="ENINI">    200.00000000</i>
    <separator name="electronic convergence detail" >
     <i type="logical" name="LDIAG"> T  </i>
     <i type="logical" name="LSUBROT"> F  </i>
     <i name="WEIMIN">      0.00100000</i>
     <i name="EBREAK">      0.00001250</i>
     <i name="DEPER">      0.30000000</i>
     <i type="int" name="NRMM">     4</i>
     <i name="TIME">      0.40000000</i>
    </separator>
   </separator>
   <separator name="electronic mixer" >
    <i name="AMIX">      0.40000000</i>
    <i name="BMIX">      1.00000000</i>
    <i name="AMIN">      0.10000000</i>
    <i name="AMIX_MAG">      1.60000000</i>
    <i name="BMIX_MAG">      1.00000000</i>
    <separator name="electronic mixer details" >
     <i type="int" name="IMIX">     4</i>
     <i type="logical" name="MIXFIRST"> F  </i>
     <i type="int" name="MAXMIX">   -45</i>
     <i name="WC">    100.00000000</i>
     <i type="int" name="INIMIX">     1</i>
     <i type="int" name="MIXPRE">     1</i>
     <i type="int" name="MREMOVE">     5</i>
    </separator>
   </separator>
   <separator name="electronic dipolcorrection" >
    <i type="logical" name="LDIPOL"> F  </i>
    <i type="logical" name="LMONO"> F  </i>
    <i type="int" name="IDIPOL">     0</i>
    <i name="EPSILON">      1.00000000</i>
    <v name="DIPOL">   -100.00000000   -100.00000000   -100.00000000</v>
    <i name="EFIELD">      0.00000000</i>
   </separator>
  </separator>
  <separator name="grids" >
   <i type="int" name="NGX">    14</i>
   <i type="int" name="NGY">    14</i>
   <i type="int" name="NGZ">    14</i>
   <i type="int" name="NGXF">    28</i>
   <i type="int" name="NGYF">    28</i>
   <i type="int" name="NGZF">    28</i>
   <i type="logical" name="ADDGRID"> F  </i>
  </separator>
  <separator name="ionic" >
   <i type="int" name="NSW">    15</i>
   <i type="int" name="IBRION">     2</i>
   <i type="int" name="MDALGO">     0</i>
   <i type="int" name="ISIF">     3</i>
   <i name="PSTRESS">      0.00000000</i>
   <i name="EDIFFG">     -0.01000000</i>
   <i type="int" name="NFREE">     1</i>
   <i name="POTIM">      0.50000000</i>
   <i name="SMASS">     -3.00000000</i>
   <i name="SCALEE">      1.00000000</i>
  </separator>
  <separator name="ionic md" >
   <i name="TEBEG">      0.00010000</i>
   <i name="TEEND">      0.00010000</i>
   <i type="int" name="NBLOCK">     1</i>
   <i type="int" name="KBLOCK">    15</i>
   <i type="int" name="NPACO">   256</i>
   <i name="APACO">     16.00000000</i>
  </separator>
  <separator name="symmetry" >
   <i type="int" name="ISYM">     2</i>
   <i name="SYMPREC">      0.00001000</i>
  </separator>
  <separator name="dos" >
   <i type="int" name="LORBIT">     0</i>
   <v name="RWIGS">     -1.00000000</v>
   <i type="int" name="NEDOS">   301</i>
   <i name="EMIN">     10.00000000</i>
   <i name="EMAX">    -10.00000000</i>
   <i name="EFERMI">      0.00000000</i>
  </separator>
  <separator name="writing" >
   <i type="int" name="NWRITE">     2</i>
   <i type="logical" name="LWAVE"> T  </i>
   <i type="logical" name="LDOWNSAMPLE"> F  </i>
   <i type="logical" name="LCHARG"> T  </i>
   <i type="logical" name="LPARD"> F  </i>
   <i type="logical" name="LVTOT"> F  </i>
   <i type="logical" name="LVHAR"> F  </i>
   <i type="logical" name="LELF"> F  </i>
   <i type="logical" name="LOPTICS"> F  </i>
   <v name="STM">      0.00000000      0.00000000      0.00000000      0.00000000      0.00000000      0.00000000      0.00000000</v>
  </separator>
  <separator name="performance" >
   <i type="int" name="NPAR">     8</i>
   <i type="int" name="NSIM">     4</i>
   <i type="int" name="NBLK">    -1</i>
   <i type="logical" name="LPLANE"> T  </i>
   <i type="logical" name="LSCALAPACK"> T  </i>
   <i type="logical" name="LSCAAWARE"> F  </i>
   <i type="logical" name="LSCALU"> F  </i>
   <i type="logical" name="LASYNC"> F  </i>
   <i type="logical" name="LORBITALREAL"> F  </i>
  </separator>
  <separator name="miscellaneous" >
   <i type="int" name="IDIOT">     3</i>
   <i type="int" name="ISPECIAL">     0</i>
   <i type="logical" name="LMUSIC"> F  </i>
   <v name="POMASS">     28.08500000</v>
   <v name="DARWINR">      0.00000000</v>
   <v name="DARWINV">      1.00000000</v>
   <i type="logical" name="LCORR"> T  </i>
  </separator>
  <i type="logical" name="GGA_COMPAT"> T  </i>
  <i type="logical" name="LBERRY"> F  </i>
  <i type="int" name="ICORELEVEL">     0</i>
  <i type="logical" name="LDAU"> F  </i>
  <i type="int" name="I_CONSTRAINED_M">     0</i>
  <separator name="electronic exchange-correlation" >
   <i type="string" name="GGA">--</i>
   <i type="int" name="VOSKOWN">     0</i>
   <i type="logical" name="LHFCALC"> F  </i>
   <i type="string" name="PRECFOCK"></i>
   <i type="logical" name="LSYMGRAD"> F  </i>
   <i type="logical" name="LHFONE"> F  </i>
   <i type="logical" name="LRHFCALC"> F  </i>
   <i type="logical" name="LTHOMAS"> F  </i>
   <i type="logical" name="LMODELHF"> F  </i>
   <i name="ENCUT4O">     -1.00000000</i>
   <i type="int" name="EXXOEP">     0</i>
   <i type="int" name="FOURORBIT">     0</i>
   <i name="AEXX">      0.00000000</i>
   <i name="HFALPHA">      0.00000000</i>
   <i name="MCALPHA">      0.00000000</i>
   <i name="ALDAX">      1.00000000</i>
   <i name="AGGAX">      1.00000000</i>
   <i name="ALDAC">      1.00000000</i>
   <i name="AGGAC">      1.00000000</i>
   <i type="int" name="NKREDX">     1</i>
   <i type="int" name="NKREDY">     1</i>
   <i type="int" name="NKREDZ">     1</i>
   <i type="logical" name="SHIFTRED"> F  </i>
   <i type="logical" name="ODDONLY"> F  </i>
   <i type="logical" name="EVENONLY"> F  </i>
   <i type="int" name="LMAXFOCK">     0</i>
   <i type="int" name="NMAXFOCKAE">     0</i>
   <i type="logical" name="LFOCKAEDFT"> F  </i>
   <i name="HFSCREEN">      0.00000000</i>
   <i name="HFSCREENC">      0.00000000</i>
   <i type="int" name="NBANDSGWLOW">     0</i>
  </separator>
  <separator name="vdW DFT" >
   <i type="logical" name="LUSE_VDW"> F  </i>
   <i name="Zab_VDW">     -0.84910000</i>
   <i name="PARAM1">      0.12340000</i>
   <i name="PARAM2">      1.00000000</i>
   <i name="PARAM3">      0.00000000</i>
  </separator>
  <separator name="model GW" >
   <i type="int" name="MODEL_GW">     0</i>
   <i name="MODEL_EPS0">      9.17662200</i>
   <i name="MODEL_ALPHA">      1.00000000</i>
  </separator>
  <separator name="linear response parameters" >
   <i type="logical" name="LEPSILON"> F  </i>
   <i type="logical" name="LRPA"> F  </i>
   <i type="logical" name="LNABLA"> F  </i>
   <i type="logical" name="LVEL"> F  </i>
   <i type="int" name="KINTER">     0</i>
   <i name="CSHIFT">      0.10000000</i>
   <i name="OMEGAMAX">     -1.00000000</i>
   <i name="DEG_THRESHOLD">      0.00200000</i>
   <i name="RTIME">     -0.10000000</i>
   <i name="WPLASMAI">      0.00000000</i>
   <v name="DFIELD">      0.00000000      0.00000000      0.00000000</v>
   <v name="WPLASMA">      0.00000000      0.00000000      0.00000000      0.00000000      0.00000000      0.00000000      0.00000000      0.00000000      0.00000000</v>
  </separator>
  <separator name="orbital magnetization" >
   <i type="logical" name="NUCIND"> F  </i>
   <v name="MAGPOS">      0.00000000      0.00000000      0.00000000</v>
   <i type="logical" name="LNICSALL"> T  </i>
   <i type="logical" name="ORBITALMAG"> F  </i>
   <i type="logical" name="LMAGBLOCH"> F  </i>
   <i type="logical" name="LCHIMAG"> F  </i>
   <i type="logical" name="LGAUGE"> T  </i>
   <i type="int" name="MAGATOM">     0</i>
   <v name="MAGDIPOL">      0.00000000      0.00000000      0.00000000</v>
   <v name="AVECCONST">      0.00000000      0.00000000      0.00000000</v>
  </separator>
  <separator name="response functions" >
   <i type="logical" name="LADDER"> F  </i>
   <i type="logical" name="LRPAFORCE"> F  </i>
   <i type="logical" name="LFXC"> F  </i>
   <i type="logical" name="LHARTREE"> T  </i>
   <i type="int" name="IBSE">     0</i>
   <v type="int" name="KPOINT">    -1     0     0     0</v>
   <i type="logical" name="LTCTE"> F  </i>
   <i type="logical" name="LTETE"> F  </i>
   <i type="logical" name="LTRIPLET"> F  </i>
   <i type="logical" name="LFXCEPS"> F  </i>
   <i type="logical" name="LFXHEG"> F  </i>
   <i type="int" name="NATURALO">     2</i>
   <i type="logical" name="L2ORDER"> F  </i>
   <i type="logical" name="LMP2LT"> F  </i>
   <i type="logical" name="LUSEW"> F  </i>
   <i name="ENCUTGW">     -2.00000000</i>
   <i name="ENCUTGWSOFT">     -2.00000000</i>
   <i name="ENCUTLF">     -1.00000000</i>
   <i type="int" name="LMAXMP2">    -1</i>
   <i name="SCISSOR">      0.00000000</i>
   <i type="int" name="NOMEGA">     0</i>
   <i type="int" name="NOMEGAR">     0</i>
   <i type="int" name="NBANDSGW">    -1</i>
   <i type="int" name="NBANDSO">    -1</i>
   <i type="int" name="NBANDSV">    -1</i>
   <i type="int" name="NELM">     1</i>
   <i type="int" name="NELMHF">     1</i>
   <i type="int" name="DIM">     3</i>
   <i type="int" name="ANTIRES">     0</i>
   <i name="OMEGAMAX">    -30.00000000</i>
   <i name="OMEGAMIN">    -30.00000000</i>
   <i name="OMEGATL">   -200.00000000</i>
   <i type="int" name="OMEGAGRID">   140</i>
   <i name="CSHIFT">     -0.10000000</i>
   <i type="logical" name="SELFENERGY"> F  </i>
   <i type="logical" name="LSPECTRAL"> F  </i>
   <i type="logical" name="LSPECTRALGW"> F  </i>
   <i type="logical" name="LSINGLES"> F  </i>
   <i type="logical" name="LFERMIGW"> F  </i>
   <i type="logical" name="ODDONLYGW"> F  </i>
   <i type="logical" name="EVENONLYGW"> F  </i>
   <i type="int" name="NKREDLFX">     1</i>
   <i type="int" name="NKREDLFY">     1</i>
   <i type="int" name="NKREDLFZ">     1</i>
   <i type="int" name="MAXMEM">  2800</i>
   <i type="int" name="TELESCOPE">     0</i>
   <i type="int" name="TAUPAR">     1</i>
   <i type="int" name="OMEGAPAR">    -1</i>
   <i name="LAMBDA">      1.00000000</i>
  </separator>
  <separator name="External order field" >
   <i name="OFIELD_KAPPA">      0.00000000</i>
   <v name="OFIELD_K">      0.00000000      0.00000000      0.00000000</v>
   <i name="OFIELD_Q6_NEAR">      0.00000000</i>
   <i name="OFIELD_Q6_FAR">      0.00000000</i>
   <i name="OFIELD_A">      0.00000000</i>
  </separator>
 </parameters>
 <atominfo>
  <atoms>       2 </atoms>
  <types>       1 </types>
  <array name="atoms" >
   <dimension dim="1">ion</dimension>
   <field type="string">element</field>
   <field type="int">atomtype</field>
   <set>
    <rc><c>Si</c><c>   1</c></rc>
    <rc><c>Si</c><c>   1</c></rc>
   </set>
  </array>
  <array name="atomtypes" >
   <dimension dim="1">type</dimension>
   <field type="int">atomspertype</field>
   <field type="string">element</field>
   <field>mass</field>
   <field>valence</field>
   <field type="string">pseudopotential</field>
   <set>
    <rc><c>   2</c><c>Si</c><c>     28.08500000</c><c>      4.00000000</c><c> PAW_PBE Si 05Jan2001                   </c></rc>
   </set>
  </array>
 </atominfo>
 <structure name="initialpos" >
  <crystal>
   <varray name="basis" >
    <v>      -2.45000000       2.45000000       1.27400000 </v>
    <v>       2.45000000      -2.45000000       1.27400000 </v>
    <v>       2.45000000       2.45000000      -1.27400000 </v>
   </varray>
   <i name="volume">     30.58874000 </i>
   <varray name="rec_basis" >
    <v>       0.00000000       0.20408163       0.39246468 </v>
    <v>       0.20408163       0.00000000       0.39246468 </v>
    <v>       0.20408163       0.20408163      -0.00000000 </v>
   </varray>
  </crystal>
  <varray name="positions" >
   <v>       0.25000000       0.75000000       0.50000000 </v>
   <v>       0.00000000       0.00000000       0.00000000 </v>
  </varray>
 </structure>
 <calculation>
  <scstep>
   <time name="dav">    0.06    0.06</time>
   <time name="total">    0.09    0.10</time>
   <energy>
    <i name="alphaZ">      4.40202223 </i>
    <i name="ewald">   -265.18101312 </i>
    <i name="hartreedc">     -2.30415367 </i>
    <i name="XCdc">    -17.81545108 </i>
    <i name="pawpsdc">     65.95520812 </i>
    <i name="pawaedc">    -30.76852678 </i>
    <i name="eentropy">     -0.05235285 </i>
    <i name="bandstr">     38.17676205 </i>
    <i name="atom">    206.11247263 </i>
    <i name="e_fr_energy">     -1.47503246 </i>
    <i name="e_wo_entrp">     -1.42267962 </i>
    <i name="e_0_energy">     -1.44885604 </i>
   </energy>
  </scstep>
  <scstep>
   <time name="dav">    0.08    0.09</time>
   <time name="total">    0.08    0.09</time>
   <energy>
    <i name="e_fr_energy">     -9.90830464 </i>
    <i name="e_wo_entrp">     -9.88148890 </i>
    <i name="e_0_energy">     -9.89489677 </i>
   </energy>
  </scstep>
  <scstep>
   <time name="dav">    0.05    0.06</time>
   <time name="total">    0.06    0.06</time>
   <energy>
    <i name="e_fr_energy">     -9.96754735 </i>
    <i name="e_wo_entrp">     -9.94075887 </i>
    <i name="e_0_energy">     -9.95415311 </i>
   </energy>
  </scstep>
  <scstep>
   <time name="dav">    0.08    0.08</time>
   <time name="total">    0.08    0.09</time>
   <energy>
    <i name="e_fr_energy">     -9.96760896 </i>
    <i name="e_wo_entrp">     -9.94082050 </i>
    <i name="e_0_energy">     -9.95421473 </i>
   </energy>
  </scstep>
  <scstep>
   <time name="dav">    0.05    0.06</time>
   <time name="total">    0.06    0.07</time>
   <energy>
    <i name="e_fr_energy">     -9.96760897 </i>
    <i name="e_wo_entrp">     -9.94082050 </i>
    <i name="e_0_energy">     -9.95421473 </i>
   </energy>
  </scstep>
  <scstep>
   <time name="dav">    0.07    0.07</time>
   <time name="total">    0.10    0.11</time>
   <energy>
    <i name="e_fr_energy">     -9.96127610 </i>
    <i name="e_wo_entrp">     -9.93449825 </i>
    <i name="e_0_energy">     -9.94788717 </i>
   </energy>
  </scstep>
  <scstep>
   <time name="dav">    0.05    0.05</time>
   <time name="total">    0.08    0.09</time>
   <energy>
    <i name="e_fr_energy">     -9.95617075 </i>
    <i name="e_wo_entrp">     -9.92940562 </i>
    <i name="e_0_energy">     -9.94278818 </i>
   </energy>
  </scstep>
  <scstep>
   <time name="dav">    0.04    0.04</time>
   <time name="total">    0.06    0.07</time>
   <energy>
    <i name="alphaZ">      4.40202223 </i>
    <i name="ewald">   -265.18101312 </i>
    <i name="hartreedc">     -2.51257581 </i>
    <i name="XCdc">    -17.55141175 </i>
    <i name="pawpsdc">     71.15541020 </i>
    <i name="pawaedc">    -36.07400862 </i>
    <i name="eentropy">     -0.02676643 </i>
    <i name="bandstr">     29.71972261 </i>
    <i name="atom">    206.11247263 </i>
    <i name="e_fr_energy">     -9.95614807 </i>
    <i name="e_wo_entrp">     -9.92938163 </i>
    <i name="e_0_energy">     -9.94276485 </i>
   </energy>
  </scstep>
  <structure>
   <crystal>
    <varray name="basis" >
     <v>      -2.45000000       2.45000000       1.27400000 </v>
     <v>       2.45000000      -2.45000000       1.27400000 </v>
     <v>       2.45000000       2.45000000      -1.27400000 </v>
    </varray>
    <i name="volume">     30.58874000 </i>
    <varray name="rec_basis" >
     <v>       0.00000000       0.20408163       0.39246468 </v>
     <v>       0.20408163       0.00000000       0.39246468 </v>
     <v>       0.20408163       0.20408163      -0.00000000 </v>
    </varray>
   </crystal>
   <varray name="positions" >
    <v>       0.25000000       0.75000000       0.50000000 </v>
    <v>       0.00000000       0.00000000       0.00000000 </v>
   </varray>
  </structure>
  <varray name="forces" >
   <v>      -0.00000000      -0.00000000      -0.00000000 </v>
   <v>       0.00000000       0.00000000       0.00000000 </v>
  </varray>
  <varray name="stress" >
   <v>    -117.86555211      -0.00000000       0.00000000 </v>
   <v>      -0.00000000    -117.86555211       0.00000000 </v>
   <v>       0.00000000      -0.00000000     198.64635576 </v>
  </varray>
  <energy>
   <i name="e_fr_energy">     -9.95614807 </i>
   <i name="e_wo_entrp">     -9.94276485 </i>
   <i name="e_0_energy">     -0.02676643 </i>
  </energy>
  <time name="totalsc">    1.12    1.58</time>
 </calculation>
 <calculation>
  <scstep>
   <time name="dav">    0.07    0.07</time>
   <time name="total">    0.10    0.11</time>
   <energy>
    <i name="alphaZ">      4.50931589 </i>
    <i name="ewald">   -266.96241077 </i>
    <i name="hartreedc">     -2.45961095 </i>
    <i name="XCdc">    -17.44002801 </i>
    <i name="pawpsdc">     71.16465684 </i>
    <i name="pawaedc">    -36.08362871 </i>
    <i name="eentropy">     -0.02663377 </i>
    <i name="bandstr">     30.95454296 </i>
    <i name="atom">    206.11247263 </i>
    <i name="e_fr_energy">    -10.23132388 </i>
    <i name="e_wo_entrp">    -10.20469011 </i>
    <i name="e_0_energy">    -10.21800699 </i>
   </energy>
  </scstep>
  <scstep>
   <time name="dav">    0.04    0.04</time>
   <time name="total">    0.08    0.09</time>
   <energy>
    <i name="e_fr_energy">    -10.10130458 </i>
    <i name="e_wo_entrp">    -10.07466800 </i>
    <i name="e_0_energy">    -10.08798629 </i>
   </energy>
  </scstep>
  <scstep>
   <time name="dav">    0.06    0.06</time>
   <time name="total">    0.10    0.11</time>
   <energy>
    <i name="e_fr_energy">    -10.03609910 </i>
    <i name="e_wo_entrp">    -10.00944621 </i>
    <i name="e_0_energy">    -10.02277265 </i>
   </energy>
  </scstep>
  <scstep>
   <time name="dav">    0.04    0.04</time>
   <time name="total">    0.08    0.10</time>
   <energy>
    <i name="e_fr_energy">    -10.03637882 </i>
    <i name="e_wo_entrp">    -10.00972643 </i>
    <i name="e_0_energy">    -10.02305263 </i>
   </energy>
  </scstep>
  <scstep>
   <time name="dav">    0.02    0.02</time>
   <time name="total">    0.05    0.06</time>
   <energy>
    <i name="alphaZ">      4.50931589 </i>
    <i name="ewald">   -266.96241077 </i>
    <i name="hartreedc">     -2.68180188 </i>
    <i name="XCdc">    -17.37502218 </i>
    <i name="pawpsdc">     72.93722273 </i>
    <i name="pawaedc">    -37.90536026 </i>
    <i name="eentropy">     -0.02665241 </i>
    <i name="bandstr">     31.35587359 </i>
    <i name="atom">    206.11247263 </i>
    <i name="e_fr_energy">    -10.03636266 </i>
    <i name="e_wo_entrp">    -10.00971025 </i>
    <i name="e_0_energy">    -10.02303645 </i>
   </energy>
  </scstep>
  <structure>
   <crystal>
    <varray name="basis" >
     <v>      -2.31701423       2.31701423       1.39054730 </v>
     <v>       2.31701423      -2.31701423       1.39054730 </v>
     <v>       2.31701423       2.31701423      -1.39054730 </v>
    </varray>
    <i name="volume">     29.86091833 </i>
    <varray name="rec_basis" >
     <v>      -0.00000000       0.21579496       0.35957065 </v>
     <v>       0.21579496      -0.00000000       0.35957065 </v>
     <v>       0.21579496       0.21579496      -0.00000000 </v>
    </varray>
   </crystal>
   <varray name="positions" >
    <v>       0.25000000       0.75000000       0.50000000 </v>
    <v>       0.00000000       0.00000000       0.00000000 </v>
   </varray>
  </structure>
  <varray name="forces" >
   <v>      -0.00000000       0.00000000       0.00000000 </v>
   <v>       0.00000000      -0.00000000      -0.00000000 </v>
  </varray>
  <varray name="stress" >
   <v>     116.02440838       0.00000000       0.00000000 </v>
   <v>       0.00000000     116.02440838      -0.00000000 </v>
   <v>       0.00000000      -0.00000000     -89.32363125 </v>
  </varray>
  <energy>
   <i name="e_fr_energy">    -10.03636266 </i>
   <i name="e_wo_entrp">    -10.02303645 </i>
   <i name="e_0_energy">     -0.02665241 </i>
  </energy>
  <time name="totalsc">    0.54    0.75</time>
 </calculation>
 <calculation>
  <scstep>
   <time name="dav">    0.06    0.06</time>
   <time name="total">    0.10    0.10</time>
   <energy>
    <i name="alphaZ">      4.45544890 </i>
    <i name="ewald">   -266.29802676 </i>
    <i name="hartreedc">     -2.62324521 </i>
    <i name="XCdc">    -17.44013682 </i>
    <i name="pawpsdc">     72.89723430 </i>
    <i name="pawaedc">    -37.86422732 </i>
    <i name="eentropy">     -0.02663135 </i>
    <i name="bandstr">     30.63774802 </i>
    <i name="atom">    206.11247263 </i>
    <i name="e_fr_energy">    -10.14936361 </i>
    <i name="e_wo_entrp">    -10.12273226 </i>
    <i name="e_0_energy">    -10.13604793 </i>
   </energy>
  </scstep>
  <scstep>
   <time name="dav">    0.04    0.05</time>
   <time name="total">    0.08    0.11</time>
   <energy>
    <i name="e_fr_energy">    -10.13023923 </i>
    <i name="e_wo_entrp">    -10.10360789 </i>
    <i name="e_0_energy">    -10.11692356 </i>
   </energy>
  </scstep>
  <scstep>
   <time name="dav">    0.05    0.06</time>
   <time name="total">    0.09    0.17</time>
   <energy>
    <i name="e_fr_energy">    -10.11964287 </i>
    <i name="e_wo_entrp">    -10.09301152 </i>
    <i name="e_0_energy">    -10.10632719 </i>
   </energy>
  </scstep>
  <scstep>
   <time name="dav">    0.04    0.04</time>
   <time name="total">    0.06    0.09</time>
   <energy>
    <i name="alphaZ">      4.45544890 </i>
    <i name="ewald">   -266.29802676 </i>
    <i name="hartreedc">     -2.47453924 </i>
    <i name="XCdc">    -17.47298732 </i>
    <i name="pawpsdc">     71.90082649 </i>
    <i name="pawaedc">    -36.84074425 </i>
    <i name="eentropy">     -0.02663135 </i>
    <i name="bandstr">     30.52449446 </i>
    <i name="atom">    206.11247263 </i>
    <i name="e_fr_energy">    -10.11968646 </i>
    <i name="e_wo_entrp">    -10.09305512 </i>
    <i name="e_0_energy">    -10.10637079 </i>
   </energy>
  </scstep>
  <structure>
   <crystal>
    <varray name="basis" >
     <v>      -2.37399888       2.37399888       1.34060657 </v>
     <v>       2.37399888      -2.37399888       1.34060657 </v>
     <v>       2.37399888       2.37399888      -1.34060657 </v>
    </varray>
    <i name="volume">     30.22194097 </i>
    <varray name="rec_basis" >
     <v>       0.00000000       0.21061510       0.37296550 </v>
     <v>       0.21061510       0.00000000       0.37296550 </v>
     <v>       0.21061510       0.21061510       0.00000000 </v>
    </varray>
   </crystal>
   <varray name="positions" >
    <v>       0.25000000       0.75000000       0.50000000 </v>
    <v>       0.00000000       0.00000000       0.00000000 </v>
   </varray>
  </structure>
  <varray name="forces" >
   <v>      -0.00000000      -0.00000000       0.00000000 </v>
   <v>       0.00000000       0.00000000      -0.00000000 </v>
  </varray>
  <varray name="stress" >
   <v>       7.13776340       0.00000000      -0.00000000 </v>
   <v>       0.00000000       7.13776340      -0.00000000 </v>
   <v>       0.00000000       0.00000000      11.34855505 </v>
  </varray>
  <energy>
   <i name="e_fr_energy">    -10.11968646 </i>
   <i name="e_wo_entrp">    -10.10637079 </i>
   <i name="e_0_energy">     -0.02663135 </i>
  </energy>
  <time name="totalsc">    0.46    0.72</time>
 </calculation>
 <calculation>
  <scstep>
   <time name="dav">    0.03    0.03</time>
   <time name="total">    0.07    0.07</time>
   <energy>
    <i name="alphaZ">      4.45605696 </i>
    <i name="ewald">   -266.30721004 </i>
    <i name="hartreedc">     -2.48644678 </i>
    <i name="XCdc">    -17.47195318 </i>
    <i name="pawpsdc">     71.88052305 </i>
    <i name="pawaedc">    -36.81988957 </i>
    <i name="eentropy">     -0.02663135 </i>
    <i name="bandstr">     30.54339804 </i>
    <i name="atom">    206.11247263 </i>
    <i name="e_fr_energy">    -10.11968024 </i>
    <i name="e_wo_entrp">    -10.09304889 </i>
    <i name="e_0_energy">    -10.10636456 </i>
   </energy>
  </scstep>
  <scstep>
   <time name="dav">    0.02    0.02</time>
   <time name="total">    0.05    0.07</time>
   <energy>
    <i name="alphaZ">      4.45605696 </i>
    <i name="ewald">   -266.30721004 </i>
    <i name="hartreedc">     -2.48582989 </i>
    <i name="XCdc">    -17.47184261 </i>
    <i name="pawpsdc">     71.88704920 </i>
    <i name="pawaedc">    -36.82655842 </i>
    <i name="eentropy">     -0.02663135 </i>
    <i name="bandstr">     30.54281370 </i>
    <i name="atom">    206.11247263 </i>
    <i name="e_fr_energy">    -10.11967982 </i>
    <i name="e_wo_entrp">    -10.09304848 </i>
    <i name="e_0_energy">    -10.10636415 </i>
   </energy>
  </scstep>
  <structure>
   <crystal>
    <varray name="basis" >
     <v>      -2.37327690       2.37327690       1.34123931 </v>
     <v>       2.37327690      -2.37327690       1.34123931 </v>
     <v>       2.37327690       2.37327690      -1.34123931 </v>
    </varray>
    <i name="volume">     30.21781695 </i>
    <varray name="rec_basis" >
     <v>      -0.00000000       0.21067917       0.37278955 </v>
     <v>       0.21067917      -0.00000000       0.37278955 </v>
     <v>       0.21067917       0.21067917       0.00000000 </v>
    </varray>
   </crystal>
   <varray name="positions" >
    <v>       0.25000000       0.75000000       0.50000000 </v>
    <v>       0.00000000       0.00000000       0.00000000 </v>
   </varray>
  </structure>
  <varray name="forces" >
   <v>       0.00000000      -0.00000000      -0.00000000 </v>
   <v>      -0.00000000       0.00000000       0.00000000 </v>
  </varray>
  <varray name="stress" >
   <v>       8.18743288       0.00000000      -0.00000000 </v>
   <v>       0.00000000       8.18743288       0.00000000 </v>
   <v>      -0.00000000       0.00000000       8.33563409 </v>
  </varray>
  <energy>
   <i name="e_fr_energy">    -10.11967982 </i>
   <i name="e_wo_entrp">    -10.10636415 </i>
   <i name="e_0_energy">     -0.02663135 </i>
  </energy>
  <time name="totalsc">    0.25    0.36</time>
 </calculation>
 <calculation>
  <scstep>
   <time name="dav">    0.02    0.02</time>
   <time name="total">    0.06    0.07</time>
   <energy>
    <i name="alphaZ">      4.45585969 </i>
    <i name="ewald">   -266.30423630 </i>
    <i name="hartreedc">     -2.48492437 </i>
    <i name="XCdc">    -17.47185523 </i>
    <i name="pawpsdc">     71.89656544 </i>
    <i name="pawaedc">    -36.83624884 </i>
    <i name="eentropy">     -0.02663135 </i>
    <i name="bandstr">     30.53931172 </i>
    <i name="atom">    206.11247263 </i>
    <i name="e_fr_energy">    -10.11968662 </i>
    <i name="e_wo_entrp">    -10.09305527 </i>
    <i name="e_0_energy">    -10.10637094 </i>
   </energy>
  </scstep>
  <scstep>
   <time name="dav">    0.02    0.02</time>
   <time name="total">    0.05    0.06</time>
   <energy>
    <i name="alphaZ">      4.45585969 </i>
    <i name="ewald">   -266.30423630 </i>
    <i name="hartreedc">     -2.48462386 </i>
    <i name="XCdc">    -17.47189772 </i>
    <i name="pawpsdc">     71.89525876 </i>
    <i name="pawaedc">    -36.83490161 </i>
    <i name="eentropy">     -0.02663135 </i>
    <i name="bandstr">     30.53901338 </i>
    <i name="atom">    206.11247263 </i>
    <i name="e_fr_energy">    -10.11968638 </i>
    <i name="e_wo_entrp">    -10.09305504 </i>
    <i name="e_0_energy">    -10.10637071 </i>
   </energy>
  </scstep>
  <structure>
   <crystal>
    <varray name="basis" >
     <v>      -2.37351089       2.37351089       1.34103424 </v>
     <v>       2.37351089      -2.37351089       1.34103424 </v>
     <v>       2.37351089       2.37351089      -1.34103424 </v>
    </varray>
    <i name="volume">     30.21915480 </i>
    <varray name="rec_basis" >
     <v>       0.00000000       0.21065840       0.37284656 </v>
     <v>       0.21065840       0.00000000       0.37284656 </v>
     <v>       0.21065840       0.21065840      -0.00000000 </v>
    </varray>
   </crystal>
   <varray name="positions" >
    <v>       0.25000000       0.75000000       0.50000000 </v>
    <v>       0.00000000       0.00000000       0.00000000 </v>
   </varray>
  </structure>
  <varray name="forces" >
   <v>       0.00000000       0.00000000       0.00000000 </v>
   <v>      -0.00000000      -0.00000000      -0.00000000 </v>
  </varray>
  <varray name="stress" >
   <v>       8.04897775       0.00000000       0.00000000 </v>
   <v>       0.00000000       8.04897775       0.00000000 </v>
   <v>      -0.00000000      -0.00000000       8.44044424 </v>
  </varray>
  <energy>
   <i name="e_fr_energy">    -10.11968638 </i>
   <i name="e_wo_entrp">    -10.10637071 </i>
   <i name="e_0_energy">     -0.02663135 </i>
  </energy>
  <time name="totalsc">    0.24    0.40</time>
 </calculation>
 <calculation>
  <scstep>
   <time name="dav">    0.03    0.02</time>
   <time name="total">    0.06    0.07</time>
   <energy>
    <i name="alphaZ">      4.45565418 </i>
    <i name="ewald">   -266.30113282 </i>
    <i name="hartreedc">     -2.48412798 </i>
    <i name="XCdc">    -17.47219753 </i>
    <i name="pawpsdc">     71.89392055 </i>
    <i name="pawaedc">    -36.83353078 </i>
    <i name="eentropy">     -0.02663135 </i>
    <i name="bandstr">     30.53588297 </i>
    <i name="atom">    206.11247263 </i>
    <i name="e_fr_energy">    -10.11969013 </i>
    <i name="e_wo_entrp">    -10.09305878 </i>
    <i name="e_0_energy">    -10.10637445 </i>
   </energy>
  </scstep>
  <scstep>
   <time name="dav">    0.02    0.02</time>
   <time name="total">    0.05    0.06</time>
   <energy>
    <i name="alphaZ">      4.45565418 </i>
    <i name="ewald">   -266.30113282 </i>
    <i name="hartreedc">     -2.48395699 </i>
    <i name="XCdc">    -17.47224311 </i>
    <i name="pawpsdc">     71.89231019 </i>
    <i name="pawaedc">    -36.83187336 </i>
    <i name="eentropy">     -0.02663135 </i>
    <i name="bandstr">     30.53571082 </i>
    <i name="atom">    206.11247263 </i>
    <i name="e_fr_energy">    -10.11968980 </i>
    <i name="e_wo_entrp">    -10.09305845 </i>
    <i name="e_0_energy">    -10.10637413 </i>
   </energy>
  </scstep>
  <structure>
   <crystal>
    <varray name="basis" >
     <v>      -2.37375488       2.37375488       1.34082040 </v>
     <v>       2.37375488      -2.37375488       1.34082040 </v>
     <v>       2.37375488       2.37375488      -1.34082040 </v>
    </varray>
    <i name="volume">     30.22054855 </i>
    <varray name="rec_basis" >
     <v>       0.00000000       0.21063674       0.37290602 </v>
     <v>       0.21063674       0.00000000       0.37290602 </v>
     <v>       0.21063674       0.21063674       0.00000000 </v>
    </varray>
   </crystal>
   <varray name="positions" >
    <v>       0.25000000       0.75000000       0.50000000 </v>
    <v>       0.00000000       0.00000000       0.00000000 </v>
   </varray>
  </structure>
  <varray name="forces" >
   <v>       0.00000000      -0.00000000       0.00000000 </v>
   <v>      -0.00000000       0.00000000      -0.00000000 </v>
  </varray>
  <varray name="stress" >
   <v>       7.61532244       0.00000000      -0.00000000 </v>
   <v>       0.00000000       7.61532244      -0.00000000 </v>
   <v>       0.00000000       0.00000000       8.96057049 </v>
  </varray>
  <energy>
   <i name="e_fr_energy">    -10.11968980 </i>
   <i name="e_wo_entrp">    -10.10637413 </i>
   <i name="e_0_energy">     -0.02663135 </i>
  </energy>
  <time name="totalsc">    0.24    0.36</time>
 </calculation>
 <calculation>
  <scstep>
   <time name="dav">    0.05    0.05</time>
   <time name="total">    0.08    0.09</time>
   <energy>
    <i name="alphaZ">      4.41130947 </i>
    <i name="ewald">   -265.41106537 </i>
    <i name="hartreedc">     -2.47556868 </i>
    <i name="XCdc">    -17.52363230 </i>
    <i name="pawpsdc">     71.89052177 </i>
    <i name="pawaedc">    -36.83003934 </i>
    <i name="eentropy">     -0.02663135 </i>
    <i name="bandstr">     29.73209104 </i>
    <i name="atom">    206.11247263 </i>
    <i name="e_fr_energy">    -10.12054213 </i>
    <i name="e_wo_entrp">    -10.09391079 </i>
    <i name="e_0_energy">    -10.10722646 </i>
   </energy>
  </scstep>
  <scstep>
   <time name="dav">    0.04    0.04</time>
   <time name="total">    0.07    0.08</time>
   <energy>
    <i name="alphaZ">      4.41130947 </i>
    <i name="ewald">   -265.41106537 </i>
    <i name="hartreedc">     -2.49987978 </i>
    <i name="XCdc">    -17.52488229 </i>
    <i name="pawpsdc">     71.81557687 </i>
    <i name="pawaedc">    -36.75329099 </i>
    <i name="eentropy">     -0.02663135 </i>
    <i name="bandstr">     29.75610082 </i>
    <i name="atom">    206.11247263 </i>
    <i name="e_fr_energy">    -10.12028999 </i>
    <i name="e_wo_entrp">    -10.09365864 </i>
    <i name="e_0_energy">    -10.10697432 </i>
   </energy>
  </scstep>
  <structure>
   <crystal>
    <varray name="basis" >
     <v>      -2.38091564       2.38091564       1.34616498 </v>
     <v>       2.38091564      -2.38091564       1.34616498 </v>
     <v>       2.38091564       2.38091564      -1.34616498 </v>
    </varray>
    <i name="volume">     30.52434081 </i>
    <varray name="rec_basis" >
     <v>       0.00000000       0.21000324       0.37142550 </v>
     <v>       0.21000324       0.00000000       0.37142550 </v>
     <v>       0.21000324       0.21000324       0.00000000 </v>
    </varray>
   </crystal>
   <varray name="positions" >
    <v>       0.25000000       0.75000000       0.50000000 </v>
    <v>       0.00000000      -0.00000000       0.00000000 </v>
   </varray>
  </structure>
  <varray name="forces" >
   <v>      -0.00000000      -0.00000000      -0.00000000 </v>
   <v>       0.00000000       0.00000000       0.00000000 </v>
  </varray>
  <varray name="stress" >
   <v>      -1.63040103       0.00000000       0.00000000 </v>
   <v>       0.00000000      -1.63040103       0.00000000 </v>
   <v>       0.00000000       0.00000000       2.38976253 </v>
  </varray>
  <energy>
   <i name="e_fr_energy">    -10.12028999 </i>
   <i name="e_wo_entrp">    -10.10697432 </i>
   <i name="e_0_energy">     -0.02663135 </i>
  </energy>
  <time name="totalsc">    0.29    0.40</time>
 </calculation>
 <calculation>
  <scstep>
   <time name="dav">    0.02    0.02</time>
   <time name="total">    0.06    0.07</time>
   <energy>
    <i name="alphaZ">      4.41147823 </i>
    <i name="ewald">   -265.41446412 </i>
    <i name="hartreedc">     -2.53409250 </i>
    <i name="XCdc">    -17.52690676 </i>
    <i name="pawpsdc">     71.68245258 </i>
    <i name="pawaedc">    -36.61666755 </i>
    <i name="eentropy">     -0.02663135 </i>
    <i name="bandstr">     29.79221484 </i>
    <i name="atom">    206.11247263 </i>
    <i name="e_fr_energy">    -10.12014400 </i>
    <i name="e_wo_entrp">    -10.09351266 </i>
    <i name="e_0_energy">    -10.10682833 </i>
   </energy>
  </scstep>
  <scstep>
   <time name="dav">    0.02    0.02</time>
   <time name="total">    0.05    0.07</time>
   <energy>
    <i name="alphaZ">      4.41147823 </i>
    <i name="ewald">   -265.41446412 </i>
    <i name="hartreedc">     -2.53368260 </i>
    <i name="XCdc">    -17.52722496 </i>
    <i name="pawpsdc">     71.66953194 </i>
    <i name="pawaedc">    -36.60319661 </i>
    <i name="eentropy">     -0.02663135 </i>
    <i name="bandstr">     29.79157342 </i>
    <i name="atom">    206.11247263 </i>
    <i name="e_fr_energy">    -10.12014342 </i>
    <i name="e_wo_entrp">    -10.09351207 </i>
    <i name="e_0_energy">    -10.10682775 </i>
   </energy>
  </scstep>
  <structure>
   <crystal>
    <varray name="basis" >
     <v>      -2.38088820       2.38088820       1.34614450 </v>
     <v>       2.38088820      -2.38088820       1.34614450 </v>
     <v>       2.38088820       2.38088820      -1.34614450 </v>
    </varray>
    <i name="volume">     30.52317309 </i>
    <varray name="rec_basis" >
     <v>       0.00000000       0.21000566       0.37143115 </v>
     <v>       0.21000566       0.00000000       0.37143115 </v>
     <v>       0.21000566       0.21000566      -0.00000000 </v>
    </varray>
   </crystal>
   <varray name="positions" >
    <v>       0.25000000       0.75000000       0.50000000 </v>
    <v>       0.00000000      -0.00000000       0.00000000 </v>
   </varray>
  </structure>
  <varray name="forces" >
   <v>      -0.00000000       0.00000000       0.00000000 </v>
   <v>       0.00000000      -0.00000000      -0.00000000 </v>
  </varray>
  <varray name="stress" >
   <v>      -4.03981039      -0.00000000      -0.00000000 </v>
   <v>      -0.00000000      -4.03981039       0.00000000 </v>
   <v>      -0.00000000       0.00000000      -1.78177597 </v>
  </varray>
  <energy>
   <i name="e_fr_energy">    -10.12014342 </i>
   <i name="e_wo_entrp">    -10.10682775 </i>
   <i name="e_0_energy">     -0.02663135 </i>
  </energy>
  <time name="totalsc">    0.24    0.44</time>
 </calculation>
 <calculation>
  <scstep>
   <time name="dav">    0.04    0.04</time>
   <time name="total">    0.08    0.09</time>
   <energy>
    <i name="alphaZ">      4.42379737 </i>
    <i name="ewald">   -265.66232487 </i>
    <i name="hartreedc">     -2.53586016 </i>
    <i name="XCdc">    -17.51319343 </i>
    <i name="pawpsdc">     71.65826838 </i>
    <i name="pawaedc">    -36.59130892 </i>
    <i name="eentropy">     -0.02663135 </i>
    <i name="bandstr">     30.01452145 </i>
    <i name="atom">    206.11247263 </i>
    <i name="e_fr_energy">    -10.12025890 </i>
    <i name="e_wo_entrp">    -10.09362756 </i>
    <i name="e_0_energy">    -10.10694323 </i>
   </energy>
  </scstep>
  <scstep>
   <time name="dav">    0.02    0.02</time>
   <time name="total">    0.05    0.08</time>
   <energy>
    <i name="alphaZ">      4.42379737 </i>
    <i name="ewald">   -265.66232487 </i>
    <i name="hartreedc">     -2.52889819 </i>
    <i name="XCdc">    -17.51287625 </i>
    <i name="pawpsdc">     71.67765615 </i>
    <i name="pawaedc">    -36.61111217 </i>
    <i name="eentropy">     -0.02663135 </i>
    <i name="bandstr">     30.00767701 </i>
    <i name="atom">    206.11247263 </i>
    <i name="e_fr_energy">    -10.12023968 </i>
    <i name="e_wo_entrp">    -10.09360834 </i>
    <i name="e_0_energy">    -10.10692401 </i>
   </energy>
  </scstep>
  <structure>
   <crystal>
    <varray name="basis" >
     <v>      -2.37888938       2.37888938       1.34465264 </v>
     <v>       2.37888938      -2.37888938       1.34465264 </v>
     <v>       2.37888938       2.37888938      -1.34465264 </v>
    </varray>
    <i name="volume">     30.43817388 </i>
    <varray name="rec_basis" >
     <v>      -0.00000000       0.21018211       0.37184324 </v>
     <v>       0.21018211      -0.00000000       0.37184324 </v>
     <v>       0.21018211       0.21018211      -0.00000000 </v>
    </varray>
   </crystal>
   <varray name="positions" >
    <v>       0.25000000       0.75000000       0.50000000 </v>
    <v>       0.00000000      -0.00000000       0.00000000 </v>
   </varray>
  </structure>
  <varray name="forces" >
   <v>       0.00000000      -0.00000000       0.00000000 </v>
   <v>      -0.00000000       0.00000000      -0.00000000 </v>
  </varray>
  <varray name="stress" >
   <v>      -1.60673797       0.00000000       0.00000000 </v>
   <v>       0.00000000      -1.60673797      -0.00000000 </v>
   <v>       0.00000000       0.00000000       0.06230567 </v>
  </varray>
  <energy>
   <i name="e_fr_energy">    -10.12023968 </i>
   <i name="e_wo_entrp">    -10.10692401 </i>
   <i name="e_0_energy">     -0.02663135 </i>
  </energy>
  <time name="totalsc">    0.26    0.39</time>
 </calculation>
 <calculation>
  <scstep>
   <time name="dav">    0.02    0.02</time>
   <time name="total">    0.05    0.06</time>
   <energy>
    <i name="alphaZ">      4.42852156 </i>
    <i name="ewald">   -265.75725189 </i>
    <i name="hartreedc">     -2.52025896 </i>
    <i name="XCdc">    -17.50680437 </i>
    <i name="pawpsdc">     71.71300293 </i>
    <i name="pawaedc">    -36.64731108 </i>
    <i name="eentropy">     -0.02663135 </i>
    <i name="bandstr">     30.08403674 </i>
    <i name="atom">    206.11247263 </i>
    <i name="e_fr_energy">    -10.12022379 </i>
    <i name="e_wo_entrp">    -10.09359244 </i>
    <i name="e_0_energy">    -10.10690812 </i>
   </energy>
  </scstep>
  <scstep>
   <time name="dav">    0.02    0.02</time>
   <time name="total">    0.05    0.06</time>
   <energy>
    <i name="alphaZ">      4.42852156 </i>
    <i name="ewald">   -265.75725189 </i>
    <i name="hartreedc">     -2.51756665 </i>
    <i name="XCdc">    -17.50664183 </i>
    <i name="pawpsdc">     71.72409162 </i>
    <i name="pawaedc">    -36.65876807 </i>
    <i name="eentropy">     -0.02663135 </i>
    <i name="bandstr">     30.08155270 </i>
    <i name="atom">    206.11247263 </i>
    <i name="e_fr_energy">    -10.12022127 </i>
    <i name="e_wo_entrp">    -10.09358993 </i>
    <i name="e_0_energy">    -10.10690560 </i>
   </energy>
  </scstep>
  <structure>
   <crystal>
    <varray name="basis" >
     <v>      -2.37812484       2.37812484       1.34408201 </v>
     <v>       2.37812484      -2.37812484       1.34408201 </v>
     <v>       2.37812484       2.37812484      -1.34408201 </v>
    </varray>
    <i name="volume">     30.40570355 </i>
    <varray name="rec_basis" >
     <v>       0.00000000       0.21024969       0.37200111 </v>
     <v>       0.21024969       0.00000000       0.37200111 </v>
     <v>       0.21024969       0.21024969      -0.00000000 </v>
    </varray>
   </crystal>
   <varray name="positions" >
    <v>       0.25000000       0.75000000       0.50000000 </v>
    <v>       0.00000000       0.00000000       0.00000000 </v>
   </varray>
  </structure>
  <varray name="forces" >
   <v>       0.00000000       0.00000000       0.00000000 </v>
   <v>      -0.00000000      -0.00000000      -0.00000000 </v>
  </varray>
  <varray name="stress" >
   <v>       0.07985287       0.00000000       0.00000000 </v>
   <v>       0.00000000       0.07985287       0.00000000 </v>
   <v>       0.00000000       0.00000000       1.99909300 </v>
  </varray>
  <energy>
   <i name="e_fr_energy">    -10.12022127 </i>
   <i name="e_wo_entrp">    -10.10690560 </i>
   <i name="e_0_energy">     -0.02663135 </i>
  </energy>
  <time name="totalsc">    0.22    0.42</time>
 </calculation>
 <calculation>
  <scstep>
   <time name="dav">    0.02    0.03</time>
   <time name="total">    0.05    0.08</time>
   <energy>
    <i name="alphaZ">      4.42629125 </i>
    <i name="ewald">   -265.71244492 </i>
    <i name="hartreedc">     -2.51382887 </i>
    <i name="XCdc">    -17.50885837 </i>
    <i name="pawpsdc">     71.74274945 </i>
    <i name="pawaedc">    -36.67800997 </i>
    <i name="eentropy">     -0.02663135 </i>
    <i name="bandstr">     30.03803073 </i>
    <i name="atom">    206.11247263 </i>
    <i name="e_fr_energy">    -10.12022943 </i>
    <i name="e_wo_entrp">    -10.09359808 </i>
    <i name="e_0_energy">    -10.10691375 </i>
   </energy>
  </scstep>
  <scstep>
   <time name="dav">    0.02    0.02</time>
   <time name="total">    0.05    0.06</time>
   <energy>
    <i name="alphaZ">      4.42629125 </i>
    <i name="ewald">   -265.71244492 </i>
    <i name="hartreedc">     -2.51503776 </i>
    <i name="XCdc">    -17.50885361 </i>
    <i name="pawpsdc">     71.74057883 </i>
    <i name="pawaedc">    -36.67579208 </i>
    <i name="eentropy">     -0.02663135 </i>
    <i name="bandstr">     30.03918799 </i>
    <i name="atom">    206.11247263 </i>
    <i name="e_fr_energy">    -10.12022903 </i>
    <i name="e_wo_entrp">    -10.09359769 </i>
    <i name="e_0_energy">    -10.10691336 </i>
   </energy>
  </scstep>
  <structure>
   <crystal>
    <varray name="basis" >
     <v>      -2.37848564       2.37848564       1.34435130 </v>
     <v>       2.37848564      -2.37848564       1.34435130 </v>
     <v>       2.37848564       2.37848564      -1.34435130 </v>
    </varray>
    <i name="volume">     30.42102430 </i>
    <varray name="rec_basis" >
     <v>       0.00000000       0.21021779       0.37192659 </v>
     <v>       0.21021779       0.00000000       0.37192659 </v>
     <v>       0.21021779       0.21021779       0.00000000 </v>
    </varray>
   </crystal>
   <varray name="positions" >
    <v>       0.25000000       0.75000000       0.50000000 </v>
    <v>       0.00000000       0.00000000       0.00000000 </v>
   </varray>
  </structure>
  <varray name="forces" >
   <v>      -0.00000000       0.00000000      -0.00000000 </v>
   <v>       0.00000000      -0.00000000       0.00000000 </v>
  </varray>
  <varray name="stress" >
   <v>      -0.16278886       0.00000000       0.00000000 </v>
   <v>       0.00000000      -0.16278886       0.00000000 </v>
   <v>       0.00000000      -0.00000000       2.01625542 </v>
  </varray>
  <energy>
   <i name="e_fr_energy">    -10.12022903 </i>
   <i name="e_wo_entrp">    -10.10691336 </i>
   <i name="e_0_energy">     -0.02663135 </i>
  </energy>
  <time name="totalsc">    0.60    1.28</time>
 </calculation>
 <calculation>
  <scstep>
   <time name="dav">    0.02    0.02</time>
   <time name="total">    0.06    0.06</time>
   <energy>
    <i name="alphaZ">      4.42504407 </i>
    <i name="ewald">   -265.68738255 </i>
    <i name="hartreedc">     -2.51623626 </i>
    <i name="XCdc">    -17.51037712 </i>
    <i name="pawpsdc">     71.73555436 </i>
    <i name="pawaedc">    -36.67067650 </i>
    <i name="eentropy">     -0.02663135 </i>
    <i name="bandstr">     30.01800155 </i>
    <i name="atom">    206.11247263 </i>
    <i name="e_fr_energy">    -10.12023117 </i>
    <i name="e_wo_entrp">    -10.09359982 </i>
    <i name="e_0_energy">    -10.10691550 </i>
   </energy>
  </scstep>
  <scstep>
   <time name="dav">    0.02    0.03</time>
   <time name="total">    0.04    0.14</time>
   <energy>
    <i name="alphaZ">      4.42504407 </i>
    <i name="ewald">   -265.68738255 </i>
    <i name="hartreedc">     -2.51700468 </i>
    <i name="XCdc">    -17.51041424 </i>
    <i name="pawpsdc">     71.73296795 </i>
    <i name="pawaedc">    -36.66801512 </i>
    <i name="eentropy">     -0.02663135 </i>
    <i name="bandstr">     30.01873239 </i>
    <i name="atom">    206.11247263 </i>
    <i name="e_fr_energy">    -10.12023089 </i>
    <i name="e_wo_entrp">    -10.09359955 </i>
    <i name="e_0_energy">    -10.10691522 </i>
   </energy>
  </scstep>
  <structure>
   <crystal>
    <varray name="basis" >
     <v>      -2.37868751       2.37868751       1.34450197 </v>
     <v>       2.37868751      -2.37868751       1.34450197 </v>
     <v>       2.37868751       2.37868751      -1.34450197 </v>
    </varray>
    <i name="volume">     30.42959829 </i>
    <varray name="rec_basis" >
     <v>      -0.00000000       0.21019995       0.37188491 </v>
     <v>       0.21019995      -0.00000000       0.37188491 </v>
     <v>       0.21019995       0.21019995       0.00000000 </v>
    </varray>
   </crystal>
   <varray name="positions" >
    <v>       0.25000000       0.75000000       0.50000000 </v>
    <v>       0.00000000      -0.00000000       0.00000000 </v>
   </varray>
  </structure>
  <varray name="forces" >
   <v>       0.00000000      -0.00000000      -0.00000000 </v>
   <v>      -0.00000000       0.00000000       0.00000000 </v>
  </varray>
  <varray name="stress" >
   <v>      -0.51056120       0.00000000       0.00000000 </v>
   <v>       0.00000000      -0.51056120       0.00000000 </v>
   <v>      -0.00000000       0.00000000       1.64740993 </v>
  </varray>
  <energy>
   <i name="e_fr_energy">    -10.12023089 </i>
   <i name="e_wo_entrp">    -10.10691522 </i>
   <i name="e_0_energy">     -0.02663135 </i>
  </energy>
  <time name="totalsc">    0.22    0.46</time>
 </calculation>
 <calculation>
  <scstep>
   <time name="dav">    0.02    0.02</time>
   <time name="total">    0.06    0.06</time>
   <energy>
    <i name="alphaZ">      4.42442066 </i>
    <i name="ewald">   -265.67485312 </i>
    <i name="hartreedc">     -2.51781585 </i>
    <i name="XCdc">    -17.51123093 </i>
    <i name="pawpsdc">     71.72830988 </i>
    <i name="pawaedc">    -36.66323266 </i>
    <i name="eentropy">     -0.02663135 </i>
    <i name="bandstr">     30.00832961 </i>
    <i name="atom">    206.11247263 </i>
    <i name="e_fr_energy">    -10.12023113 </i>
    <i name="e_wo_entrp">    -10.09359978 </i>
    <i name="e_0_energy">    -10.10691545 </i>
   </energy>
  </scstep>
  <scstep>
   <time name="dav">    0.02    0.02</time>
   <time name="total">    0.05    0.06</time>
   <energy>
    <i name="alphaZ">      4.42442066 </i>
    <i name="ewald">   -265.67485312 </i>
    <i name="hartreedc">     -2.51820118 </i>
    <i name="XCdc">    -17.51125302 </i>
    <i name="pawpsdc">     71.72691976 </i>
    <i name="pawaedc">    -36.66179942 </i>
    <i name="eentropy">     -0.02663135 </i>
    <i name="bandstr">     30.00869401 </i>
    <i name="atom">    206.11247263 </i>
    <i name="e_fr_energy">    -10.12023103 </i>
    <i name="e_wo_entrp">    -10.09359969 </i>
    <i name="e_0_energy">    -10.10691536 </i>
   </energy>
  </scstep>
  <structure>
   <crystal>
    <varray name="basis" >
     <v>      -2.37878844       2.37878844       1.34457730 </v>
     <v>       2.37878844      -2.37878844       1.34457730 </v>
     <v>       2.37878844       2.37878844      -1.34457730 </v>
    </varray>
    <i name="volume">     30.43388589 </i>
    <varray name="rec_basis" >
     <v>       0.00000000       0.21019103       0.37186408 </v>
     <v>       0.21019103       0.00000000       0.37186408 </v>
     <v>       0.21019103       0.21019103       0.00000000 </v>
    </varray>
   </crystal>
   <varray name="positions" >
    <v>       0.25000000       0.75000000       0.50000000 </v>
    <v>       0.00000000      -0.00000000       0.00000000 </v>
   </varray>
  </structure>
  <varray name="forces" >
   <v>       0.00000000       0.00000000       0.00000000 </v>
   <v>      -0.00000000      -0.00000000      -0.00000000 </v>
  </varray>
  <varray name="stress" >
   <v>      -0.70849001      -0.00000000       0.00000000 </v>
   <v>      -0.00000000      -0.70849001       0.00000000 </v>
   <v>       0.00000000       0.00000000       1.43963924 </v>
  </varray>
  <energy>
   <i name="e_fr_energy">    -10.12023103 </i>
   <i name="e_wo_entrp">    -10.10691536 </i>
   <i name="e_0_energy">     -0.02663135 </i>
  </energy>
  <time name="totalsc">    0.22    0.38</time>
 </calculation>
 <calculation>
  <scstep>
   <time name="dav">    0.02    0.02</time>
   <time name="total">    0.05    0.07</time>
   <energy>
    <i name="alphaZ">      4.42410900 </i>
    <i name="ewald">   -265.66858885 </i>
    <i name="hartreedc">     -2.51860467 </i>
    <i name="XCdc">    -17.51166502 </i>
    <i name="pawpsdc">     71.72449412 </i>
    <i name="pawaedc">    -36.65930359 </i>
    <i name="eentropy">     -0.02663135 </i>
    <i name="bandstr">     30.00348673 </i>
    <i name="atom">    206.11247263 </i>
    <i name="e_fr_energy">    -10.12023099 </i>
    <i name="e_wo_entrp">    -10.09359965 </i>
    <i name="e_0_energy">    -10.10691532 </i>
   </energy>
  </scstep>
  <scstep>
   <time name="dav">    0.02    0.02</time>
   <time name="total">    0.05    0.07</time>
   <energy>
    <i name="alphaZ">      4.42410900 </i>
    <i name="ewald">   -265.66858885 </i>
    <i name="hartreedc">     -2.51879845 </i>
    <i name="XCdc">    -17.51167605 </i>
    <i name="pawpsdc">     71.72380340 </i>
    <i name="pawaedc">    -36.65859101 </i>
    <i name="eentropy">     -0.02663135 </i>
    <i name="bandstr">     30.00366972 </i>
    <i name="atom">    206.11247263 </i>
    <i name="e_fr_energy">    -10.12023096 </i>
    <i name="e_wo_entrp">    -10.09359961 </i>
    <i name="e_0_energy">    -10.10691529 </i>
   </energy>
  </scstep>
  <structure>
   <crystal>
    <varray name="basis" >
     <v>      -2.37883891       2.37883891       1.34461497 </v>
     <v>       2.37883891      -2.37883891       1.34461497 </v>
     <v>       2.37883891       2.37883891      -1.34461497 </v>
    </varray>
    <i name="volume">     30.43602983 </i>
    <varray name="rec_basis" >
     <v>       0.00000000       0.21018657       0.37185366 </v>
     <v>       0.21018657       0.00000000       0.37185366 </v>
     <v>       0.21018657       0.21018657      -0.00000000 </v>
    </varray>
   </crystal>
   <varray name="positions" >
    <v>       0.25000000       0.75000000       0.50000000 </v>
    <v>       0.00000000      -0.00000000       0.00000000 </v>
   </varray>
  </structure>
  <varray name="forces" >
   <v>       0.00000000      -0.00000000      -0.00000000 </v>
   <v>      -0.00000000       0.00000000       0.00000000 </v>
  </varray>
  <varray name="stress" >
   <v>      -0.80797463       0.00000000      -0.00000000 </v>
   <v>       0.00000000      -0.80797463      -0.00000000 </v>
   <v>      -0.00000000      -0.00000000       1.33642943 </v>
  </varray>
  <energy>
   <i name="e_fr_energy">    -10.12023096 </i>
   <i name="e_wo_entrp">    -10.10691529 </i>
   <i name="e_0_energy">     -0.02663135 </i>
  </energy>
  <time name="totalsc">    0.22    0.43</time>
 </calculation>
 <calculation>
  <scstep>
   <time name="dav">    0.02    0.02</time>
   <time name="total">    0.06    0.07</time>
   <energy>
    <i name="alphaZ">      4.42398643 </i>
    <i name="ewald">   -265.66612505 </i>
    <i name="hartreedc">     -2.51900803 </i>
    <i name="XCdc">    -17.51184338 </i>
    <i name="pawpsdc">     71.72260266 </i>
    <i name="pawaedc">    -36.65735476 </i>
    <i name="eentropy">     -0.02663135 </i>
    <i name="bandstr">     30.00166996 </i>
    <i name="atom">    206.11247263 </i>
    <i name="e_fr_energy">    -10.12023090 </i>
    <i name="e_wo_entrp">    -10.09359956 </i>
    <i name="e_0_energy">    -10.10691523 </i>
   </energy>
  </scstep>
  <scstep>
   <time name="dav">    0.02    0.02</time>
   <time name="total">    0.05    0.06</time>
   <energy>
    <i name="alphaZ">      4.42398643 </i>
    <i name="ewald">   -265.66612505 </i>
    <i name="hartreedc">     -2.51908594 </i>
    <i name="XCdc">    -17.51184831 </i>
    <i name="pawpsdc">     71.72231253 </i>
    <i name="pawaedc">    -36.65705525 </i>
    <i name="eentropy">     -0.02663135 </i>
    <i name="bandstr">     30.00174343 </i>
    <i name="atom">    206.11247263 </i>
    <i name="e_fr_energy">    -10.12023089 </i>
    <i name="e_wo_entrp">    -10.09359954 </i>
    <i name="e_0_energy">    -10.10691522 </i>
   </energy>
  </scstep>
  <structure>
   <crystal>
    <varray name="basis" >
     <v>      -2.37885876       2.37885876       1.34462979 </v>
     <v>       2.37885876      -2.37885876       1.34462979 </v>
     <v>       2.37885876       2.37885876      -1.34462979 </v>
    </varray>
    <i name="volume">     30.43687312 </i>
    <varray name="rec_basis" >
     <v>      -0.00000000       0.21018482       0.37184956 </v>
     <v>       0.21018482      -0.00000000       0.37184956 </v>
     <v>       0.21018482       0.21018482      -0.00000000 </v>
    </varray>
   </crystal>
   <varray name="positions" >
    <v>       0.25000000       0.75000000       0.50000000 </v>
    <v>       0.00000000      -0.00000000       0.00000000 </v>
   </varray>
  </structure>
  <varray name="forces" >
   <v>      -0.00000000       0.00000000       0.00000000 </v>
   <v>       0.00000000      -0.00000000      -0.00000000 </v>
  </varray>
  <varray name="stress" >
   <v>      -0.85069932       0.00000000       0.00000000 </v>
   <v>       0.00000000      -0.85069932      -0.00000000 </v>
   <v>       0.00000000      -0.00000000       1.29000223 </v>
  </varray>
  <energy>
   <i name="e_fr_energy">    -10.12023089 </i>
   <i name="e_wo_entrp">    -10.10691522 </i>
   <i name="e_0_energy">     -0.02663135 </i>
  </energy>
  <time name="totalsc">    0.23    0.41</time>
  <eigenvalues>
   <array>
    <dimension dim="1">band</dimension>
    <dimension dim="2">kpoint</dimension>
    <dimension dim="3">spin</dimension>
    <field>eigene</field>
    <field>occ</field>
    <set>
     <set comment="spin 1">
      <set comment="kpoint 1">
       <r>   -4.5743    1.0000 </r>
       <r>    6.8133    1.0000 </r>
       <r>    6.8133    1.0000 </r>
       <r>    7.5160    1.0000 </r>
       <r>   10.9197    0.0000 </r>
       <r>   16.6816    0.0000 </r>
       <r>   18.2387    0.0000 </r>
       <r>   18.2387    0.0000 </r>
      </set>
      <set comment="kpoint 2">
       <r>   -1.6883    1.0000 </r>
       <r>    5.6196    1.0000 </r>
       <r>    6.7800    1.0000 </r>
       <r>    7.0709    1.0000 </r>
       <r>   10.0720    0.0000 </r>
       <r>   12.1075    0.0000 </r>
       <r>   13.6263    0.0000 </r>
       <r>   14.5214    0.0000 </r>
      </set>
      <set comment="kpoint 3">
       <r>    1.0074    1.0000 </r>
       <r>    1.0659    1.0000 </r>
       <r>    5.5130    1.0000 </r>
       <r>    8.2721    1.0000 </r>
       <r>    9.2171    0.2500 </r>
       <r>   10.8058    0.0000 </r>
       <r>   16.1380    0.0000 </r>
       <r>   16.8624    0.0000 </r>
      </set>
      <set comment="kpoint 4">
       <r>   -3.1688    1.0000 </r>
       <r>    0.9618    1.0000 </r>
       <r>    8.0872    1.0000 </r>
       <r>   10.3619    0.0000 </r>
       <r>   11.8334    0.0000 </r>
       <r>   14.2369    0.0000 </r>
       <r>   17.1495    0.0000 </r>
       <r>   17.4471    0.0000 </r>
      </set>
      <set comment="kpoint 5">
       <r>   -1.7880    1.0000 </r>
       <r>    1.7239    1.0000 </r>
       <r>    3.0849    1.0000 </r>
       <r>    6.5046    1.0000 </r>
       <r>   14.7676    0.0000 </r>
       <r>   15.1277    0.0000 </r>
       <r>   18.0518    0.0000 </r>
       <r>   19.7572    0.0000 </r>
      </set>
      <set comment="kpoint 6">
       <r>    2.7250    1.0000 </r>
       <r>    3.2249    1.0000 </r>
       <r>    4.4849    1.0000 </r>
       <r>    4.4849    1.0000 </r>
       <r>    4.7169    1.0000 </r>
       <r>   15.4643    0.0000 </r>
       <r>   15.7439    0.0000 </r>
       <r>   15.7439    0.0000 </r>
      </set>
     </set>
    </set>
   </array>
  </eigenvalues>
  <separator name="orbital magnetization" >
   <v name="MAGDIPOLOUT">      0.00000000      0.00000000      0.00000000</v>
  </separator>
  <dos>
   <i name="efermi">      9.12172718 </i>
   <total>
    <array>
     <dimension dim="1">gridpoints</dimension>
     <dimension dim="2">spin</dimension>
     <field>energy</field>
     <field>total</field>
     <field>integrated</field>
     <set>
      <set comment="spin 1">
       <r>    -6.5743     0.0000     0.0000 </r>
       <r>    -6.4799     0.0000     0.0000 </r>
       <r>    -6.3855     0.0000     0.0000 </r>
       <r>    -6.2910     0.0000     0.0000 </r>
       <r>    -6.1966     0.0000     0.0000 </r>
       <r>    -6.1022     0.0000     0.0000 </r>
       <r>    -6.0077     0.0000     0.0000 </r>
       <r>    -5.9133     0.0000     0.0000 </r>
       <r>    -5.8188     0.0000     0.0000 </r>
       <r>    -5.7244     0.0000     0.0000 </r>
       <r>    -5.6300     0.0000     0.0000 </r>
       <r>    -5.5355     0.0000     0.0000 </r>
       <r>    -5.4411     0.0000     0.0000 </r>
       <r>    -5.3466     0.0000     0.0000 </r>
       <r>    -5.2522     0.0000     0.0000 </r>
       <r>    -5.1578     0.0000     0.0000 </r>
       <r>    -5.0633     0.0002     0.0000 </r>
       <r>    -4.9689     0.0019     0.0002 </r>
       <r>    -4.8745     0.0112     0.0013 </r>
       <r>    -4.7800     0.0439     0.0054 </r>
       <r>    -4.6856     0.1120     0.0160 </r>
       <r>    -4.5911     0.1859     0.0335 </r>
       <r>    -4.4967     0.2006     0.0525 </r>
       <r>    -4.4023     0.1409     0.0658 </r>
       <r>    -4.3078     0.0644     0.0719 </r>
       <r>    -4.2134     0.0191     0.0737 </r>
       <r>    -4.1189     0.0037     0.0740 </r>
       <r>    -4.0245     0.0005     0.0741 </r>
       <r>    -3.9301     0.0000     0.0741 </r>
       <r>    -3.8356     0.0000     0.0741 </r>
       <r>    -3.7412     0.0001     0.0741 </r>
       <r>    -3.6468     0.0011     0.0742 </r>
       <r>    -3.5523     0.0094     0.0751 </r>
       <r>    -3.4579     0.0537     0.0801 </r>
       <r>    -3.3634     0.2004     0.0991 </r>
       <r>    -3.2690     0.4860     0.1450 </r>
       <r>    -3.1746     0.7669     0.2174 </r>
       <r>    -3.0801     0.7873     0.2917 </r>
       <r>    -2.9857     0.5260     0.3414 </r>
       <r>    -2.8912     0.2286     0.3630 </r>
       <r>    -2.7968     0.0646     0.3691 </r>
       <r>    -2.7024     0.0119     0.3702 </r>
       <r>    -2.6079     0.0014     0.3704 </r>
       <r>    -2.5135     0.0001     0.3704 </r>
       <r>    -2.4191     0.0000     0.3704 </r>
       <r>    -2.3246     0.0002     0.3704 </r>
       <r>    -2.2302     0.0029     0.3707 </r>
       <r>    -2.1357     0.0236     0.3729 </r>
       <r>    -2.0413     0.1276     0.3849 </r>
       <r>    -1.9469     0.4674     0.4291 </r>
       <r>    -1.8524     1.1674     0.5393 </r>
       <r>    -1.7580     1.9958     0.7278 </r>
       <r>    -1.6635     2.3322     0.9481 </r>
       <r>    -1.5691     1.8520     1.1230 </r>
       <r>    -1.4747     0.9909     1.2165 </r>
       <r>    -1.3802     0.3541     1.2500 </r>
       <r>    -1.2858     0.0838     1.2579 </r>
       <r>    -1.1914     0.0130     1.2591 </r>
       <r>    -1.0969     0.0013     1.2593 </r>
       <r>    -1.0025     0.0001     1.2593 </r>
       <r>    -0.9080     0.0000     1.2593 </r>
       <r>    -0.8136     0.0000     1.2593 </r>
       <r>    -0.7192     0.0000     1.2593 </r>
       <r>    -0.6247     0.0000     1.2593 </r>
       <r>    -0.5303     0.0000     1.2593 </r>
       <r>    -0.4358     0.0000     1.2593 </r>
       <r>    -0.3414     0.0000     1.2593 </r>
       <r>    -0.2470     0.0000     1.2593 </r>
       <r>    -0.1525     0.0000     1.2593 </r>
       <r>    -0.0581     0.0000     1.2593 </r>
       <r>     0.0363     0.0000     1.2593 </r>
       <r>     0.1308     0.0000     1.2593 </r>
       <r>     0.2252     0.0000     1.2593 </r>
       <r>     0.3197     0.0000     1.2593 </r>
       <r>     0.4141     0.0003     1.2593 </r>
       <r>     0.5085     0.0034     1.2596 </r>
       <r>     0.6030     0.0305     1.2625 </r>
       <r>     0.6974     0.1802     1.2795 </r>
       <r>     0.7919     0.7107     1.3466 </r>
       <r>     0.8863     1.8753     1.5237 </r>
       <r>     0.9807     3.3198     1.8372 </r>
       <r>     1.0752     3.9482     2.2101 </r>
       <r>     1.1696     3.1543     2.5080 </r>
       <r>     1.2640     1.6914     2.6677 </r>
       <r>     1.3585     0.6188     2.7262 </r>
       <r>     1.4529     0.2159     2.7465 </r>
       <r>     1.5474     0.2683     2.7719 </r>
       <r>     1.6418     0.5507     2.8239 </r>
       <r>     1.7362     0.7970     2.8992 </r>
       <r>     1.8307     0.7535     2.9703 </r>
       <r>     1.9251     0.4636     3.0141 </r>
       <r>     2.0196     0.1856     3.0316 </r>
       <r>     2.1140     0.0483     3.0362 </r>
       <r>     2.2084     0.0084     3.0370 </r>
       <r>     2.3029     0.0029     3.0372 </r>
       <r>     2.3973     0.0139     3.0386 </r>
       <r>     2.4917     0.0617     3.0444 </r>
       <r>     2.5862     0.1788     3.0613 </r>
       <r>     2.6806     0.3413     3.0935 </r>
       <r>     2.7751     0.4493     3.1359 </r>
       <r>     2.8695     0.4907     3.1823 </r>
       <r>     2.9639     0.6261     3.2414 </r>
       <r>     3.0584     0.9135     3.3277 </r>
       <r>     3.1528     1.1159     3.4330 </r>
       <r>     3.2473     1.0022     3.5277 </r>
       <r>     3.3417     0.6500     3.5891 </r>
       <r>     3.4361     0.3030     3.6177 </r>
       <r>     3.5306     0.0999     3.6271 </r>
       <r>     3.6250     0.0227     3.6293 </r>
       <r>     3.7194     0.0035     3.6296 </r>
       <r>     3.8139     0.0004     3.6296 </r>
       <r>     3.9083     0.0001     3.6296 </r>
       <r>     4.0028     0.0010     3.6297 </r>
       <r>     4.0972     0.0086     3.6305 </r>
       <r>     4.1916     0.0503     3.6353 </r>
       <r>     4.2861     0.1925     3.6535 </r>
       <r>     4.3805     0.4835     3.6991 </r>
       <r>     4.4750     0.8131     3.7759 </r>
       <r>     4.5694     0.9581     3.8664 </r>
       <r>     4.6638     0.8623     3.9478 </r>
       <r>     4.7583     0.6493     4.0092 </r>
       <r>     4.8527     0.4085     4.0477 </r>
       <r>     4.9471     0.1962     4.0663 </r>
       <r>     5.0416     0.0684     4.0727 </r>
       <r>     5.1360     0.0380     4.0763 </r>
       <r>     5.2305     0.1382     4.0894 </r>
       <r>     5.3249     0.5305     4.1395 </r>
       <r>     5.4193     1.3928     4.2710 </r>
       <r>     5.5138     2.4918     4.5063 </r>
       <r>     5.6082     3.0636     4.7956 </r>
       <r>     5.7027     2.5978     5.0410 </r>
       <r>     5.7971     1.5148     5.1840 </r>
       <r>     5.8915     0.6024     5.2409 </r>
       <r>     5.9860     0.1620     5.2562 </r>
       <r>     6.0804     0.0328     5.2593 </r>
       <r>     6.1748     0.0302     5.2622 </r>
       <r>     6.2693     0.1211     5.2736 </r>
       <r>     6.3637     0.3601     5.3076 </r>
       <r>     6.4582     0.7340     5.3769 </r>
       <r>     6.5526     1.1295     5.4836 </r>
       <r>     6.6470     1.5547     5.6304 </r>
       <r>     6.7415     2.0649     5.8254 </r>
       <r>     6.8359     2.4006     6.0521 </r>
       <r>     6.9304     2.3629     6.2753 </r>
       <r>     7.0248     2.1895     6.4821 </r>
       <r>     7.1192     1.9353     6.6648 </r>
       <r>     7.2137     1.3934     6.7964 </r>
       <r>     7.3081     0.7403     6.8663 </r>
       <r>     7.4025     0.3448     6.8989 </r>
       <r>     7.4970     0.2363     6.9212 </r>
       <r>     7.5914     0.2093     6.9410 </r>
       <r>     7.6859     0.1500     6.9551 </r>
       <r>     7.7803     0.1074     6.9653 </r>
       <r>     7.8747     0.1953     6.9837 </r>
       <r>     7.9692     0.5143     7.0323 </r>
       <r>     8.0636     1.0672     7.1331 </r>
       <r>     8.1581     1.6867     7.2924 </r>
       <r>     8.2525     2.0602     7.4869 </r>
       <r>     8.3469     1.8877     7.6652 </r>
       <r>     8.4414     1.2312     7.7815 </r>
       <r>     8.5358     0.5475     7.8332 </r>
       <r>     8.6302     0.1620     7.8485 </r>
       <r>     8.7247     0.0329     7.8516 </r>
       <r>     8.8191     0.0178     7.8533 </r>
       <r>     8.9136     0.0849     7.8613 </r>
       <r>     9.0080     0.3370     7.8931 </r>
       <r>     9.1024     0.8728     7.9755 </r>
       <r>     9.1969     1.4708     8.1144 </r>
       <r>     9.2913     1.6126     8.2667 </r>
       <r>     9.3858     1.1506     8.3754 </r>
       <r>     9.4802     0.5342     8.4258 </r>
       <r>     9.5746     0.1625     8.4412 </r>
       <r>     9.6691     0.0440     8.4453 </r>
       <r>     9.7635     0.0818     8.4531 </r>
       <r>     9.8579     0.3177     8.4831 </r>
       <r>     9.9524     0.8447     8.5628 </r>
       <r>    10.0468     1.4812     8.7027 </r>
       <r>    10.1413     1.7678     8.8697 </r>
       <r>    10.2357     1.5816     9.0190 </r>
       <r>    10.3301     1.2704     9.1390 </r>
       <r>    10.4246     1.0091     9.2343 </r>
       <r>    10.5190     0.7613     9.3062 </r>
       <r>    10.6135     0.7265     9.3748 </r>
       <r>    10.7079     1.1249     9.4810 </r>
       <r>    10.8023     1.6693     9.6387 </r>
       <r>    10.8968     1.7519     9.8041 </r>
       <r>    10.9912     1.2383     9.9211 </r>
       <r>    11.0856     0.5915     9.9769 </r>
       <r>    11.1801     0.1932     9.9952 </r>
       <r>    11.2745     0.0437     9.9993 </r>
       <r>    11.3690     0.0083    10.0001 </r>
       <r>    11.4634     0.0131    10.0013 </r>
       <r>    11.5578     0.0669    10.0076 </r>
       <r>    11.6523     0.2373    10.0300 </r>
       <r>    11.7467     0.5623    10.0831 </r>
       <r>    11.8412     0.9439    10.1723 </r>
       <r>    11.9356     1.2794    10.2931 </r>
       <r>    12.0300     1.6082    10.4450 </r>
       <r>    12.1245     1.8014    10.6151 </r>
       <r>    12.2189     1.5379    10.7603 </r>
       <r>    12.3133     0.9038    10.8457 </r>
       <r>    12.4078     0.3515    10.8789 </r>
       <r>    12.5022     0.0893    10.8873 </r>
       <r>    12.5967     0.0148    10.8887 </r>
       <r>    12.6911     0.0016    10.8889 </r>
       <r>    12.7855     0.0001    10.8889 </r>
       <r>    12.8800     0.0000    10.8889 </r>
       <r>    12.9744     0.0000    10.8889 </r>
       <r>    13.0689     0.0002    10.8889 </r>
       <r>    13.1633     0.0031    10.8892 </r>
       <r>    13.2577     0.0254    10.8916 </r>
       <r>    13.3522     0.1362    10.9045 </r>
       <r>    13.4466     0.4745    10.9493 </r>
       <r>    13.5410     1.0752    11.0508 </r>
       <r>    13.6355     1.5849    11.2005 </r>
       <r>    13.7299     1.5207    11.3441 </r>
       <r>    13.8244     0.9539    11.4342 </r>
       <r>    13.9188     0.4182    11.4737 </r>
       <r>    14.0132     0.2428    11.4966 </r>
       <r>    14.1077     0.4150    11.5358 </r>
       <r>    14.2021     0.7644    11.6080 </r>
       <r>    14.2966     1.0947    11.7114 </r>
       <r>    14.3910     1.4014    11.8437 </r>
       <r>    14.4854     1.7582    12.0097 </r>
       <r>    14.5799     1.9530    12.1942 </r>
       <r>    14.6743     1.7868    12.3629 </r>
       <r>    14.7687     1.4232    12.4973 </r>
       <r>    14.8632     1.0575    12.5972 </r>
       <r>    14.9576     0.8081    12.6735 </r>
       <r>    15.0521     0.7902    12.7481 </r>
       <r>    15.1465     0.8797    12.8312 </r>
       <r>    15.2409     0.8200    12.9086 </r>
       <r>    15.3354     0.6423    12.9693 </r>
       <r>    15.4298     0.5562    13.0218 </r>
       <r>    15.5243     0.5995    13.0784 </r>
       <r>    15.6187     0.7197    13.1464 </r>
       <r>    15.7131     0.8711    13.2287 </r>
       <r>    15.8076     0.9177    13.3153 </r>
       <r>    15.9020     0.8584    13.3964 </r>
       <r>    15.9964     0.9944    13.4903 </r>
       <r>    16.0909     1.4190    13.6243 </r>
       <r>    16.1853     1.6607    13.7812 </r>
       <r>    16.2798     1.3273    13.9065 </r>
       <r>    16.3742     0.7057    13.9732 </r>
       <r>    16.4686     0.2920    14.0007 </r>
       <r>    16.5631     0.2491    14.0243 </r>
       <r>    16.6575     0.5446    14.0757 </r>
       <r>    16.7520     1.1118    14.1807 </r>
       <r>    16.8464     1.6801    14.3394 </r>
       <r>    16.9408     1.8424    14.5133 </r>
       <r>    17.0353     1.5863    14.6632 </r>
       <r>    17.1297     1.2849    14.7845 </r>
       <r>    17.2241     1.0991    14.8883 </r>
       <r>    17.3186     0.9932    14.9821 </r>
       <r>    17.4130     0.9695    15.0736 </r>
       <r>    17.5075     0.8977    15.1584 </r>
       <r>    17.6019     0.6386    15.2187 </r>
       <r>    17.6963     0.3254    15.2495 </r>
       <r>    17.7908     0.1830    15.2668 </r>
       <r>    17.8852     0.3018    15.2953 </r>
       <r>    17.9797     0.6276    15.3545 </r>
       <r>    18.0741     0.9478    15.4440 </r>
       <r>    18.1685     1.0249    15.5408 </r>
       <r>    18.2630     0.8347    15.6197 </r>
       <r>    18.3574     0.5271    15.6694 </r>
       <r>    18.4518     0.2522    15.6933 </r>
       <r>    18.5463     0.0867    15.7014 </r>
       <r>    18.6407     0.0204    15.7034 </r>
       <r>    18.7352     0.0032    15.7037 </r>
       <r>    18.8296     0.0003    15.7037 </r>
       <r>    18.9240     0.0000    15.7037 </r>
       <r>    19.0185     0.0000    15.7037 </r>
       <r>    19.1129     0.0000    15.7037 </r>
       <r>    19.2074     0.0002    15.7037 </r>
       <r>    19.3018     0.0019    15.7039 </r>
       <r>    19.3962     0.0148    15.7053 </r>
       <r>    19.4907     0.0765    15.7125 </r>
       <r>    19.5851     0.2576    15.7368 </r>
       <r>    19.6795     0.5637    15.7901 </r>
       <r>    19.7740     0.8025    15.8659 </r>
       <r>    19.8684     0.7434    15.9361 </r>
       <r>    19.9629     0.4482    15.9784 </r>
       <r>    20.0573     0.1757    15.9950 </r>
       <r>    20.1517     0.0448    15.9992 </r>
       <r>    20.2462     0.0074    15.9999 </r>
       <r>    20.3406     0.0008    16.0000 </r>
       <r>    20.4351     0.0001    16.0000 </r>
       <r>    20.5295     0.0000    16.0000 </r>
       <r>    20.6239     0.0000    16.0000 </r>
       <r>    20.7184     0.0000    16.0000 </r>
       <r>    20.8128     0.0000    16.0000 </r>
       <r>    20.9072     0.0000    16.0000 </r>
       <r>    21.0017     0.0000    16.0000 </r>
       <r>    21.0961     0.0000    16.0000 </r>
       <r>    21.1906     0.0000    16.0000 </r>
       <r>    21.2850     0.0000    16.0000 </r>
       <r>    21.3794     0.0000    16.0000 </r>
       <r>    21.4739     0.0000    16.0000 </r>
       <r>    21.5683     0.0000    16.0000 </r>
       <r>    21.6628     0.0000    16.0000 </r>
       <r>    21.7572     0.0000    16.0000 </r>
      </set>
     </set>
    </array>
   </total>
  </dos>
 </calculation>
 <structure name="finalpos" >
  <crystal>
   <varray name="basis" >
    <v>      -2.37885876       2.37885876       1.34462979 </v>
    <v>       2.37885876      -2.37885876       1.34462979 </v>
    <v>       2.37885876       2.37885876      -1.34462979 </v>
   </varray>
   <i name="volume">     30.43687312 </i>
   <varray name="rec_basis" >
    <v>      -0.00000000       0.21018482       0.37184956 </v>
    <v>       0.21018482      -0.00000000       0.37184956 </v>
    <v>       0.21018482       0.21018482      -0.00000000 </v>
   </varray>
  </crystal>
  <varray name="positions" >
   <v>       0.25000000       0.75000000       0.50000000 </v>
   <v>       0.00000000      -0.00000000       0.00000000 </v>
  </varray>
 </structure>
</modeling>
