    2    2   15    1
  0.1529437E+02  0.3691622E-09  0.3691622E-09  0.3691622E-09  0.5000000E-15
  1.000000000000000E-004
  CAR 
 unknown system                          
      8     28      8
 
  0.8333333E-01  0.8333333E-01  0.8333333E-01  0.3703704E-01
    1       -3.665853   1.000000
    2        3.914537   1.000000
    3        7.132459   1.000000
    4        8.651228   0.999909
    5       12.876995   0.000000
    6       13.765501   0.000000
    7       14.000377   0.000000
    8       15.821020   0.000000
 
  0.2500000E+00  0.8333333E-01  0.8333333E-01  0.7407407E-01
    1       -1.339612   1.000000
    2        4.287687   1.000000
    3        7.503841   1.000000
    4        7.987783   1.000000
    5        9.748622   0.000029
    6       12.328121   0.000000
    7       13.598592   0.000000
    8       14.385001   0.000000
 
  0.4166667E+00  0.8333333E-01  0.8333333E-01  0.3703704E-01
    1        2.197898   1.000000
    2        2.741509   1.000000
    3        6.036555   1.000000
    4        6.128631   1.000000
    5        9.589165   0.001923
    6       11.391678   0.000000
    7       13.676742   0.000000
    8       14.565610   0.000000
 
 -0.8333333E-01  0.8333333E-01  0.8333333E-01  0.1851852E-01
    1       -4.448571   1.000000
    2        4.516354   1.000000
    3        5.702233   1.000000
    4        8.262468   1.000000
    5       11.515461   0.000000
    6       14.378724   0.000000
    7       17.512980   0.000000
    8       18.260756   0.000000
 
  0.2500000E+00  0.2500000E+00  0.8333333E-01  0.3703704E-01
    1        2.102098   1.000000
    2        4.000903   1.000000
    3        4.102899   1.000000
    4        5.856551   1.000000
    5       11.000971   0.000000
    6       12.233441   0.000000
    7       13.841256   0.000000
    8       14.333637   0.000000
 
  0.4166667E+00  0.2500000E+00  0.8333333E-01  0.7407407E-01
    1       -0.048826   1.000000
    2        1.853457   1.000000
    3        7.007818   1.000000
    4        8.317004   1.000000
    5        9.981679   0.000000
    6       11.809078   0.000000
    7       13.585183   0.000000
    8       15.234431   0.000000
 
 -0.4166667E+00  0.2500000E+00  0.8333333E-01  0.3703704E-01
    1       -2.681127   1.000000
    2        1.172066   1.000000
    3        8.030367   1.000000
    4        9.861034   0.000001
    5       11.478439   0.000000
    6       12.960803   0.000000
    7       14.123368   0.000000
    8       14.339247   0.000000
 
 -0.2500000E+00  0.2500000E+00  0.8333333E-01  0.3703704E-01
    1       -3.788700   1.000000
    2        1.949702   1.000000
    3        5.968203   1.000000
    4        9.859131   0.000001
    5       11.485465   0.000000
    6       14.553620   0.000000
    7       15.386779   0.000000
    8       18.948274   0.000000
 
 -0.8333333E-01  0.2500000E+00  0.8333333E-01  0.3703704E-01
    1       -3.337424   1.000000
    2        3.660762   1.000000
    3        5.185535   1.000000
    4       10.704374   0.000000
    5       11.839409   0.000000
    6       13.275876   0.000000
    7       14.070619   0.000000
    8       15.966338   0.000000
 
  0.4166667E+00  0.4166667E+00  0.8333333E-01  0.1851852E-01
    1       -1.057213   1.000000
    2       -1.057213   1.000000
    3        9.496179   0.012776
    4        9.496186   0.012774
    5       11.392578   0.000000
    6       11.392583   0.000000
    7       13.750131   0.000000
    8       13.750140   0.000000
 
 -0.4166667E+00  0.4166667E+00  0.8333333E-01  0.3703704E-01
    1       -2.479258   1.000000
    2       -0.544818   1.000000
    3        7.191700   1.000000
    4        9.045615   0.829706
    5       11.274323   0.000000
    6       13.118464   0.000000
    7       18.302373   0.000000
    8       18.568157   0.000000
 
 -0.2500000E+00  0.4166667E+00  0.8333333E-01  0.7407407E-01
    1       -2.357890   1.000000
    2        1.434882   1.000000
    3        5.581430   1.000000
    4        9.197036   0.453152
    5       11.405172   0.000000
    6       13.502306   0.000000
    7       15.581166   0.000000
    8       16.775742   0.000000
 
 -0.8333333E-01  0.4166667E+00  0.8333333E-01  0.3703704E-01
    1       -0.695932   1.000000
    2        4.268811   1.000000
    3        5.889006   1.000000
    4        6.484979   1.000000
    5       10.094506   0.000000
    6       12.323090   0.000000
    7       13.382004   0.000000
    8       15.405674   0.000000
 
 -0.4166667E+00 -0.4166667E+00  0.8333333E-01  0.3703704E-01
    1       -0.749232   1.000000
    2       -0.744461   1.000000
    3        7.072993   1.000000
    4        7.089054   1.000000
    5       11.307416   0.000000
    6       14.528986   0.000000
    7       15.314275   0.000000
    8       15.426280   0.000000
 
 -0.2500000E+00 -0.4166667E+00  0.8333333E-01  0.7407407E-01
    1        0.575668   1.000000
    2        2.413107   1.000000
    3        5.816971   1.000000
    4        6.571507   1.000000
    5        8.254465   1.000000
    6       11.866542   0.000000
    7       15.443348   0.000000
    8       17.009584   0.000000
 
 -0.8333333E-01 -0.4166667E+00  0.8333333E-01  0.3703704E-01
    1        1.479287   1.000000
    2        3.446047   1.000000
    3        6.384281   1.000000
    4        7.616926   1.000000
    5        8.202595   1.000000
    6       10.826052   0.000000
    7       11.658282   0.000000
    8       15.718053   0.000000
 
 -0.2500000E+00 -0.2500000E+00  0.8333333E-01  0.3703704E-01
    1        1.173592   1.000000
    2        4.894168   1.000000
    3        4.939169   1.000000
    4        7.740152   1.000000
    5        8.727072   0.999326
    6       10.298655   0.000000
    7       12.683830   0.000000
    8       13.509278   0.000000
 
 -0.8333333E-01 -0.2500000E+00  0.8333333E-01  0.3703704E-01
    1       -1.991509   1.000000
    2        6.719862   1.000000
    3        7.730237   1.000000
    4        8.502395   0.999999
    5        9.895053   0.000000
    6       11.141236   0.000000
    7       12.407060   0.000000
    8       13.591439   0.000000
 
 -0.8333333E-01 -0.8333333E-01  0.8333333E-01  0.9259259E-02
    1       -3.995660   1.000000
    2        6.769173   1.000000
    3        6.831234   1.000000
    4        6.831247   1.000000
    5       11.214152   0.000000
    6       14.556987   0.000000
    7       14.835327   0.000000
    8       16.754525   0.000000
 
  0.2500000E+00  0.2500000E+00  0.2500000E+00  0.9259259E-02
    1        3.405831   1.000000
    2        3.405833   1.000000
    3        4.065879   1.000000
    4        4.065882   1.000000
    5       13.252380   0.000000
    6       13.252381   0.000000
    7       15.046887   0.000000
    8       15.046887   0.000000
 
 -0.2500000E+00  0.2500000E+00  0.2500000E+00  0.1851852E-01
    1       -3.135575   1.000000
    2        1.935148   1.000000
    3        3.632166   1.000000
    4        8.564069   0.999993
    5       12.937605   0.000000
    6       16.119425   0.000000
    7       17.365827   0.000000
    8       18.305508   0.000000
 
 -0.4166667E+00  0.4166667E+00  0.2500000E+00  0.3703704E-01
    1       -1.844825   1.000000
    2        0.026818   1.000000
    3        4.279393   1.000000
    4        6.102638   1.000000
    5       14.809468   0.000000
    6       16.265782   0.000000
    7       17.863591   0.000000
    8       18.216586   0.000000
 
 -0.2500000E+00  0.4166667E+00  0.2500000E+00  0.3703704E-01
    1       -1.398322   1.000000
    2        1.718761   1.000000
    3        3.473700   1.000000
    4        6.516854   1.000000
    5       10.861476   0.000000
    6       16.548593   0.000000
    7       17.540131   0.000000
    8       18.449654   0.000000
 
 -0.4166667E+00 -0.4166667E+00  0.2500000E+00  0.3703704E-01
    1        0.139030   1.000000
    2        0.149622   1.000000
    3        4.399915   1.000000
    4        4.404417   1.000000
    5       10.593464   0.000000
    6       17.698433   0.000000
    7       18.297742   0.000000
    8       19.049261   0.000000
 
 -0.2500000E+00 -0.4166667E+00  0.2500000E+00  0.3703704E-01
    1        1.772947   1.000000
    2        2.993560   1.000000
    3        4.751450   1.000000
    4        5.262100   1.000000
    5        6.013766   1.000000
    6       13.982738   0.000000
    7       15.408799   0.000000
    8       17.293451   0.000000
 
 -0.2500000E+00 -0.2500000E+00  0.2500000E+00  0.9259259E-02
    1        0.859029   1.000000
    2        5.784996   1.000000
    3        5.873700   1.000000
    4        7.278272   1.000000
    5        7.278277   1.000000
    6       11.591009   0.000000
    7       12.304054   0.000000
    8       12.304075   0.000000
 
 -0.4166667E+00  0.4166667E+00  0.4166667E+00  0.1851852E-01
    1       -0.625619   1.000000
    2        0.622401   1.000000
    3        2.438712   1.000000
    4        3.669616   1.000000
    5       16.275525   0.000000
    6       16.478723   0.000000
    7       19.413024   0.000000
    8       20.509634   0.000000
 
 -0.4166667E+00 -0.4166667E+00  0.4166667E+00  0.9259259E-02
    1        1.054028   1.000000
    2        1.072481   1.000000
    3        2.870873   1.000000
    4        2.870873   1.000000
    5       10.310652   0.000000
    6       19.229065   0.000000
    7       20.360391   0.000000
    8       20.360405   0.000000
