<?xml version="1.0" encoding="ISO-8859-1"?>
<modeling>
 <generator>
  <i name="program" type="string">vasp </i>
  <i name="version" type="string">5.4.4.18Apr17-6-g9f103f2a35  </i>
  <i name="subversion" type="string">(build Dec 09 2018 21:25:21) complex            parallel </i>
  <i name="platform" type="string">IFC18.0.1.163_CrayMPICH7.7.0_MKL18.0.1.163 </i>
  <i name="date" type="string">2019 03 19 </i>
  <i name="time" type="string">13:07:39 </i>
 </generator>
 <incar>
  <i type="string" name="PREC">normal</i>
  <i type="int" name="IBRION">     2</i>
  <i name="EDIFF">      0.00040000</i>
  <i name="EDIFFG">     -0.01000000</i>
  <i type="int" name="NSW">    15</i>
  <i type="int" name="ISIF">     2</i>
  <i name="ENCUT">    200.00000000</i>
  <i type="int" name="NBANDS">     8</i>
  <i type="logical" name="LREAL"> F  </i>
  <i type="int" name="ISMEAR">     0</i>
  <i name="SIGMA">      0.20000000</i>
  <v type="int" name="KPOINT_BSE">    -1     0     0     0</v>
 </incar>
 <structure name="primitive_cell" >
  <crystal>
   <varray name="basis" >
    <v>      -2.45000000       2.45000000       1.27400000 </v>
    <v>       2.45000000      -2.45000000       1.27400000 </v>
    <v>       2.45000000       2.45000000      -1.27400000 </v>
   </varray>
   <i name="volume">     30.58874000 </i>
   <varray name="rec_basis" >
    <v>       0.00000000       0.20408163       0.39246468 </v>
    <v>       0.20408163       0.00000000       0.39246468 </v>
    <v>       0.20408163       0.20408163      -0.00000000 </v>
   </varray>
  </crystal>
  <varray name="positions" >
   <v>       0.25000000      -0.25000000      -0.50000000 </v>
   <v>       0.00000000       0.00000000       0.00000000 </v>
  </varray>
 </structure>
 <varray name="primitive_index" >
  <v type="int" >        1 </v>
  <v type="int" >        2 </v>
 </varray>
 <kpoints>
  <generation param="Monkhorst-Pack">
   <v type="int" name="divisions">       4        4        4 </v>
   <v name="usershift">      0.00000000       0.00000000       0.00000000 </v>
   <v name="genvec1">      0.25000000       0.00000000      -0.00000000 </v>
   <v name="genvec2">      0.00000000       0.25000000      -0.00000000 </v>
   <v name="genvec3">      0.00000000      -0.00000000       0.25000000 </v>
   <v name="shift">      0.50000000       0.50000000       0.50000000 </v>
  </generation>
  <varray name="kpointlist" >
   <v>       0.12500000       0.12500000       0.12500000 </v>
   <v>       0.37500000       0.12500000       0.12500000 </v>
   <v>      -0.12500000       0.12500000       0.12500000 </v>
   <v>       0.37500000       0.37500000       0.12500000 </v>
   <v>      -0.37500000       0.37500000       0.12500000 </v>
   <v>      -0.12500000       0.37500000       0.12500000 </v>
   <v>      -0.37500000      -0.37500000       0.12500000 </v>
   <v>      -0.12500000      -0.37500000       0.12500000 </v>
   <v>      -0.12500000      -0.12500000       0.12500000 </v>
   <v>      -0.37500000       0.37500000       0.37500000 </v>
   <v>      -0.37500000      -0.37500000       0.37500000 </v>
  </varray>
  <varray name="weights" >
   <v>       0.12500000 </v>
   <v>       0.12500000 </v>
   <v>       0.06250000 </v>
   <v>       0.06250000 </v>
   <v>       0.12500000 </v>
   <v>       0.12500000 </v>
   <v>       0.12500000 </v>
   <v>       0.12500000 </v>
   <v>       0.03125000 </v>
   <v>       0.06250000 </v>
   <v>       0.03125000 </v>
  </varray>
 </kpoints>
 <parameters>
  <separator name="general" >
   <i type="string" name="SYSTEM">unknown system</i>
   <i type="logical" name="LCOMPAT"> F  </i>
  </separator>
  <separator name="electronic" >
   <i type="string" name="PREC">normal</i>
   <i name="ENMAX">    200.00000000</i>
   <i name="ENAUG">    322.06900000</i>
   <i name="EDIFF">      0.00040000</i>
   <i type="int" name="IALGO">    38</i>
   <i type="int" name="IWAVPR">    11</i>
   <i type="int" name="NBANDS">     8</i>
   <i name="NELECT">      8.00000000</i>
   <i type="int" name="TURBO">     0</i>
   <i type="int" name="IRESTART">     0</i>
   <i type="int" name="NREBOOT">     0</i>
   <i type="int" name="NMIN">     0</i>
   <i name="EREF">      0.00000000</i>
   <separator name="electronic smearing" >
    <i type="int" name="ISMEAR">     0</i>
    <i name="SIGMA">      0.20000000</i>
    <i name="KSPACING">      0.50000000</i>
    <i type="logical" name="KGAMMA"> T  </i>
   </separator>
   <separator name="electronic projectors" >
    <i type="logical" name="LREAL"> F  </i>
    <v name="ROPT">      0.00000000</v>
    <i type="int" name="LMAXPAW">  -100</i>
    <i type="int" name="LMAXMIX">     2</i>
    <i type="logical" name="NLSPLINE"> F  </i>
   </separator>
   <separator name="electronic startup" >
    <i type="int" name="ISTART">     1</i>
    <i type="int" name="ICHARG">     0</i>
    <i type="int" name="INIWAV">     1</i>
   </separator>
   <separator name="electronic spin" >
    <i type="int" name="ISPIN">     1</i>
    <i type="logical" name="LNONCOLLINEAR"> F  </i>
    <v name="MAGMOM">      1.00000000      1.00000000</v>
    <i name="NUPDOWN">     -1.00000000</i>
    <i type="logical" name="LSORBIT"> F  </i>
    <v name="SAXIS">      0.00000000      0.00000000      1.00000000</v>
    <i type="logical" name="LSPIRAL"> F  </i>
    <v name="QSPIRAL">      0.00000000      0.00000000      0.00000000</v>
    <i type="logical" name="LZEROZ"> F  </i>
   </separator>
   <separator name="electronic exchange-correlation" >
    <i type="logical" name="LASPH"> F  </i>
    <i type="logical" name="LMETAGGA"> F  </i>
   </separator>
   <separator name="electronic convergence" >
    <i type="int" name="NELM">    60</i>
    <i type="int" name="NELMDL">     0</i>
    <i type="int" name="NELMIN">     2</i>
    <i name="ENINI">    200.00000000</i>
    <separator name="electronic convergence detail" >
     <i type="logical" name="LDIAG"> T  </i>
     <i type="logical" name="LSUBROT"> F  </i>
     <i name="WEIMIN">      0.00100000</i>
     <i name="EBREAK">      0.00001250</i>
     <i name="DEPER">      0.30000000</i>
     <i type="int" name="NRMM">     4</i>
     <i name="TIME">      0.40000000</i>
    </separator>
   </separator>
   <separator name="electronic mixer" >
    <i name="AMIX">      0.40000000</i>
    <i name="BMIX">      1.00000000</i>
    <i name="AMIN">      0.10000000</i>
    <i name="AMIX_MAG">      1.60000000</i>
    <i name="BMIX_MAG">      1.00000000</i>
    <separator name="electronic mixer details" >
     <i type="int" name="IMIX">     4</i>
     <i type="logical" name="MIXFIRST"> F  </i>
     <i type="int" name="MAXMIX">   -45</i>
     <i name="WC">    100.00000000</i>
     <i type="int" name="INIMIX">     1</i>
     <i type="int" name="MIXPRE">     1</i>
     <i type="int" name="MREMOVE">     5</i>
    </separator>
   </separator>
   <separator name="electronic dipolcorrection" >
    <i type="logical" name="LDIPOL"> F  </i>
    <i type="logical" name="LMONO"> F  </i>
    <i type="int" name="IDIPOL">     0</i>
    <i name="EPSILON">      1.00000000</i>
    <v name="DIPOL">   -100.00000000   -100.00000000   -100.00000000</v>
    <i name="EFIELD">      0.00000000</i>
   </separator>
  </separator>
  <separator name="grids" >
   <i type="int" name="NGX">    14</i>
   <i type="int" name="NGY">    14</i>
   <i type="int" name="NGZ">    14</i>
   <i type="int" name="NGXF">    28</i>
   <i type="int" name="NGYF">    28</i>
   <i type="int" name="NGZF">    28</i>
   <i type="logical" name="ADDGRID"> F  </i>
  </separator>
  <separator name="ionic" >
   <i type="int" name="NSW">    15</i>
   <i type="int" name="IBRION">     2</i>
   <i type="int" name="MDALGO">     0</i>
   <i type="int" name="ISIF">     2</i>
   <i name="PSTRESS">      0.00000000</i>
   <i name="EDIFFG">     -0.01000000</i>
   <i type="int" name="NFREE">     1</i>
   <i name="POTIM">      0.50000000</i>
   <i name="SMASS">     -3.00000000</i>
   <i name="SCALEE">      1.00000000</i>
  </separator>
  <separator name="ionic md" >
   <i name="TEBEG">      0.00010000</i>
   <i name="TEEND">      0.00010000</i>
   <i type="int" name="NBLOCK">     1</i>
   <i type="int" name="KBLOCK">    15</i>
   <i type="int" name="NPACO">   256</i>
   <i name="APACO">     16.00000000</i>
  </separator>
  <separator name="symmetry" >
   <i type="int" name="ISYM">     2</i>
   <i name="SYMPREC">      0.00001000</i>
  </separator>
  <separator name="dos" >
   <i type="int" name="LORBIT">     0</i>
   <v name="RWIGS">     -1.00000000</v>
   <i type="int" name="NEDOS">   301</i>
   <i name="EMIN">     10.00000000</i>
   <i name="EMAX">    -10.00000000</i>
   <i name="EFERMI">      0.00000000</i>
  </separator>
  <separator name="writing" >
   <i type="int" name="NWRITE">     2</i>
   <i type="logical" name="LWAVE"> T  </i>
   <i type="logical" name="LDOWNSAMPLE"> F  </i>
   <i type="logical" name="LCHARG"> T  </i>
   <i type="logical" name="LPARD"> F  </i>
   <i type="logical" name="LVTOT"> F  </i>
   <i type="logical" name="LVHAR"> F  </i>
   <i type="logical" name="LELF"> F  </i>
   <i type="logical" name="LOPTICS"> F  </i>
   <v name="STM">      0.00000000      0.00000000      0.00000000      0.00000000      0.00000000      0.00000000      0.00000000</v>
  </separator>
  <separator name="performance" >
   <i type="int" name="NPAR">     8</i>
   <i type="int" name="NSIM">     4</i>
   <i type="int" name="NBLK">    -1</i>
   <i type="logical" name="LPLANE"> T  </i>
   <i type="logical" name="LSCALAPACK"> T  </i>
   <i type="logical" name="LSCAAWARE"> F  </i>
   <i type="logical" name="LSCALU"> F  </i>
   <i type="logical" name="LASYNC"> F  </i>
   <i type="logical" name="LORBITALREAL"> F  </i>
  </separator>
  <separator name="miscellaneous" >
   <i type="int" name="IDIOT">     3</i>
   <i type="int" name="ISPECIAL">     0</i>
   <i type="logical" name="LMUSIC"> F  </i>
   <v name="POMASS">     28.08500000</v>
   <v name="DARWINR">      0.00000000</v>
   <v name="DARWINV">      1.00000000</v>
   <i type="logical" name="LCORR"> T  </i>
  </separator>
  <i type="logical" name="GGA_COMPAT"> T  </i>
  <i type="logical" name="LBERRY"> F  </i>
  <i type="int" name="ICORELEVEL">     0</i>
  <i type="logical" name="LDAU"> F  </i>
  <i type="int" name="I_CONSTRAINED_M">     0</i>
  <separator name="electronic exchange-correlation" >
   <i type="string" name="GGA">--</i>
   <i type="int" name="VOSKOWN">     0</i>
   <i type="logical" name="LHFCALC"> F  </i>
   <i type="string" name="PRECFOCK"></i>
   <i type="logical" name="LSYMGRAD"> F  </i>
   <i type="logical" name="LHFONE"> F  </i>
   <i type="logical" name="LRHFCALC"> F  </i>
   <i type="logical" name="LTHOMAS"> F  </i>
   <i type="logical" name="LMODELHF"> F  </i>
   <i name="ENCUT4O">     -1.00000000</i>
   <i type="int" name="EXXOEP">     0</i>
   <i type="int" name="FOURORBIT">     0</i>
   <i name="AEXX">      0.00000000</i>
   <i name="HFALPHA">      0.00000000</i>
   <i name="MCALPHA">      0.00000000</i>
   <i name="ALDAX">      1.00000000</i>
   <i name="AGGAX">      1.00000000</i>
   <i name="ALDAC">      1.00000000</i>
   <i name="AGGAC">      1.00000000</i>
   <i type="int" name="NKREDX">     1</i>
   <i type="int" name="NKREDY">     1</i>
   <i type="int" name="NKREDZ">     1</i>
   <i type="logical" name="SHIFTRED"> F  </i>
   <i type="logical" name="ODDONLY"> F  </i>
   <i type="logical" name="EVENONLY"> F  </i>
   <i type="int" name="LMAXFOCK">     0</i>
   <i type="int" name="NMAXFOCKAE">     0</i>
   <i type="logical" name="LFOCKAEDFT"> F  </i>
   <i name="HFSCREEN">      0.00000000</i>
   <i name="HFSCREENC">      0.00000000</i>
   <i type="int" name="NBANDSGWLOW">     0</i>
  </separator>
  <separator name="vdW DFT" >
   <i type="logical" name="LUSE_VDW"> F  </i>
   <i name="Zab_VDW">     -0.84910000</i>
   <i name="PARAM1">      0.12340000</i>
   <i name="PARAM2">      1.00000000</i>
   <i name="PARAM3">      0.00000000</i>
  </separator>
  <separator name="model GW" >
   <i type="int" name="MODEL_GW">     0</i>
   <i name="MODEL_EPS0">      9.17662200</i>
   <i name="MODEL_ALPHA">      1.00000000</i>
  </separator>
  <separator name="linear response parameters" >
   <i type="logical" name="LEPSILON"> F  </i>
   <i type="logical" name="LRPA"> F  </i>
   <i type="logical" name="LNABLA"> F  </i>
   <i type="logical" name="LVEL"> F  </i>
   <i type="int" name="KINTER">     0</i>
   <i name="CSHIFT">      0.10000000</i>
   <i name="OMEGAMAX">     -1.00000000</i>
   <i name="DEG_THRESHOLD">      0.00200000</i>
   <i name="RTIME">     -0.10000000</i>
   <i name="WPLASMAI">      0.00000000</i>
   <v name="DFIELD">      0.00000000      0.00000000      0.00000000</v>
   <v name="WPLASMA">      0.00000000      0.00000000      0.00000000      0.00000000      0.00000000      0.00000000      0.00000000      0.00000000      0.00000000</v>
  </separator>
  <separator name="orbital magnetization" >
   <i type="logical" name="NUCIND"> F  </i>
   <v name="MAGPOS">      0.00000000      0.00000000      0.00000000</v>
   <i type="logical" name="LNICSALL"> T  </i>
   <i type="logical" name="ORBITALMAG"> F  </i>
   <i type="logical" name="LMAGBLOCH"> F  </i>
   <i type="logical" name="LCHIMAG"> F  </i>
   <i type="logical" name="LGAUGE"> T  </i>
   <i type="int" name="MAGATOM">     0</i>
   <v name="MAGDIPOL">      0.00000000      0.00000000      0.00000000</v>
   <v name="AVECCONST">      0.00000000      0.00000000      0.00000000</v>
  </separator>
  <separator name="response functions" >
   <i type="logical" name="LADDER"> F  </i>
   <i type="logical" name="LRPAFORCE"> F  </i>
   <i type="logical" name="LFXC"> F  </i>
   <i type="logical" name="LHARTREE"> T  </i>
   <i type="int" name="IBSE">     0</i>
   <v type="int" name="KPOINT">    -1     0     0     0</v>
   <i type="logical" name="LTCTE"> F  </i>
   <i type="logical" name="LTETE"> F  </i>
   <i type="logical" name="LTRIPLET"> F  </i>
   <i type="logical" name="LFXCEPS"> F  </i>
   <i type="logical" name="LFXHEG"> F  </i>
   <i type="int" name="NATURALO">     2</i>
   <i type="logical" name="L2ORDER"> F  </i>
   <i type="logical" name="LMP2LT"> F  </i>
   <i type="logical" name="LUSEW"> F  </i>
   <i name="ENCUTGW">     -2.00000000</i>
   <i name="ENCUTGWSOFT">     -2.00000000</i>
   <i name="ENCUTLF">     -1.00000000</i>
   <i type="int" name="LMAXMP2">    -1</i>
   <i name="SCISSOR">      0.00000000</i>
   <i type="int" name="NOMEGA">     0</i>
   <i type="int" name="NOMEGAR">     0</i>
   <i type="int" name="NBANDSGW">    -1</i>
   <i type="int" name="NBANDSO">    -1</i>
   <i type="int" name="NBANDSV">    -1</i>
   <i type="int" name="NELM">     1</i>
   <i type="int" name="NELMHF">     1</i>
   <i type="int" name="DIM">     3</i>
   <i type="int" name="ANTIRES">     0</i>
   <i name="OMEGAMAX">    -30.00000000</i>
   <i name="OMEGAMIN">    -30.00000000</i>
   <i name="OMEGATL">   -200.00000000</i>
   <i type="int" name="OMEGAGRID">   140</i>
   <i name="CSHIFT">     -0.10000000</i>
   <i type="logical" name="SELFENERGY"> F  </i>
   <i type="logical" name="LSPECTRAL"> F  </i>
   <i type="logical" name="LSPECTRALGW"> F  </i>
   <i type="logical" name="LSINGLES"> F  </i>
   <i type="logical" name="LFERMIGW"> F  </i>
   <i type="logical" name="ODDONLYGW"> F  </i>
   <i type="logical" name="EVENONLYGW"> F  </i>
   <i type="int" name="NKREDLFX">     1</i>
   <i type="int" name="NKREDLFY">     1</i>
   <i type="int" name="NKREDLFZ">     1</i>
   <i type="int" name="MAXMEM">  2800</i>
   <i type="int" name="TELESCOPE">     0</i>
   <i type="int" name="TAUPAR">     1</i>
   <i type="int" name="OMEGAPAR">    -1</i>
   <i name="LAMBDA">      1.00000000</i>
  </separator>
  <separator name="External order field" >
   <i name="OFIELD_KAPPA">      0.00000000</i>
   <v name="OFIELD_K">      0.00000000      0.00000000      0.00000000</v>
   <i name="OFIELD_Q6_NEAR">      0.00000000</i>
   <i name="OFIELD_Q6_FAR">      0.00000000</i>
   <i name="OFIELD_A">      0.00000000</i>
  </separator>
 </parameters>
 <atominfo>
  <atoms>       2 </atoms>
  <types>       1 </types>
  <array name="atoms" >
   <dimension dim="1">ion</dimension>
   <field type="string">element</field>
   <field type="int">atomtype</field>
   <set>
    <rc><c>Si</c><c>   1</c></rc>
    <rc><c>Si</c><c>   1</c></rc>
   </set>
  </array>
  <array name="atomtypes" >
   <dimension dim="1">type</dimension>
   <field type="int">atomspertype</field>
   <field type="string">element</field>
   <field>mass</field>
   <field>valence</field>
   <field type="string">pseudopotential</field>
   <set>
    <rc><c>   2</c><c>Si</c><c>     28.08500000</c><c>      4.00000000</c><c> PAW_PBE Si 05Jan2001                   </c></rc>
   </set>
  </array>
 </atominfo>
 <structure name="initialpos" >
  <crystal>
   <varray name="basis" >
    <v>      -2.45000000       2.45000000       1.27400000 </v>
    <v>       2.45000000      -2.45000000       1.27400000 </v>
    <v>       2.45000000       2.45000000      -1.27400000 </v>
   </varray>
   <i name="volume">     30.58874000 </i>
   <varray name="rec_basis" >
    <v>       0.00000000       0.20408163       0.39246468 </v>
    <v>       0.20408163       0.00000000       0.39246468 </v>
    <v>       0.20408163       0.20408163      -0.00000000 </v>
   </varray>
  </crystal>
  <varray name="positions" >
   <v>       0.25000000       0.75000000       0.50000000 </v>
   <v>       0.00000000       0.00000000       0.00000000 </v>
  </varray>
 </structure>
 <calculation>
  <scstep>
   <time name="dav">    0.05    0.06</time>
   <time name="total">    0.10    0.13</time>
   <energy>
    <i name="alphaZ">      4.40202223 </i>
    <i name="ewald">   -265.18101312 </i>
    <i name="hartreedc">     -2.52082155 </i>
    <i name="XCdc">    -17.55998727 </i>
    <i name="pawpsdc">     71.43275154 </i>
    <i name="pawaedc">    -36.35707254 </i>
    <i name="eentropy">     -0.01407143 </i>
    <i name="bandstr">     29.74171202 </i>
    <i name="atom">    206.11247263 </i>
    <i name="e_fr_energy">     -9.94400750 </i>
    <i name="e_wo_entrp">     -9.92993606 </i>
    <i name="e_0_energy">     -9.93697178 </i>
   </energy>
  </scstep>
  <scstep>
   <time name="dav">    0.05    0.05</time>
   <time name="total">    0.08    0.09</time>
   <energy>
    <i name="alphaZ">      4.40202223 </i>
    <i name="ewald">   -265.18101312 </i>
    <i name="hartreedc">     -2.52086121 </i>
    <i name="XCdc">    -17.55999543 </i>
    <i name="pawpsdc">     71.43275087 </i>
    <i name="pawaedc">    -36.35708075 </i>
    <i name="eentropy">     -0.01407143 </i>
    <i name="bandstr">     29.74176869 </i>
    <i name="atom">    206.11247263 </i>
    <i name="e_fr_energy">     -9.94400752 </i>
    <i name="e_wo_entrp">     -9.92993609 </i>
    <i name="e_0_energy">     -9.93697181 </i>
   </energy>
  </scstep>
  <structure>
   <crystal>
    <varray name="basis" >
     <v>      -2.45000000       2.45000000       1.27400000 </v>
     <v>       2.45000000      -2.45000000       1.27400000 </v>
     <v>       2.45000000       2.45000000      -1.27400000 </v>
    </varray>
    <i name="volume">     30.58874000 </i>
    <varray name="rec_basis" >
     <v>       0.00000000       0.20408163       0.39246468 </v>
     <v>       0.20408163       0.00000000       0.39246468 </v>
     <v>       0.20408163       0.20408163      -0.00000000 </v>
    </varray>
   </crystal>
   <varray name="positions" >
    <v>       0.25000000       0.75000000       0.50000000 </v>
    <v>       0.00000000       0.00000000       0.00000000 </v>
   </varray>
  </structure>
  <varray name="forces" >
   <v>       0.00000000       0.00000000      -0.00000000 </v>
   <v>      -0.00000000      -0.00000000       0.00000000 </v>
  </varray>
  <varray name="stress" >
   <v>     -56.34071836       0.00000000       0.00000000 </v>
   <v>       0.00000000     -56.34071836       0.00000000 </v>
   <v>       0.00000000      -0.00000000     159.39573387 </v>
  </varray>
  <energy>
   <i name="e_fr_energy">     -9.94400752 </i>
   <i name="e_wo_entrp">     -9.93697181 </i>
   <i name="e_0_energy">     -0.01407143 </i>
  </energy>
  <time name="totalsc">    0.79    1.21</time>
  <eigenvalues>
   <array>
    <dimension dim="1">band</dimension>
    <dimension dim="2">kpoint</dimension>
    <dimension dim="3">spin</dimension>
    <field>eigene</field>
    <field>occ</field>
    <set>
     <set comment="spin 1">
      <set comment="kpoint 1">
       <r>   -2.4863    1.0000 </r>
       <r>    3.2258    1.0000 </r>
       <r>    8.0712    1.0000 </r>
       <r>    9.5730    0.0134 </r>
       <r>   11.2135    0.0000 </r>
       <r>   11.3274    0.0000 </r>
       <r>   14.3853    0.0000 </r>
       <r>   15.1115    0.0000 </r>
      </set>
      <set comment="kpoint 2">
       <r>    2.4044    1.0000 </r>
       <r>    2.9256    1.0000 </r>
       <r>    5.3101    1.0000 </r>
       <r>    5.5607    1.0000 </r>
       <r>   10.5825    0.0000 </r>
       <r>   12.3110    0.0000 </r>
       <r>   13.8999    0.0000 </r>
       <r>   14.4904    0.0000 </r>
      </set>
      <set comment="kpoint 3">
       <r>   -4.2407    1.0000 </r>
       <r>    3.7551    1.0000 </r>
       <r>    5.1714    1.0000 </r>
       <r>    9.3592    0.2409 </r>
       <r>   12.4447    0.0000 </r>
       <r>   12.8939    0.0000 </r>
       <r>   18.1630    0.0000 </r>
       <r>   19.2458    0.0000 </r>
      </set>
      <set comment="kpoint 4">
       <r>   -0.2980    1.0000 </r>
       <r>   -0.2980    1.0000 </r>
       <r>    9.4268    0.1188 </r>
       <r>    9.4268    0.1187 </r>
       <r>   11.1684    0.0000 </r>
       <r>   11.1684    0.0000 </r>
       <r>   12.7395    0.0000 </r>
       <r>   12.7395    0.0000 </r>
      </set>
      <set comment="kpoint 5">
       <r>   -2.7645    1.0000 </r>
       <r>    0.1209    1.0000 </r>
       <r>    6.0760    1.0000 </r>
       <r>    8.8547    0.9979 </r>
       <r>   11.7632    0.0000 </r>
       <r>   14.4995    0.0000 </r>
       <r>   17.6902    0.0000 </r>
       <r>   18.4125    0.0000 </r>
      </set>
      <set comment="kpoint 6">
       <r>   -1.7560    1.0000 </r>
       <r>    3.2687    1.0000 </r>
       <r>    4.9259    1.0000 </r>
       <r>    8.8039    0.9994 </r>
       <r>    9.7747    0.0001 </r>
       <r>   13.8569    0.0000 </r>
       <r>   14.8875    0.0000 </r>
       <r>   15.4867    0.0000 </r>
      </set>
      <set comment="kpoint 7">
       <r>    0.3824    1.0000 </r>
       <r>    0.3962    1.0000 </r>
       <r>    6.3570    1.0000 </r>
       <r>    6.3604    1.0000 </r>
       <r>    8.2908    1.0000 </r>
       <r>   14.0215    0.0000 </r>
       <r>   16.7758    0.0000 </r>
       <r>   17.6989    0.0000 </r>
      </set>
      <set comment="kpoint 8">
       <r>    1.2144    1.0000 </r>
       <r>    4.0793    1.0000 </r>
       <r>    6.1467    1.0000 </r>
       <r>    7.4968    1.0000 </r>
       <r>    8.4692    1.0000 </r>
       <r>   10.8719    0.0000 </r>
       <r>   11.2505    0.0000 </r>
       <r>   14.8043    0.0000 </r>
      </set>
      <set comment="kpoint 9">
       <r>   -3.2242    1.0000 </r>
       <r>    7.4364    1.0000 </r>
       <r>    7.4625    1.0000 </r>
       <r>    7.4625    1.0000 </r>
       <r>   11.9877    0.0000 </r>
       <r>   12.1050    0.0000 </r>
       <r>   12.4899    0.0000 </r>
       <r>   14.7274    0.0000 </r>
      </set>
      <set comment="kpoint 10">
       <r>   -1.3403    1.0000 </r>
       <r>    0.8277    1.0000 </r>
       <r>    2.6335    1.0000 </r>
       <r>    4.7663    1.0000 </r>
       <r>   15.9862    0.0000 </r>
       <r>   16.6289    0.0000 </r>
       <r>   18.5101    0.0000 </r>
       <r>   20.0108    0.0000 </r>
      </set>
      <set comment="kpoint 11">
       <r>    1.7946    1.0000 </r>
       <r>    1.8298    1.0000 </r>
       <r>    3.6020    1.0000 </r>
       <r>    3.6020    1.0000 </r>
       <r>    7.6029    1.0000 </r>
       <r>   17.1845    0.0000 </r>
       <r>   18.2839    0.0000 </r>
       <r>   18.2839    0.0000 </r>
      </set>
     </set>
    </set>
   </array>
  </eigenvalues>
  <separator name="orbital magnetization" >
   <v name="MAGDIPOLOUT">      0.00000000      0.00000000      0.00000000</v>
  </separator>
  <dos>
   <i name="efermi">      9.25974041 </i>
   <total>
    <array>
     <dimension dim="1">gridpoints</dimension>
     <dimension dim="2">spin</dimension>
     <field>energy</field>
     <field>total</field>
     <field>integrated</field>
     <set>
      <set comment="spin 1">
       <r>    -6.2407     0.0000     0.0000 </r>
       <r>    -6.1465     0.0000     0.0000 </r>
       <r>    -6.0523     0.0000     0.0000 </r>
       <r>    -5.9582     0.0000     0.0000 </r>
       <r>    -5.8640     0.0000     0.0000 </r>
       <r>    -5.7698     0.0000     0.0000 </r>
       <r>    -5.6756     0.0000     0.0000 </r>
       <r>    -5.5815     0.0000     0.0000 </r>
       <r>    -5.4873     0.0000     0.0000 </r>
       <r>    -5.3931     0.0000     0.0000 </r>
       <r>    -5.2990     0.0000     0.0000 </r>
       <r>    -5.2048     0.0000     0.0000 </r>
       <r>    -5.1106     0.0000     0.0000 </r>
       <r>    -5.0164     0.0000     0.0000 </r>
       <r>    -4.9223     0.0000     0.0000 </r>
       <r>    -4.8281     0.0000     0.0000 </r>
       <r>    -4.7339     0.0003     0.0000 </r>
       <r>    -4.6397     0.0028     0.0003 </r>
       <r>    -4.5456     0.0175     0.0019 </r>
       <r>    -4.4514     0.0698     0.0085 </r>
       <r>    -4.3572     0.1816     0.0256 </r>
       <r>    -4.2631     0.3082     0.0546 </r>
       <r>    -4.1689     0.3412     0.0868 </r>
       <r>    -4.0747     0.2463     0.1100 </r>
       <r>    -3.9805     0.1160     0.1209 </r>
       <r>    -3.8864     0.0356     0.1242 </r>
       <r>    -3.7922     0.0071     0.1249 </r>
       <r>    -3.6980     0.0012     0.1250 </r>
       <r>    -3.6039     0.0022     0.1252 </r>
       <r>    -3.5097     0.0120     0.1264 </r>
       <r>    -3.4155     0.0440     0.1305 </r>
       <r>    -3.3213     0.1050     0.1404 </r>
       <r>    -3.2272     0.1643     0.1559 </r>
       <r>    -3.1330     0.1759     0.1724 </r>
       <r>    -3.0388     0.1667     0.1881 </r>
       <r>    -2.9447     0.2480     0.2115 </r>
       <r>    -2.8505     0.4768     0.2564 </r>
       <r>    -2.7563     0.7314     0.3253 </r>
       <r>    -2.6621     0.8527     0.4056 </r>
       <r>    -2.5680     0.8688     0.4874 </r>
       <r>    -2.4738     0.8384     0.5663 </r>
       <r>    -2.3796     0.6799     0.6304 </r>
       <r>    -2.2855     0.3996     0.6680 </r>
       <r>    -2.1913     0.1608     0.6831 </r>
       <r>    -2.0971     0.0595     0.6887 </r>
       <r>    -2.0029     0.0932     0.6975 </r>
       <r>    -1.9088     0.2652     0.7225 </r>
       <r>    -1.8146     0.5295     0.7723 </r>
       <r>    -1.7204     0.6944     0.8377 </r>
       <r>    -1.6263     0.6113     0.8953 </r>
       <r>    -1.5321     0.4136     0.9343 </r>
       <r>    -1.4379     0.3270     0.9651 </r>
       <r>    -1.3437     0.3533     0.9983 </r>
       <r>    -1.2496     0.3350     1.0299 </r>
       <r>    -1.1554     0.2196     1.0505 </r>
       <r>    -1.0612     0.0947     1.0595 </r>
       <r>    -0.9671     0.0267     1.0620 </r>
       <r>    -0.8729     0.0049     1.0624 </r>
       <r>    -0.7787     0.0014     1.0626 </r>
       <r>    -0.6845     0.0075     1.0633 </r>
       <r>    -0.5904     0.0431     1.0673 </r>
       <r>    -0.4962     0.1625     1.0826 </r>
       <r>    -0.4020     0.3998     1.1203 </r>
       <r>    -0.3079     0.6434     1.1809 </r>
       <r>    -0.2137     0.6903     1.2459 </r>
       <r>    -0.1195     0.5519     1.2979 </r>
       <r>    -0.0253     0.4927     1.3443 </r>
       <r>     0.0688     0.6590     1.4063 </r>
       <r>     0.1630     0.9325     1.4941 </r>
       <r>     0.2572     1.2122     1.6083 </r>
       <r>     0.3514     1.4711     1.7468 </r>
       <r>     0.4455     1.4927     1.8874 </r>
       <r>     0.5397     1.1180     1.9927 </r>
       <r>     0.6339     0.6308     2.0521 </r>
       <r>     0.7280     0.3859     2.0884 </r>
       <r>     0.8222     0.3690     2.1232 </r>
       <r>     0.9164     0.3767     2.1587 </r>
       <r>     1.0106     0.3744     2.1939 </r>
       <r>     1.1047     0.4798     2.2391 </r>
       <r>     1.1989     0.6575     2.3010 </r>
       <r>     1.2931     0.6813     2.3652 </r>
       <r>     1.3872     0.4755     2.4100 </r>
       <r>     1.4814     0.2276     2.4314 </r>
       <r>     1.5756     0.1151     2.4422 </r>
       <r>     1.6698     0.1590     2.4572 </r>
       <r>     1.7639     0.2786     2.4834 </r>
       <r>     1.8581     0.3439     2.5158 </r>
       <r>     1.9523     0.2815     2.5423 </r>
       <r>     2.0464     0.1628     2.5577 </r>
       <r>     2.1406     0.1201     2.5690 </r>
       <r>     2.2348     0.2381     2.5914 </r>
       <r>     2.3290     0.5016     2.6386 </r>
       <r>     2.4231     0.7498     2.7092 </r>
       <r>     2.5173     0.8107     2.7856 </r>
       <r>     2.6115     0.7123     2.8527 </r>
       <r>     2.7056     0.6117     2.9103 </r>
       <r>     2.7998     0.6244     2.9691 </r>
       <r>     2.8940     0.7494     3.0396 </r>
       <r>     2.9882     0.8746     3.1220 </r>
       <r>     3.0823     1.0001     3.2162 </r>
       <r>     3.1765     1.2442     3.3333 </r>
       <r>     3.2707     1.4444     3.4694 </r>
       <r>     3.3648     1.2882     3.5907 </r>
       <r>     3.4590     0.8906     3.6745 </r>
       <r>     3.5532     0.6380     3.7346 </r>
       <r>     3.6474     0.6158     3.7926 </r>
       <r>     3.7415     0.6303     3.8520 </r>
       <r>     3.8357     0.5782     3.9064 </r>
       <r>     3.9299     0.5587     3.9590 </r>
       <r>     4.0240     0.6555     4.0208 </r>
       <r>     4.1182     0.7242     4.0890 </r>
       <r>     4.2124     0.5855     4.1441 </r>
       <r>     4.3066     0.3181     4.1741 </r>
       <r>     4.4007     0.1188     4.1853 </r>
       <r>     4.4949     0.0590     4.1908 </r>
       <r>     4.5891     0.1267     4.2027 </r>
       <r>     4.6832     0.3224     4.2331 </r>
       <r>     4.7774     0.6144     4.2910 </r>
       <r>     4.8716     0.8810     4.3739 </r>
       <r>     4.9658     0.9811     4.4663 </r>
       <r>     5.0599     0.9291     4.5538 </r>
       <r>     5.1541     0.9099     4.6395 </r>
       <r>     5.2483     1.0051     4.7341 </r>
       <r>     5.3424     1.0810     4.8359 </r>
       <r>     5.4366     1.0504     4.9349 </r>
       <r>     5.5308     0.9686     5.0261 </r>
       <r>     5.6250     0.8189     5.1032 </r>
       <r>     5.7191     0.5604     5.1560 </r>
       <r>     5.8133     0.3447     5.1884 </r>
       <r>     5.9075     0.4052     5.2266 </r>
       <r>     6.0017     0.8132     5.3032 </r>
       <r>     6.0958     1.3685     5.4320 </r>
       <r>     6.1900     1.7649     5.5983 </r>
       <r>     6.2842     1.9090     5.7780 </r>
       <r>     6.3783     1.8087     5.9484 </r>
       <r>     6.4725     1.3869     6.0790 </r>
       <r>     6.5667     0.7724     6.1517 </r>
       <r>     6.6609     0.2930     6.1793 </r>
       <r>     6.7550     0.0736     6.1862 </r>
       <r>     6.8492     0.0121     6.1874 </r>
       <r>     6.9434     0.0017     6.1875 </r>
       <r>     7.0375     0.0046     6.1880 </r>
       <r>     7.1317     0.0316     6.1909 </r>
       <r>     7.2259     0.1475     6.2048 </r>
       <r>     7.3201     0.4563     6.2478 </r>
       <r>     7.4142     0.9396     6.3363 </r>
       <r>     7.5084     1.2954     6.4583 </r>
       <r>     7.6026     1.2065     6.5719 </r>
       <r>     7.6967     0.7748     6.6448 </r>
       <r>     7.7909     0.3883     6.6814 </r>
       <r>     7.8851     0.2943     6.7091 </r>
       <r>     7.9793     0.4885     6.7551 </r>
       <r>     8.0734     0.7974     6.8302 </r>
       <r>     8.1676     1.0345     6.9276 </r>
       <r>     8.2618     1.1694     7.0378 </r>
       <r>     8.3559     1.2397     7.1545 </r>
       <r>     8.4501     1.2025     7.2678 </r>
       <r>     8.5443     1.0397     7.3657 </r>
       <r>     8.6385     0.9259     7.4529 </r>
       <r>     8.7326     1.0818     7.5547 </r>
       <r>     8.8268     1.3574     7.6826 </r>
       <r>     8.9210     1.3169     7.8066 </r>
       <r>     9.0151     0.8847     7.8899 </r>
       <r>     9.1093     0.4548     7.9327 </r>
       <r>     9.2035     0.3698     7.9676 </r>
       <r>     9.2977     0.6671     8.0304 </r>
       <r>     9.3918     1.1413     8.1378 </r>
       <r>     9.4860     1.4821     8.2774 </r>
       <r>     9.5802     1.5305     8.4215 </r>
       <r>     9.6743     1.3793     8.5514 </r>
       <r>     9.7685     1.1539     8.6601 </r>
       <r>     9.8627     0.8530     8.7404 </r>
       <r>     9.9569     0.4938     8.7869 </r>
       <r>    10.0510     0.2034     8.8061 </r>
       <r>    10.1452     0.0589     8.8116 </r>
       <r>    10.2394     0.0280     8.8143 </r>
       <r>    10.3335     0.0852     8.8223 </r>
       <r>    10.4277     0.2615     8.8469 </r>
       <r>    10.5219     0.5391     8.8977 </r>
       <r>    10.6161     0.7653     8.9698 </r>
       <r>    10.7102     0.8363     9.0485 </r>
       <r>    10.8044     0.8547     9.1290 </r>
       <r>    10.8986     0.9152     9.2152 </r>
       <r>    10.9927     1.0629     9.3153 </r>
       <r>    11.0869     1.4872     9.4553 </r>
       <r>    11.1811     2.1809     9.6607 </r>
       <r>    11.2753     2.5879     9.9044 </r>
       <r>    11.3694     2.2269    10.1141 </r>
       <r>    11.4636     1.3806    10.2441 </r>
       <r>    11.5578     0.7168    10.3116 </r>
       <r>    11.6520     0.5500    10.3634 </r>
       <r>    11.7461     0.6869    10.4281 </r>
       <r>    11.8403     0.7693    10.5006 </r>
       <r>    11.9345     0.6784    10.5645 </r>
       <r>    12.0286     0.5652    10.6177 </r>
       <r>    12.1228     0.5771    10.6720 </r>
       <r>    12.2170     0.7466    10.7423 </r>
       <r>    12.3112     0.9911    10.8357 </r>
       <r>    12.4053     1.1238    10.9415 </r>
       <r>    12.4995     1.0493    11.0403 </r>
       <r>    12.5937     0.9146    11.1264 </r>
       <r>    12.6878     0.9090    11.2120 </r>
       <r>    12.7820     0.9757    11.3039 </r>
       <r>    12.8762     0.9053    11.3892 </r>
       <r>    12.9704     0.6494    11.4503 </r>
       <r>    13.0645     0.3476    11.4831 </r>
       <r>    13.1587     0.1351    11.4958 </r>
       <r>    13.2529     0.0369    11.4993 </r>
       <r>    13.3470     0.0074    11.5000 </r>
       <r>    13.4412     0.0063    11.5006 </r>
       <r>    13.5354     0.0386    11.5042 </r>
       <r>    13.6296     0.1804    11.5212 </r>
       <r>    13.7237     0.5643    11.5743 </r>
       <r>    13.8179     1.1952    11.6869 </r>
       <r>    13.9121     1.7486    11.8515 </r>
       <r>    14.0062     1.8150    12.0225 </r>
       <r>    14.1004     1.4027    12.1546 </r>
       <r>    14.1946     0.9735    12.2462 </r>
       <r>    14.2888     0.9936    12.3398 </r>
       <r>    14.3829     1.4872    12.4799 </r>
       <r>    14.4771     1.9724    12.6656 </r>
       <r>    14.5713     1.9902    12.8530 </r>
       <r>    14.6654     1.7006    13.0132 </r>
       <r>    14.7596     1.5790    13.1619 </r>
       <r>    14.8538     1.6494    13.3172 </r>
       <r>    14.9480     1.5914    13.4671 </r>
       <r>    15.0421     1.3477    13.5940 </r>
       <r>    15.1363     1.0647    13.6942 </r>
       <r>    15.2305     0.7935    13.7690 </r>
       <r>    15.3246     0.6185    13.8272 </r>
       <r>    15.4188     0.6416    13.8876 </r>
       <r>    15.5130     0.7195    13.9554 </r>
       <r>    15.6072     0.6180    14.0136 </r>
       <r>    15.7013     0.3770    14.0491 </r>
       <r>    15.7955     0.2216    14.0700 </r>
       <r>    15.8897     0.2433    14.0929 </r>
       <r>    15.9838     0.3316    14.1241 </r>
       <r>    16.0780     0.3305    14.1552 </r>
       <r>    16.1722     0.2184    14.1758 </r>
       <r>    16.2664     0.1000    14.1852 </r>
       <r>    16.3605     0.0617    14.1910 </r>
       <r>    16.4547     0.1376    14.2040 </r>
       <r>    16.5489     0.3486    14.2368 </r>
       <r>    16.6430     0.6550    14.2985 </r>
       <r>    16.7372     0.8970    14.3829 </r>
       <r>    16.8314     0.8883    14.4666 </r>
       <r>    16.9256     0.6324    14.5261 </r>
       <r>    17.0197     0.3509    14.5592 </r>
       <r>    17.1139     0.2174    14.5797 </r>
       <r>    17.2081     0.1920    14.5978 </r>
       <r>    17.3023     0.1694    14.6137 </r>
       <r>    17.3964     0.1686    14.6296 </r>
       <r>    17.4906     0.3379    14.6614 </r>
       <r>    17.5848     0.7741    14.7343 </r>
       <r>    17.6789     1.2610    14.8531 </r>
       <r>    17.7731     1.3554    14.9807 </r>
       <r>    17.8673     0.9691    15.0720 </r>
       <r>    17.9615     0.5252    15.1214 </r>
       <r>    18.0556     0.3936    15.1585 </r>
       <r>    18.1498     0.5740    15.2125 </r>
       <r>    18.2440     0.8869    15.2961 </r>
       <r>    18.3381     1.1737    15.4066 </r>
       <r>    18.4323     1.2937    15.5284 </r>
       <r>    18.5265     1.1289    15.6347 </r>
       <r>    18.6207     0.7365    15.7041 </r>
       <r>    18.7148     0.3450    15.7366 </r>
       <r>    18.8090     0.1142    15.7473 </r>
       <r>    18.9032     0.0343    15.7506 </r>
       <r>    18.9973     0.0460    15.7549 </r>
       <r>    19.0915     0.1307    15.7672 </r>
       <r>    19.1857     0.2625    15.7919 </r>
       <r>    19.2799     0.3448    15.8244 </r>
       <r>    19.3740     0.2955    15.8522 </r>
       <r>    19.4682     0.1652    15.8678 </r>
       <r>    19.5624     0.0611    15.8735 </r>
       <r>    19.6565     0.0214    15.8755 </r>
       <r>    19.7507     0.0378    15.8791 </r>
       <r>    19.8449     0.1162    15.8900 </r>
       <r>    19.9391     0.2463    15.9132 </r>
       <r>    20.0332     0.3412    15.9454 </r>
       <r>    20.1274     0.3082    15.9744 </r>
       <r>    20.2216     0.1816    15.9915 </r>
       <r>    20.3157     0.0698    15.9981 </r>
       <r>    20.4099     0.0175    15.9997 </r>
       <r>    20.5041     0.0028    16.0000 </r>
       <r>    20.5983     0.0003    16.0000 </r>
       <r>    20.6924     0.0000    16.0000 </r>
       <r>    20.7866     0.0000    16.0000 </r>
       <r>    20.8808     0.0000    16.0000 </r>
       <r>    20.9749     0.0000    16.0000 </r>
       <r>    21.0691     0.0000    16.0000 </r>
       <r>    21.1633     0.0000    16.0000 </r>
       <r>    21.2575     0.0000    16.0000 </r>
       <r>    21.3516     0.0000    16.0000 </r>
       <r>    21.4458     0.0000    16.0000 </r>
       <r>    21.5400     0.0000    16.0000 </r>
       <r>    21.6341     0.0000    16.0000 </r>
       <r>    21.7283     0.0000    16.0000 </r>
       <r>    21.8225     0.0000    16.0000 </r>
       <r>    21.9167     0.0000    16.0000 </r>
       <r>    22.0108     0.0000    16.0000 </r>
      </set>
     </set>
    </array>
   </total>
  </dos>
 </calculation>
 <structure name="finalpos" >
  <crystal>
   <varray name="basis" >
    <v>      -2.45000000       2.45000000       1.27400000 </v>
    <v>       2.45000000      -2.45000000       1.27400000 </v>
    <v>       2.45000000       2.45000000      -1.27400000 </v>
   </varray>
   <i name="volume">     30.58874000 </i>
   <varray name="rec_basis" >
    <v>       0.00000000       0.20408163       0.39246468 </v>
    <v>       0.20408163       0.00000000       0.39246468 </v>
    <v>       0.20408163       0.20408163      -0.00000000 </v>
   </varray>
  </crystal>
  <varray name="positions" >
   <v>       0.25000000       0.75000000       0.50000000 </v>
   <v>       0.00000000       0.00000000       0.00000000 </v>
  </varray>
 </structure>
</modeling>
