   2   2   0   0
  0.2001288E+02  0.3839590E-09  0.3839590E-09  0.3839590E-09  0.5000000E-15
  1.000000000000000E-004
  CAR 
 unknown system                          
     15.24534722     -8.16809490  301      5.91636720      1.00000000
     -8.168  0.0000E+00  0.0000E+00
     -8.090  0.0000E+00  0.0000E+00
     -8.012  0.0000E+00  0.0000E+00
     -7.934  0.0000E+00  0.0000E+00
     -7.856  0.0000E+00  0.0000E+00
     -7.778  0.0000E+00  0.0000E+00
     -7.700  0.0000E+00  0.0000E+00
     -7.622  0.0000E+00  0.0000E+00
     -7.544  0.0000E+00  0.0000E+00
     -7.466  0.0000E+00  0.0000E+00
     -7.388  0.0000E+00  0.0000E+00
     -7.310  0.2107E-16  0.1645E-17
     -7.232  0.1714E-14  0.1354E-15
     -7.154  0.1000E-12  0.7940E-14
     -7.075  0.4322E-11  0.3452E-12
     -6.997  0.1383E-09  0.1114E-10
     -6.919  0.3281E-08  0.2672E-09
     -6.841  0.5767E-07  0.4768E-08
     -6.763  0.7517E-06  0.6343E-07
     -6.685  0.7267E-05  0.6306E-06
     -6.607  0.5213E-04  0.4699E-05
     -6.529  0.2776E-03  0.2636E-04
     -6.451  0.1098E-02  0.1120E-03
     -6.373  0.3223E-02  0.3636E-03
     -6.295  0.7030E-02  0.9122E-03
     -6.217  0.1139E-01  0.1802E-02
     -6.139  0.1372E-01  0.2873E-02
     -6.061  0.1228E-01  0.3831E-02
     -5.983  0.8168E-02  0.4469E-02
     -5.905  0.4036E-02  0.4784E-02
     -5.827  0.1482E-02  0.4899E-02
     -5.749  0.4040E-03  0.4931E-02
     -5.671  0.8181E-04  0.4937E-02
     -5.593  0.1232E-04  0.4938E-02
     -5.515  0.1782E-05  0.4938E-02
     -5.437  0.5538E-05  0.4939E-02
     -5.358  0.5312E-04  0.4943E-02
     -5.280  0.3859E-03  0.4973E-02
     -5.202  0.2081E-02  0.5135E-02
     -5.124  0.8332E-02  0.5786E-02
     -5.046  0.2478E-01  0.7719E-02
     -4.968  0.5474E-01  0.1199E-01
     -4.890  0.8986E-01  0.1900E-01
     -4.812  0.1097E+00  0.2756E-01
     -4.734  0.9993E-01  0.3536E-01
     -4.656  0.6978E-01  0.4081E-01
     -4.578  0.4369E-01  0.4422E-01
     -4.500  0.3927E-01  0.4728E-01
     -4.422  0.5578E-01  0.5164E-01
     -4.344  0.7660E-01  0.5761E-01
     -4.266  0.8189E-01  0.6401E-01
     -4.188  0.6550E-01  0.6912E-01
     -4.110  0.3896E-01  0.7216E-01
     -4.032  0.1722E-01  0.7350E-01
     -3.954  0.5657E-02  0.7394E-01
     -3.876  0.1380E-02  0.7405E-01
     -3.798  0.2498E-03  0.7407E-01
     -3.720  0.3385E-04  0.7407E-01
     -3.641  0.7308E-05  0.7407E-01
     -3.563  0.4254E-04  0.7408E-01
     -3.485  0.3352E-03  0.7410E-01
     -3.407  0.1971E-02  0.7426E-01
     -3.329  0.8607E-02  0.7493E-01
     -3.251  0.2791E-01  0.7711E-01
     -3.173  0.6722E-01  0.8235E-01
     -3.095  0.1203E+00  0.9174E-01
     -3.017  0.1600E+00  0.1042E+00
     -2.939  0.1581E+00  0.1166E+00
     -2.861  0.1161E+00  0.1256E+00
     -2.783  0.6333E-01  0.1306E+00
     -2.705  0.2567E-01  0.1326E+00
     -2.627  0.7731E-02  0.1332E+00
     -2.549  0.1729E-02  0.1333E+00
     -2.471  0.2870E-03  0.1333E+00
     -2.393  0.3536E-04  0.1333E+00
     -2.315  0.3232E-05  0.1333E+00
     -2.237  0.2191E-06  0.1333E+00
     -2.159  0.1101E-07  0.1333E+00
     -2.081  0.4180E-09  0.1333E+00
     -2.003  0.3034E-09  0.1333E+00
     -1.925  0.8076E-08  0.1333E+00
     -1.846  0.1655E-06  0.1333E+00
     -1.768  0.2514E-05  0.1333E+00
     -1.690  0.2832E-04  0.1333E+00
     -1.612  0.2367E-03  0.1334E+00
     -1.534  0.1468E-02  0.1335E+00
     -1.456  0.6761E-02  0.1340E+00
     -1.378  0.2312E-01  0.1358E+00
     -1.300  0.5872E-01  0.1404E+00
     -1.222  0.1108E+00  0.1490E+00
     -1.144  0.1554E+00  0.1612E+00
     -1.066  0.1619E+00  0.1738E+00
     -0.988  0.1254E+00  0.1836E+00
     -0.910  0.7212E-01  0.1892E+00
     -0.832  0.3083E-01  0.1916E+00
     -0.754  0.9790E-02  0.1924E+00
     -0.676  0.2309E-02  0.1926E+00
     -0.598  0.4042E-03  0.1926E+00
     -0.520  0.5253E-04  0.1926E+00
     -0.442  0.5090E-05  0.1926E+00
     -0.364  0.8047E-06  0.1926E+00
     -0.286  0.5814E-05  0.1926E+00
     -0.208  0.5628E-04  0.1926E+00
     -0.129  0.4057E-03  0.1926E+00
     -0.051  0.2172E-02  0.1928E+00
      0.027  0.8640E-02  0.1935E+00
      0.105  0.2560E-01  0.1955E+00
      0.183  0.5674E-01  0.1999E+00
      0.261  0.9520E-01  0.2073E+00
      0.339  0.1242E+00  0.2170E+00
      0.417  0.1332E+00  0.2274E+00
      0.495  0.1270E+00  0.2373E+00
      0.573  0.1131E+00  0.2462E+00
      0.651  0.9063E-01  0.2532E+00
      0.729  0.6040E-01  0.2579E+00
      0.807  0.3170E-01  0.2604E+00
      0.885  0.1387E-01  0.2615E+00
      0.963  0.1025E-01  0.2623E+00
      1.041  0.2339E-01  0.2641E+00
      1.119  0.5786E-01  0.2686E+00
      1.197  0.1097E+00  0.2772E+00
      1.275  0.1547E+00  0.2893E+00
      1.353  0.1623E+00  0.3019E+00
      1.431  0.1265E+00  0.3118E+00
      1.509  0.7323E-01  0.3175E+00
      1.588  0.3151E-01  0.3200E+00
      1.666  0.1007E-01  0.3208E+00
      1.744  0.2390E-02  0.3210E+00
      1.822  0.4212E-03  0.3210E+00
      1.900  0.5509E-04  0.3210E+00
      1.978  0.5346E-05  0.3210E+00
      2.056  0.3848E-06  0.3210E+00
      2.134  0.2054E-07  0.3210E+00
      2.212  0.8132E-09  0.3210E+00
      2.290  0.6801E-10  0.3210E+00
      2.368  0.1434E-08  0.3210E+00
      2.446  0.3446E-07  0.3210E+00
      2.524  0.6138E-06  0.3210E+00
      2.602  0.8106E-05  0.3210E+00
      2.680  0.7941E-04  0.3210E+00
      2.758  0.5773E-03  0.3210E+00
      2.836  0.3115E-02  0.3213E+00
      2.914  0.1249E-01  0.3223E+00
      2.992  0.3724E-01  0.3252E+00
      3.070  0.8290E-01  0.3316E+00
      3.148  0.1391E+00  0.3425E+00
      3.226  0.1808E+00  0.3566E+00
      3.304  0.1947E+00  0.3718E+00
      3.383  0.1947E+00  0.3870E+00
      3.461  0.1950E+00  0.4022E+00
      3.539  0.1837E+00  0.4165E+00
      3.617  0.1450E+00  0.4279E+00
      3.695  0.8908E-01  0.4348E+00
      3.773  0.4134E-01  0.4380E+00
      3.851  0.1433E-01  0.4392E+00
      3.929  0.3698E-02  0.4394E+00
      4.007  0.7367E-03  0.4395E+00
      4.085  0.3490E-03  0.4395E+00
      4.163  0.1607E-02  0.4397E+00
      4.241  0.7620E-02  0.4402E+00
      4.319  0.2700E-01  0.4424E+00
      4.397  0.7109E-01  0.4479E+00
      4.475  0.1390E+00  0.4588E+00
      4.553  0.2021E+00  0.4745E+00
      4.631  0.2182E+00  0.4916E+00
      4.709  0.1751E+00  0.5052E+00
      4.787  0.1044E+00  0.5134E+00
      4.865  0.4626E-01  0.5170E+00
      4.943  0.1523E-01  0.5182E+00
      5.021  0.3735E-02  0.5185E+00
      5.100  0.7754E-03  0.5185E+00
      5.178  0.6633E-03  0.5186E+00
      5.256  0.2440E-02  0.5188E+00
      5.334  0.7667E-02  0.5194E+00
      5.412  0.1796E-01  0.5208E+00
      5.490  0.3127E-01  0.5232E+00
      5.568  0.4045E-01  0.5264E+00
      5.646  0.3888E-01  0.5294E+00
      5.724  0.2778E-01  0.5316E+00
      5.802  0.1480E-01  0.5327E+00
      5.880  0.6213E-02  0.5332E+00
      5.958  0.3749E-02  0.5335E+00
      6.036  0.8137E-02  0.5341E+00
      6.114  0.2196E-01  0.5358E+00
      6.192  0.4587E-01  0.5394E+00
      6.270  0.7137E-01  0.5450E+00
      6.348  0.8253E-01  0.5514E+00
      6.426  0.7093E-01  0.5570E+00
      6.504  0.4530E-01  0.5605E+00
      6.582  0.2153E-01  0.5622E+00
      6.660  0.7936E-02  0.5628E+00
      6.738  0.4222E-02  0.5631E+00
      6.817  0.1071E-01  0.5640E+00
      6.895  0.3561E-01  0.5668E+00
      6.973  0.9137E-01  0.5739E+00
      7.051  0.1754E+00  0.5876E+00
      7.129  0.2518E+00  0.6072E+00
      7.207  0.2712E+00  0.6284E+00
      7.285  0.2223E+00  0.6457E+00
      7.363  0.1479E+00  0.6573E+00
      7.441  0.9881E-01  0.6650E+00
      7.519  0.8657E-01  0.6717E+00
      7.597  0.8709E-01  0.6785E+00
      7.675  0.7608E-01  0.6845E+00
      7.753  0.5265E-01  0.6886E+00
      7.831  0.3203E-01  0.6911E+00
      7.909  0.2572E-01  0.6931E+00
      7.987  0.3212E-01  0.6956E+00
      8.065  0.4035E-01  0.6987E+00
      8.143  0.4027E-01  0.7019E+00
      8.221  0.3107E-01  0.7043E+00
      8.299  0.2035E-01  0.7059E+00
      8.377  0.1481E-01  0.7071E+00
      8.455  0.1430E-01  0.7082E+00
      8.533  0.1445E-01  0.7093E+00
      8.612  0.1317E-01  0.7103E+00
      8.690  0.1487E-01  0.7115E+00
      8.768  0.3063E-01  0.7139E+00
      8.846  0.7288E-01  0.7196E+00
      8.924  0.1401E+00  0.7305E+00
      9.002  0.2026E+00  0.7463E+00
      9.080  0.2180E+00  0.7633E+00
      9.158  0.1744E+00  0.7769E+00
      9.236  0.1036E+00  0.7850E+00
      9.314  0.4576E-01  0.7886E+00
      9.392  0.1501E-01  0.7898E+00
      9.470  0.3656E-02  0.7901E+00
      9.548  0.6613E-03  0.7901E+00
      9.626  0.8878E-04  0.7901E+00
      9.704  0.8844E-05  0.7901E+00
      9.782  0.6534E-06  0.7901E+00
      9.860  0.3579E-07  0.7901E+00
      9.938  0.1453E-08  0.7901E+00
     10.016  0.4371E-10  0.7901E+00
     10.094  0.9740E-12  0.7901E+00
     10.172  0.1623E-13  0.7901E+00
     10.250  0.1831E-13  0.7901E+00
     10.329  0.1063E-11  0.7901E+00
     10.407  0.4637E-10  0.7901E+00
     10.485  0.1498E-08  0.7901E+00
     10.563  0.3586E-07  0.7901E+00
     10.641  0.6362E-06  0.7901E+00
     10.719  0.8369E-05  0.7901E+00
     10.797  0.8166E-04  0.7901E+00
     10.875  0.5912E-03  0.7902E+00
     10.953  0.3177E-02  0.7904E+00
     11.031  0.1268E-01  0.7914E+00
     11.109  0.3757E-01  0.7943E+00
     11.187  0.8272E-01  0.8008E+00
     11.265  0.1353E+00  0.8114E+00
     11.343  0.1645E+00  0.8242E+00
     11.421  0.1490E+00  0.8358E+00
     11.499  0.1023E+00  0.8438E+00
     11.577  0.6054E-01  0.8485E+00
     11.655  0.5171E-01  0.8526E+00
     11.733  0.8116E-01  0.8589E+00
     11.811  0.1303E+00  0.8691E+00
     11.889  0.1633E+00  0.8818E+00
     11.967  0.1532E+00  0.8938E+00
     12.046  0.1082E+00  0.9022E+00
     12.124  0.6232E-01  0.9071E+00
     12.202  0.4561E-01  0.9106E+00
     12.280  0.6891E-01  0.9160E+00
     12.358  0.1250E+00  0.9258E+00
     12.436  0.1908E+00  0.9407E+00
     12.514  0.2392E+00  0.9593E+00
     12.592  0.2547E+00  0.9792E+00
     12.670  0.2342E+00  0.9975E+00
     12.748  0.1819E+00  0.1012E+01
     12.826  0.1149E+00  0.1021E+01
     12.904  0.5915E-01  0.1025E+01
     12.982  0.3270E-01  0.1028E+01
     13.060  0.3813E-01  0.1031E+01
     13.138  0.6657E-01  0.1036E+01
     13.216  0.9845E-01  0.1044E+01
     13.294  0.1098E+00  0.1052E+01
     13.372  0.9116E-01  0.1059E+01
     13.450  0.5624E-01  0.1064E+01
     13.528  0.2578E-01  0.1066E+01
     13.606  0.8780E-02  0.1066E+01
     13.684  0.2221E-02  0.1067E+01
     13.762  0.4171E-03  0.1067E+01
     13.841  0.5814E-04  0.1067E+01
     13.919  0.6013E-05  0.1067E+01
     13.997  0.4614E-06  0.1067E+01
     14.075  0.2624E-07  0.1067E+01
     14.153  0.1107E-08  0.1067E+01
     14.231  0.3457E-10  0.1067E+01
     14.309  0.8001E-12  0.1067E+01
     14.387  0.1371E-13  0.1067E+01
     14.465  0.1686E-15  0.1067E+01
     14.543  0.0000E+00  0.1067E+01
     14.621  0.0000E+00  0.1067E+01
     14.699  0.0000E+00  0.1067E+01
     14.777  0.0000E+00  0.1067E+01
     14.855  0.0000E+00  0.1067E+01
     14.933  0.0000E+00  0.1067E+01
     15.011  0.0000E+00  0.1067E+01
     15.089  0.0000E+00  0.1067E+01
     15.167  0.0000E+00  0.1067E+01
     15.245  0.0000E+00  0.1067E+01
