       N       E                     dE             d eps       ncg     rms          rms(c)
DAV:   1     0.301005817267E+01    0.30101E+01   -0.25581E+03    64   0.463E+02
DAV:   2    -0.102916104602E+02   -0.13302E+02   -0.12543E+02   112   0.645E+01
DAV:   3    -0.104428166361E+02   -0.15121E+00   -0.15121E+00    64   0.886E+00
DAV:   4    -0.104434699824E+02   -0.65335E-03   -0.65335E-03   120   0.695E-01
DAV:   5    -0.104434700082E+02   -0.25825E-07   -0.24926E-07    64   0.436E-03    0.335E+00
DAV:   6    -0.102766537423E+02    0.16682E+00   -0.10513E-01    80   0.172E+00    0.199E+00
DAV:   7    -0.102030400795E+02    0.73614E-01   -0.19947E-01    80   0.254E+00    0.182E-01
DAV:   8    -0.102057843987E+02   -0.27443E-02   -0.60401E-03    64   0.546E-01    0.297E-02
DAV:   9    -0.102059568421E+02   -0.17244E-03   -0.19365E-04    80   0.106E-01
   1 F= -.10205957E+02 E0= -.10205061E+02  d E =-.102060E+02
       N       E                     dE             d eps       ncg     rms          rms(c)
DAV:   1    -0.102393702600E+02   -0.33586E-01   -0.95682E-01    72   0.538E+00    0.619E-01
DAV:   2    -0.102233519629E+02    0.16018E-01   -0.11144E-02    64   0.666E-01    0.356E-01
DAV:   3    -0.102148961026E+02    0.84559E-02   -0.16446E-02    80   0.654E-01    0.420E-02
DAV:   4    -0.102149121104E+02   -0.16008E-04   -0.18445E-04    40   0.111E-01
   2 F= -.10214912E+02 E0= -.10214555E+02  d E =-.895527E-02
       N       E                     dE             d eps       ncg     rms          rms(c)
DAV:   1    -0.102287736839E+02   -0.13878E-01   -0.18046E-01    72   0.238E+00    0.270E-01
DAV:   2    -0.102258405359E+02    0.29331E-02   -0.20252E-03    64   0.282E-01    0.156E-01
DAV:   3    -0.102242604725E+02    0.15801E-02   -0.30126E-03    72   0.281E-01    0.183E-02
DAV:   4    -0.102242693717E+02   -0.88992E-05   -0.36010E-05    40   0.513E-02
   3 F= -.10224269E+02 E0= -.10223750E+02  d E =-.183125E-01
