unknown system                          
   1.00000000000000     
     0.000000    2.746915    2.746915
     2.746915    0.000000    2.746915
     2.746915    2.746915   -0.000000
   Si
     2
Direct
  0.500000  0.500000  0.500000
  0.750000  0.750000  0.750000
 
   36   36   36
 0.87971     0.89607     0.94621      1.0331      1.1615      1.3371      1.5664      1.8557      2.2107      2.6343    
  3.1253      3.6756      4.2677      4.8738      5.4569      5.9739      6.3816      6.6430      6.7331      6.6430    
  6.3816      5.9739      5.4569      4.8739      4.2678      3.6757      3.1254      2.6343      2.2106      1.8557    
  1.5664      1.3371      1.1615      1.0331     0.94621     0.89607     0.89607     0.92461     0.98341      1.0758    
  1.2061      1.3795      1.6013      1.8759      2.2065      2.5932      3.0314      3.5103      4.0111      4.5070    
  4.9649      5.3495      5.6276      5.7737      5.7737      5.6277      5.3496      4.9650      4.5070      4.0112    
  3.5104      3.0314      2.5931      2.2064      1.8759      1.6012      1.3795      1.2061      1.0758     0.98341    
 0.92460     0.89607     0.94621     0.98341      1.0478      1.1427      1.2720      1.4402      1.6512      1.9077    
  2.2107      2.5578      2.9421      3.3511      3.7659      4.1619      4.5112      4.7857      4.9612      5.0216    
  4.9612      4.7857      4.5113      4.1620      3.7659      3.3511      2.9421      2.5577      2.2107      1.9077    
  1.6512      1.4402      1.2720      1.1427      1.0478     0.98340     0.94620     0.93405      1.0331      1.0758    
  1.1427      1.2370      1.3623      1.5220      1.7188      1.9539      2.2264      2.5320      2.8625      3.2047    
  3.5408      3.8492      4.1070      4.2929      4.3904      4.3904      4.2929      4.1070      3.8492      3.5408    
  3.2047      2.8625      2.5320      2.2263      1.9539      1.7188      1.5220      1.3623      1.2370      1.1427    
  1.0758      1.0331      1.0124      1.0124      1.1615      1.2061      1.2720      1.3623      1.4798      1.6273    
  1.8061      2.0164      2.2556      2.5185      2.7961      3.0757      3.3412      3.5744      3.7571      3.8738    
  3.9139      3.8738      3.7571      3.5744      3.3412      3.0757      2.7961      2.5185      2.2556      2.0164    
  1.8062      1.6273      1.4799      1.3623      1.2720      1.2061      1.1615      1.1358      1.1275      1.1358    
  1.3371      1.3795      1.4402      1.5220      1.6273      1.7579      1.9145      2.0961      2.2993      2.5185    
  2.7447      2.9663      3.1694      3.3390      3.4612      3.5253      3.5253      3.4612      3.3390      3.1694    
  2.9663      2.7447      2.5185      2.2994      2.0961      1.9146      1.7580      1.6273      1.5220      1.4402    
  1.3795      1.3371      1.3105      1.2977      1.2977      1.3105      1.5664      1.6013      1.6512      1.7188    
  1.8061      1.9145      2.0439      2.1927      2.3573      2.5320      2.7087      2.8770      3.0254      3.1419    
  3.2166      3.2423      3.2166      3.1419      3.0254      2.8770      2.7087      2.5320      2.3573      2.1927    
  2.0440      1.9146      1.8062      1.7188      1.6512      1.6012      1.5664      1.5439      1.5315      1.5275    
  1.5315      1.5439      1.8557      1.8759      1.9077      1.9539      2.0164      2.0961      2.1927      2.3045    
  2.4279      2.5578      2.6869      2.8067      2.9076      2.9809      3.0194      3.0194      2.9809      2.9076    
  2.8067      2.6869      2.5578      2.4279      2.3045      2.1927      2.0961      2.0164      1.9539      1.9077    
  1.8759      1.8557      1.8443      1.8386      1.8363      1.8363      1.8386      1.8443      2.2107      2.2065    
  2.2107      2.2264      2.2556      2.2993      2.3573      2.4279      2.5081      2.5932      2.6772      2.7532    
  2.8141      2.8535      2.8671      2.8535      2.8141      2.7532      2.6772      2.5932      2.5081      2.4279    
  2.3573      2.2993      2.2556      2.2263      2.2107      2.2064      2.2106      2.2196      2.2295      2.2370    
  2.2397      2.2369      2.2295      2.2196      2.6343      2.5932      2.5578      2.5320      2.5185      2.5185    
  2.5320      2.5578      2.5932      2.6343      2.6764      2.7143      2.7429      2.7583      2.7583      2.7429    
  2.7143      2.6764      2.6343      2.5931      2.5578      2.5320      2.5184      2.5184      2.5320      2.5578    
  2.5931      2.6343      2.6764      2.7143      2.7429      2.7583      2.7583      2.7429      2.7143      2.6764    
  3.1253      3.0314      2.9421      2.8625      2.7961      2.7447      2.7087      2.6869      2.6772      2.6764    
  2.6810      2.6875      2.6928      2.6948      2.6928      2.6875      2.6811      2.6764      2.6771      2.6869    
  2.7086      2.7447      2.7960      2.8625      2.9421      3.0314      3.1254      3.2174      3.3001      3.3659    
  3.4084      3.4231      3.4084      3.3659      3.3000      3.2174      3.6756      3.5103      3.3511      3.2047    
  3.0757      2.9663      2.8770      2.8067      2.7532      2.7143      2.6875      2.6709      2.6629      2.6629    
  2.6709      2.6875      2.7143      2.7532      2.8066      2.8769      2.9663      3.0757      3.2047      3.3511    
  3.5104      3.6757      3.8381      3.9871      4.1117      4.2015      4.2485      4.2485      4.2014      4.1116    
  3.9871      3.8380      4.2677      4.0111      3.7659      3.5408      3.3412      3.1694      3.0254      2.9076    
  2.8141      2.7429      2.6928      2.6629      2.6530      2.6629      2.6928      2.7429      2.8140      2.9075    
  3.0253      3.1693      3.3412      3.5408      3.7659      4.0112      4.2678      4.5238      4.7648      4.9747    
  5.1383      5.2423      5.2781      5.2423      5.1383      4.9747      4.7647      4.5238      4.8738      4.5070    
  4.1619      3.8492      3.5744      3.3390      3.1419      2.9809      2.8535      2.7583      2.6948      2.6629    
  2.6629      2.6948      2.7583      2.8534      2.9808      3.1418      3.3389      3.5744      3.8493      4.1620    
  4.5070      4.8739      5.2473      5.6080      5.9340      6.2032      6.3955      6.4958      6.4958      6.3956    
  6.2032      5.9341      5.6080      5.2473      5.4569      4.9649      4.5112      4.1070      3.7571      3.4612    
  3.2166      3.0194      2.8671      2.7583      2.6928      2.6709      2.6928      2.7583      2.8671      3.0193    
  3.2164      3.4612      3.7571      4.1071      4.5113      4.9650      5.4569      5.9688      6.4761      6.9501    
  7.3601      7.6776      7.8787      7.9476      7.8788      7.6777      7.3602      6.9501      6.4761      5.9688    
  5.9739      5.3495      4.7857      4.2929      3.8738      3.5253      3.2423      3.0194      2.8535      2.7429    
  2.6875      2.6875      2.7429      2.8534      3.0193      3.2421      3.5253      3.8738      4.2930      4.7857    
  5.3496      5.9739      6.6386      7.3146      7.9656      8.5522      9.0350      9.3791      9.5582      9.5582    
  9.3791      9.0350      8.5522      7.9657      7.3146      6.6386      6.3816      5.6276      4.9612      4.3904    
  3.9139      3.5253      3.2166      2.9809      2.8141      2.7143      2.6811      2.7143      2.8140      2.9808    
  3.2164      3.5253      3.9139      4.3904      4.9613      5.6276      6.3816      7.2032      8.0603      8.9104    
  9.7048      10.393      10.925      11.263      11.379      11.263      10.925      10.392      9.7048      8.9105    
  8.0603      7.2032      6.6430      5.7737      5.0216      4.3904      3.8738      3.4612      3.1419      2.9076    
  2.7532      2.6764      2.6764      2.7532      2.9075      3.1418      3.4612      3.8738      4.3904      5.0217    
  5.7737      6.6430      7.6125      8.6498      9.7085      10.732      11.659      12.425      12.975      13.262    
  13.262      12.975      12.425      11.659      10.732      9.7085      8.6498      7.6125      6.7331      5.7737    
  4.9612      4.2929      3.7571      3.3390      3.0254      2.8067      2.6772      2.6343      2.6771      2.8066    
  3.0253      3.3389      3.7571      4.2930      4.9613      5.7737      6.7330      7.8277      9.0283      10.288    
  11.547      12.733      13.771      14.584      15.104      15.283      15.104      14.584      13.771      12.733    
  11.547      10.288      9.0284      7.8278      6.6430      5.6277      4.7857      4.1070      3.5744      3.1694    
  2.8770      2.6869      2.5932      2.5931      2.6869      2.8769      3.1693      3.5744      4.1071      4.7857    
  5.6276      6.6430      7.8277      9.1589      10.594      12.071      13.517      14.846      15.961      16.763    
  17.183      17.183      16.763      15.961      14.846      13.517      12.071      10.594      9.1589      7.8278    
  6.3816      5.3496      4.5113      3.8492      3.3412      2.9663      2.7087      2.5578      2.5081      2.5578    
  2.7086      2.9663      3.3412      3.8493      4.5113      5.3496      6.3816      7.6125      9.0283      10.594    
  12.252      13.932      15.543      16.968      18.084      18.795      19.039      18.795      18.084      16.968    
  15.543      13.932      12.252      10.594      9.0283      7.6125      5.9739      4.9650      4.1620      3.5408    
  3.0757      2.7447      2.5320      2.4279      2.4279      2.5320      2.7447      3.0757      3.5408      4.1620    
  4.9650      5.9739      7.2032      8.6498      10.288      12.071      13.932      15.785      17.501      18.937    
  19.971      20.513      20.513      19.971      18.936      17.500      15.784      13.932      12.071      10.288    
  8.6498      7.2032      5.4569      4.5070      3.7659      3.2047      2.7961      2.5185      2.3573      2.3045    
  2.3573      2.5184      2.7960      3.2047      3.7659      4.5070      5.4569      6.6386      8.0603      9.7085    
  11.547      13.517      15.543      17.501      19.231      20.592      21.464      21.765      21.464      20.592    
  19.231      17.501      15.543      13.517      11.547      9.7084      8.0603      6.6386      4.8739      4.0112    
  3.3511      2.8625      2.5185      2.2994      2.1927      2.1927      2.2993      2.5184      2.8625      3.3511    
  4.0112      4.8739      5.9688      7.3146      8.9104      10.732      12.733      14.846      16.968      18.937    
  20.592      21.794      22.427      22.427      21.794      20.592      18.936      16.968      14.846      12.733    
  10.732      8.9104      7.3146      5.9688      4.2678      3.5104      2.9421      2.5320      2.2556      2.0961    
  2.0440      2.0961      2.2556      2.5320      2.9421      3.5104      4.2678      5.2473      6.4761      7.9656    
  9.7048      11.659      13.771      15.961      18.084      19.971      21.464      22.427      22.760      22.427    
  21.464      19.971      18.084      15.961      13.771      11.659      9.7048      7.9656      6.4762      5.2474    
  3.6757      3.0314      2.5577      2.2263      2.0164      1.9146      1.9146      2.0164      2.2263      2.5578    
  3.0314      3.6757      4.5238      5.6080      6.9501      8.5522      10.393      12.425      14.584      16.763    
  18.795      20.513      21.765      22.427      22.427      21.765      20.513      18.795      16.763      14.584    
  12.425      10.392      8.5522      6.9501      5.6081      4.5239      3.1254      2.5931      2.2107      1.9539    
  1.8062      1.7580      1.8062      1.9539      2.2107      2.5931      3.1254      3.8381      4.7648      5.9340    
  7.3601      9.0350      10.925      12.975      15.104      17.183      19.039      20.513      21.464      21.794    
  21.464      20.513      19.039      17.183      15.104      12.975      10.925      9.0349      7.3602      5.9341    
  4.7649      3.8382      2.6343      2.2064      1.9077      1.7188      1.6273      1.6273      1.7188      1.9077    
  2.2064      2.6343      3.2174      3.9871      4.9747      6.2032      7.6776      9.3791      11.263      13.262    
  15.283      17.183      18.795      19.971      20.592      20.592      19.971      18.795      17.183      15.283    
  13.262      11.263      9.3790      7.6777      6.2033      4.9749      3.9872      3.2174      2.2106      1.8759    
  1.6512      1.5220      1.4799      1.5220      1.6512      1.8759      2.2106      2.6764      3.3001      4.1117    
  5.1383      6.3955      7.8787      9.5582      11.379      13.262      15.104      16.763      18.084      18.936    
  19.231      18.936      18.084      16.763      15.104      13.262      11.379      9.5582      7.8787      6.3956    
  5.1384      4.1118      3.3001      2.6764      1.8557      1.6012      1.4402      1.3623      1.3623      1.4402    
  1.6012      1.8557      2.2196      2.7143      3.3659      4.2015      5.2423      6.4958      7.9476      9.5582    
  11.263      12.975      14.584      15.961      16.968      17.500      17.501      16.968      15.961      14.584    
  12.975      11.263      9.5582      7.9476      6.4959      5.2424      4.2016      3.3660      2.7143      2.2196    
  1.5664      1.3795      1.2720      1.2370      1.2720      1.3795      1.5664      1.8443      2.2295      2.7429    
  3.4084      4.2485      5.2781      6.4958      7.8788      9.3791      10.925      12.425      13.771      14.846    
  15.543      15.784      15.543      14.846      13.771      12.425      10.925      9.3790      7.8787      6.4959    
  5.2782      4.2486      3.4085      2.7429      2.2295      1.8442      1.3371      1.2061      1.1427      1.1427    
  1.2061      1.3371      1.5439      1.8386      2.2370      2.7583      3.4231      4.2485      5.2423      6.3956    
  7.6777      9.0350      10.392      11.659      12.733      13.517      13.932      13.932      13.517      12.733    
  11.659      10.392      9.0349      7.6777      6.3956      5.2424      4.2486      3.4231      2.7583      2.2369    
  1.8385      1.5439      1.1615      1.0758      1.0478      1.0758      1.1615      1.3105      1.5315      1.8363    
  2.2397      2.7583      3.4084      4.2014      5.1383      6.2032      7.3602      8.5522      9.7048      10.732    
  11.547      12.071      12.252      12.071      11.547      10.732      9.7048      8.5522      7.3602      6.2033    
  5.1384      4.2016      3.4085      2.7583      2.2397      1.8363      1.5315      1.3105      1.0331     0.98341    
 0.98340      1.0331      1.1358      1.2977      1.5275      1.8363      2.2369      2.7429      3.3659      4.1116    
  4.9747      5.9341      6.9501      7.9657      8.9105      9.7085      10.288      10.594      10.594      10.288    
  9.7084      8.9104      7.9656      6.9501      5.9341      4.9749      4.1118      3.3660      2.7429      2.2369    
  1.8363      1.5275      1.2977      1.1358     0.94621     0.92460     0.94620      1.0124      1.1275      1.2977    
  1.5315      1.8386      2.2295      2.7143      3.3000      3.9871      4.7647      5.6080      6.4761      7.3146    
  8.0603      8.6498      9.0284      9.1589      9.0283      8.6498      8.0603      7.3146      6.4762      5.6081    
  4.7649      3.9872      3.3001      2.7143      2.2295      1.8385      1.5315      1.2977      1.1275      1.0125    
 0.89607     0.89607     0.93405      1.0124      1.1358      1.3105      1.5439      1.8443      2.2196      2.6764    
  3.2174      3.8380      4.5238      5.2473      5.9688      6.6386      7.2032      7.6125      7.8278      7.8278    
  7.6125      7.2032      6.6386      5.9688      5.2474      4.5239      3.8382      3.2174      2.6764      2.2196    
  1.8442      1.5439      1.3105      1.1358      1.0125     0.93406     0.89607     0.92461     0.98341      1.0758    
  1.2061      1.3795      1.6013      1.8759      2.2065      2.5932      3.0314      3.5103      4.0111      4.5070    
  4.9649      5.3495      5.6276      5.7737      5.7737      5.6277      5.3496      4.9650      4.5070      4.0112    
  3.5104      3.0314      2.5931      2.2064      1.8759      1.6012      1.3795      1.2061      1.0758     0.98341    
 0.92460     0.89607     0.92461     0.96119      1.0245      1.1176      1.2445      1.4095      1.6166      1.8686    
  2.1665      2.5081      2.8864      3.2890      3.6973      4.0869      4.4302      4.6998      4.8722      4.9315    
  4.8722      4.6998      4.4302      4.0869      3.6973      3.2891      2.8864      2.5080      2.1665      1.8686    
  1.6165      1.4095      1.2445      1.1176      1.0245     0.96119     0.92460     0.91264     0.98341      1.0245    
  1.0887      1.1793      1.2995      1.4528      1.6422      1.8689      2.1322      2.4279      2.7479      3.0792    
  3.4042      3.7021      3.9508      4.1298      4.2236      4.2236      4.1299      3.9508      3.7021      3.4042    
  3.0792      2.7479      2.4279      2.1321      1.8688      1.6421      1.4528      1.2995      1.1793      1.0887    
  1.0244     0.98340     0.96345     0.96345      1.0758      1.1176      1.1793      1.2636      1.3737      1.5122    
  1.6808      1.8799      2.1071      2.3573      2.6217      2.8877      3.1398      3.3607      3.5334      3.6436    
  3.6814      3.6436      3.5334      3.3607      3.1398      2.8876      2.6216      2.3573      2.1071      1.8799    
  1.6808      1.5122      1.3737      1.2637      1.1793      1.1176      1.0757      1.0516      1.0437      1.0516    
  1.2061      1.2445      1.2995      1.3737      1.4698      1.5899      1.7348      1.9038      2.0939      2.2993    
  2.5114      2.7187      2.9081      3.0658      3.1792      3.2385      3.2385      3.1792      3.0658      2.9081    
  2.7187      2.5113      2.2993      2.0939      1.9039      1.7348      1.5899      1.4698      1.3737      1.2995    
  1.2445      1.2061      1.1819      1.1703      1.1703      1.1819      1.3795      1.4095      1.4528      1.5122    
  1.5899      1.6875      1.8053      1.9419      2.0939      2.2556      2.4190      2.5742      2.7106      2.8174    
  2.8855      2.9090      2.8855      2.8174      2.7106      2.5742      2.4190      2.2556      2.0940      1.9420    
  1.8053      1.6875      1.5899      1.5122      1.4528      1.4095      1.3795      1.3603      1.3497      1.3463    
  1.3497      1.3603      1.6013      1.6166      1.6422      1.6808      1.7348      1.8053      1.8923      1.9940    
  2.1071      2.2264      2.3449      2.4545      2.5466      2.6132      2.6482      2.6482      2.6132      2.5466    
  2.4545      2.3449      2.2264      2.1071      1.9940      1.8923      1.8053      1.7348      1.6808      1.6421    
  1.6166      1.6012      1.5932      1.5896      1.5884      1.5884      1.5896      1.5932      1.8759      1.8686    
  1.8689      1.8799      1.9038      1.9419      1.9940      2.0584      2.1322      2.2107      2.2883      2.3584    
  2.4144      2.4506      2.4631      2.4506      2.4144      2.3584      2.2883      2.2107      2.1322      2.0584    
  1.9940      1.9420      1.9038      1.8799      1.8689      1.8686      1.8759      1.8871      1.8984      1.9067    
  1.9097      1.9067      1.8984      1.8871      2.2065      2.1665      2.1322      2.1071      2.0939      2.0939    
  2.1071      2.1322      2.1665      2.2065      2.2474      2.2841      2.3118      2.3268      2.3268      2.3118    
  2.2841      2.2474      2.2065      2.1665      2.1321      2.1071      2.0939      2.0939      2.1071      2.1321    
  2.1665      2.2065      2.2474      2.2841      2.3118      2.3268      2.3268      2.3118      2.2841      2.2474    
  2.5932      2.5081      2.4279      2.3573      2.2993      2.2556      2.2264      2.2107      2.2065      2.2107    
  2.2196      2.2295      2.2369      2.2397      2.2370      2.2295      2.2196      2.2106      2.2064      2.2107    
  2.2263      2.2556      2.2993      2.3573      2.4279      2.5081      2.5932      2.6772      2.7532      2.8141    
  2.8535      2.8671      2.8535      2.8141      2.7532      2.6772      3.0314      2.8864      2.7479      2.6217    
  2.5114      2.4190      2.3449      2.2883      2.2474      2.2196      2.2022      2.1923      2.1880      2.1880    
  2.1924      2.2022      2.2196      2.2473      2.2882      2.3448      2.4189      2.5114      2.6217      2.7479    
  2.8864      3.0314      3.1752      3.3084      3.4206      3.5020      3.5448      3.5448      3.5019      3.4205    
  3.3084      3.1752      3.5103      3.2890      3.0792      2.8877      2.7187      2.5742      2.4545      2.3584    
  2.2841      2.2295      2.1923      2.1709      2.1639      2.1709      2.1923      2.2294      2.2840      2.3583    
  2.4544      2.5742      2.7187      2.8877      3.0792      3.2891      3.5104      3.7333      3.9452      4.1318    
  4.2784      4.3723      4.4047      4.3723      4.2784      4.1318      3.9452      3.7332      4.0111      3.6973    
  3.4042      3.1398      2.9081      2.7106      2.5466      2.4144      2.3118      2.2369      2.1880      2.1639    
  2.1639      2.1880      2.2369      2.3118      2.4143      2.5465      2.7106      2.9081      3.1398      3.4043    
  3.6973      4.0112      4.3338      4.6490      4.9375      5.1784      5.3521      5.4432      5.4432      5.3521    
  5.1784      4.9375      4.6490      4.3337      4.5070      4.0869      3.7021      3.3607      3.0658      2.8174    
  2.6132      2.4506      2.3268      2.2397      2.1880      2.1709      2.1880      2.2397      2.3267      2.4505    
  2.6132      2.8174      3.0659      3.3608      3.7022      4.0869      4.5070      4.9487      5.3922      5.8124    
  6.1811      6.4699      6.6543      6.7178      6.6544      6.4699      6.1811      5.8124      5.3922      4.9487    
  4.9649      4.4302      3.9508      3.5334      3.1792      2.8855      2.6482      2.4631      2.3268      2.2370    
  2.1924      2.1923      2.2369      2.3267      2.4630      2.6482      2.8855      3.1793      3.5335      3.9508    
  4.4303      4.9650      5.5406      6.1342      6.7152      7.2467      7.6903      8.0099      8.1774      8.1774    
  8.0099      7.6904      7.2468      6.7152      6.1342      5.5406      5.3495      4.6998      4.1298      3.6436    
  3.2385      2.9090      2.6482      2.4506      2.3118      2.2295      2.2022      2.2294      2.3118      2.4505    
  2.6482      2.9090      3.2386      3.6436      4.1299      4.6999      5.3496      6.0658      6.8241      7.5891    
  8.3160      8.9548      9.4557      9.7758      9.8860      9.7758      9.4557      8.9548      8.3160      7.5891    
  6.8241      6.0658      5.6276      4.8722      4.2236      3.6814      3.2385      2.8855      2.6132      2.4144    
  2.2841      2.2196      2.2196      2.2840      2.4143      2.6132      2.8855      3.2386      3.6815      4.2237    
  4.8722      5.6277      6.4802      7.4064      8.3682      9.3143      10.184      10.912      11.438      11.715    
  11.715      11.438      10.912      10.184      9.3143      8.3682      7.4064      6.4802      5.7737      4.9315    
  4.2236      3.6436      3.1792      2.8174      2.5466      2.3584      2.2474      2.2106      2.2473      2.3583    
  2.5465      2.8174      3.1793      3.6436      4.2237      4.9315      5.7737      6.7460      7.8289      8.9852    
  10.160      11.284      12.279      13.063      13.567      13.741      13.567      13.063      12.279      11.284    
  10.160      8.9852      7.8289      6.7460      5.7737      4.8722      4.1299      3.5334      3.0658      2.7106    
  2.4545      2.2883      2.2065      2.2064      2.2882      2.4544      2.7106      3.0659      3.5335      4.1299    
  4.8722      5.7737      6.8376      8.0513      9.3820      10.776      12.160      13.443      14.529      15.320    
  15.737      15.737      15.320      14.529      13.443      12.159      10.776      9.3820      8.0512      6.8376    
  5.6277      4.6998      3.9508      3.3607      2.9081      2.5742      2.3449      2.2107      2.1665      2.2107    
  2.3448      2.5742      2.9081      3.3608      3.9508      4.6999      5.6277      6.7460      8.0513      9.5190    
  11.101      12.724      14.296      15.703      16.827      17.556      17.808      17.555      16.827      15.703    
  14.296      12.724      11.101      9.5189      8.0512      6.7460      5.3496      4.4302      3.7021      3.1398    
  2.7187      2.4190      2.2264      2.1322      2.1321      2.2263      2.4189      2.7187      3.1398      3.7022    
  4.4303      5.3496      6.4802      7.8289      9.3820      11.101      12.920      14.747      16.467      17.941    
  19.024      19.599      19.599      19.024      17.940      16.467      14.747      12.920      11.101      9.3820    
  7.8289      6.4802      4.9650      4.0869      3.4042      2.8876      2.5113      2.2556      2.1071      2.0584    
  2.1071      2.2556      2.5114      2.8877      3.4043      4.0869      4.9650      6.0658      7.4064      8.9852    
  10.776      12.724      14.747      16.732      18.533      19.981      20.922      21.248      20.922      19.981    
  18.533      16.732      14.747      12.724      10.776      8.9852      7.4063      6.0658      4.5070      3.6973    
  3.0792      2.6216      2.2993      2.0940      1.9940      1.9940      2.0939      2.2993      2.6217      3.0792    
  3.6973      4.5070      5.5406      6.8241      8.3682      10.160      12.160      14.296      16.467      18.533    
  20.314      21.626      22.323      22.323      21.626      20.314      18.533      16.467      14.296      12.159    
  10.160      8.3681      6.8241      5.5406      4.0112      3.2891      2.7479      2.3573      2.0939      1.9420    
  1.8923      1.9420      2.0939      2.3573      2.7479      3.2891      4.0112      4.9487      6.1342      7.5891    
  9.3143      11.284      13.443      15.703      17.941      19.981      21.626      22.696      23.068      22.696    
  21.626      19.982      17.941      15.703      13.443      11.284      9.3143      7.5891      6.1343      4.9488    
  3.5104      2.8864      2.4279      2.1071      1.9039      1.8053      1.8053      1.9038      2.1071      2.4279    
  2.8864      3.5104      4.3338      5.3922      6.7152      8.3160      10.184      12.279      14.529      16.827    
  19.024      20.922      22.323      23.068      23.068      22.323      20.922      19.025      16.827      14.529    
  12.279      10.184      8.3160      6.7152      5.3923      4.3338      3.0314      2.5080      2.1321      1.8799    
  1.7348      1.6875      1.7348      1.8799      2.1321      2.5081      3.0314      3.7333      4.6490      5.8124    
  7.2467      8.9548      10.912      13.063      15.320      17.556      19.599      21.248      22.323      22.696    
  22.323      21.248      19.599      17.556      15.320      13.063      10.912      8.9548      7.2468      5.8125    
  4.6491      3.7333      2.5931      2.1665      1.8688      1.6808      1.5899      1.5899      1.6808      1.8689    
  2.1665      2.5932      3.1752      3.9452      4.9375      6.1811      7.6903      9.4557      11.438      13.567    
  15.737      17.808      19.599      20.922      21.626      21.626      20.922      19.599      17.808      15.738    
  13.567      11.438      9.4557      7.6904      6.1812      4.9376      3.9453      3.1752      2.2064      1.8686    
  1.6421      1.5122      1.4698      1.5122      1.6421      1.8686      2.2065      2.6772      3.3084      4.1318    
  5.1784      6.4699      8.0099      9.7758      11.715      13.741      15.737      17.555      19.024      19.981    
  20.314      19.982      19.025      17.556      15.738      13.741      11.715      9.7758      8.0100      6.4700    
  5.1785      4.1319      3.3084      2.6772      1.8759      1.6165      1.4528      1.3737      1.3737      1.4528    
  1.6166      1.8759      2.2474      2.7532      3.4206      4.2784      5.3521      6.6543      8.1774      9.8860    
  11.715      13.567      15.320      16.827      17.940      18.533      18.533      17.941      16.827      15.320    
  13.567      11.715      9.8860      8.1775      6.6545      5.3522      4.2785      3.4206      2.7532      2.2473    
  1.6012      1.4095      1.2995      1.2637      1.2995      1.4095      1.6012      1.8871      2.2841      2.8141    
  3.5020      4.3723      5.4432      6.7178      8.1774      9.7758      11.438      13.063      14.529      15.703    
  16.467      16.732      16.467      15.703      14.529      13.063      11.438      9.7758      8.1775      6.7179    
  5.4433      4.3724      3.5020      2.8140      2.2840      1.8870      1.3795      1.2445      1.1793      1.1793    
  1.2445      1.3795      1.5932      1.8984      2.3118      2.8535      3.5448      4.4047      5.4432      6.6544    
  8.0099      9.4557      10.912      12.279      13.443      14.296      14.747      14.747      14.296      13.443    
  12.279      10.912      9.4557      8.0100      6.6545      5.4433      4.4047      3.5448      2.8534      2.3118    
  1.8983      1.5932      1.2061      1.1176      1.0887      1.1176      1.2061      1.3603      1.5896      1.9067    
  2.3268      2.8671      3.5448      4.3723      5.3521      6.4699      7.6904      8.9548      10.184      11.284    
  12.159      12.724      12.920      12.724      12.159      11.284      10.184      8.9548      7.6904      6.4700    
  5.3522      4.3724      3.5448      2.8671      2.3267      1.9066      1.5896      1.3603      1.0758      1.0245    