    2    2   15    1
  0.2001288E+02  0.3839590E-09  0.3839590E-09  0.3839590E-09  0.5000000E-15
  1.000000000000000E-004
  CAR 
 unknown system                          
      8     10      8
 
  0.1250000E+00  0.1250000E+00  0.1250000E+00  0.3125000E-01
    1       -5.997141   1.000000
    2        4.028005   1.000000
    3        5.336506   0.999989
    4        5.336506   0.999989
    5        8.063170   0.000000
    6        8.592241   0.000000
    7        8.592241   0.000000
    8       10.153133   0.000000
 
  0.3750000E+00  0.1250000E+00  0.1250000E+00  0.9375000E-01
    1       -4.970778   1.000000
    2        1.036738   1.000000
    3        3.351827   1.000000
    4        4.857016   1.000000
    5        8.276256   0.000000
    6        9.282118   0.000000
    7        9.456680   0.000000
    8       11.833169   0.000000
 
 -0.3750000E+00  0.1250000E+00  0.1250000E+00  0.9375000E-01
    1       -3.831549   1.000000
    2       -1.040420   1.000000
    3        3.372731   1.000000
    4        4.086321   1.000000
    5        7.783808   0.000000
    6        9.109767   0.000000
    7        9.714674   0.000000
    8       12.927030   0.000000
 
 -0.1250000E+00  0.1250000E+00  0.1250000E+00  0.9375000E-01
    1       -5.469407   1.000000
    2        2.412717   1.000000
    3        4.329473   1.000000
    4        4.393385   1.000000
    5        7.765287   0.000000
    6        9.245438   0.000000
    7       10.048327   0.000000
    8       10.361056   0.000000
 
  0.3750000E+00  0.3750000E+00  0.1250000E+00  0.9375000E-01
    1       -4.438358   1.000000
    2        0.702995   1.000000
    3        3.003460   1.000000
    4        3.456260   1.000000
    5        6.991526   0.000000
    6        8.524415   0.000000
    7       11.530267   0.000000
    8       11.829547   0.000000
 
 -0.3750000E+00  0.3750000E+00  0.1250000E+00  0.1875000E+00
    1       -2.799116   1.000000
    2       -1.258063   1.000000
    3        1.649710   1.000000
    4        2.725969   1.000000
    5        8.016240   0.000000
    6        9.891066   0.000000
    7       10.834264   0.000000
    8       12.974688   0.000000
 
 -0.1250000E+00  0.3750000E+00  0.1250000E+00  0.1875000E+00
    1       -4.022968   1.000000
    2       -0.169856   1.000000
    3        2.361936   1.000000
    4        3.730527   1.000000
    5        8.485305   0.000000
    6        9.151003   0.000000
    7       10.599520   0.000000
    8       11.501053   0.000000
 
 -0.3750000E+00 -0.3750000E+00  0.1250000E+00  0.9375000E-01
    1       -2.966794   1.000000
    2       -1.160785   1.000000
    3        2.259523   1.000000
    4        2.989813   1.000000
    5        6.551456   0.000007
    6        7.605915   0.000000
    7       13.797401   0.000000
    8       13.852996   0.000000
 
  0.3750000E+00  0.3750000E+00  0.3750000E+00  0.3125000E-01
    1       -4.537999   1.000000
    2       -0.252843   1.000000
    3        4.550405   1.000000
    4        4.550405   1.000000
    5        7.215032   0.000000
    6        9.073897   0.000000
    7        9.073897   0.000000
    8       13.459410   0.000000
 
 -0.3750000E+00  0.3750000E+00  0.3750000E+00  0.9375000E-01
    1       -3.335987   1.000000
    2       -0.955661   1.000000
    3        1.707978   1.000000
    4        3.769494   1.000000
    5        7.476615   0.000000
    6       11.023929   0.000000
    7       11.064335   0.000000
    8       12.506156   0.000000
