 vasp.5.4.4.18Apr17-6-g9f103f2a35 (build Dec 09 2018 21:25:21) complex          
  
 executed on IFC18.0.1.163_CrayMP date 2019.03.20  10:06:06
 running on    8 total cores
 distrk:  each k-point on    8 cores,    1 groups
 distr:  one band on NCORES_PER_BAND=   1 cores,    8 groups


--------------------------------------------------------------------------------------------------------


 INCAR:
 POTCAR:   PAW_PBE Si 05Jan2001                   

 ----------------------------------------------------------------------------- 
|                                                                             |
|           W    W    AA    RRRRR   N    N  II  N    N   GGGG   !!!           |
|           W    W   A  A   R    R  NN   N  II  NN   N  G    G  !!!           |
|           W    W  A    A  R    R  N N  N  II  N N  N  G       !!!           |
|           W WW W  AAAAAA  RRRRR   N  N N  II  N  N N  G  GGG   !            |
|           WW  WW  A    A  R   R   N   NN  II  N   NN  G    G                |
|           W    W  A    A  R    R  N    N  II  N    N   GGGG   !!!           |
|                                                                             |
|      For optimal performance we recommend to set                            |
|        NCORE= 4 - approx SQRT( number of cores)                             |
|      NCORE specifies how many cores store one orbital (NPAR=cpu/NCORE).     |
|      This setting can  greatly improve the performance of VASP for DFT.     |
|      The default,   NCORE=1            might be grossly inefficient         |
|      on modern multi-core architectures or massively parallel machines.     |
|      Do your own testing !!!!                                               |
|      Unfortunately you need to use the default for GW and RPA calculations. |
|      (for HF NCORE is supported but not extensively tested yet)             |
|                                                                             |
 ----------------------------------------------------------------------------- 

 POTCAR:   PAW_PBE Si 05Jan2001                   
   VRHFIN =Si: s2p2                                                             
   LEXCH  = PE                                                                  
   EATOM  =   103.0669 eV,    7.5752 Ry                                         
                                                                                
   TITEL  = PAW_PBE Si 05Jan2001                                                
   LULTRA =        F    use ultrasoft PP ?                                      
   IUNSCR =        1    unscreen: 0-lin 1-nonlin 2-no                           
   RPACOR =    1.500    partial core radius                                     
   POMASS =   28.085; ZVAL   =    4.000    mass and valenz                      
   RCORE  =    1.900    outmost cutoff radius                                   
   RWIGS  =    2.480; RWIGS  =    1.312    wigner-seitz radius (au A)           
   ENMAX  =  245.345; ENMIN  =  184.009 eV                                      
   ICORE  =        2    local potential                                         
   LCOR   =        T    correct aug charges                                     
   LPAW   =        T    paw PP                                                  
   EAUG   =  322.069                                                            
   DEXC   =    -.007                                                            
   RMAX   =    2.944    core radius for proj-oper                               
   RAUG   =    1.300    factor for augmentation sphere                          
   RDEP   =    1.993    radius for radial grids                                 
   QCUT   =   -4.246; QGAM   =    8.493    optimization parameters              
                                                                                
   Description                                                                  
     l     E      TYP  RCUT    TYP  RCUT                                        
     0   .000     23  1.900                                                     
     0   .000     23  1.900                                                     
     1   .000     23  1.900                                                     
     1   .000     23  1.900                                                     
     2   .000      7  1.900                                                     
  local pseudopotential read in
  partial core-charges read in
  atomic valenz-charges read in
  non local Contribution for L=           0  read in
    real space projection operators read in
  non local Contribution for L=           0  read in
    real space projection operators read in
  non local Contribution for L=           1  read in
    real space projection operators read in
  non local Contribution for L=           1  read in
    real space projection operators read in
    PAW grid and wavefunctions read in
 
   number of l-projection  operators is LMAX  =           4
   number of lm-projection operators is LMMAX =           8
 
 PAW_PBE Si 05Jan2001                   :
 energy of atom  1       EATOM= -103.0669
 kinetic energy error for atom=    0.0013 (will be added to EATOM!!)
 
 
 POSCAR: Si2                                     
  positions in direct lattice
  No initial velocities read in
 exchange correlation table for  LEXCH =        8
   RHO(1)=    0.500       N(1)  =     2000
   RHO(2)=  100.500       N(2)  =     4000
 


--------------------------------------------------------------------------------------------------------


 ion  position               nearest neighbor table
   1  0.500  0.500  0.500-   2 2.35   2 2.35   2 2.35   2 2.35
   2  0.750  0.750  0.750-   1 2.35   1 2.35   1 2.35   1 2.35
 
  LATTYP: Found a face centered cubic cell.
 ALAT       =     5.4300000000
  
  Lattice vectors:
  
 A1 = (   0.0000000000,   2.7150000000,   2.7150000000)
 A2 = (   2.7150000000,   0.0000000000,   2.7150000000)
 A3 = (   2.7150000000,   2.7150000000,   0.0000000000)


Analysis of symmetry for initial positions (statically):
=====================================================================
 Subroutine PRICEL returns:
 Original cell was already a primitive cell.
 

 Routine SETGRP: Setting up the symmetry group for a 
 face centered cubic supercell.


 Subroutine GETGRP returns: Found 48 space group operations
 (whereof 24 operations were pure point group operations)
 out of a pool of 48 trial point group operations.


The static configuration has the point symmetry T_d .
 The point group associated with its full space group is O_h .


Analysis of symmetry for dynamics (positions and initial velocities):
=====================================================================
 Subroutine PRICEL returns:
 Original cell was already a primitive cell.
 

 Routine SETGRP: Setting up the symmetry group for a 
 face centered cubic supercell.


 Subroutine GETGRP returns: Found 48 space group operations
 (whereof 24 operations were pure point group operations)
 out of a pool of 48 trial point group operations.


The dynamic configuration has the point symmetry T_d .
 The point group associated with its full space group is O_h .


 Subroutine INISYM returns: Found 48 space group operations
 (whereof 24 operations are pure point group operations),
 and found     1 'primitive' translations

 
 
 KPOINTS: Automatic kpoint scheme                 

Automatic generation of k-mesh.
Space group operators:
 irot       det(A)        alpha          n_x          n_y          n_z        tau_x        tau_y        tau_z
    1     1.000000     0.000001     1.000000     0.000000     0.000000     0.000000     0.000000     0.000000
    2     1.000000   120.000000    -0.577350    -0.577350    -0.577350     0.000000     0.000000     0.000000
    3     1.000000   120.000000     0.577350     0.577350     0.577350     0.000000     0.000000     0.000000
    4    -1.000000    90.000000    -0.000000    -0.000000    -1.000000     0.000000     0.000000     0.000000
    5    -1.000000   180.000000    -0.000000     0.707107     0.707107     0.000000     0.000000     0.000000
    6    -1.000000    90.000000    -0.000000     1.000000    -0.000000     0.000000     0.000000     0.000000
    7     1.000000   180.000000     0.000000     0.000000    -1.000000     0.000000     0.000000     0.000000
    8     1.000000   120.000000    -0.577350     0.577350     0.577350     0.000000     0.000000     0.000000
    9     1.000000   120.000000    -0.577350     0.577350    -0.577350     0.000000     0.000000     0.000000
   10    -1.000000    90.000000     0.000000     0.000000     1.000000     0.000000     0.000000     0.000000
   11    -1.000000    90.000000    -1.000000     0.000000    -0.000000     0.000000     0.000000     0.000000
   12    -1.000000   180.000000     0.707107     0.000000     0.707107     0.000000     0.000000     0.000000
   13     1.000000   120.000000     0.577350    -0.577350     0.577350     0.000000     0.000000     0.000000
   14     1.000000   120.000000    -0.577350    -0.577350     0.577350     0.000000     0.000000     0.000000
   15     1.000000   180.000000     1.000000     0.000000     0.000000     0.000000     0.000000     0.000000
   16    -1.000000    90.000000     0.000000    -1.000000     0.000000     0.000000     0.000000     0.000000
   17    -1.000000   180.000000     0.707107     0.707107    -0.000000     0.000000     0.000000     0.000000
   18    -1.000000    90.000000     1.000000     0.000000     0.000000     0.000000     0.000000     0.000000
   19     1.000000   120.000000     0.577350    -0.577350    -0.577350     0.000000     0.000000     0.000000
   20     1.000000   180.000000     0.000000    -1.000000     0.000000     0.000000     0.000000     0.000000
   21     1.000000   120.000000     0.577350     0.577350    -0.577350     0.000000     0.000000     0.000000
   22    -1.000000   180.000000    -0.000000    -0.707107     0.707107     0.000000     0.000000     0.000000
   23    -1.000000   180.000000     0.707107    -0.707107    -0.000000     0.000000     0.000000     0.000000
   24    -1.000000   180.000000    -0.707107     0.000000     0.707107     0.000000     0.000000     0.000000
   25    -1.000000     0.000001     1.000000     0.000000     0.000000     0.250000     0.250000     0.250000
   26    -1.000000   120.000000    -0.577350    -0.577350    -0.577350     0.250000     0.250000     0.250000
   27    -1.000000   120.000000     0.577350     0.577350     0.577350     0.250000     0.250000     0.250000
   28     1.000000    90.000000    -0.000000    -0.000000    -1.000000     0.250000     0.250000     0.250000
   29     1.000000   180.000000    -0.000000     0.707107     0.707107     0.250000     0.250000     0.250000
   30     1.000000    90.000000    -0.000000     1.000000    -0.000000     0.250000     0.250000     0.250000
   31    -1.000000   180.000000     0.000000     0.000000    -1.000000     0.250000     0.250000     0.250000
   32    -1.000000   120.000000    -0.577350     0.577350     0.577350     0.250000     0.250000     0.250000
   33    -1.000000   120.000000    -0.577350     0.577350    -0.577350     0.250000     0.250000     0.250000
   34     1.000000    90.000000     0.000000     0.000000     1.000000     0.250000     0.250000     0.250000
   35     1.000000    90.000000    -1.000000     0.000000    -0.000000     0.250000     0.250000     0.250000
   36     1.000000   180.000000     0.707107     0.000000     0.707107     0.250000     0.250000     0.250000
   37    -1.000000   120.000000     0.577350    -0.577350     0.577350     0.250000     0.250000     0.250000
   38    -1.000000   120.000000    -0.577350    -0.577350     0.577350     0.250000     0.250000     0.250000
   39    -1.000000   180.000000     1.000000     0.000000     0.000000     0.250000     0.250000     0.250000
   40     1.000000    90.000000     0.000000    -1.000000     0.000000     0.250000     0.250000     0.250000
   41     1.000000   180.000000     0.707107     0.707107    -0.000000     0.250000     0.250000     0.250000
   42     1.000000    90.000000     1.000000     0.000000     0.000000     0.250000     0.250000     0.250000
   43    -1.000000   120.000000     0.577350    -0.577350    -0.577350     0.250000     0.250000     0.250000
   44    -1.000000   180.000000     0.000000    -1.000000     0.000000     0.250000     0.250000     0.250000
   45    -1.000000   120.000000     0.577350     0.577350    -0.577350     0.250000     0.250000     0.250000
   46     1.000000   180.000000    -0.000000    -0.707107     0.707107     0.250000     0.250000     0.250000
   47     1.000000   180.000000     0.707107    -0.707107    -0.000000     0.250000     0.250000     0.250000
   48     1.000000   180.000000    -0.707107     0.000000     0.707107     0.250000     0.250000     0.250000
 
 Subroutine IBZKPT returns following result:
 ===========================================
 
 Found     10 irreducible k-points:
 
 Following reciprocal coordinates:
            Coordinates               Weight
  0.125000  0.125000  0.125000     96.000000
  0.375000  0.125000  0.125000    288.000000
 -0.375000  0.125000  0.125000    288.000000
 -0.125000  0.125000  0.125000    288.000000
  0.375000  0.375000  0.125000    288.000000
 -0.375000  0.375000  0.125000    576.000000
 -0.125000  0.375000  0.125000    576.000000
 -0.375000 -0.375000  0.125000    288.000000
  0.375000  0.375000  0.375000     96.000000
 -0.375000  0.375000  0.375000    288.000000
 
 Following cartesian coordinates:
            Coordinates               Weight
  0.023020  0.023020  0.023020     96.000000
 -0.023020  0.069061  0.069061    288.000000
  0.115101 -0.069061 -0.069061    288.000000
  0.069061 -0.023020 -0.023020    288.000000
  0.023020  0.023020  0.115101    288.000000
  0.161142 -0.115101 -0.023020    576.000000
  0.115101 -0.069061  0.023020    576.000000
  0.023020  0.023020 -0.161142    288.000000
  0.069061  0.069061  0.069061     96.000000
  0.207182 -0.069061 -0.069061    288.000000
 


--------------------------------------------------------------------------------------------------------




 Dimension of arrays:
   k-points           NKPTS =     10   k-points in BZ     NKDIM =     10   number of bands    NBANDS=      8
   number of dos      NEDOS =    301   number of ions     NIONS =      2
   non local maximal  LDIM  =      4   non local SUM 2l+1 LMDIM =      8
   total plane-waves  NPLWV =   5832
   max r-space proj   IRMAX =      1   max aug-charges    IRDMAX=   5071
   dimension x,y,z NGX =    18 NGY =   18 NGZ =   18
   dimension x,y,z NGXF=    36 NGYF=   36 NGZF=   36
   support grid    NGXF=    36 NGYF=   36 NGZF=   36
   ions per type =               2
   NGX,Y,Z   is equivalent  to a cutoff of   7.79,  7.79,  7.79 a.u.
   NGXF,Y,Z  is equivalent  to a cutoff of  15.59, 15.59, 15.59 a.u.

 SYSTEM =  unknown system                          
 POSCAR =  Si2                                     

 Startparameter for this run:
   NWRITE =      2    write-flag & timer
   PREC   = normal    normal or accurate (medium, high low for compatibility)
   ISTART =      0    job   : 0-new  1-cont  2-samecut
   ICHARG =      2    charge: 1-file 2-atom 10-const
   ISPIN  =      1    spin polarized calculation?
   LNONCOLLINEAR =      F non collinear calculations
   LSORBIT =      F    spin-orbit coupling
   INIWAV =      1    electr: 0-lowe 1-rand  2-diag
   LASPH  =      F    aspherical Exc in radial PAW
   METAGGA=      F    non-selfconsistent MetaGGA calc.

 Electronic Relaxation 1
   ENCUT  =  350.0 eV  25.72 Ry    5.07 a.u.   5.86  5.86  5.86*2*pi/ulx,y,z
   ENINI  =  350.0     initial cutoff
   ENAUG  =  322.1 eV  augmentation charge cutoff
   NELM   =     60;   NELMIN=  2; NELMDL= -5     # of ELM steps 
   EDIFF  = 0.4E-03   stopping-criterion for ELM
   LREAL  =      F    real-space projection
   NLSPLINE    = F    spline interpolate recip. space projectors
   LCOMPAT=      F    compatible to vasp.4.4
   GGA_COMPAT  = T    GGA compatible to vasp.4.4-vasp.4.6
   LMAXPAW     = -100 max onsite density
   LMAXMIX     =    2 max onsite mixed and CHGCAR
   VOSKOWN=      0    Vosko Wilk Nusair interpolation
   ROPT   =    0.00000
 Ionic relaxation
   EDIFFG = -.1E-01   stopping-criterion for IOM
   NSW    =     15    number of steps for IOM
   NBLOCK =      1;   KBLOCK =     15    inner block; outer block 
   IBRION =      2    ionic relax: 0-MD 1-quasi-New 2-CG
   NFREE  =      1    steps in history (QN), initial steepest desc. (CG)
   ISIF   =      3    stress and relaxation
   IWAVPR =     11    prediction:  0-non 1-charg 2-wave 3-comb
   ISYM   =      2    0-nonsym 1-usesym 2-fastsym
   LCORR  =      T    Harris-Foulkes like correction to forces

   POTIM  = 0.5000    time-step for ionic-motion
   TEIN   =    0.0    initial temperature
   TEBEG  =    0.0;   TEEND  =   0.0 temperature during run
   SMASS  =  -3.00    Nose mass-parameter (am)
   estimated Nose-frequenzy (Omega)   =  0.10E-29 period in steps =****** mass=  -0.337E-27a.u.
   SCALEE = 1.0000    scale energy and forces
   NPACO  =    256;   APACO  = 16.0  distance and # of slots for P.C.
   PSTRESS=    0.0 pullay stress

  Mass of Ions in am
   POMASS =  28.09
  Ionic Valenz
   ZVAL   =   4.00
  Atomic Wigner-Seitz radii
   RWIGS  =  -1.00
  virtual crystal weights 
   VCA    =   1.00
   NELECT =       8.0000    total number of electrons
   NUPDOWN=      -1.0000    fix difference up-down

 DOS related values:
   EMIN   =  10.00;   EMAX   =-10.00  energy-range for DOS
   EFERMI =   0.00
   ISMEAR =     0;   SIGMA  =   0.20  broadening in eV -4-tet -1-fermi 0-gaus

 Electronic relaxation 2 (details)
   IALGO  =     38    algorithm
   LDIAG  =      T    sub-space diagonalisation (order eigenvalues)
   LSUBROT=      F    optimize rotation matrix (better conditioning)
   TURBO    =      0    0=normal 1=particle mesh
   IRESTART =      0    0=no restart 2=restart with 2 vectors
   NREBOOT  =      0    no. of reboots
   NMIN     =      0    reboot dimension
   EREF     =   0.00    reference energy to select bands
   IMIX   =      4    mixing-type and parameters
     AMIX     =   0.40;   BMIX     =  1.00
     AMIX_MAG =   1.60;   BMIX_MAG =  1.00
     AMIN     =   0.10
     WC   =   100.;   INIMIX=   1;  MIXPRE=   1;  MAXMIX= -45

 Intra band minimization:
   WEIMIN = 0.0010     energy-eigenvalue tresh-hold
   EBREAK =  0.13E-04  absolut break condition
   DEPER  =   0.30     relativ break condition  

   TIME   =   0.40     timestep for ELM

  volume/ion in A,a.u.               =      20.01       135.05
  Fermi-wavevector in a.u.,A,eV,Ry     =   0.957176  1.808800 12.465458  0.916185
  Thomas-Fermi vector in A             =   2.086170
 
 Write flags
   LWAVE        =      T    write WAVECAR
   LDOWNSAMPLE  =      F    k-point downsampling of WAVECAR
   LCHARG       =      T    write CHGCAR
   LVTOT        =      F    write LOCPOT, total local potential
   LVHAR        =      F    write LOCPOT, Hartree potential only
   LELF         =      F    write electronic localiz. function (ELF)
   LORBIT       =      0    0 simple, 1 ext, 2 COOP (PROOUT), +10 PAW based schemes


 Dipole corrections
   LMONO  =      F    monopole corrections only (constant potential shift)
   LDIPOL =      F    correct potential (dipole corrections)
   IDIPOL =      0    1-x, 2-y, 3-z, 4-all directions 
   EPSILON=  1.0000000 bulk dielectric constant

 Exchange correlation treatment:
   GGA     =    --    GGA type
   LEXCH   =     8    internal setting for exchange type
   VOSKOWN=      0    Vosko Wilk Nusair interpolation
   LHFCALC =     F    Hartree Fock is set to
   LHFONE  =     F    Hartree Fock one center treatment
   AEXX    =    0.0000 exact exchange contribution

 Linear response parameters
   LEPSILON=     F    determine dielectric tensor
   LRPA    =     F    only Hartree local field effects (RPA)
   LNABLA  =     F    use nabla operator in PAW spheres
   LVEL    =     F    velocity operator in full k-point grid
   LINTERFAST=   F  fast interpolation
   KINTER  =     0    interpolate to denser k-point grid
   CSHIFT  =0.1000    complex shift for real part using Kramers Kronig
   OMEGAMAX=  -1.0    maximum frequency
   DEG_THRESHOLD= 0.2000000E-02 threshold for treating states as degnerate
   RTIME   =   -0.100 relaxation time in fs
  (WPLASMAI=    0.000 imaginary part of plasma frequency in eV, 0.658/RTIME)
   DFIELD  = 0.0000000 0.0000000 0.0000000 field for delta impulse in time
 
 Orbital magnetization related:
   ORBITALMAG=     F  switch on orbital magnetization
   LCHIMAG   =     F  perturbation theory with respect to B field
   DQ        =  0.001000  dq finite difference perturbation B field
   LLRAUG    =     F  two centre corrections for induced B field



--------------------------------------------------------------------------------------------------------


 conjugate gradient relaxation of ions
 charge density and potential will be updated during run
 non-spin polarized calculation
 Variant of blocked Davidson
 Davidson routine will perform the subspace rotation
 perform sub-space diagonalisation
    after iterative eigenvector-optimisation
 modified Broyden-mixing scheme, WC =      100.0
 initial mixing is a Kerker type mixing with AMIX =  0.4000 and BMIX =      1.0000
 Hartree-type preconditioning will be used
 using additional bands            4
 reciprocal scheme for non local part
 use partial core corrections
 calculate Harris-corrections to forces 
   (improved forces if not selfconsistent)
 use gradient corrections 
 use of overlap-Matrix (Vanderbilt PP)
 Gauss-broadening in eV      SIGMA  =   0.20


--------------------------------------------------------------------------------------------------------


  energy-cutoff  :      350.00
  volume of cell :       40.03
      direct lattice vectors                 reciprocal lattice vectors
     0.000000000  2.715000000  2.715000000    -0.184162063  0.184162063  0.184162063
     2.715000000  0.000000000  2.715000000     0.184162063 -0.184162063  0.184162063
     2.715000000  2.715000000  0.000000000     0.184162063  0.184162063 -0.184162063

  length of vectors
     3.839589822  3.839589822  3.839589822     0.318978049  0.318978049  0.318978049


 
 k-points in units of 2pi/SCALE and weight: Automatic kpoint scheme                 
   0.02302026  0.02302026  0.02302026       0.031
  -0.02302026  0.06906077  0.06906077       0.094
   0.11510129 -0.06906077 -0.06906077       0.094
   0.06906077 -0.02302026 -0.02302026       0.094
   0.02302026  0.02302026  0.11510129       0.094
   0.16114180 -0.11510129 -0.02302026       0.188
   0.11510129 -0.06906077  0.02302026       0.188
   0.02302026  0.02302026 -0.16114180       0.094
   0.06906077  0.06906077  0.06906077       0.031
   0.20718232 -0.06906077 -0.06906077       0.094
 
 k-points in reciprocal lattice and weights: Automatic kpoint scheme                 
   0.12500000  0.12500000  0.12500000       0.031
   0.37500000  0.12500000  0.12500000       0.094
  -0.37500000  0.12500000  0.12500000       0.094
  -0.12500000  0.12500000  0.12500000       0.094
   0.37500000  0.37500000  0.12500000       0.094
  -0.37500000  0.37500000  0.12500000       0.188
  -0.12500000  0.37500000  0.12500000       0.188
  -0.37500000 -0.37500000  0.12500000       0.094
   0.37500000  0.37500000  0.37500000       0.031
  -0.37500000  0.37500000  0.37500000       0.094
 
 position of ions in fractional coordinates (direct lattice) 
   0.50000000  0.50000000  0.50000000
   0.75000000  0.75000000  0.75000000
 
 position of ions in cartesian coordinates  (Angst):
   2.71500000  2.71500000  2.71500000
   4.07250000  4.07250000  4.07250000
 


--------------------------------------------------------------------------------------------------------


 k-point  1 :   0.1250 0.1250 0.1250  plane waves:     579
 k-point  2 :   0.3750 0.1250 0.1250  plane waves:     592
 k-point  3 :  -0.3750 0.1250 0.1250  plane waves:     594
 k-point  4 :  -0.1250 0.1250 0.1250  plane waves:     586
 k-point  5 :   0.3750 0.3750 0.1250  plane waves:     597
 k-point  6 :  -0.3750 0.3750 0.1250  plane waves:     597
 k-point  7 :  -0.1250 0.3750 0.1250  plane waves:     595
 k-point  8 :  -0.3750-0.3750 0.1250  plane waves:     603
 k-point  9 :   0.3750 0.3750 0.3750  plane waves:     598
 k-point 10 :  -0.3750 0.3750 0.3750  plane waves:     593

 maximum and minimum number of plane-waves per node :       603      579

 maximum number of plane-waves:       603
 maximum index in each direction: 
   IXMAX=    6   IYMAX=    6   IZMAX=    5
   IXMIN=   -6   IYMIN=   -6   IZMIN=   -6


 serial   3D FFT for wavefunctions
 parallel 3D FFT for charge:
    minimum data exchange during FFTs selected (reduces bandwidth)


 total amount of memory used by VASP MPI-rank0    31321. kBytes
=======================================================================

   base      :      30000. kBytes
   nonl-proj :        408. kBytes
   fftplans  :        247. kBytes
   grid      :        561. kBytes
   one-center:          6. kBytes
   wavefun   :         99. kBytes
 
     INWAV:  cpu time    0.0000: real time    0.0005
 Broyden mixing: mesh for mixing (old mesh)
   NGX = 11   NGY = 11   NGZ = 11
  (NGX  = 36   NGY  = 36   NGZ  = 36)
  gives a total of   1331 points

 initial charge density was supplied:
 charge density of overlapping atoms calculated
 number of electron       8.0000000 magnetization 
 keeping initial charge density in first step


--------------------------------------------------------------------------------------------------------


 Maximum index for augmentation-charges          689 (set IRDMAX)


--------------------------------------------------------------------------------------------------------


 First call to EWALD:  gamma=   0.518
 Maximum number of real-space cells 3x 3x 3
 Maximum number of reciprocal cells 3x 3x 3

    FEWALD:  cpu time    0.0040: real time    0.0076


--------------------------------------- Iteration      1(   1)  ---------------------------------------


    POTLOK:  cpu time    0.0400: real time    0.0507
    SETDIJ:  cpu time    0.0080: real time    0.0094
     EDDAV:  cpu time    0.1400: real time    0.1451
       DOS:  cpu time    0.0000: real time    0.0019
    --------------------------------------------
      LOOP:  cpu time    0.1880: real time    0.2078

 eigenvalue-minimisations  :   160
 total energy-change (2. order) : 0.4216153E+01  (-0.2878218E+03)
 number of electron       8.0000000 magnetization 
 augmentation part        8.0000000 magnetization 

 Free energy of the ion-electron system (eV)
  ---------------------------------------------------
  alpha Z        PSCENC =         3.36414203
  Ewald energy   TEWEN  =      -228.56352493
  -Hartree energ DENC   =       -11.00108243
  -exchange      EXHF   =         0.00000000
  -V(xc)+E(xc)   XCENC  =       -18.60185131
  PAW double counting   =        65.95520812      -30.76852678
  entropy T*S    EENTRO =        -0.01761380
  eigenvalues    EBANDS =        17.71814759
  atomic energy  EATOM  =       206.13125414
  Solvation  Ediel_sol  =         0.00000000
  ---------------------------------------------------
  free energy    TOTEN  =         4.21615263 eV

  energy without entropy =        4.23376643  energy(sigma->0) =        4.22495953


--------------------------------------------------------------------------------------------------------




--------------------------------------- Iteration      1(   2)  ---------------------------------------


     EDDAV:  cpu time    0.2120: real time    0.2196
       DOS:  cpu time    0.0000: real time    0.0016
    --------------------------------------------
      LOOP:  cpu time    0.2160: real time    0.2214

 eigenvalue-minimisations  :   256
 total energy-change (2. order) :-0.1506322E+02  (-0.1463933E+02)
 number of electron       8.0000000 magnetization 
 augmentation part        8.0000000 magnetization 

 Free energy of the ion-electron system (eV)
  ---------------------------------------------------
  alpha Z        PSCENC =         3.36414203
  Ewald energy   TEWEN  =      -228.56352493
  -Hartree energ DENC   =       -11.00108243
  -exchange      EXHF   =         0.00000000
  -V(xc)+E(xc)   XCENC  =       -18.60185131
  PAW double counting   =        65.95520812      -30.76852678
  entropy T*S    EENTRO =        -0.00000003
  eigenvalues    EBANDS =         2.63731261
  atomic energy  EATOM  =       206.13125414
  Solvation  Ediel_sol  =         0.00000000
  ---------------------------------------------------
  free energy    TOTEN  =       -10.84706859 eV

  energy without entropy =      -10.84706856  energy(sigma->0) =      -10.84706857


--------------------------------------------------------------------------------------------------------




--------------------------------------- Iteration      1(   3)  ---------------------------------------


     EDDAV:  cpu time    0.1560: real time    0.1622
       DOS:  cpu time    0.0040: real time    0.0016
    --------------------------------------------
      LOOP:  cpu time    0.1560: real time    0.1636

 eigenvalue-minimisations  :   184
 total energy-change (2. order) :-0.1729156E+00  (-0.1729156E+00)
 number of electron       8.0000000 magnetization 
 augmentation part        8.0000000 magnetization 

 Free energy of the ion-electron system (eV)
  ---------------------------------------------------
  alpha Z        PSCENC =         3.36414203
  Ewald energy   TEWEN  =      -228.56352493
  -Hartree energ DENC   =       -11.00108243
  -exchange      EXHF   =         0.00000000
  -V(xc)+E(xc)   XCENC  =       -18.60185131
  PAW double counting   =        65.95520812      -30.76852678
  entropy T*S    EENTRO =        -0.00000002
  eigenvalues    EBANDS =         2.46439703
  atomic energy  EATOM  =       206.13125414
  Solvation  Ediel_sol  =         0.00000000
  ---------------------------------------------------
  free energy    TOTEN  =       -11.01998416 eV

  energy without entropy =      -11.01998414  energy(sigma->0) =      -11.01998415


--------------------------------------------------------------------------------------------------------




--------------------------------------- Iteration      1(   4)  ---------------------------------------


     EDDAV:  cpu time    0.2320: real time    0.2385
       DOS:  cpu time    0.0000: real time    0.0015
    --------------------------------------------
      LOOP:  cpu time    0.2320: real time    0.2400

 eigenvalue-minimisations  :   280
 total energy-change (2. order) :-0.5609814E-03  (-0.5609811E-03)
 number of electron       8.0000000 magnetization 
 augmentation part        8.0000000 magnetization 

 Free energy of the ion-electron system (eV)
  ---------------------------------------------------
  alpha Z        PSCENC =         3.36414203
  Ewald energy   TEWEN  =      -228.56352493
  -Hartree energ DENC   =       -11.00108243
  -exchange      EXHF   =         0.00000000
  -V(xc)+E(xc)   XCENC  =       -18.60185131
  PAW double counting   =        65.95520812      -30.76852678
  entropy T*S    EENTRO =        -0.00000002
  eigenvalues    EBANDS =         2.46383605
  atomic energy  EATOM  =       206.13125414
  Solvation  Ediel_sol  =         0.00000000
  ---------------------------------------------------
  free energy    TOTEN  =       -11.02054514 eV

  energy without entropy =      -11.02054512  energy(sigma->0) =      -11.02054513


--------------------------------------------------------------------------------------------------------




--------------------------------------- Iteration      1(   5)  ---------------------------------------


     EDDAV:  cpu time    0.1520: real time    0.1577
       DOS:  cpu time    0.0000: real time    0.0016
    CHARGE:  cpu time    0.0200: real time    0.0222
    MIXING:  cpu time    0.0040: real time    0.0023
    --------------------------------------------
      LOOP:  cpu time    0.1760: real time    0.1838

 eigenvalue-minimisations  :   176
 total energy-change (2. order) :-0.1868553E-06  (-0.1869719E-06)
 number of electron       7.9999993 magnetization 
 augmentation part       -0.4706269 magnetization 

 Broyden mixing:
  rms(total) = 0.30128E+00    rms(broyden)= 0.30126E+00
  rms(prec ) = 0.87405E+00
  weight for this iteration     100.00

 Free energy of the ion-electron system (eV)
  ---------------------------------------------------
  alpha Z        PSCENC =         3.36414203
  Ewald energy   TEWEN  =      -228.56352493
  -Hartree energ DENC   =       -11.00108243
  -exchange      EXHF   =         0.00000000
  -V(xc)+E(xc)   XCENC  =       -18.60185131
  PAW double counting   =        65.95520812      -30.76852678
  entropy T*S    EENTRO =        -0.00000002
  eigenvalues    EBANDS =         2.46383586
  atomic energy  EATOM  =       206.13125414
  Solvation  Ediel_sol  =         0.00000000
  ---------------------------------------------------
  free energy    TOTEN  =       -11.02054533 eV

  energy without entropy =      -11.02054531  energy(sigma->0) =      -11.02054532


--------------------------------------------------------------------------------------------------------




--------------------------------------- Iteration      1(   6)  ---------------------------------------


    POTLOK:  cpu time    0.0280: real time    0.0353
    SETDIJ:  cpu time    0.0080: real time    0.0088
     EDDAV:  cpu time    0.1640: real time    0.1630
       DOS:  cpu time    0.0000: real time    0.0017
    CHARGE:  cpu time    0.0200: real time    0.0208
    MIXING:  cpu time    0.0040: real time    0.0020
    --------------------------------------------
      LOOP:  cpu time    0.2240: real time    0.2316

 eigenvalue-minimisations  :   200
 total energy-change (2. order) : 0.1250861E+00  (-0.8273999E-02)
 number of electron       7.9999993 magnetization 
 augmentation part       -0.4647377 magnetization 

 Broyden mixing:
  rms(total) = 0.17842E+00    rms(broyden)= 0.17842E+00
  rms(prec ) = 0.51420E+00
  weight for this iteration     100.00

 eigenvalues of (default mixing * dielectric matrix)
  average eigenvalue GAMMA=   2.4316
  2.4316

 Free energy of the ion-electron system (eV)
  ---------------------------------------------------
  alpha Z        PSCENC =         3.36414203
  Ewald energy   TEWEN  =      -228.56352493
  -Hartree energ DENC   =       -12.50068201
  -exchange      EXHF   =         0.00000000
  -V(xc)+E(xc)   XCENC  =       -18.36410080
  PAW double counting   =        69.96635821      -34.89082357
  entropy T*S    EENTRO =        -0.00000025
  eigenvalues    EBANDS =         3.96191796
  atomic energy  EATOM  =       206.13125414
  Solvation  Ediel_sol  =         0.00000000
  ---------------------------------------------------
  free energy    TOTEN  =       -10.89545922 eV

  energy without entropy =      -10.89545897  energy(sigma->0) =      -10.89545909


--------------------------------------------------------------------------------------------------------




--------------------------------------- Iteration      1(   7)  ---------------------------------------


    POTLOK:  cpu time    0.0280: real time    0.0355
    SETDIJ:  cpu time    0.0080: real time    0.0088
     EDDAV:  cpu time    0.1640: real time    0.1621
       DOS:  cpu time    0.0000: real time    0.0016
    CHARGE:  cpu time    0.0200: real time    0.0201
    MIXING:  cpu time    0.0000: real time    0.0018
    --------------------------------------------
      LOOP:  cpu time    0.2240: real time    0.2300

 eigenvalue-minimisations  :   200
 total energy-change (2. order) : 0.5704680E-01  (-0.1518453E-01)
 number of electron       7.9999993 magnetization 
 augmentation part       -0.4576469 magnetization 

 Broyden mixing:
  rms(total) = 0.15417E-01    rms(broyden)= 0.15417E-01
  rms(prec ) = 0.40134E-01
  weight for this iteration     100.00

 eigenvalues of (default mixing * dielectric matrix)
  average eigenvalue GAMMA=   2.4613
  2.4613  2.4613

 Free energy of the ion-electron system (eV)
  ---------------------------------------------------
  alpha Z        PSCENC =         3.36414203
  Ewald energy   TEWEN  =      -228.56352493
  -Hartree energ DENC   =       -14.90894398
  -exchange      EXHF   =         0.00000000
  -V(xc)+E(xc)   XCENC  =       -17.97480282
  PAW double counting   =        75.26957253      -40.33593722
  entropy T*S    EENTRO =        -0.00000394
  eigenvalues    EBANDS =         6.17983177
  atomic energy  EATOM  =       206.13125414
  Solvation  Ediel_sol  =         0.00000000
  ---------------------------------------------------
  free energy    TOTEN  =       -10.83841241 eV

  energy without entropy =      -10.83840848  energy(sigma->0) =      -10.83841044


--------------------------------------------------------------------------------------------------------




--------------------------------------- Iteration      1(   8)  ---------------------------------------


    POTLOK:  cpu time    0.0320: real time    0.0358
    SETDIJ:  cpu time    0.0080: real time    0.0088
     EDDAV:  cpu time    0.1320: real time    0.1326
       DOS:  cpu time    0.0000: real time    0.0016
    CHARGE:  cpu time    0.0200: real time    0.0201
    MIXING:  cpu time    0.0040: real time    0.0021
    --------------------------------------------
      LOOP:  cpu time    0.1920: real time    0.2009

 eigenvalue-minimisations  :   160
 total energy-change (2. order) :-0.1337916E-02  (-0.4233701E-03)
 number of electron       7.9999993 magnetization 
 augmentation part       -0.4586446 magnetization 

 Broyden mixing:
  rms(total) = 0.24820E-02    rms(broyden)= 0.24811E-02
  rms(prec ) = 0.81928E-02
  weight for this iteration     100.00

 eigenvalues of (default mixing * dielectric matrix)
  average eigenvalue GAMMA=   2.1179
  1.3536  2.7902  2.2100

 Free energy of the ion-electron system (eV)
  ---------------------------------------------------
  alpha Z        PSCENC =         3.36414203
  Ewald energy   TEWEN  =      -228.56352493
  -Hartree energ DENC   =       -14.87725331
  -exchange      EXHF   =         0.00000000
  -V(xc)+E(xc)   XCENC  =       -17.96607645
  PAW double counting   =        74.38269080      -39.42064724
  entropy T*S    EENTRO =        -0.00000278
  eigenvalues    EBANDS =         6.10966742
  atomic energy  EATOM  =       206.13125414
  Solvation  Ediel_sol  =         0.00000000
  ---------------------------------------------------
  free energy    TOTEN  =       -10.83975033 eV

  energy without entropy =      -10.83974755  energy(sigma->0) =      -10.83974894


--------------------------------------------------------------------------------------------------------




--------------------------------------- Iteration      1(   9)  ---------------------------------------


    POTLOK:  cpu time    0.0280: real time    0.0352
    SETDIJ:  cpu time    0.0080: real time    0.0088
     EDDAV:  cpu time    0.1040: real time    0.1041
       DOS:  cpu time    0.0000: real time    0.0016
    --------------------------------------------
      LOOP:  cpu time    0.1400: real time    0.1496

 eigenvalue-minimisations  :   112
 total energy-change (2. order) :-0.9380578E-04  (-0.1010114E-04)
 number of electron       7.9999993 magnetization 
 augmentation part       -0.4586446 magnetization 

 Free energy of the ion-electron system (eV)
  ---------------------------------------------------
  alpha Z        PSCENC =         3.36414203
  Ewald energy   TEWEN  =      -228.56352493
  -Hartree energ DENC   =       -14.91472086
  -exchange      EXHF   =         0.00000000
  -V(xc)+E(xc)   XCENC  =       -17.95982439
  PAW double counting   =        74.37305814      -39.41104933
  entropy T*S    EENTRO =        -0.00000275
  eigenvalues    EBANDS =         6.14082381
  atomic energy  EATOM  =       206.13125414
  Solvation  Ediel_sol  =         0.00000000
  ---------------------------------------------------
  free energy    TOTEN  =       -10.83984414 eV

  energy without entropy =      -10.83984139  energy(sigma->0) =      -10.83984276


--------------------------------------------------------------------------------------------------------




 average (electrostatic) potential at core
  the test charge radii are     0.9892
  (the norm of the test charge is              1.0000)
       1 -83.2473       2 -83.2473
 
 
 
 E-fermi :   6.1266     XC(G=0):  -9.4129     alpha+bet :-11.9845


 k-point     1 :       0.1250    0.1250    0.1250
  band No.  band energies     occupation 
      1      -5.9267      2.00000
      2       4.2331      2.00000
      3       5.5416      1.99996
      4       5.5416      1.99996
      5       8.3368      0.00000
      6       8.8218      0.00000
      7       8.8218      0.00000
      8      10.5497      0.00000

 k-point     2 :       0.3750    0.1250    0.1250
  band No.  band energies     occupation 
      1      -4.8802      2.00000
      2       1.2065      2.00000
      3       3.5208      2.00000
      4       5.0571      2.00000
      5       8.5538      0.00000
      6       9.5116      0.00000
      7       9.6882      0.00000
      8      12.1331      0.00000

 k-point     3 :      -0.3750    0.1250    0.1250
  band No.  band energies     occupation 
      1      -3.7117      2.00000
      2      -0.9169      2.00000
      3       3.5519      2.00000
      4       4.2694      2.00000
      5       8.0269      0.00000
      6       9.3477      0.00000
      7       9.9337      0.00000
      8      13.2036      0.00000

 k-point     4 :      -0.1250    0.1250    0.1250
  band No.  band energies     occupation 
      1      -5.3890      2.00000
      2       2.6081      2.00000
      3       4.5127      2.00000
      4       4.5890      2.00000
      5       7.9802      0.00000
      6       9.5444      0.00000
      7      10.3020      0.00000
      8      10.5830      0.00000

 k-point     5 :       0.3750    0.3750    0.1250
  band No.  band energies     occupation 
      1      -4.3382      2.00000
      2       0.8919      2.00000
      3       3.1608      2.00000
      4       3.6236      2.00000
      5       7.1818      0.00000
      6       8.7258      0.00000
      7      11.8326      0.00000
      8      12.1038      0.00000

 k-point     6 :      -0.3750    0.3750    0.1250
  band No.  band energies     occupation 
      1      -2.6615      2.00000
      2      -1.0999      2.00000
      3       1.7707      2.00000
      4       2.8715      2.00000
      5       8.2195      0.00000
      6      10.1118      0.00000
      7      11.1117      0.00000
      8      13.2747      0.00000

 k-point     7 :      -0.1250    0.3750    0.1250
  band No.  band energies     occupation 
      1      -3.9122      2.00000
      2      -0.0093      2.00000
      3       2.5104      2.00000
      4       3.9022      2.00000
      5       8.7095      0.00000
      6       9.3868      0.00000
      7      10.8523      0.00000
      8      11.7703      0.00000

 k-point     8 :      -0.3750   -0.3750    0.1250
  band No.  band energies     occupation 
      1      -2.8378      2.00000
      2      -0.9979      2.00000
      3       2.3956      2.00000
      4       3.1491      2.00000
      5       6.7245      0.00002
      6       7.7979      0.00000
      7      14.1021      0.00000
      8      14.1910      0.00000

 k-point     9 :       0.3750    0.3750    0.3750
  band No.  band energies     occupation 
      1      -4.4367      2.00000
      2      -0.1156      2.00000
      3       4.7444      2.00000
      4       4.7444      2.00000
      5       7.4992      0.00000
      6       9.2843      0.00000
      7       9.2843      0.00000
      8      13.7119      0.00000

 k-point    10 :      -0.3750    0.3750    0.3750
  band No.  band energies     occupation 
      1      -3.2072      2.00000
      2      -0.8092      2.00000
      3       1.8384      2.00000
      4       3.9452      2.00000
      5       7.6757      0.00000
      6      11.2969      0.00000
      7      11.3147      0.00000
      8      12.7948      0.00000


--------------------------------------------------------------------------------------------------------


 soft charge-density along one line, spin component           1
         0         1         2         3         4         5         6         7         8         9
 total charge-density along one line
 
 pseudopotential strength for first ion, spin component:           1
 18.414  -0.001  -0.000  -0.000  -0.000   0.000   0.000   0.000
 -0.001   0.006   0.000   0.000   0.000  -0.000  -0.000  -0.000
 -0.000   0.000   4.178  -0.000  -0.000  -0.005   0.000   0.000
 -0.000   0.000  -0.000   4.178  -0.000   0.000  -0.005   0.000
 -0.000   0.000  -0.000  -0.000   4.178   0.000   0.000  -0.005
  0.000  -0.000  -0.005   0.000   0.000   0.005  -0.000  -0.000
  0.000  -0.000   0.000  -0.005   0.000  -0.000   0.005  -0.000
  0.000  -0.000   0.000   0.000  -0.005  -0.000  -0.000   0.005
 total augmentation occupancy for first ion, spin component:           1
  1.491  -0.794  -0.000  -0.000   0.000   0.000   0.000  -0.000
 -0.794   0.790   0.000   0.000   0.000   0.000   0.000   0.000
 -0.000   0.000   1.031  -0.000   0.000  -0.572   0.000  -0.000
 -0.000   0.000  -0.000   1.031   0.000   0.000  -0.572  -0.000
  0.000   0.000   0.000   0.000   1.031  -0.000  -0.000  -0.572
  0.000   0.000  -0.572   0.000  -0.000   0.374  -0.000   0.000
  0.000   0.000   0.000  -0.572  -0.000  -0.000   0.374   0.000
 -0.000   0.000  -0.000  -0.000  -0.572   0.000   0.000   0.374


------------------------ aborting loop because EDIFF is reached ----------------------------------------


    CHARGE:  cpu time    0.0200: real time    0.0200
    FORLOC:  cpu time    0.0000: real time    0.0009
    FORNL :  cpu time    0.0080: real time    0.0097
    STRESS:  cpu time    0.0640: real time    0.0629
    FORCOR:  cpu time    0.0200: real time    0.0223
    FORHAR:  cpu time    0.0080: real time    0.0056
    MIXING:  cpu time    0.0000: real time    0.0015
    OFIELD:  cpu time    0.0000: real time    0.0005

  FORCE on cell =-STRESS in cart. coord.  units (eV):
  Direction    XX          YY          ZZ          XY          YZ          ZX
  --------------------------------------------------------------------------------------
  Alpha Z     3.36414     3.36414     3.36414
  Ewald     -76.18788   -76.18788   -76.18788    -0.00000    -0.00000     0.00000
  Hartree     4.97493     4.97493     4.97493     0.00000     0.00000     0.00000
  E(xc)     -25.37065   -25.37065   -25.37065    -0.00000    -0.00000    -0.00000
  Local     -29.24215   -29.24215   -29.24215     0.00004     0.00004     0.00004
  n-local    76.88798    80.11278    76.57311     0.57320    -1.51506     0.08630
  augment   -11.64956   -11.64956   -11.64956    -0.00003    -0.00003    -0.00003
  Kinetic    57.56202    56.34011    56.31946     0.04137    -1.38847     0.05663
  Fock        0.00000     0.00000     0.00000     0.00000     0.00000     0.00000
  -------------------------------------------------------------------------------------
  Total       0.48733     0.48733     0.48733     0.00000     0.00000    -0.00000
  in kB      19.50704    19.50704    19.50704     0.00000     0.00000    -0.00000
  external pressure =       19.51 kB  Pullay stress =        0.00 kB


 VOLUME and BASIS-vectors are now :
 -----------------------------------------------------------------------------
  energy-cutoff  :      350.00
  volume of cell :       40.03
      direct lattice vectors                 reciprocal lattice vectors
     0.000000000  2.715000000  2.715000000    -0.184162063  0.184162063  0.184162063
     2.715000000  0.000000000  2.715000000     0.184162063 -0.184162063  0.184162063
     2.715000000  2.715000000  0.000000000     0.184162063  0.184162063 -0.184162063

  length of vectors
     3.839589822  3.839589822  3.839589822     0.318978049  0.318978049  0.318978049


 FORCES acting on ions
    electron-ion (+dipol)            ewald-force                    non-local-force                 convergence-correction
 -----------------------------------------------------------------------------------------------
   0.132E-05 0.132E-05 0.136E-05   -.476E-15 -.149E-14 0.391E-14   0.204E-16 -.230E-16 -.998E-17   -.422E-06 -.422E-06 -.422E-06
   -.132E-05 -.132E-05 -.136E-05   0.623E-15 0.106E-14 -.375E-14   -.209E-16 0.224E-16 0.489E-18   0.422E-06 0.422E-06 0.422E-06
 -----------------------------------------------------------------------------------------------
   -.470E-13 -.804E-13 -.668E-13   0.147E-15 -.426E-15 0.164E-15   -.573E-18 -.573E-18 -.949E-17   -.689E-14 -.403E-14 0.133E-14
 
 
 POSITION                                       TOTAL-FORCE (eV/Angst)
 -----------------------------------------------------------------------------------
      2.71500      2.71500      2.71500         0.000000      0.000000      0.000000
      4.07250      4.07250      4.07250        -0.000000     -0.000000     -0.000000
 -----------------------------------------------------------------------------------
    total drift:                               -0.000000     -0.000000     -0.000000


--------------------------------------------------------------------------------------------------------



  FREE ENERGIE OF THE ION-ELECTRON SYSTEM (eV)
  ---------------------------------------------------
  free  energy   TOTEN  =       -10.83984414 eV

  energy  without entropy=      -10.83984139  energy(sigma->0) =      -10.83984276
 


--------------------------------------------------------------------------------------------------------


    POTLOK:  cpu time    0.0440: real time    0.0518


--------------------------------------------------------------------------------------------------------




--------------------------------------------------------------------------------------------------------


    WAVPRE:  cpu time    0.9720: real time    1.3945
    FEWALD:  cpu time    0.0000: real time    0.0008
    GENKIN:  cpu time    0.0080: real time    0.0072
    ORTHCH:  cpu time    0.0080: real time    0.0084
     LOOP+:  cpu time    2.9520: real time    3.4975


--------------------------------------- Iteration      2(   1)  ---------------------------------------


    POTLOK:  cpu time    0.0280: real time    0.0437
    SETDIJ:  cpu time    0.0080: real time    0.0088
     EDDAV:  cpu time    0.1640: real time    0.1622
       DOS:  cpu time    0.0000: real time    0.0016
    CHARGE:  cpu time    0.0200: real time    0.0201
    MIXING:  cpu time    0.0040: real time    0.0016
    --------------------------------------------
      LOOP:  cpu time    0.2240: real time    0.2388

 eigenvalue-minimisations  :   200
 total energy-change (2. order) :-0.9408019E-02  (-0.2615547E-01)
 number of electron       7.9999992 magnetization 
 augmentation part       -0.4609396 magnetization 

 Broyden mixing:
  rms(total) = 0.32379E-01    rms(broyden)= 0.32375E-01
  rms(prec ) = 0.11753E+00
  weight for this iteration     100.00

 Free energy of the ion-electron system (eV)
  ---------------------------------------------------
  alpha Z        PSCENC =         3.24824132
  Ewald energy   TEWEN  =      -225.90798391
  -Hartree energ DENC   =       -14.75427249
  -exchange      EXHF   =         0.00000000
  -V(xc)+E(xc)   XCENC  =       -18.13113444
  PAW double counting   =        74.37224660      -39.41126229
  entropy T*S    EENTRO =        -0.00000058
  eigenvalues    EBANDS =         3.60375329
  atomic energy  EATOM  =       206.13125414
  Solvation  Ediel_sol  =         0.00000000
  ---------------------------------------------------
  free energy    TOTEN  =       -10.84915835 eV

  energy without entropy =      -10.84915777  energy(sigma->0) =      -10.84915806


--------------------------------------------------------------------------------------------------------




--------------------------------------- Iteration      2(   2)  ---------------------------------------


    POTLOK:  cpu time    0.0280: real time    0.0366
    SETDIJ:  cpu time    0.0080: real time    0.0087
     EDDAV:  cpu time    0.1640: real time    0.1624
       DOS:  cpu time    0.0000: real time    0.0016
    CHARGE:  cpu time    0.0200: real time    0.0201
    MIXING:  cpu time    0.0000: real time    0.0017
    --------------------------------------------
      LOOP:  cpu time    0.2200: real time    0.2311

 eigenvalue-minimisations  :   200
 total energy-change (2. order) : 0.4432110E-02  (-0.3674771E-03)
 number of electron       7.9999992 magnetization 
 augmentation part       -0.4599263 magnetization 

 Broyden mixing:
  rms(total) = 0.18560E-01    rms(broyden)= 0.18560E-01
  rms(prec ) = 0.67316E-01
  weight for this iteration     100.00

 eigenvalues of (default mixing * dielectric matrix)
  average eigenvalue GAMMA=   2.2928
  2.2928

 Free energy of the ion-electron system (eV)
  ---------------------------------------------------
  alpha Z        PSCENC =         3.24824132
  Ewald energy   TEWEN  =      -225.90798391
  -Hartree energ DENC   =       -15.00889555
  -exchange      EXHF   =         0.00000000
  -V(xc)+E(xc)   XCENC  =       -18.12305044
  PAW double counting   =        74.05165775      -39.08290478
  entropy T*S    EENTRO =        -0.00000085
  eigenvalues    EBANDS =         3.84695607
  atomic energy  EATOM  =       206.13125414
  Solvation  Ediel_sol  =         0.00000000
  ---------------------------------------------------
  free energy    TOTEN  =       -10.84472624 eV

  energy without entropy =      -10.84472539  energy(sigma->0) =      -10.84472581


--------------------------------------------------------------------------------------------------------




--------------------------------------- Iteration      2(   3)  ---------------------------------------


    POTLOK:  cpu time    0.0280: real time    0.0354
    SETDIJ:  cpu time    0.0120: real time    0.0088
     EDDAV:  cpu time    0.1680: real time    0.1688
       DOS:  cpu time    0.0000: real time    0.0017
    CHARGE:  cpu time    0.0200: real time    0.0200
    MIXING:  cpu time    0.0040: real time    0.0018
    --------------------------------------------
      LOOP:  cpu time    0.2320: real time    0.2370

 eigenvalue-minimisations  :   208
 total energy-change (2. order) : 0.2324744E-02  (-0.4705992E-03)
 number of electron       7.9999992 magnetization 
 augmentation part       -0.4578846 magnetization 

 Broyden mixing:
  rms(total) = 0.23316E-02    rms(broyden)= 0.23315E-02
  rms(prec ) = 0.52957E-02
  weight for this iteration     100.00

 eigenvalues of (default mixing * dielectric matrix)
  average eigenvalue GAMMA=   2.0939
  1.8706  2.3172

 Free energy of the ion-electron system (eV)
  ---------------------------------------------------
  alpha Z        PSCENC =         3.24824132
  Ewald energy   TEWEN  =      -225.90798391
  -Hartree energ DENC   =       -15.34477101
  -exchange      EXHF   =         0.00000000
  -V(xc)+E(xc)   XCENC  =       -18.11594570
  PAW double counting   =        73.44706146      -38.46288165
  entropy T*S    EENTRO =        -0.00000134
  eigenvalues    EBANDS =         4.16262519
  atomic energy  EATOM  =       206.13125414
  Solvation  Ediel_sol  =         0.00000000
  ---------------------------------------------------
  free energy    TOTEN  =       -10.84240149 eV

  energy without entropy =      -10.84240015  energy(sigma->0) =      -10.84240082


--------------------------------------------------------------------------------------------------------




--------------------------------------- Iteration      2(   4)  ---------------------------------------


    POTLOK:  cpu time    0.0280: real time    0.0560
    SETDIJ:  cpu time    0.0080: real time    0.0087
     EDDAV:  cpu time    0.0800: real time    0.0819
       DOS:  cpu time    0.0040: real time    0.0020
    --------------------------------------------
      LOOP:  cpu time    0.1200: real time    0.1504

 eigenvalue-minimisations  :    80
 total energy-change (2. order) : 0.1112888E-04  (-0.4895590E-05)
 number of electron       7.9999992 magnetization 
 augmentation part       -0.4578846 magnetization 

 Free energy of the ion-electron system (eV)
  ---------------------------------------------------
  alpha Z        PSCENC =         3.24824132
  Ewald energy   TEWEN  =      -225.90798391
  -Hartree energ DENC   =       -15.34105460
  -exchange      EXHF   =         0.00000000
  -V(xc)+E(xc)   XCENC  =       -18.11916057
  PAW double counting   =        73.29284437      -38.30246702
  entropy T*S    EENTRO =        -0.00000131
  eigenvalues    EBANDS =         4.15593721
  atomic energy  EATOM  =       206.13125414
  Solvation  Ediel_sol  =         0.00000000
  ---------------------------------------------------
  free energy    TOTEN  =       -10.84239036 eV

  energy without entropy =      -10.84238906  energy(sigma->0) =      -10.84238971


--------------------------------------------------------------------------------------------------------




 average (electrostatic) potential at core
  the test charge radii are     0.9892
  (the norm of the test charge is              1.0000)
       1 -83.6336       2 -83.6336
 
 
 
 E-fermi :   5.8136     XC(G=0):  -9.2742     alpha+bet :-11.5716


 k-point     1 :       0.1250    0.1250    0.1250
  band No.  band energies     occupation 
      1      -6.0434      2.00000
      2       3.8942      2.00000
      3       5.2037      1.99998
      4       5.2037      1.99998
      5       7.8821      0.00000
      6       8.4441      0.00000
      7       8.4441      0.00000
      8       9.8990      0.00000

 k-point     2 :       0.3750    0.1250    0.1250
  band No.  band energies     occupation 
      1      -5.0300      2.00000
      2       0.9257      2.00000
      3       3.2423      2.00000
      4       4.7278      2.00000
      5       8.0943      0.00000
      6       9.1335      0.00000
      7       9.3050      0.00000
      8      11.6355      0.00000

 k-point     3 :      -0.3750    0.1250    0.1250
  band No.  band energies     occupation 
      1      -3.9094      2.00000
      2      -1.1218      2.00000
      3       3.2567      2.00000
      4       3.9682      2.00000
      5       7.6224      0.00000
      6       8.9557      0.00000
      7       9.5723      0.00000
      8      12.7451      0.00000

 k-point     4 :      -0.1250    0.1250    0.1250
  band No.  band energies     occupation 
      1      -5.5221      2.00000
      2       2.2850      2.00000
      3       4.2110      2.00000
      4       4.2669      2.00000
      5       7.6244      0.00000
      6       9.0502      0.00000
      7       9.8840      0.00000
      8      10.2131      0.00000

 k-point     5 :       0.3750    0.3750    0.1250
  band No.  band energies     occupation 
      1      -4.5038      2.00000
      2       0.5801      2.00000
      3       2.9015      2.00000
      4       3.3483      2.00000
      5       6.8656      0.00000
      6       8.3900      0.00000
      7      11.3340      0.00000
      8      11.6513      0.00000

 k-point     6 :      -0.3750    0.3750    0.1250
  band No.  band energies     occupation 
      1      -2.8885      2.00000
      2      -1.3609      2.00000
      3       1.5706      2.00000
      4       2.6314      2.00000
      5       7.8816      0.00000
      6       9.7446      0.00000
      7      10.6536      0.00000
      8      12.7776      0.00000

 k-point     7 :      -0.1250    0.3750    0.1250
  band No.  band energies     occupation 
      1      -4.0951      2.00000
      2      -0.2748      2.00000
      3       2.2656      2.00000
      4       3.6194      2.00000
      5       8.3367      0.00000
      6       8.9965      0.00000
      7      10.4337      0.00000
      8      11.3264      0.00000

 k-point     8 :      -0.3750   -0.3750    0.1250
  band No.  band energies     occupation 
      1      -3.0508      2.00000
      2      -1.2666      2.00000
      3       2.1710      2.00000
      4       2.8871      2.00000
      5       6.4359      0.00001
      6       7.4785      0.00000
      7      13.5986      0.00000
      8      13.6322      0.00000

 k-point     9 :       0.3750    0.3750    0.3750
  band No.  band energies     occupation 
      1      -4.6040      2.00000
      2      -0.3429      2.00000
      3       4.4252      2.00000
      4       4.4252      2.00000
      5       7.0286      0.00000
      6       8.9373      0.00000
      7       8.9373      0.00000
      8      13.2863      0.00000

 k-point    10 :      -0.3750    0.3750    0.3750
  band No.  band energies     occupation 
      1      -3.4196      2.00000
      2      -1.0515      2.00000
      3       1.6230      2.00000
      4       3.6561      2.00000
      5       7.3445      0.00000
      6      10.8427      0.00000
      7      10.9016      0.00000
      8      12.3190      0.00000


--------------------------------------------------------------------------------------------------------


 soft charge-density along one line, spin component           1
         0         1         2         3         4         5         6         7         8         9
 total charge-density along one line
 
 pseudopotential strength for first ion, spin component:           1
 18.453  -0.001  -0.000  -0.000  -0.000   0.000   0.000   0.000
 -0.001   0.006   0.000   0.000   0.000  -0.000  -0.000  -0.000
 -0.000   0.000   4.182  -0.000  -0.000  -0.004   0.000   0.000
 -0.000   0.000  -0.000   4.182  -0.000   0.000  -0.004   0.000
 -0.000   0.000  -0.000  -0.000   4.182   0.000   0.000  -0.004
  0.000  -0.000  -0.004   0.000   0.000   0.005  -0.000  -0.000
  0.000  -0.000   0.000  -0.004   0.000  -0.000   0.005  -0.000
  0.000  -0.000   0.000   0.000  -0.004  -0.000  -0.000   0.005
 total augmentation occupancy for first ion, spin component:           1
  1.497  -0.736  -0.000  -0.000   0.000   0.000   0.000   0.000
 -0.736   0.714  -0.000  -0.000   0.000   0.000   0.000   0.000
 -0.000   0.000   1.008  -0.000   0.000  -0.547   0.000  -0.000
 -0.000  -0.000  -0.000   1.008   0.000   0.000  -0.547  -0.000
 -0.000  -0.000   0.000   0.000   1.008  -0.000  -0.000  -0.547
  0.000   0.000  -0.547   0.000  -0.000   0.350  -0.000   0.000
  0.000   0.000   0.000  -0.547  -0.000  -0.000   0.350   0.000
  0.000   0.000  -0.000  -0.000  -0.547   0.000   0.000   0.350


------------------------ aborting loop because EDIFF is reached ----------------------------------------


    CHARGE:  cpu time    0.0200: real time    0.0211
    FORLOC:  cpu time    0.0000: real time    0.0009
    FORNL :  cpu time    0.0120: real time    0.0091
    STRESS:  cpu time    0.0600: real time    0.0620
    FORCOR:  cpu time    0.0240: real time    0.0220
    FORHAR:  cpu time    0.0040: real time    0.0053
    MIXING:  cpu time    0.0000: real time    0.0014
    OFIELD:  cpu time    0.0000: real time    0.0004

  FORCE on cell =-STRESS in cart. coord.  units (eV):
  Direction    XX          YY          ZZ          XY          YZ          ZX
  --------------------------------------------------------------------------------------
  Alpha Z     3.24824     3.24824     3.24824
  Ewald     -75.30270   -75.30270   -75.30270    -0.00000    -0.00000     0.00000
  Hartree     5.11463     5.11463     5.11463     0.00000     0.00000     0.00000
  E(xc)     -25.17060   -25.17060   -25.17060    -0.00000    -0.00000    -0.00000
  Local     -29.73370   -29.73370   -29.73370     0.00004     0.00004     0.00004
  n-local    76.24981    79.46290    75.95608     0.54944    -1.46509     0.07745
  augment   -11.64102   -11.64102   -11.64102    -0.00003    -0.00003    -0.00003
  Kinetic    56.61933    55.79021    55.41162     0.08931    -1.41542     0.06022
  Fock        0.00000     0.00000     0.00000     0.00000     0.00000     0.00000
  -------------------------------------------------------------------------------------
  Total      -0.32182    -0.32182    -0.32182    -0.00000     0.00000     0.00000
  in kB     -12.43807   -12.43807   -12.43807    -0.00000     0.00000     0.00000
  external pressure =      -12.44 kB  Pullay stress =        0.00 kB


 VOLUME and BASIS-vectors are now :
 -----------------------------------------------------------------------------
  energy-cutoff  :      350.00
  volume of cell :       41.45
      direct lattice vectors                 reciprocal lattice vectors
     0.000000000  2.746914737  2.746914737    -0.182022395  0.182022395  0.182022395
     2.746914737  0.000000000  2.746914737     0.182022395 -0.182022395  0.182022395
     2.746914737  2.746914737 -0.000000000     0.182022395  0.182022395 -0.182022395

  length of vectors
     3.884724076  3.884724076  3.884724076     0.315272037  0.315272037  0.315272037


 FORCES acting on ions
    electron-ion (+dipol)            ewald-force                    non-local-force                 convergence-correction
 -----------------------------------------------------------------------------------------------
   0.169E-05 0.169E-05 0.172E-05   -.211E-15 0.156E-14 0.306E-14   0.625E-17 -.242E-17 0.846E-17   0.157E-08 0.157E-08 0.158E-08
   -.169E-05 -.169E-05 -.172E-05   0.220E-15 -.122E-14 -.260E-14   -.561E-17 -.214E-17 -.426E-17   -.157E-08 -.157E-08 -.158E-08
 -----------------------------------------------------------------------------------------------
   -.748E-13 -.105E-12 -.603E-13   0.839E-17 0.337E-15 0.468E-15   0.642E-18 -.456E-17 0.420E-17   -.220E-14 -.884E-15 -.399E-14
 
 
 POSITION                                       TOTAL-FORCE (eV/Angst)
 -----------------------------------------------------------------------------------
      2.74691      2.74691      2.74691        -0.000000     -0.000000     -0.000000
      4.12037      4.12037      4.12037         0.000000      0.000000      0.000000
 -----------------------------------------------------------------------------------
    total drift:                               -0.000000     -0.000000     -0.000000


--------------------------------------------------------------------------------------------------------



  FREE ENERGIE OF THE ION-ELECTRON SYSTEM (eV)
  ---------------------------------------------------
  free  energy   TOTEN  =       -10.84239036 eV

  energy  without entropy=      -10.84238906  energy(sigma->0) =      -10.84238971
 
 d Force = 0.0000000E+00[ 0.000E+00, 0.000E+00]  d Energy = 0.2546230E-02-0.255E-02
 d Force = 0.0000000E+00[ 0.000E+00, 0.000E+00]  d Ewald  =-0.2655541E+01 0.266E+01


--------------------------------------------------------------------------------------------------------


    POTLOK:  cpu time    0.0440: real time    0.0572


--------------------------------------------------------------------------------------------------------


 Steepest descent step on ions:
 trial-energy change:   -0.002546  1 .order   -0.002918   -0.017186    0.011349
  (g-gl).g = 0.172E-01      g.g   = 0.172E-01  gl.gl    = 0.000E+00
 g(Force)  = 0.433E-45   g(Stress)= 0.172E-01 ortho     = 0.000E+00
 gamma     =   0.00000
 trial     =   1.00000
 opt step  =   0.60228  (harmonic =   0.60228) maximal distance =0.00000000
 next E    =   -10.845019   (d E  =  -0.00518)


--------------------------------------------------------------------------------------------------------


    WAVPRE:  cpu time    0.0120: real time    0.0261
    FEWALD:  cpu time    0.0000: real time    0.0007
    GENKIN:  cpu time    0.0080: real time    0.0072
    ORTHCH:  cpu time    0.0120: real time    0.0086
     LOOP+:  cpu time    1.0320: real time    1.1847


--------------------------------------- Iteration      3(   1)  ---------------------------------------


    POTLOK:  cpu time    0.0280: real time    0.0334
    SETDIJ:  cpu time    0.0080: real time    0.0088
     EDDAV:  cpu time    0.1560: real time    0.1560
       DOS:  cpu time    0.0000: real time    0.0017
    CHARGE:  cpu time    0.0240: real time    0.0208
    MIXING:  cpu time    0.0000: real time    0.0016
    --------------------------------------------
      LOOP:  cpu time    0.2160: real time    0.2230

 eigenvalue-minimisations  :   192
 total energy-change (2. order) :-0.3421790E-02  (-0.4230314E-02)
 number of electron       7.9999992 magnetization 
 augmentation part       -0.4568710 magnetization 

 Broyden mixing:
  rms(total) = 0.13096E-01    rms(broyden)= 0.13094E-01
  rms(prec ) = 0.47392E-01
  weight for this iteration     100.00

 Free energy of the ion-electron system (eV)
  ---------------------------------------------------
  alpha Z        PSCENC =         3.29369032
  Ewald energy   TEWEN  =      -226.95673343
  -Hartree energ DENC   =       -15.41454895
  -exchange      EXHF   =         0.00000000
  -V(xc)+E(xc)   XCENC  =       -18.05250720
  PAW double counting   =        73.25276820      -38.26065324
  entropy T*S    EENTRO =        -0.00000235
  eigenvalues    EBANDS =         5.16090922
  atomic energy  EATOM  =       206.13125414
  Solvation  Ediel_sol  =         0.00000000
  ---------------------------------------------------
  free energy    TOTEN  =       -10.84582328 eV

  energy without entropy =      -10.84582094  energy(sigma->0) =      -10.84582211


--------------------------------------------------------------------------------------------------------




--------------------------------------- Iteration      3(   2)  ---------------------------------------


    POTLOK:  cpu time    0.0280: real time    0.0369
    SETDIJ:  cpu time    0.0080: real time    0.0087
     EDDAV:  cpu time    0.1640: real time    0.1635
       DOS:  cpu time    0.0040: real time    0.0015
    CHARGE:  cpu time    0.0200: real time    0.0206
    MIXING:  cpu time    0.0000: real time    0.0016
    --------------------------------------------
      LOOP:  cpu time    0.2240: real time    0.2329

 eigenvalue-minimisations  :   200
 total energy-change (2. order) : 0.7072064E-03  (-0.5970542E-04)
 number of electron       7.9999992 magnetization 
 augmentation part       -0.4572830 magnetization 

 Broyden mixing:
  rms(total) = 0.75095E-02    rms(broyden)= 0.75094E-02
  rms(prec ) = 0.27129E-01
  weight for this iteration     100.00

 eigenvalues of (default mixing * dielectric matrix)
  average eigenvalue GAMMA=   2.2982
  2.2982

 Free energy of the ion-electron system (eV)
  ---------------------------------------------------
  alpha Z        PSCENC =         3.29369032
  Ewald energy   TEWEN  =      -226.95673343
  -Hartree energ DENC   =       -15.31011704
  -exchange      EXHF   =         0.00000000
  -V(xc)+E(xc)   XCENC  =       -18.05574887
  PAW double counting   =        73.37891809      -38.38981394
  entropy T*S    EENTRO =        -0.00000204
  eigenvalues    EBANDS =         5.06343669
  atomic energy  EATOM  =       206.13125414
  Solvation  Ediel_sol  =         0.00000000
  ---------------------------------------------------
  free energy    TOTEN  =       -10.84511608 eV

  energy without entropy =      -10.84511404  energy(sigma->0) =      -10.84511506


--------------------------------------------------------------------------------------------------------




--------------------------------------- Iteration      3(   3)  ---------------------------------------


    POTLOK:  cpu time    0.0280: real time    0.0356
    SETDIJ:  cpu time    0.0080: real time    0.0087
     EDDAV:  cpu time    0.1200: real time    0.1178
       DOS:  cpu time    0.0000: real time    0.0015
    --------------------------------------------
      LOOP:  cpu time    0.1560: real time    0.1635

 eigenvalue-minimisations  :   136
 total energy-change (2. order) : 0.3641910E-03  (-0.7519473E-04)
 number of electron       7.9999992 magnetization 
 augmentation part       -0.4572830 magnetization 

 Free energy of the ion-electron system (eV)
  ---------------------------------------------------
  alpha Z        PSCENC =         3.29369032
  Ewald energy   TEWEN  =      -226.95673343
  -Hartree energ DENC   =       -15.17547000
  -exchange      EXHF   =         0.00000000
  -V(xc)+E(xc)   XCENC  =       -18.05819438
  PAW double counting   =        73.61929019      -38.63625456
  entropy T*S    EENTRO =        -0.00000170
  eigenvalues    EBANDS =         4.93766754
  atomic energy  EATOM  =       206.13125414
  Solvation  Ediel_sol  =         0.00000000
  ---------------------------------------------------
  free energy    TOTEN  =       -10.84475189 eV

  energy without entropy =      -10.84475019  energy(sigma->0) =      -10.84475104


--------------------------------------------------------------------------------------------------------




 average (electrostatic) potential at core
  the test charge radii are     0.9892
  (the norm of the test charge is              1.0000)
       1 -83.4788       2 -83.4788
 
 
 
 E-fermi :   5.9376     XC(G=0):  -9.3268     alpha+bet :-11.7336


 k-point     1 :       0.1250    0.1250    0.1250
  band No.  band energies     occupation 
      1      -5.9971      2.00000
      2       4.0280      2.00000
      3       5.3365      1.99998
      4       5.3365      1.99998
      5       8.0632      0.00000
      6       8.5922      0.00000
      7       8.5922      0.00000
      8      10.1531      0.00000

 k-point     2 :       0.3750    0.1250    0.1250
  band No.  band energies     occupation 
      1      -4.9708      2.00000
      2       1.0367      2.00000
      3       3.3518      2.00000
      4       4.8570      2.00000
      5       8.2763      0.00000
      6       9.2821      0.00000
      7       9.4567      0.00000
      8      11.8332      0.00000

 k-point     3 :      -0.3750    0.1250    0.1250
  band No.  band energies     occupation 
      1      -3.8315      2.00000
      2      -1.0404      2.00000
      3       3.3727      2.00000
      4       4.0863      2.00000
      5       7.7838      0.00000
      6       9.1098      0.00000
      7       9.7147      0.00000
      8      12.9270      0.00000

 k-point     4 :      -0.1250    0.1250    0.1250
  band No.  band energies     occupation 
      1      -5.4694      2.00000
      2       2.4127      2.00000
      3       4.3295      2.00000
      4       4.3934      2.00000
      5       7.7653      0.00000
      6       9.2454      0.00000
      7      10.0483      0.00000
      8      10.3611      0.00000

 k-point     5 :       0.3750    0.3750    0.1250
  band No.  band energies     occupation 
      1      -4.4384      2.00000
      2       0.7030      2.00000
      3       3.0035      2.00000
      4       3.4563      2.00000
      5       6.9915      0.00000
      6       8.5244      0.00000
      7      11.5303      0.00000
      8      11.8295      0.00000

 k-point     6 :      -0.3750    0.3750    0.1250
  band No.  band energies     occupation 
      1      -2.7991      2.00000
      2      -1.2581      2.00000
      3       1.6497      2.00000
      4       2.7260      2.00000
      5       8.0162      0.00000
      6       9.8911      0.00000
      7      10.8343      0.00000
      8      12.9747      0.00000

 k-point     7 :      -0.1250    0.3750    0.1250
  band No.  band energies     occupation 
      1      -4.0230      2.00000
      2      -0.1699      2.00000
      3       2.3619      2.00000
      4       3.7305      2.00000
      5       8.4853      0.00000
      6       9.1510      0.00000
      7      10.5995      0.00000
      8      11.5011      0.00000

 k-point     8 :      -0.3750   -0.3750    0.1250
  band No.  band energies     occupation 
      1      -2.9668      2.00000
      2      -1.1608      2.00000
      3       2.2595      2.00000
      4       2.9898      2.00000
      5       6.5515      0.00001
      6       7.6059      0.00000
      7      13.7974      0.00000
      8      13.8530      0.00000

 k-point     9 :       0.3750    0.3750    0.3750
  band No.  band energies     occupation 
      1      -4.5380      2.00000
      2      -0.2528      2.00000
      3       4.5504      2.00000
      4       4.5504      2.00000
      5       7.2150      0.00000
      6       9.0739      0.00000
      7       9.0739      0.00000
      8      13.4594      0.00000

 k-point    10 :      -0.3750    0.3750    0.3750
  band No.  band energies     occupation 
      1      -3.3360      2.00000
      2      -0.9557      2.00000
      3       1.7080      2.00000
      4       3.7695      2.00000
      5       7.4766      0.00000
      6      11.0239      0.00000
      7      11.0643      0.00000
      8      12.5062      0.00000


--------------------------------------------------------------------------------------------------------


 soft charge-density along one line, spin component           1
         0         1         2         3         4         5         6         7         8         9
 total charge-density along one line
 
 pseudopotential strength for first ion, spin component:           1
 18.436  -0.001  -0.000  -0.000  -0.000   0.000   0.000   0.000
 -0.001   0.006   0.000   0.000   0.000  -0.000  -0.000  -0.000
 -0.000   0.000   4.180  -0.000  -0.000  -0.004   0.000   0.000
 -0.000   0.000  -0.000   4.180  -0.000   0.000  -0.004   0.000
 -0.000   0.000  -0.000  -0.000   4.180   0.000   0.000  -0.004
  0.000  -0.000  -0.004   0.000   0.000   0.005  -0.000  -0.000
  0.000  -0.000   0.000  -0.004   0.000  -0.000   0.005  -0.000
  0.000  -0.000   0.000   0.000  -0.004  -0.000  -0.000   0.005
 total augmentation occupancy for first ion, spin component:           1
  1.492  -0.775   0.000   0.000   0.000  -0.000   0.000   0.000
 -0.775   0.759   0.000  -0.000   0.000   0.000   0.000   0.000
  0.000   0.000   1.016  -0.000   0.000  -0.560  -0.000   0.000
  0.000   0.000  -0.000   1.016  -0.000   0.000  -0.560  -0.000
  0.000   0.000  -0.000   0.000   1.016   0.000  -0.000  -0.560
 -0.000   0.000  -0.560  -0.000   0.000   0.363   0.000   0.000
  0.000   0.000   0.000  -0.560  -0.000   0.000   0.363  -0.000
  0.000   0.000  -0.000  -0.000  -0.560  -0.000  -0.000   0.363


------------------------ aborting loop because EDIFF is reached ----------------------------------------


    CHARGE:  cpu time    0.0200: real time    0.0198
    FORLOC:  cpu time    0.0000: real time    0.0009
    FORNL :  cpu time    0.0080: real time    0.0092
    STRESS:  cpu time    0.0640: real time    0.0615
    FORCOR:  cpu time    0.0200: real time    0.0219
    FORHAR:  cpu time    0.0080: real time    0.0053
    MIXING:  cpu time    0.0000: real time    0.0013
    OFIELD:  cpu time    0.0000: real time    0.0011

  FORCE on cell =-STRESS in cart. coord.  units (eV):
  Direction    XX          YY          ZZ          XY          YZ          ZX
  --------------------------------------------------------------------------------------
  Alpha Z     3.29369     3.29369     3.29369
  Ewald     -75.65228   -75.65228   -75.65228     0.00000     0.00000    -0.00000
  Hartree     5.05949     5.05949     5.05949     0.00000     0.00000     0.00000
  E(xc)     -25.25159   -25.25159   -25.25159    -0.00000    -0.00000    -0.00000
  Local     -29.53760   -29.53760   -29.53760     0.00004     0.00004     0.00004
  n-local    76.49032    79.70886    76.18816     0.55893    -1.48428     0.08112
  augment   -11.64034   -11.64034   -11.64034    -0.00003    -0.00003    -0.00003
  Kinetic    56.98646    56.00706    55.76490     0.07163    -1.40475     0.05874
  Fock        0.00000     0.00000     0.00000     0.00000     0.00000     0.00000
  -------------------------------------------------------------------------------------
  Total      -0.01338    -0.01338    -0.01338     0.00000     0.00000    -0.00000
  in kB      -0.52426    -0.52426    -0.52426     0.00000     0.00000    -0.00000
  external pressure =       -0.52 kB  Pullay stress =        0.00 kB


 VOLUME and BASIS-vectors are now :
 -----------------------------------------------------------------------------
  energy-cutoff  :      350.00
  volume of cell :       40.88
      direct lattice vectors                 reciprocal lattice vectors
     0.000000000  2.734221456  2.734221456    -0.182867411  0.182867411  0.182867411
     2.734221456  0.000000000  2.734221456     0.182867411 -0.182867411  0.182867411
     2.734221456  2.734221456 -0.000000000     0.182867411  0.182867411 -0.182867411

  length of vectors
     3.866773066  3.866773066  3.866773066     0.316735648  0.316735648  0.316735648


 FORCES acting on ions
    electron-ion (+dipol)            ewald-force                    non-local-force                 convergence-correction
 -----------------------------------------------------------------------------------------------
   0.158E-05 0.158E-05 0.161E-05   -.735E-14 0.114E-13 -.373E-14   -.242E-17 0.236E-16 0.103E-17   -.868E-08 -.868E-08 -.868E-08
   -.158E-05 -.158E-05 -.161E-05   0.705E-14 -.112E-13 0.402E-14   0.113E-17 -.214E-16 -.192E-18   0.868E-08 0.868E-08 0.868E-08
 -----------------------------------------------------------------------------------------------
   -.493E-13 -.785E-13 -.663E-13   -.297E-15 0.193E-15 0.290E-15   -.129E-17 0.218E-17 0.836E-18   -.655E-14 -.261E-14 0.123E-14
 
 
 POSITION                                       TOTAL-FORCE (eV/Angst)
 -----------------------------------------------------------------------------------
      2.73422      2.73422      2.73422        -0.000000     -0.000000     -0.000000
      4.10133      4.10133      4.10133         0.000000      0.000000      0.000000
 -----------------------------------------------------------------------------------
    total drift:                               -0.000000     -0.000000     -0.000000


--------------------------------------------------------------------------------------------------------



  FREE ENERGIE OF THE ION-ELECTRON SYSTEM (eV)
  ---------------------------------------------------
  free  energy   TOTEN  =       -10.84475189 eV

  energy  without entropy=      -10.84475019  energy(sigma->0) =      -10.84475104
 
 d Force = 0.0000000E+00[ 0.000E+00, 0.000E+00]  d Energy = 0.2361521E-02-0.236E-02
 d Force = 0.0000000E+00[ 0.000E+00, 0.000E+00]  d Ewald  = 0.1048750E+01-0.105E+01


--------------------------------------------------------------------------------------------------------


    POTLOK:  cpu time    0.0400: real time    0.0493


--------------------------------------------------------------------------------------------------------




--------------------------------------------------------------------------------------------------------


  
 reached required accuracy - stopping structural energy minimisation
 writing wavefunctions
     LOOP+:  cpu time    0.8480: real time    0.9925
    4ORBIT:  cpu time    0.0000: real time    0.0000

 total amount of memory used by VASP MPI-rank0    31321. kBytes
=======================================================================

   base      :      30000. kBytes
   nonl-proj :        408. kBytes
   fftplans  :        247. kBytes
   grid      :        561. kBytes
   one-center:          6. kBytes
   wavefun   :         99. kBytes
 
  
  
 General timing and accounting informations for this job:
 ========================================================
  
                  Total CPU time used (sec):        9.552
                            User time (sec):        7.468
                          System time (sec):        2.084
                         Elapsed time (sec):       14.685
  
                   Maximum memory used (kb):        9756.
                   Average memory used (kb):           0.
  
                          Minor page faults:        38185
                          Major page faults:           25
                 Voluntary context switches:        37381
