unknown system                          
   1.00000000000000     
    -2.188468    2.188468    1.417088
     2.188468   -2.188468    1.417088
     2.188468    2.188468   -1.417088
   Si
     2
Direct
  0.250000  0.750000  0.500000
  0.000000  0.000000  0.000000
 
   24   24   24
 -5.4888     -3.4780      1.5241      7.0858      10.862      11.855      10.660      8.6979      6.8815      5.4839    
  4.5601      4.0542      3.8954      4.0543      4.5601      5.4839      6.8815      8.6979      10.660      11.855    
  10.862      7.0857      1.5240     -3.4781     -3.4781     -4.5361     -1.7784      3.3738      8.4393      11.376    
  11.625      10.078      8.1191      6.4120      5.1540      4.3598      3.9617      3.8954      4.1453      4.7527    
  5.7904      7.2972      9.1780      11.083      11.936      10.429      6.2936     0.85057      1.5240     -1.7785    
 -1.8990      1.2211      5.9394      9.9667      11.744      11.183      9.3788      7.4862      5.9259      4.8259    
  4.1663      3.8741      3.8955      4.2282      4.9224      6.0480      7.6239      9.5213      11.334      11.949    
  10.262      6.2936      7.0857      3.3737      1.2210      1.8216      4.8357      8.6081      11.250      11.778    
  10.524      8.6205      6.8461      5.4584      4.5222      3.9922      3.7972      3.8955      4.2967      5.0554    
  6.2342      7.8327      9.7001      11.417      11.949      10.429      10.862      8.4392      5.9394      4.8357    
  5.8161      8.2920      10.797      11.974      11.407      9.7211      7.8579      6.2435      5.0398      4.2610    
  3.8477      3.7356      3.8954      4.3455      5.1401      6.3318      7.9045      9.7001      11.334      11.936    
  11.855      11.376      9.9667      8.6081      8.2920      9.2931      10.946      12.121      12.026      10.710    
  8.8918      7.1465      5.7172      4.6936      4.0556      3.7400      3.6927      3.8954      4.3708      5.1692    
  6.3318      7.8327      9.5213      11.083      10.660      11.625      11.744      11.250      10.797      10.946    
  11.695      12.453      12.494      11.522      9.8791      8.1179      6.5376      5.2980      4.4363      3.9146    
  3.6736      3.6707      3.8953      4.3708      5.1401      6.2342      7.6239      9.1780      8.6979      10.078    
  11.183      11.778      11.974      12.121      12.454      12.834      12.839      12.124      10.748      9.0964    
  7.4690      6.0729      5.0075      4.2784      3.8430      3.6513      3.6707      3.8954      4.3455      5.0554    
  6.0480      7.2972      6.8815      8.1192      9.3788      10.524      11.407      12.026      12.494      12.839    
  12.899      12.441      11.410      10.004      8.4607      7.0030      5.7825      4.8591      4.2252      3.8430    
  3.6736      3.6927      3.8954      4.2967      4.9224      5.7904      5.4839      6.4120      7.4863      8.6206    
  9.7211      10.710      11.522      12.124      12.441      12.344      11.757      10.737      9.4335      8.0474    
  6.7599      5.6838      4.8591      4.2784      3.9146      3.7400      3.7356      3.8955      4.2282      4.7527    
  4.5601      5.1540      5.9259      6.8462      7.8580      8.8919      9.8791      10.748      11.410      11.757    
  11.692      11.178      10.275      9.1252      7.9043      6.7599      5.7825      5.0075      4.4363      4.0556    
  3.8477      3.7972      3.8955      4.1453      4.0543      4.3598      4.8260      5.4584      6.2435      7.1466    
  8.1180      9.0965      10.004      10.737      11.178      11.228      10.853      10.110      9.1252      8.0474    
  7.0030      6.0729      5.2980      4.6936      4.2610      3.9922      3.8741      3.8954      3.8954      3.9618    
  4.1664      4.5223      5.0398      5.7172      6.5376      7.4690      8.4607      9.4335      10.275      10.853    
  11.061      10.853      10.275      9.4335      8.4607      7.4690      6.5376      5.7172      5.0398      4.5222    
  4.1663      3.9617      4.0542      3.8955      3.8742      3.9924      4.2611      4.6936      5.2980      6.0729    
  7.0030      8.0474      9.1253      10.110      10.853      11.228      11.178      10.737      10.004      9.0964    
  8.1179      7.1465      6.2435      5.4584      4.8259      4.3598      4.5601      4.1453      3.8955      3.7973    
  3.8479      4.0557      4.4364      5.0075      5.7825      6.7600      7.9043      9.1253      10.275      11.178    
  11.692      11.757      11.410      10.748      9.8791      8.8918      7.8579      6.8461      5.9259      5.1540    
  5.4839      4.7528      4.2283      3.8956      3.7357      3.7401      3.9147      4.2784      4.8591      5.6837    
  6.7600      8.0474      9.4335      10.737      11.757      12.344      12.441      12.124      11.522      10.710    
  9.7211      8.6205      7.4862      6.4120      6.8815      5.7905      4.9226      4.2968      3.8955      3.6928    
  3.6738      3.8431      4.2252      4.8591      5.7825      7.0030      8.4607      10.004      11.410      12.441    
  12.899      12.839      12.494      12.026      11.407      10.524      9.3788      8.1191      8.6979      7.2972    
  6.0481      5.0556      4.3457      3.8955      3.6708      3.6514      3.8431      4.2784      5.0075      6.0729    
  7.4690      9.0965      10.748      12.124      12.839      12.834      12.453      12.121      11.974      11.778    
  11.183      10.078      10.660      9.1780      7.6239      6.2343      5.1403      4.3710      3.8955      3.6708    
  3.6738      3.9147      4.4364      5.2980      6.5376      8.1180      9.8791      11.522      12.494      12.454    
  11.695      10.946      10.797      11.250      11.744      11.625      11.855      11.083      9.5213      7.8327    
  6.3319      5.1694      4.3710      3.8955      3.6928      3.7401      4.0557      4.6936      5.7172      7.1466    
  8.8919      10.710      12.026      12.121      10.946      9.2931      8.2920      8.6081      9.9667      11.376    
  10.862      11.936      11.334      9.7002      7.9045      6.3319      5.1403      4.3457      3.8955      3.7357    
  3.8479      4.2611      5.0398      6.2435      7.8580      9.7211      11.407      11.974      10.797      8.2920    
  5.8161      4.8357      5.9394      8.4393      7.0858      10.429      11.949      11.417      9.7002      7.8327    
  6.2343      5.0556      4.2968      3.8956      3.7973      3.9924      4.5223      5.4584      6.8462      8.6206    
  10.524      11.778      11.250      8.6081      4.8357      1.8216      1.2211      3.3738      1.5241      6.2936    
  10.262      11.949      11.334      9.5213      7.6239      6.0481      4.9226      4.2283      3.8955      3.8742    
  4.1664      4.8260      5.9259      7.4863      9.3788      11.183      11.744      9.9667      5.9394      1.2210    
 -1.8990     -1.7784     -3.4780     0.85071      6.2936      10.429      11.936      11.083      9.1780      7.2972    
  5.7905      4.7528      4.1453      3.8955      3.9618      4.3598      5.1540      6.4120      8.1192      10.078    
  11.625      11.376      8.4392      3.3737     -1.7785     -4.5361     -3.4780     -2.0422      2.2568      7.2683    
  10.774      11.724      10.572      8.6318      6.8080      5.3828      4.4217      3.8749      3.6707      3.7741    
  4.2069      5.0352      6.3213      8.0375      9.9711      11.421      11.052      8.1232      3.3250     -1.3072    
 -2.0424     -3.4781     -1.3071      3.3252      8.1232      11.052      11.421      9.9712      8.0376      6.3213    
  5.0352      4.2070      3.7742      3.6707      3.8747      4.4216      5.3828      6.8079      8.6317      10.572    
  11.724      10.774      7.2683      2.2567      2.3832     -1.1692     -1.7785     0.85144      5.2976      9.3406    
  11.321      10.975      9.2739      7.4028      5.8301      4.7034      4.0156      3.6976      3.6926      3.9932    
  4.6453      5.7211      7.2535      9.1414      11.041      11.942      10.670      7.0583      7.5840      3.6873    
  1.1084      1.2210      3.9138      7.6643      10.541      11.389      10.362      8.5325      6.7708      5.3677    
  4.4086      3.8591      3.6497      3.7356      4.1220      4.8622      6.0240      7.6215      9.5262      11.360    
  12.123      10.842      11.268      8.7125      5.8472      4.2563      4.8357      7.1777      9.8524      11.377    
  11.136      9.6147      7.7944      6.1821      4.9623      4.1676      3.7461      3.6335      3.7972      4.2529    
  5.0560      6.2660      7.8796      9.7526      11.514      12.271      12.341      11.805      10.129      8.3329    
  7.5647      8.2921      9.9615      11.399      11.644      10.568      8.8304      7.1066      5.6715      4.6355    
  3.9920      3.6820      3.6498      3.8741      4.3768      5.2111      6.4256      8.0035      9.7983      11.484    
  11.252      12.253      12.243      11.436      10.566      10.353      10.946      11.796      12.084      11.351    
  9.8174      8.0892      6.5137      5.2670      4.4021      3.8890      3.6693      3.6976      3.9616      4.4850    
  5.3147      6.4881      7.9803      9.6556      9.3336      10.815      11.931      12.382      12.287      12.090    
  12.159      12.454      12.543      11.978      10.696      9.0707      7.4523      6.0545      4.9893      4.2716    
  3.8616      3.7076      3.7742      4.0542      4.5693      5.3579      6.4473      7.8110      7.5106      8.8577    
  10.198      11.349      12.109      12.494      12.701      12.854      12.839      12.397      11.387      9.9776    
  8.4345      6.9762      5.7597      4.8520      4.2486      3.9102      3.7947      3.8748      4.1453      4.6229    
  5.3368      6.3069      6.0801      7.1064      8.2679      9.4562      10.553      11.449      12.087      12.490    
  12.644      12.441      11.780      10.710      9.3818      7.9875      6.7052      5.6498      4.8626      4.3340    
  4.0324      3.9260      3.9933      4.2283      4.6413      5.2535      5.1154      5.7878      6.6341      7.6131    
  8.6504      9.6586      10.560      11.288      11.781      11.962      11.757      11.145      10.184      9.0083    
  7.7880      6.6677      5.7354      5.0228      4.5253      4.2233      4.0948      4.1221      4.2968      4.6230    
  4.5695      4.9349      5.4555      6.1334      6.9461      7.8456      8.7693      9.6498      10.416      10.984    
  11.263      11.178      10.710      9.9177      8.9225      7.8681      6.8745      6.0167      5.3281      4.8161    
  4.4751      4.2924      4.2530      4.3457      4.3711      4.4853      4.7270      5.1100      5.6424      6.3164    
  7.1048      7.9655      8.8439      9.6680      10.344      10.768      10.853      10.573      9.9704      9.1489    
  8.2298      7.3169      6.4816      5.7664      5.1947      4.7761      4.5076      4.3769      4.4851      4.3710    
  4.3771      4.5078      4.7762      5.1947      5.7664      6.4817      7.3170      8.2298      9.1489      9.9704    
  10.573      10.853      10.768      10.344      9.6680      8.8439      7.9655      7.1047      6.3164      5.6425    
  5.1100      4.7269      4.9348      4.5694      4.3456      4.2531      4.2926      4.4752      4.8161      5.3281    
  6.0167      6.8746      7.8681      8.9225      9.9177      10.710      11.178      11.263      10.984      10.416    
  9.6499      8.7692      7.8455      6.9460      6.1334      5.4556      5.7879      5.1154      4.6229      4.2968    
  4.1222      4.0950      4.2234      4.5253      5.0228      5.7354      6.6677      7.7881      9.0083      10.184    
  11.145      11.757      11.961      11.780      11.288      10.560      9.6585      8.6502      7.6130      6.6342    
  7.1064      6.0802      5.2535      4.6413      4.2282      3.9933      3.9261      4.0325      4.3340      4.8626    
  5.6497      6.7052      7.9875      9.3818      10.710      11.780      12.441      12.644      12.490      12.087    
  11.449      10.553      9.4560      8.2677      8.8575      7.5106      6.3070      5.3369      4.6229      4.1453    
  3.8748      3.7948      3.9103      4.2486      4.8519      5.7596      6.9762      8.4345      9.9776      11.387    
  12.397      12.839      12.854      12.701      12.494      12.109      11.349      10.198      10.815      9.3334    
  7.8109      6.4474      5.3581      4.5694      4.0542      3.7742      3.7077      3.8617      4.2716      4.9892    
  6.0545      7.4524      9.0707      10.696      11.978      12.543      12.453      12.158      12.089      12.287    
  12.382      11.931      12.253      11.252      9.6555      7.9802      6.4882      5.3149      4.4852      3.9617    
  3.6977      3.6693      3.8890      4.4021      5.2669      6.5137      8.0892      9.8175      11.351      12.084    
  11.796      10.946      10.352      10.565      11.436      12.243      11.805      12.341      11.484      9.7983    
  8.0034      6.4257      5.2113      4.3770      3.8742      3.6498      3.6821      3.9921      4.6355      5.6714    
  7.1066      8.8305      10.568      11.644      11.399      9.9614      8.2920      7.5645      8.3326      10.128    
  8.7124      11.268      12.271      11.514      9.7526      7.8796      6.2660      5.0562      4.2531      3.7973    
  3.6335      3.7461      4.1676      4.9624      6.1821      7.7944      9.6147      11.136      11.376      9.8521    
  7.1776      4.8357      4.2563      5.8470      3.6873      7.5839      10.842      12.123      11.360      9.5263    
  7.6215      6.0241      4.8624      4.1222      3.7357      3.6498      3.8591      4.4086      5.3678      6.7708    
  8.5324      10.362      11.389      10.541      7.6640      3.9137      1.2211      1.1085     -1.1690      2.3833    
  7.0582      10.670      11.942      11.042      9.1415      7.2535      5.7212      4.6455      3.9934      3.6927    
  3.6976      4.0156      4.7034      5.8301      7.4027      9.2738      10.975      11.321      9.3405      5.2974    
 0.85132     -1.7784      1.5241      2.3833      5.4609      9.1118      11.554      11.922      10.596      8.6779    
  6.8883      5.4758      4.5035      3.9260      3.6736      3.7075      4.0412      4.7327      5.8462      7.3822    
  9.1951      10.870      11.378      9.9043      6.7329      3.3251      2.2567     0.85065      2.2568      5.6912    
  9.3233      11.446      11.444      9.9321      8.0440      6.3631      5.0889      4.2520      3.7947      3.6512    
  3.7946      4.2519      5.0890      6.3631      8.0438      9.9320      11.444      11.447      9.3234      5.6911    
  5.4608      2.3832      1.5240      3.3252      6.7331      9.9044      11.378      10.869      9.1952      7.3824    
  5.8462      4.7327      4.0413      3.7076      3.6736      3.9259      4.5035      5.4759      6.8883      8.6778    
  10.596      11.922      11.554      9.1119      9.4052      6.1413      3.6872      3.3738      5.2977      8.2634    
  10.597      11.217      10.187      8.4344      6.7366      5.3707      4.4280      3.8828      3.6692      3.7399    
  4.0947      4.7813      5.8681      7.3842      9.2371      11.141      12.320      11.797      12.182      10.164    
  7.5729      5.8471      5.9395      7.6644      9.8399      11.117      10.856      9.4223      7.6930      6.1447    
  4.9632      4.1909      3.7846      3.6820      3.8477      4.2924      5.0680      6.2369      7.8108      9.6752    
  11.531      12.636      12.831      12.621      11.184      9.3853      8.3328      8.6082      9.8524      11.045    
  11.255      10.271      8.6453      7.0115      5.6384      4.6439      4.0323      3.7513      3.7461      3.9922    
  4.5076      5.3435      6.5526      8.1303      9.9507      11.729      11.703      12.838      12.958      12.162    
  11.113      10.566      10.797      11.399      11.619      10.958      9.5421      7.9188      6.4274      5.2425    
  4.4264      3.9584      3.7846      3.8591      4.1663      4.7268      5.5871      6.7878      8.3118      10.033    
  9.9099      11.436      12.591      13.025      12.796      12.338      12.090      12.121      12.084      11.535    
  10.342      8.8147      7.2917      5.9740      4.9755      4.3193      3.9717      3.8829      4.0156      4.3598    
  4.9348      5.7787      6.9202      8.3356      8.1976      9.5872      10.942      12.060      12.713      12.894    
  12.824      12.701      12.494      11.978      10.989      9.6396      8.1818      6.8120      5.6783      4.8499    
  4.3264      4.0711      4.0414      4.2071      4.5601      5.1154      5.9013      6.9368      6.8355      7.9098    
  9.0929      10.262      11.281      12.024      12.436      12.575      12.490      12.124      11.387      10.308    
  9.0287      7.7126      6.5208      5.5609      4.8733      4.4480      4.2525      4.2520      4.4218      4.7528    
  5.2536      5.9435      5.9013      6.6261      7.4997      8.4719      9.4560      10.353      11.079      11.581    
  11.824      11.780      11.410      10.710      9.7348      8.6041      7.4655      6.4491      5.6344      5.0481    
  4.6808      4.5081      4.5035      4.6455      4.9227      5.3370      5.3582      5.7788      6.3286      7.0054    
  7.7795      8.5943      9.3796      10.068      10.602      10.925      10.984      10.737      10.184      9.3807    
  8.4374      7.4800      6.6140      5.9031      5.3712      5.0169      4.8265      4.7814      4.8624      5.0557    
  5.1404      5.3151      5.5873      5.9702      6.4702      7.0744      7.7498      8.4496      9.1210      9.7056    
  10.137      10.344      10.275      9.9177      9.3189      8.5690      7.7724      7.0173      6.3607      5.8322    
  5.4426      5.1913      5.0680      5.0562      5.2113      5.1695      5.2115      5.3437      5.5813      5.9368    
  6.4106      6.9881      7.6420      8.3327      9.0033      9.5779      9.9705      10.110      9.9704      9.5779    
  9.0034      8.3327      7.6419      6.9880      6.4106      5.9369      5.5813      5.3435      5.5871      5.3148    
  5.1403      5.0563      5.0681      5.1913      5.4425      5.8321      6.3608      7.0174      7.7724      8.5689    
  9.3189      9.9177      10.275      10.344      10.137      9.7057      9.1211      8.4496      7.7497      7.0744    
  6.4703      5.9704      6.3288      5.7787      5.3579      5.0555      4.8625      4.7815      4.8265      5.0168    
  5.3712      5.9032      6.6141      7.4800      8.4373      9.3806      10.184      10.737      10.984      10.925    
  10.602      10.068      9.3795      8.5941      7.7794      7.0055      7.4997      6.6263      5.9013      5.3368    
  4.9224      4.6455      4.5036      4.5082      4.6807      5.0480      5.6344      6.4491      7.4655      8.6041    
  9.7348      10.710      11.410      11.780      11.824      11.581      11.080      10.353      9.4558      8.4716    
  9.0927      7.9098      6.8356      5.9435      5.2533      4.7526      4.4217      4.2521      4.2525      4.4480    
  4.8732      5.5609      6.5208      7.7126      9.0287      10.308      11.387      12.124      12.490      12.575    
  12.436      12.024      11.281      10.262      10.942      9.5869      8.1974      6.9369      5.9013      5.1153    
  4.5599      4.2069      4.0414      4.0712      4.3264      4.8498      5.6783      6.8119      8.1818      9.6396    
  10.989      11.978      12.494      12.701      12.823      12.894      12.713      12.060      12.591      11.436    
  9.9096      8.3354      6.9202      5.7788      4.9348      4.3597      4.0155      3.8828      3.9717      4.3192    
  4.9754      5.9739      7.2917      8.8148      10.342      11.535      12.084      12.121      12.089      12.338    
  12.796      13.025      12.958      12.838      11.703      10.033      8.3116      6.7877      5.5872      4.7269    
  4.1662      3.8590      3.7846      3.9584      4.4264      5.2424      6.4274      7.9188      9.5421      10.958    
  11.619      11.399      10.797      10.565      11.112      12.162      11.184      12.621      12.831      11.729    
  9.9506      8.1302      6.5526      5.3436      4.5077      3.9923      3.7460      3.7513      4.0323      4.6439    
  5.6383      7.0114      8.6453      10.271      11.255      11.045      9.8522      8.6081      8.3327      9.3850    
  7.5727      10.164      12.182      12.637      11.531      9.6752      7.8107      6.2368      5.0680      4.2925    
  3.8478      3.6819      3.7845      4.1910      4.9632      6.1446      7.6929      9.4224      10.856      11.116    
  9.8395      7.6642      5.9395      5.8471      3.6874      6.1412      9.4051      11.796      12.320      11.141    
  9.2372      7.3841      5.8680      4.7814      4.0949      3.7400      3.6691      3.8828      4.4281      5.3707    
  6.7365      8.4343      10.187      11.217      10.597      8.2631      5.2976      3.3739      7.0860      7.5840    
  9.4051      11.472      12.585      12.201      10.681      8.8434      7.1442      5.7870      4.8265      4.2234    
  3.9145      3.8615      4.0711      4.5911      5.4823      6.7654      8.3571      10.028      11.225      11.208    
  9.9044      8.1235      7.2684      6.2937      7.0584      9.1119      11.208      12.156      11.562      9.9523    
  8.1529      6.5563      5.3323      4.5081      4.0324      3.8429      3.9101      4.2525      4.9266      5.9909    
  7.4445      9.1598      10.830      11.719      11.159      9.3234      9.1119      7.0582      6.2937      7.2685    
  9.3235      11.159      11.719      10.830      9.1600      7.4447      5.9909      4.9265      4.2525      3.9102    
  3.8429      4.0323      4.5081      5.3324      6.5563      8.1527      9.9522      11.562      12.157      11.208    
  11.472      9.4051      7.5839      7.0859      8.1235      9.9046      11.208      11.225      10.028      8.3572    
  6.7656      5.4823      4.5911      4.0711      3.8616      3.9145      4.2233      4.8265      5.7872      7.1442    
  8.8433      10.681      12.201      12.585      13.011      11.960      10.164      8.7124      8.4394      9.3409    
  10.597      11.191      10.625      9.1985      7.5902      6.1541      5.0568      4.3415      3.9717      3.8889    
  4.0556      4.4751      5.1914      6.2631      7.7134      9.4633      11.288      12.715      13.061      13.381    
  12.565      11.184      10.128      9.9668      10.541      11.117      10.965      9.9109      8.3961      6.8978    
  5.6401      4.7335      4.1880      3.9584      3.9920      4.2610      4.7761      5.5814      6.7268      8.2181    
  9.9580      11.717      11.919      13.181      13.593      13.097      12.162      11.436      11.250      11.377    
  11.255      10.479      9.1397      7.6630      6.3128      5.2459      4.5248      4.1362      4.0323      4.1676    
  4.5222      5.1099      5.9704      7.1413      8.6127      10.278      10.387      11.863      13.023      13.534    
  13.349      12.796      12.287      11.974      11.644      10.958      9.7991      8.4063      7.0372      5.8625    
  4.9873      4.4381      4.1880      4.1910      4.4087      4.8260      5.4555      6.3288      7.4701      8.8579    
  8.9271      10.268      11.543      12.566      13.130      13.179      12.894      12.494      12.026      11.350    
  10.342      9.0857      7.7707      6.5557      5.5689      4.8748      4.4765      4.3415      4.4282      4.7035    
  5.1541      5.7879      6.6262      7.6817      7.7547      8.8116      9.9295      10.985      11.841      12.387    
  12.564      12.436      12.087      11.522      10.696      9.6396      8.4599      7.2865      6.2519      5.4492    
  4.9147      4.6395      4.5911      4.7328      5.0355      5.4841      6.0802      6.8355      6.9367      7.6816    
  8.5221      9.4037      10.239      10.932      11.405      11.623      11.581      11.288      10.748      9.9774    
  9.0287      7.9971      7.0026      6.1530      5.5150      5.1093      4.9227      4.9265      5.0891      5.3830    
  5.7907      6.3070      6.4475      6.9201      7.4699      8.0878      8.7415      9.3753      9.9253      10.336    
  10.569      10.602      10.416      10.004      9.3817      8.6041      7.7613      6.9569      6.2772      5.7722    
  5.4557      5.3166      5.3323      5.4760      5.7214      6.0484      6.2345      6.4883      6.7877      7.1410    
  7.5511      8.0048      8.4725      8.9152      9.2932      9.5690      9.7057      9.6680      9.4334      9.0083    
  8.4373      7.7969      7.1719      6.6320      6.2182      5.9442      5.8054      5.7871      5.8681      6.0242    
  6.2661      6.3321      6.4259      6.5526      6.7265      6.9605      7.2571      7.6060      7.9873      8.3735    
  8.7278      9.0033      9.1489      9.1252      8.9225      8.5690      8.1226      7.6508      7.2105      6.8390    
  6.5552      6.3647      6.2630      6.2368      6.5525      6.4256      6.3320      6.2662      6.2369      6.2629    
  6.3645      6.5551      6.8391      7.2106      7.6507      8.1225      8.5690      8.9225      9.1252      9.1489    
  9.0034      8.7279      8.3735      7.9872      7.6059      7.2571      6.9608      6.7267      7.1412      6.7876    
  6.4880      6.2343      6.0242      5.8682      5.7871      5.8052      5.9441      6.2183      6.6321      7.1719    
  7.7968      8.4373      9.0083      9.4334      9.6679      9.7057      9.5692      9.2934      8.9152      8.4724    
  8.0048      7.5513      8.0880      7.4700      6.9201      6.4471      6.0480      5.7213      5.4761      5.3323    
  5.3165      5.4556      5.7723      6.2772      6.9569      7.7612      8.6040      9.3818      10.004      10.416    
  10.602      10.569      10.336      9.9253      9.3752      8.7413      9.4034      8.5221      7.6817      6.9367    
  6.3067      5.7903      5.3828      5.0891      4.9265      4.9226      5.1092      5.5150      6.1529      7.0025    
  7.9970      9.0286      9.9775      10.748      11.288      11.581      11.623      11.406      10.932      10.239    
  10.985      9.9292      8.8115      7.7548      6.8355      6.0800      5.4837      5.0352      4.7328      4.5911    
  4.6394      4.9146      5.4491      6.2519      7.2865      8.4598      9.6395      10.696      11.522      12.087    
  12.436      12.564      12.387      11.842      12.566      11.543      10.268      8.9269      7.6818      6.6262    
  5.7877      5.1538      4.7033      4.4281      4.3415      4.4764      4.8747      5.5688      6.5557      7.7707    
  9.0856      10.342      11.350      12.026      12.494      12.894      13.179      13.130      13.534      13.023    
  11.863      10.386      8.8576      7.4701      6.3287      5.4554      4.8258      4.4085      4.1909      4.1880    
  4.4381      4.9872      5.8624      7.0372      8.4063      9.7990      10.958      11.644      11.974      12.287    
  12.796      13.349      13.096      13.593      13.181      11.919      10.278      8.6124      7.1412      5.9704    
  5.1099      4.5221      4.1674      4.0322      4.1362      4.5248      5.2459      6.3128      7.6630      9.1397    
  10.479      11.255      11.376      11.250      11.436      12.161      11.184      12.564      13.381      13.061    
  11.717      9.9579      8.2179      6.7266      5.5813      4.7761      4.2610      3.9919      3.9583      4.1880    
  4.7335      5.6400      6.8977      8.3962      9.9109      10.965      11.116      10.541      9.9670      10.129    
  8.7125      10.164      11.959      13.011      12.715      11.288      9.4633      7.7133      6.2630      5.1913    
  4.4752      4.0555      3.8888      3.9716      4.3416      5.0569      6.1540      7.5901      9.1986      10.625    
  11.191      10.597      9.3408      8.4396      10.862      11.268      12.182      13.011      13.106      12.243    
  10.763      9.1287      7.6090      6.3645      5.4426      4.8162      4.4363      4.2715      4.3264      4.6396    
  5.2640      6.2305      7.5021      8.9428      10.323      11.225      11.378      11.053      10.774      10.430    
  10.842      11.796      12.585      12.545      11.535      9.9895      8.3712      6.9314      5.8053      5.0169    
  4.5254      4.2784      4.2485      4.4480      4.9228      5.7261      6.8752      8.3014      9.8248      11.133    
  11.719      11.447      11.554      10.670      10.262      10.670      11.554      12.156      11.878      10.708    
  9.1481      7.6026      6.2911      5.3166      4.6808      4.3340      4.2252      4.3340      4.6809      5.3167    
  6.2911      7.6025      9.1480      10.708      11.879      12.157      12.585      11.796      10.842      10.430    
  10.774      11.447      11.719      11.132      9.8247      8.3015      6.8754      5.7260      4.9227      4.4481    
  4.2486      4.2784      4.5253      5.0170      5.8055      6.9315      8.3711      9.9895      11.535      12.545    
  13.106      13.011      12.182      11.268      10.862      11.053      11.379      11.225      10.323      8.9427    
  7.5022      6.2306      5.2640      4.6395      4.3264      4.2716      4.4363      4.8162      5.4427      6.3648    
  7.6092      9.1287      10.763      12.244      12.772      13.515      13.381      12.621      11.805      11.377    
  11.321      11.217      10.625      9.4792      8.1094      6.7914      5.6984      4.9232      4.4765      4.3193    
  4.4021      4.6936      5.1948      5.9370      6.9609      8.2761      9.8145      11.402      11.840      13.061    