unknown system                          
   1.00000000000000     
     0.000000    2.624927    2.624927
     2.624927    0.000000    2.624927
     2.624927    2.624927    0.000000
   Si
     2
Direct
  0.000000  0.000000  0.000000
  0.250000  0.250000  0.250000
 
   36   36   36
 -.70382398064E+01 -.58318084790E+01 -.25111535438E+01 0.21293581575E+01 0.70609994052E+01
 0.11331143401E+02 0.14303475817E+02 0.15758576173E+02 0.15857201488E+02 0.15014513986E+02
 0.13736055585E+02 0.12363959147E+02 0.11033855293E+02 0.98381687364E+01 0.88347531250E+01
 0.80519354340E+01 0.74975656099E+01 0.71687088216E+01 0.70599164880E+01 0.71687270847E+01
 0.74975842426E+01 0.80519381057E+01 0.88347452723E+01 0.98381803611E+01 0.11033921141E+02
 0.12364082831E+02 0.13736180111E+02 0.15014534019E+02 0.15857029746E+02 0.15758219877E+02
 0.14303050972E+02 0.11330804186E+02 0.70608400989E+01 0.21293674677E+01 -.25110624255E+01
 -.58317333578E+01 -.58318084790E+01 -.33998429907E+01 0.84473565173E+00 0.58873245575E+01
 0.10657788270E+02 0.14335802686E+02 0.16515754011E+02 0.17212187610E+02 0.16753241670E+02
 0.15625060118E+02 0.14276436874E+02 0.12902195808E+02 0.11607875711E+02 0.10469579329E+02
 0.95348449632E+01 0.88278293302E+01 0.83568353169E+01 0.81221219178E+01 0.81221327566E+01
 0.83568561368E+01 0.88278386182E+01 0.95348363587E+01 0.10469572186E+02 0.11607905902E+02
 0.12902291299E+02 0.14276583518E+02 0.15625179736E+02 0.16753223091E+02 0.17211972468E+02
 0.16515403640E+02 0.14335465362E+02 0.10657585495E+02 0.58872699585E+01 0.84475863622E+00
 -.33998130474E+01 -.58317978168E+01 -.25111535438E+01 0.84473565173E+00 0.54638548785E+01
 0.10268084980E+02 0.14313591083E+02 0.17024492830E+02 0.18255765634E+02 0.18218661144E+02
 0.17337152910E+02 0.16083435760E+02 0.14733527036E+02 0.13401260118E+02 0.12173290714E+02
 0.11112738432E+02 0.10260972126E+02 0.96418178197E+01 0.92671076910E+01 0.91417801528E+01
 0.92671242276E+01 0.96418324582E+01 0.10260970087E+02 0.11112725013E+02 0.12173288724E+02
 0.13401298064E+02 0.14733622024E+02 0.16083568127E+02 0.17337254485E+02 0.18218651879E+02
 0.18255623925E+02 0.17024287187E+02 0.14313427477E+02 0.10268020119E+02 0.54638666945E+01
 0.84476830830E+00 -.25111342827E+01 -.37400932820E+01 0.21293581575E+01 0.58873245575E+01
 0.10268084980E+02 0.14299681446E+02 0.17282485842E+02 0.18918314224E+02 0.19283837039E+02
 0.18710539694E+02 0.17634873895E+02 0.16386462228E+02 0.15091576981E+02 0.13839079111E+02
 0.12700628389E+02 0.11731455880E+02 0.10971977686E+02 0.10450393318E+02 0.10184991245E+02
 0.10185000021E+02 0.10450410837E+02 0.10971988443E+02 0.11731454326E+02 0.12700622057E+02
 0.13839082377E+02 0.15091608137E+02 0.16386535833E+02 0.17634981630E+02 0.18710640715E+02
 0.19283882333E+02 0.18918287928E+02 0.17282420157E+02 0.14299629299E+02 0.10268078889E+02
 0.58873590023E+01 0.21294011991E+01 -.48352893090E-01 -.48371685111E-01 0.70609994052E+01
 0.10657788270E+02 0.14313591083E+02 0.17282485842E+02 0.19146107812E+02 0.19846007434E+02
 0.19601676167E+02 0.18778398188E+02 0.17710636819E+02 0.16535856545E+02 0.15338302094E+02
 0.14189870489E+02 0.13152552735E+02 0.12279809300E+02 0.11617425855E+02 0.11202787092E+02
 0.11061495208E+02 0.11202803760E+02 0.11617448952E+02 0.12279828895E+02 0.13152565140E+02
 0.14189875849E+02 0.15338305930E+02 0.16535875635E+02 0.17710692503E+02 0.18778495092E+02
 0.19601789675E+02 0.19846096438E+02 0.19146140941E+02 0.17282459608E+02 0.14313529954E+02
 0.10657727564E+02 0.70609617720E+01 0.44102774787E+01 0.34328279838E+01 0.44102916020E+01
 0.11331143401E+02 0.14335802686E+02 0.17024492830E+02 0.18918314224E+02 0.19846007434E+02
 0.19910733735E+02 0.19386732513E+02 0.18569778671E+02 0.17594576574E+02 0.16535856055E+02
 0.15458314097E+02 0.14421795204E+02 0.13484925955E+02 0.12706924703E+02 0.12145765253E+02
 0.11850664311E+02 0.11850677382E+02 0.12145798298E+02 0.12706965673E+02 0.13484965230E+02
 0.14421824275E+02 0.15458326151E+02 0.16535856859E+02 0.17594589815E+02 0.18569830042E+02
 0.19386824212E+02 0.19910837610E+02 0.19846080432E+02 0.18918318551E+02 0.17024409635E+02
 0.14335643482E+02 0.11330954131E+02 0.87093562006E+01 0.71759262797E+01 0.71759849371E+01
 0.87095092943E+01 0.14303475817E+02 0.16515754011E+02 0.18255765634E+02 0.19283837039E+02
 0.19601676167E+02 0.19386732513E+02 0.18867755466E+02 0.18155412807E+02 0.17310977150E+02
 0.16386461208E+02 0.15431306919E+02 0.14499241278E+02 0.13653589442E+02 0.12965337343E+02
 0.12509136235E+02 0.12348665012E+02 0.12509178466E+02 0.12965401418E+02 0.13653654880E+02
 0.14499297932E+02 0.15431346647E+02 0.16386478261E+02 0.17310983161E+02 0.18155434403E+02
 0.18867808601E+02 0.19386801977E+02 0.19601726943E+02 0.19283837356E+02 0.18255694936E+02
 0.16515602097E+02 0.14303256540E+02 0.12085072458E+02 0.10432448483E+02 0.98200150875E+01
 0.10432597713E+02 0.12085301290E+02 0.15758576173E+02 0.17212187610E+02 0.18218661144E+02
 0.18710539694E+02 0.18778398188E+02 0.18569778671E+02 0.18155412807E+02 0.17579445080E+02
 0.16877700487E+02 0.16083434889E+02 0.15236288905E+02 0.14389366262E+02 0.13609934208E+02
 0.12996579055E+02 0.12655373025E+02 0.12655409430E+02 0.12996665027E+02 0.13610025703E+02
 0.14389440094E+02 0.15236347122E+02 0.16083481651E+02 0.16877736003E+02 0.17579480287E+02
 0.18155462123E+02 0.18569836019E+02 0.18778432040E+02 0.18710521187E+02 0.18218588538E+02
 0.17212078863E+02 0.15758450455E+02 0.14110793985E+02 0.12659398491E+02 0.11805875542E+02
 0.11805913263E+02 0.12659496160E+02 0.14110919322E+02 0.15857201488E+02 0.16753241670E+02
 0.17337152910E+02 0.17634873895E+02 0.17710636819E+02 0.17594576574E+02 0.17310977150E+02
 0.16877700487E+02 0.16309151975E+02 0.15625059521E+02 0.14855161626E+02 0.14048262440E+02
 0.13310988728E+02 0.12785445164E+02 0.12594155550E+02 0.12785531563E+02 0.13311101057E+02
 0.14048343913E+02 0.14855206847E+02 0.15625097788E+02 0.16309205807E+02 0.16877772192E+02
 0.17311063882E+02 0.17594669133E+02 0.17710710176E+02 0.17634894483E+02 0.17337108211E+02
 0.16753161817E+02 0.15857141002E+02 0.14745662872E+02 0.13637406505E+02 0.12812120864E+02
 0.12506134192E+02 0.12812075101E+02 0.13637360180E+02 0.14745665136E+02 0.15014513986E+02
 0.15625060118E+02 0.16083435760E+02 0.16386462228E+02 0.16535856545E+02 0.16535856055E+02
 0.16386461208E+02 0.16083434889E+02 0.15625059521E+02 0.15014513644E+02 0.14268688469E+02
 0.13478912395E+02 0.12802989711E+02 0.12410229799E+02 0.12410282463E+02 0.12803105007E+02
 0.13479005847E+02 0.14268714882E+02 0.15014498059E+02 0.15625059531E+02 0.16083487313E+02
 0.16386563651E+02 0.16535985730E+02 0.16535985901E+02 0.16386563864E+02 0.16083487274E+02
 0.15625059540E+02 0.15014498399E+02 0.14268715206E+02 0.13479005765E+02 0.12803104709E+02
 0.12410282162E+02 0.12410229200E+02 0.12802988653E+02 0.13478911444E+02 0.14268688219E+02
 0.13736055585E+02 0.14276436874E+02 0.14733527036E+02 0.15091576981E+02 0.15338302094E+02
 0.15458314097E+02 0.15431306919E+02 0.15236288905E+02 0.14855161626E+02 0.14268688469E+02
 0.13530616296E+02 0.12785872141E+02 0.12227143826E+02 0.12019314010E+02 0.12227234379E+02
 0.12785981150E+02 0.13530662480E+02 0.14268648305E+02 0.14855081628E+02 0.15236242408E+02
 0.15431336660E+02 0.15458410727E+02 0.15338429629E+02 0.15091705529E+02 0.14733642840E+02
 0.14276531413E+02 0.13736123767E+02 0.13141628608E+02 0.12540996643E+02 0.12003888135E+02
 0.11624778875E+02 0.11487258972E+02 0.11624717617E+02 0.12003807686E+02 0.12540932118E+02
 0.13141575084E+02 0.12363959147E+02 0.12902195808E+02 0.13401260118E+02 0.13839079111E+02
 0.14189870489E+02 0.14421795204E+02 0.14499241278E+02 0.14389366262E+02 0.14048262440E+02
 0.13478912395E+02 0.12785872141E+02 0.12152062742E+02 0.11772444939E+02 0.11772489436E+02
 0.12152165076E+02 0.12785960181E+02 0.13478922262E+02 0.14048183221E+02 0.14389247490E+02
 0.14499156387E+02 0.14421785257E+02 0.14189922880E+02 0.13839155855E+02 0.13401339377E+02
 0.12902280223E+02 0.12364050600E+02 0.11810280890E+02 0.11272712182E+02 0.10795492276E+02
 0.10432411868E+02 0.10234871745E+02 0.10234867063E+02 0.10432396116E+02 0.10795458175E+02
 0.11272651221E+02 0.11810196070E+02 0.11033855293E+02 0.11607875711E+02 0.12173290714E+02
 0.12700628389E+02 0.13152552735E+02 0.13484925955E+02 0.13653589442E+02 0.13609934208E+02
 0.13310988728E+02 0.12802989711E+02 0.12227143826E+02 0.11772444939E+02 0.11599869699E+02
 0.11772508593E+02 0.12227237428E+02 0.12803060029E+02 0.13310989810E+02 0.13609856609E+02
 0.13653471146E+02 0.13484827487E+02 0.13152510000E+02 0.12700632219E+02 0.12173307448E+02
 0.11607887655E+02 0.11033869601E+02 0.10475272544E+02 0.99548748282E+01 0.94985780312E+01
 0.91371911644E+01 0.89030578362E+01 0.88217491461E+01 0.89030767604E+01 0.91372078030E+01
 0.94985728611E+01 0.99548503883E+01 0.10475247703E+02 0.98381687364E+01 0.10469579329E+02
 0.11112738432E+02 0.11731455880E+02 0.12279809300E+02 0.12706924703E+02 0.12965337343E+02
 0.12996579055E+02 0.12785445164E+02 0.12410229799E+02 0.12019314010E+02 0.11772489436E+02
 0.11772508593E+02 0.12019366193E+02 0.12410298391E+02 0.12785502425E+02 0.12996594499E+02
 0.12965295076E+02 0.12706841390E+02 0.12279725438E+02 0.11731405937E+02 0.11112724555E+02
 0.10469574860E+02 0.98381477132E+01 0.92449233531E+01 0.87094492227E+01 0.82482481697E+01
 0.78781353816E+01 0.76170559743E+01 0.74814615382E+01 0.74814810834E+01 0.76171062622E+01
 0.78781991787E+01 0.82483127862E+01 0.87095075732E+01 0.92449671942E+01 0.88347531250E+01
 0.95348449632E+01 0.10260972126E+02 0.10971977686E+02 0.11617425855E+02 0.12145765253E+02
 0.12509136235E+02 0.12655373025E+02 0.12594155550E+02 0.12410282463E+02 0.12227234379E+02
 0.12152165076E+02 0.12227237428E+02 0.12410298391E+02 0.12594193815E+02 0.12655429173E+02
 0.12509185771E+02 0.12145778824E+02 0.11617393940E+02 0.10971923177E+02 0.10260934679E+02
 0.95348460338E+01 0.88347765072E+01 0.81898723562E+01 0.76187409640E+01 0.71330598577E+01
 0.67415157963E+01 0.64524939843E+01 0.62744808021E+01 0.62142800120E+01 0.62745364111E+01
 0.64525921574E+01 0.67416293101E+01 0.71331527766E+01 0.76187851732E+01 0.81898672460E+01
 0.80519354340E+01 0.88278293302E+01 0.96418178197E+01 0.10450393318E+02 0.11202787092E+02
 0.11850664311E+02 0.12348665012E+02 0.12655409430E+02 0.12785531563E+02 0.12803105007E+02
 0.12785981150E+02 0.12785960181E+02 0.12803060029E+02 0.12785502425E+02 0.12655429173E+02
 0.12348736142E+02 0.11850757167E+02 0.11202856720E+02 0.10450409297E+02 0.96417905951E+01
 0.88278045573E+01 0.80519560084E+01 0.73453254553E+01 0.67262967260E+01 0.62036604370E+01
 0.57809621351E+01 0.54602160729E+01 0.52438510710E+01 0.51346928752E+01 0.51347229976E+01
 0.52439295384E+01 0.54603076826E+01 0.57810192335E+01 0.62036514625E+01 0.67262342149E+01
 0.73452605771E+01 0.74975656099E+01 0.83568353169E+01 0.92671076910E+01 0.10184991245E+02
 0.11061495208E+02 0.11850677382E+02 0.12509178466E+02 0.12996665027E+02 0.13311101057E+02
 0.13479005847E+02 0.13530662480E+02 0.13478922262E+02 0.13310989810E+02 0.12996594499E+02
 0.12509185771E+02 0.11850757167E+02 0.11061611066E+02 0.10185092649E+02 0.92671546427E+01
 0.83568260128E+01 0.74975432640E+01 0.67209971728E+01 0.60453167801E+01 0.54772698367E+01
 0.50166530238E+01 0.46607130356E+01 0.44070937410E+01 0.42548610624E+01 0.42040749638E+01
 0.42548880167E+01 0.44071193048E+01 0.46606991061E+01 0.50165827872E+01 0.54771690921E+01
 0.60452392400E+01 0.67209780932E+01 0.71687088216E+01 0.81221219178E+01 0.91417801528E+01
 0.10185000021E+02 0.11202803760E+02 0.12145798298E+02 0.12965401418E+02 0.13610025703E+02
 0.14048343913E+02 0.14268714882E+02 0.14268648305E+02 0.14048183221E+02 0.13609856609E+02
 0.12965295076E+02 0.12145778824E+02 0.11202856720E+02 0.10185092649E+02 0.91418716195E+01
 0.81221737945E+01 0.71687080764E+01 0.63126596855E+01 0.55714279714E+01 0.49500784171E+01
 0.44454280188E+01 0.40507896696E+01 0.37596422320E+01 0.35674418539E+01 0.34717912399E+01
 0.34717840284E+01 0.35674114224E+01 0.37595749341E+01 0.40506913874E+01 0.44453329088E+01
 0.49500268214E+01 0.55714310590E+01 0.63126861758E+01 0.70599164880E+01 0.81221327566E+01
 0.92671242276E+01 0.10450410837E+02 0.11617448952E+02 0.12706965673E+02 0.13653654880E+02
 0.14389440094E+02 0.14855206847E+02 0.15014498059E+02 0.14855081628E+02 0.14389247490E+02
 0.13653471146E+02 0.12706841390E+02 0.11617393940E+02 0.10450409297E+02 0.92671546427E+01
 0.81221737945E+01 0.70599444778E+01 0.61116342472E+01 0.52937292195E+01 0.46095899408E+01
 0.40534341677E+01 0.36151798771E+01 0.32845266390E+01 0.30533561675E+01 0.29164352021E+01
 0.28710511968E+01 0.29163931328E+01 0.30532804991E+01 0.32844419232E+01 0.36151216819E+01
 0.40534249076E+01 0.46096187460E+01 0.52937605489E+01 0.61116377325E+01 0.71687270847E+01
 0.83568561368E+01 0.96418324582E+01 0.10971988443E+02 0.12279828895E+02 0.13484965230E+02
 0.14499297932E+02 0.15236347122E+02 0.15625097788E+02 0.15625059531E+02 0.15236242408E+02
 0.14499156387E+02 0.13484827487E+02 0.12279725438E+02 0.10971923177E+02 0.96417905951E+01
 0.83568260128E+01 0.71687080764E+01 0.61116342472E+01 0.52024445030E+01 0.44431659750E+01
 0.38255812494E+01 0.33364564415E+01 0.29619643640E+01 0.26904687514E+01 0.25136330505E+01
 0.24263734321E+01 0.24263531297E+01 0.25135838093E+01 0.26904203754E+01 0.29619480232E+01
 0.33364815642E+01 0.38256277454E+01 0.44432040547E+01 0.52024629393E+01 0.61116453568E+01
 0.74975842426E+01 0.88278386182E+01 0.10260970087E+02 0.11731454326E+02 0.13152565140E+02
 0.14421824275E+02 0.15431346647E+02 0.16083481651E+02 0.16309205807E+02 0.16083487313E+02
 0.15431336660E+02 0.14421785257E+02 0.13152510000E+02 0.11731405937E+02 0.10260934679E+02
 0.88278045573E+01 0.74975432640E+01 0.63126596855E+01 0.52937292195E+01 0.44431659750E+01
 0.37509478884E+01 0.32008225882E+01 0.27754509229E+01 0.24596517642E+01 0.22418101837E+01
 0.21140620207E+01 0.20719495058E+01 0.21140457166E+01 0.22417979845E+01 0.24596658566E+01
 0.27754947122E+01 0.32008783175E+01 0.37509954855E+01 0.44432022571E+01 0.52937653690E+01
 0.63127016841E+01 0.80519381057E+01 0.95348363587E+01 0.11112725013E+02 0.12700622057E+02
 0.14189875849E+02 0.15458326151E+02 0.16386478261E+02 0.16877736003E+02 0.16877772192E+02
 0.16386563651E+02 0.15458410727E+02 0.14189922880E+02 0.12700632219E+02 0.11112724555E+02
 0.95348460338E+01 0.80519560084E+01 0.67209971728E+01 0.55714279714E+01 0.46095899408E+01
 0.38255812494E+01 0.32008225882E+01 0.27144735143E+01 0.23475952047E+01 0.20850441914E+01
 0.19158517125E+01 0.18329728064E+01 0.18329742518E+01 0.19158621915E+01 0.20850738701E+01
 0.23476440206E+01 0.27145295348E+01 0.32008729604E+01 0.38256202568E+01 0.46096152539E+01
 0.55714355772E+01 0.67209866865E+01 0.88347452723E+01 0.10469572186E+02 0.12173288724E+02
 0.13839082377E+02 0.15338305930E+02 0.16535856859E+02 0.17310983161E+02 0.17579480287E+02
 0.17311063882E+02 0.16535985730E+02 0.15338429629E+02 0.13839155855E+02 0.12173307448E+02
 0.10469574860E+02 0.88347765072E+01 0.73453254553E+01 0.60453167801E+01 0.49500784171E+01
 0.40534341677E+01 0.33364564415E+01 0.27754509229E+01 0.23475952047E+01 0.20338342737E+01
 0.18197039099E+01 0.16951707507E+01 0.16543184618E+01 0.16951871142E+01 0.18197359871E+01
 0.20338769977E+01 0.23476391236E+01 0.27754861196E+01 0.33364727621E+01 0.40534191526E+01
 0.49500246714E+01 0.60452378624E+01 0.73452561042E+01 0.98381803611E+01 0.11607905902E+02
 0.13401298064E+02 0.15091608137E+02 0.16535875635E+02 0.17594589815E+02 0.18155434403E+02
 0.18155462123E+02 0.17594669133E+02 0.16535985901E+02 0.15091705529E+02 0.13401339377E+02
 0.11607887655E+02 0.98381477132E+01 0.81898723562E+01 0.67262967260E+01 0.54772698367E+01
 0.44454280188E+01 0.36151798771E+01 0.29619643640E+01 0.24596517642E+01 0.20850441914E+01
 0.18197039099E+01 0.16501576882E+01 0.15675839055E+01 0.15675934055E+01 0.16501819771E+01
 0.18197326362E+01 0.20850660818E+01 0.24596570960E+01 0.29619433348E+01 0.36151229447E+01
 0.44453364857E+01 0.54771687128E+01 0.67262282567E+01 0.81898638143E+01 0.11033921141E+02
 0.12902291299E+02 0.14733622024E+02 0.16386535833E+02 0.17710692503E+02 0.18569830042E+02
 0.18867808601E+02 0.18569836019E+02 0.17710710176E+02 0.16386563864E+02 0.14733642840E+02
 0.12902280223E+02 0.11033869601E+02 0.92449233531E+01 0.76187409640E+01 0.62036604370E+01
 0.50166530238E+01 0.40507896696E+01 0.32845266390E+01 0.26904687514E+01 0.22418101837E+01
 0.19158517125E+01 0.16951707507E+01 0.15675839055E+01 0.15258618149E+01 0.15675958838E+01
 0.16951838552E+01 0.19158523400E+01 0.22417884913E+01 0.26904197180E+01 0.32844523614E+01
 0.40507062787E+01 0.50165915021E+01 0.62036500689E+01 0.76187853799E+01 0.92449924540E+01
 0.12364082831E+02 0.14276583518E+02 0.16083568127E+02 0.17634981630E+02 0.18778495092E+02
 0.19386824212E+02 0.19386801977E+02 0.18778432040E+02 0.17634894483E+02 0.16083487274E+02
 0.14276531413E+02 0.12364050600E+02 0.10475272544E+02 0.87094492227E+01 0.71330598577E+01
 0.57809621351E+01 0.46607130356E+01 0.37596422320E+01 0.30533561675E+01 0.25136330505E+01
 0.21140620207E+01 0.18329728064E+01 0.16543184618E+01 0.15675934055E+01 0.15675958838E+01
 0.16543202578E+01 0.18329622043E+01 0.21140303566E+01 0.25135806670E+01 0.30532952448E+01
 0.37595979575E+01 0.46607139858E+01 0.57810180367E+01 0.71331465480E+01 0.87095250073E+01
 0.10475317247E+02 0.13736180111E+02 0.15625179736E+02 0.17337254485E+02 0.18710640715E+02
 0.19601789675E+02 0.19910837610E+02 0.19601726943E+02 0.18710521187E+02 0.17337108211E+02
 0.15625059540E+02 0.13736123767E+02 0.11810280890E+02 0.99548748282E+01 0.82482481697E+01
 0.67415157963E+01 0.54602160729E+01 0.44070937410E+01 0.35674418539E+01 0.29164352021E+01
 0.24263734321E+01 0.20719495058E+01 0.18329742518E+01 0.16951871142E+01 0.16501819771E+01
 0.16951838552E+01 0.18329622043E+01 0.20719237809E+01 0.24263373728E+01 0.29164042924E+01
 0.35674400010E+01 0.44071389527E+01 0.54603013543E+01 0.67416046368E+01 0.82482995780E+01
 0.99548832960E+01 0.11810287139E+02 0.15014534019E+02 0.16753223091E+02 0.18218651879E+02
 0.19283882333E+02 0.19846096438E+02 0.19846080432E+02 0.19283837356E+02 0.18218588538E+02
 0.16753161817E+02 0.15014498399E+02 0.13141628608E+02 0.11272712182E+02 0.94985780312E+01
 0.78781353816E+01 0.64524939843E+01 0.52438510710E+01 0.42548610624E+01 0.34717912399E+01
 0.28710511968E+01 0.24263531297E+01 0.21140457166E+01 0.19158621915E+01 0.18197359871E+01
 0.18197326362E+01 0.19158523400E+01 0.21140303566E+01 0.24263373728E+01 0.28710474998E+01
 0.34718161154E+01 0.42549205682E+01 0.52439283852E+01 0.64525549721E+01 0.78781538512E+01
 0.94985577432E+01 0.11272683635E+02 0.13141626030E+02 0.15857029746E+02 0.17211972468E+02
 0.18255623925E+02 0.18918287928E+02 0.19146140941E+02 0.18918318551E+02 0.18255694936E+02
 0.17212078863E+02 0.15857141002E+02 0.14268715206E+02 0.12540996643E+02 0.10795492276E+02
 0.91371911644E+01 0.76170559743E+01 0.62744808021E+01 0.51346928752E+01 0.42040749638E+01
 0.34717840284E+01 0.29163931328E+01 0.25135838093E+01 0.22417979845E+01 0.20850738701E+01
 0.20338769977E+01 0.20850660818E+01 0.22417884913E+01 0.25135806670E+01 0.29164042924E+01
 0.34718161154E+01 0.42041257387E+01 0.51347447600E+01 0.62745096982E+01 0.76170526524E+01
 0.91371666184E+01 0.10795458065E+02 0.12540945353E+02 0.14268630830E+02 0.15758219877E+02
 0.16515403640E+02 0.17024287187E+02 0.17282420157E+02 0.17282459608E+02 0.17024409635E+02
 0.16515602097E+02 0.15758450455E+02 0.14745662872E+02 0.13479005765E+02 0.12003888135E+02
 0.10432411868E+02 0.89030578362E+01 0.74814615382E+01 0.62142800120E+01 0.51347229976E+01
 0.42548880167E+01 0.35674114224E+01 0.30532804991E+01 0.26904203754E+01 0.24596658566E+01
 0.23476440206E+01 0.23476391236E+01 0.24596570960E+01 0.26904197180E+01 0.30532952448E+01
 0.35674400010E+01 0.42549205682E+01 0.51347447600E+01 0.62142797068E+01 0.74814435289E+01
 0.89030384447E+01 0.10432394885E+02 0.12003844173E+02 0.13478891772E+02 0.14745468678E+02
 0.14303050972E+02 0.14335465362E+02 0.14313427477E+02 0.14299629299E+02 0.14313529954E+02
 0.14335643482E+02 0.14303256540E+02 0.14110793985E+02 0.13637406505E+02 0.12803104709E+02
 0.11624778875E+02 0.10234871745E+02 0.88217491461E+01 0.74814810834E+01 0.62745364111E+01
 0.52439295384E+01 0.44071193048E+01 0.37595749341E+01 0.32844419232E+01 0.29619480232E+01
 0.27754947122E+01 0.27145295348E+01 0.27754861196E+01 0.29619433348E+01 0.32844523614E+01
 0.37595979575E+01 0.44071389527E+01 0.52439283852E+01 0.62745096982E+01 0.74814435289E+01
 0.88217246861E+01 0.10234870561E+02 0.11624779731E+02 0.12803065664E+02 0.13637295840E+02
 0.14110615868E+02 0.11330804186E+02 0.10657585495E+02 0.10268020119E+02 0.10268078889E+02
 0.10657727564E+02 0.11330954131E+02 0.12085072458E+02 0.12659398491E+02 0.12812120864E+02
 0.12410282162E+02 0.11487258972E+02 0.10234867063E+02 0.89030767604E+01 0.76171062622E+01
 0.64525921574E+01 0.54603076826E+01 0.46606991061E+01 0.40506913874E+01 0.36151216819E+01
 0.33364815642E+01 0.32008783175E+01 0.32008729604E+01 0.33364727621E+01 0.36151229447E+01
 0.40507062787E+01 0.46607139858E+01 0.54603013543E+01 0.64525549721E+01 0.76170526524E+01
 0.89030384447E+01 0.10234870561E+02 0.11487305553E+02 0.12410346370E+02 0.12812163024E+02
 0.12659381408E+02 0.12084978562E+02 0.70608400989E+01 0.58872699585E+01 0.54638666945E+01
 0.58873590023E+01 0.70609617720E+01 0.87093562006E+01 0.10432448483E+02 0.11805875542E+02
 0.12506134192E+02 0.12410229200E+02 0.11624717617E+02 0.10432396116E+02 0.91372078030E+01
 0.78781991787E+01 0.67416293101E+01 0.57810192335E+01 0.50165827872E+01 0.44453329088E+01
 0.40534249076E+01 0.38256277454E+01 0.37509954855E+01 0.38256202568E+01 0.40534191526E+01
 0.44453364857E+01 0.50165915021E+01 0.57810180367E+01 0.67416046368E+01 0.78781538512E+01
 0.91371666184E+01 0.10432394885E+02 0.11624779731E+02 0.12410346370E+02 0.12506265229E+02
 0.11805964996E+02 0.10432454322E+02 0.87092754282E+01 0.21293674677E+01 0.84475863622E+00
 0.84476830830E+00 0.21294011991E+01 0.44102774787E+01 0.71759262797E+01 0.98200150875E+01
 0.11805913263E+02 0.12812075101E+02 0.12802988653E+02 0.12003807686E+02 0.10795458175E+02
 0.94985728611E+01 0.82483127862E+01 0.71331527766E+01 0.62036514625E+01 0.54771690921E+01
 0.49500268214E+01 0.46096187460E+01 0.44432040547E+01 0.44432022571E+01 0.46096152539E+01
 0.49500246714E+01 0.54771687128E+01 0.62036500689E+01 0.71331465480E+01 0.82482995780E+01
 0.94985577432E+01 0.10795458065E+02 0.12003844173E+02 0.12803065664E+02 0.12812163024E+02
 0.11805964996E+02 0.98200050961E+01 0.71758724607E+01 0.44102204819E+01 -.25110624255E+01
 -.33998130474E+01 -.25111342827E+01 -.48352893090E-01 0.34328279838E+01 0.71759849371E+01
 0.10432597713E+02 0.12659496160E+02 0.13637360180E+02 0.13478911444E+02 0.12540932118E+02
 0.11272651221E+02 0.99548503883E+01 0.87095075732E+01 0.76187851732E+01 0.67262342149E+01
 0.60452392400E+01 0.55714310590E+01 0.52937605489E+01 0.52024629393E+01 0.52937653690E+01
 0.55714355772E+01 0.60452378624E+01 0.67262282567E+01 0.76187853799E+01 0.87095250073E+01
 0.99548832960E+01 0.11272683635E+02 0.12540945353E+02 0.13478891772E+02 0.13637295840E+02
 0.12659381408E+02 0.10432454322E+02 0.71758724607E+01 0.34328052540E+01 -.48289539168E-01
 -.58317333578E+01 -.58317978168E+01 -.37400932820E+01 -.48371685111E-01 0.44102916020E+01
 0.87095092943E+01 0.12085301290E+02 0.14110919322E+02 0.14745665136E+02 0.14268688219E+02
 0.13141575084E+02 0.11810196070E+02 0.10475247703E+02 0.92449671942E+01 0.81898672460E+01
 0.73452605771E+01 0.67209780932E+01 0.63126861758E+01 0.61116377325E+01 0.61116453568E+01
 0.63127016841E+01 0.67209866865E+01 0.73452561042E+01 0.81898638143E+01 0.92449924540E+01
 0.10475317247E+02 0.11810287139E+02 0.13141626030E+02 0.14268630830E+02 0.14745468678E+02
 0.14110615868E+02 0.12084978562E+02 0.87092754282E+01 0.44102204819E+01 -.48289539168E-01
 -.37399569914E+01 -.58318086248E+01 -.33998441944E+01 0.84473452695E+00 0.58873241371E+01
 0.10657788060E+02 0.14335802606E+02 0.16515754755E+02 0.17212189014E+02 0.16753242469E+02
 0.15625059841E+02 0.14276436357E+02 0.12902195462E+02 0.11607874973E+02 0.10469578236E+02
 0.95348444890E+01 0.88278296705E+01 0.83568355209E+01 0.81221216615E+01 0.81221328120E+01
 0.83568566780E+01 0.88278387866E+01 0.95348359507E+01 0.10469572064E+02 0.11607906281E+02
 0.12902291327E+02 0.14276582983E+02 0.15625179496E+02 0.16753223375E+02 0.17211972466E+02
 0.16515403217E+02 0.14335465466E+02 0.10657586405E+02 0.58872708065E+01 0.84475907085E+00
 -.33998124235E+01 -.58317970672E+01 -.33998441944E+01 0.10627682253E+00 0.49345002659E+01
 0.99626335855E+01 0.14209828220E+02 0.17078015689E+02 0.18414778671E+02 0.18434542747E+02
 0.17570549223E+02 0.16309151464E+02 0.14945086571E+02 0.13595876340E+02 0.12350024283E+02
 0.11272443620E+02 0.10406041010E+02 0.97757706219E+01 0.93941623873E+01 0.92665032482E+01
 0.93941818477E+01 0.97757866745E+01 0.10406036265E+02 0.11272425697E+02 0.12350019179E+02
 0.13595914696E+02 0.14945188641E+02 0.16309300549E+02 0.17570673360E+02 0.18434550465E+02
 0.18414638438E+02 0.17077795429E+02 0.14209637420E+02 0.99625277318E+01 0.49344547583E+01
 0.10624582234E+00 -.33998686679E+01 -.46836265249E+01 0.84473452695E+00 0.49345002659E+01
 0.97093311029E+01 0.14120590233E+02 0.17415327649E+02 0.19271228942E+02 0.19764237087E+02
 0.19239477255E+02 0.18154977617E+02 0.16877700245E+02 0.15547757393E+02 0.14256842345E+02
 0.13079805722E+02 0.12075195509E+02 0.11286421710E+02 0.10744020358E+02 0.10467831283E+02
 0.10467844338E+02 0.10744044004E+02 0.11286428834E+02 0.12075177580E+02 0.13079776387E+02
 0.14256822703E+02 0.15547770820E+02 0.16877770038E+02 0.18155106794E+02 0.19239627901E+02
 0.19764348042E+02 0.19271263821E+02 0.17415301086E+02 0.14120544300E+02 0.97092945754E+01
 0.49344773071E+01 0.84472043397E+00 -.15240421151E+01 -.15240368346E+01 0.58873241371E+01
 0.99626335855E+01 0.14120590233E+02 0.17528599684E+02 0.19719381340E+02 0.20621528151E+02
 0.20466256784E+02 0.19644131411E+02 0.18536222812E+02 0.17310977736E+02 0.16055766239E+02
 0.14846168915E+02 0.13748794907E+02 0.12822211073E+02 0.12117120194E+02 0.11675013097E+02
 0.11524245729E+02 0.11675040400E+02 0.12117147806E+02 0.12822213933E+02 0.13748769125E+02
 0.14846125000E+02 0.16055718892E+02 0.17310951530E+02 0.18536255204E+02 0.19644251671E+02
 0.20466454734E+02 0.20621748160E+02 0.19719553008E+02 0.17528683239E+02 0.14120599759E+02
 0.99626163691E+01 0.58873168959E+01 0.28883655581E+01 0.17829963818E+01 0.28883614515E+01
 0.10657788060E+02 0.14209828220E+02 0.17415327649E+02 0.19719381340E+02 0.20918240241E+02
 0.21117493303E+02 0.20615428335E+02 0.19757066063E+02 0.18723812082E+02 0.17594576858E+02
 0.16437384585E+02 0.15316918046E+02 0.14298374729E+02 0.13448745939E+02 0.12833781875E+02
 0.12509140559E+02 0.12509159884E+02 0.12833824347E+02 0.13448779789E+02 0.14298377703E+02
 0.15316885092E+02 0.16437321922E+02 0.17594501502E+02 0.18723758923E+02 0.19757084061E+02
 0.20615554178E+02 0.21117716252E+02 0.20918491465E+02 0.19719567116E+02 0.17415389810E+02
 0.14209782511E+02 0.10657700835E+02 0.75695484089E+01 0.57656732976E+01 0.57656969238E+01
 0.75696162892E+01 0.14335802606E+02 0.17078015689E+02 0.19271228942E+02 0.20621528151E+02
 0.21117493303E+02 0.20953099997E+02 0.20405727051E+02 0.19640387369E+02 0.18723811705E+02
 0.17710636234E+02 0.16654167811E+02 0.15614662666E+02 0.14662417046E+02 0.13876705361E+02
 0.13351232664E+02 0.13165631091E+02 0.13351278842E+02 0.13876768008E+02 0.14662460327E+02
 0.15614665203E+02 0.16654125209E+02 0.17710557233E+02 0.18723722501E+02 0.19640330683E+02
 0.20405746513E+02 0.20953214913E+02 0.21117677246E+02 0.20621709363E+02 0.19271322677E+02
 0.17077974260E+02 0.14335649677E+02 0.11606819724E+02 0.95805120380E+01 0.88305022031E+01
 0.95806318134E+01 0.11607002252E+02 0.16515754755E+02 0.18414778671E+02 0.19764237087E+02
 0.20466256784E+02 0.20615428335E+02 0.20405727051E+02 0.19958241445E+02 0.19322467722E+02
 0.18536222938E+02 0.17634873581E+02 0.16661789740E+02 0.15666173493E+02 0.14730943601E+02
 0.13986409224E+02 0.13569856391E+02 0.13569891066E+02 0.13986491199E+02 0.14731026582E+02
 0.15666221052E+02 0.16661788756E+02 0.17634827940E+02 0.18536147683E+02 0.19322391924E+02
 0.19958200546E+02 0.20405742759E+02 0.20615495795E+02 0.20466344724E+02 0.19764297195E+02
 0.18414764325E+02 0.16515647782E+02 0.14390404087E+02 0.12530212951E+02 0.11439472242E+02
 0.11439534536E+02 0.12530366844E+02 0.14390571971E+02 0.17212189014E+02 0.18434542747E+02
 0.19239477255E+02 0.19644131411E+02 0.19757066063E+02 0.19640387369E+02 0.19322467722E+02
 0.18822485713E+02 0.18154979292E+02 0.17337153461E+02 0.16381381058E+02 0.15354752123E+02
 0.14405799436E+02 0.13725918758E+02 0.13477966958E+02 0.13725995740E+02 0.14405903200E+02
 0.15354828768E+02 0.16381410786E+02 0.17337145533E+02 0.18154950273E+02 0.18822449435E+02
 0.19322439297E+02 0.19640379061E+02 0.19757075915E+02 0.19644143494E+02 0.19239474737E+02
 0.18434518465E+02 0.17212147669E+02 0.15712070842E+02 0.14227331455E+02 0.13126390518E+02
 0.12719003144E+02 0.13126411944E+02 0.14227369959E+02 0.15712117080E+02 0.16753242469E+02
 0.17570549223E+02 0.18154977617E+02 0.18536222812E+02 0.18723812082E+02 0.18723811705E+02
 0.18536222938E+02 0.18154979292E+02 0.17570550646E+02 0.16753241978E+02 0.15731507358E+02
 0.14643112532E+02 0.13711089573E+02 0.13169784095E+02 0.13169824235E+02 0.13711178289E+02
 0.14643186578E+02 0.15731529268E+02 0.16753224537E+02 0.17570530222E+02 0.18154981718E+02
 0.18536249561E+02 0.18723851306E+02 0.18723851996E+02 0.18536250228E+02 0.18154980958E+02
 0.17570529432E+02 0.16753225124E+02 0.15731529864E+02 0.14643185853E+02 0.13711177736E+02
 0.13169825337E+02 0.13169785455E+02 0.13711089670E+02 0.14643112534E+02 0.15731508393E+02
 0.15625059841E+02 0.16309151464E+02 0.16877700245E+02 0.17310977736E+02 0.17594576858E+02
 0.17710636234E+02 0.17634873581E+02 0.17337153461E+02 0.16753241978E+02 0.15857200981E+02