   2   2   0   0
  0.1808638E+02  0.3712207E-09  0.3712207E-09  0.3712207E-09  0.5000000E-15
  1.000000000000000E-004
  CAR 
 unknown system                          
     19.12630576     -7.73093632  301      7.09668635      1.00000000
     -7.731  0.0000E+00  0.0000E+00
     -7.641  0.0000E+00  0.0000E+00
     -7.552  0.0000E+00  0.0000E+00
     -7.462  0.0000E+00  0.0000E+00
     -7.373  0.0000E+00  0.0000E+00
     -7.283  0.0000E+00  0.0000E+00
     -7.194  0.0000E+00  0.0000E+00
     -7.104  0.0000E+00  0.0000E+00
     -7.015  0.0000E+00  0.0000E+00
     -6.925  0.0000E+00  0.0000E+00
     -6.836  0.1647E-16  0.1475E-17
     -6.746  0.2031E-14  0.1833E-15
     -6.657  0.1704E-12  0.1544E-13
     -6.567  0.9645E-11  0.8789E-12
     -6.478  0.3687E-09  0.3389E-10
     -6.388  0.9541E-08  0.8880E-09
     -6.299  0.1676E-06  0.1589E-07
     -6.209  0.2008E-05  0.1957E-06
     -6.120  0.1656E-04  0.1678E-05
     -6.030  0.9526E-04  0.1021E-04
     -5.940  0.3908E-03  0.4519E-04
     -5.851  0.1179E-02  0.1507E-03
     -5.761  0.2714E-02  0.3937E-03
     -5.672  0.4947E-02  0.8366E-03
     -5.582  0.7401E-02  0.1499E-02
     -5.493  0.9544E-02  0.2354E-02
     -5.403  0.1135E-01  0.3370E-02
     -5.314  0.1321E-01  0.4552E-02
     -5.224  0.1512E-01  0.5905E-02
     -5.135  0.1640E-01  0.7374E-02
     -5.045  0.1676E-01  0.8874E-02
     -4.956  0.1728E-01  0.1042E-01
     -4.866  0.1928E-01  0.1215E-01
     -4.777  0.2208E-01  0.1412E-01
     -4.687  0.2349E-01  0.1623E-01
     -4.598  0.2285E-01  0.1827E-01
     -4.508  0.2220E-01  0.2026E-01
     -4.419  0.2339E-01  0.2235E-01
     -4.329  0.2568E-01  0.2465E-01
     -4.239  0.2757E-01  0.2712E-01
     -4.150  0.2907E-01  0.2972E-01
     -4.060  0.3080E-01  0.3248E-01
     -3.971  0.3220E-01  0.3536E-01
     -3.881  0.3231E-01  0.3826E-01
     -3.792  0.3109E-01  0.4104E-01
     -3.702  0.3000E-01  0.4373E-01
     -3.613  0.3177E-01  0.4657E-01
     -3.523  0.3759E-01  0.4993E-01
     -3.434  0.4420E-01  0.5389E-01
     -3.344  0.4739E-01  0.5813E-01
     -3.255  0.4723E-01  0.6236E-01
     -3.165  0.4661E-01  0.6653E-01
     -3.076  0.4709E-01  0.7075E-01
     -2.986  0.4832E-01  0.7508E-01
     -2.897  0.4847E-01  0.7942E-01
     -2.807  0.4576E-01  0.8351E-01
     -2.718  0.4219E-01  0.8729E-01
     -2.628  0.4256E-01  0.9110E-01
     -2.539  0.4749E-01  0.9535E-01
     -2.449  0.5145E-01  0.9996E-01
     -2.359  0.4910E-01  0.1044E+00
     -2.270  0.4083E-01  0.1080E+00
     -2.180  0.3138E-01  0.1108E+00
     -2.091  0.2454E-01  0.1130E+00
     -2.001  0.2152E-01  0.1149E+00
     -1.912  0.2278E-01  0.1170E+00
     -1.822  0.2797E-01  0.1195E+00
     -1.733  0.3432E-01  0.1226E+00
     -1.643  0.3709E-01  0.1259E+00
     -1.554  0.3352E-01  0.1289E+00
     -1.464  0.2493E-01  0.1311E+00
     -1.375  0.1491E-01  0.1324E+00
     -1.285  0.6886E-02  0.1331E+00
     -1.196  0.2368E-02  0.1333E+00
     -1.106  0.7085E-03  0.1333E+00
     -1.017  0.9489E-03  0.1334E+00
     -0.927  0.3790E-02  0.1338E+00
     -0.838  0.1169E-01  0.1348E+00
     -0.748  0.2548E-01  0.1371E+00
     -0.659  0.4009E-01  0.1407E+00
     -0.569  0.4809E-01  0.1450E+00
     -0.479  0.4942E-01  0.1494E+00
     -0.390  0.5126E-01  0.1540E+00
     -0.300  0.5723E-01  0.1591E+00
     -0.211  0.6351E-01  0.1648E+00
     -0.121  0.6617E-01  0.1707E+00
     -0.032  0.6522E-01  0.1766E+00
      0.058  0.6102E-01  0.1820E+00
      0.147  0.5417E-01  0.1869E+00
      0.237  0.4852E-01  0.1912E+00
      0.326  0.4790E-01  0.1955E+00
      0.416  0.5005E-01  0.2000E+00
      0.505  0.4764E-01  0.2043E+00
      0.595  0.3678E-01  0.2076E+00
      0.684  0.2292E-01  0.2096E+00
      0.774  0.1582E-01  0.2110E+00
      0.863  0.1991E-01  0.2128E+00
      0.953  0.3035E-01  0.2155E+00
      1.042  0.3696E-01  0.2188E+00
      1.132  0.3383E-01  0.2219E+00
      1.221  0.2493E-01  0.2241E+00
      1.311  0.1779E-01  0.2257E+00
      1.401  0.1544E-01  0.2271E+00
      1.490  0.1780E-01  0.2287E+00
      1.580  0.2414E-01  0.2308E+00
      1.669  0.3007E-01  0.2335E+00
      1.759  0.2909E-01  0.2361E+00
      1.848  0.2128E-01  0.2380E+00
      1.938  0.1484E-01  0.2393E+00
      2.027  0.1743E-01  0.2409E+00
      2.117  0.2972E-01  0.2436E+00
      2.206  0.4609E-01  0.2477E+00
      2.296  0.5983E-01  0.2531E+00
      2.385  0.6794E-01  0.2591E+00
      2.475  0.7127E-01  0.2655E+00
      2.564  0.7140E-01  0.2719E+00
      2.654  0.6815E-01  0.2780E+00
      2.743  0.6125E-01  0.2835E+00
      2.833  0.5482E-01  0.2884E+00
      2.922  0.5479E-01  0.2933E+00
      3.012  0.6140E-01  0.2988E+00
      3.101  0.6875E-01  0.3050E+00
      3.191  0.7120E-01  0.3113E+00
      3.281  0.6835E-01  0.3174E+00
      3.370  0.6457E-01  0.3232E+00
      3.460  0.6504E-01  0.3291E+00
      3.549  0.7118E-01  0.3354E+00
      3.639  0.7924E-01  0.3425E+00
      3.728  0.8411E-01  0.3500E+00
      3.818  0.8518E-01  0.3577E+00
      3.907  0.8674E-01  0.3654E+00
      3.997  0.9124E-01  0.3736E+00
      4.086  0.9477E-01  0.3821E+00
      4.176  0.9221E-01  0.3903E+00
      4.265  0.8376E-01  0.3978E+00
      4.355  0.7521E-01  0.4046E+00
      4.444  0.7407E-01  0.4112E+00
      4.534  0.8232E-01  0.4186E+00
      4.623  0.9211E-01  0.4268E+00
      4.713  0.9302E-01  0.4352E+00
      4.802  0.8282E-01  0.4426E+00
      4.892  0.6908E-01  0.4487E+00
      4.981  0.6219E-01  0.4543E+00
      5.071  0.6658E-01  0.4603E+00
      5.161  0.7692E-01  0.4672E+00
      5.250  0.8310E-01  0.4746E+00
      5.340  0.7909E-01  0.4817E+00
      5.429  0.6775E-01  0.4877E+00
      5.519  0.5737E-01  0.4929E+00
      5.608  0.5322E-01  0.4977E+00
      5.698  0.5468E-01  0.5025E+00
      5.787  0.5673E-01  0.5076E+00
      5.877  0.5269E-01  0.5123E+00
      5.966  0.4101E-01  0.5160E+00
      6.056  0.2847E-01  0.5186E+00
      6.145  0.2269E-01  0.5206E+00
      6.235  0.2411E-01  0.5228E+00
      6.324  0.2673E-01  0.5251E+00
      6.414  0.2503E-01  0.5274E+00
      6.503  0.1941E-01  0.5291E+00
      6.593  0.1407E-01  0.5304E+00
      6.682  0.1099E-01  0.5314E+00
      6.772  0.9000E-02  0.5322E+00
      6.861  0.6627E-02  0.5328E+00
      6.951  0.3916E-02  0.5331E+00
      7.041  0.1810E-02  0.5333E+00
      7.130  0.9863E-03  0.5334E+00
      7.220  0.1756E-02  0.5335E+00
      7.309  0.4314E-02  0.5339E+00
      7.399  0.8049E-02  0.5346E+00
      7.488  0.1134E-01  0.5356E+00
      7.578  0.1348E-01  0.5369E+00
      7.667  0.1589E-01  0.5383E+00
      7.757  0.2025E-01  0.5401E+00
      7.846  0.2618E-01  0.5424E+00
      7.936  0.3096E-01  0.5452E+00
      8.025  0.3258E-01  0.5481E+00
      8.115  0.3311E-01  0.5511E+00
      8.204  0.3606E-01  0.5543E+00
      8.294  0.4020E-01  0.5579E+00
      8.383  0.4125E-01  0.5616E+00
      8.473  0.3893E-01  0.5651E+00
      8.562  0.3770E-01  0.5685E+00
      8.652  0.4112E-01  0.5721E+00
      8.742  0.4857E-01  0.5765E+00
      8.831  0.5769E-01  0.5817E+00
      8.921  0.6750E-01  0.5877E+00
      9.010  0.7676E-01  0.5946E+00
      9.100  0.8235E-01  0.6019E+00
      9.189  0.8305E-01  0.6094E+00
      9.279  0.8201E-01  0.6167E+00
      9.368  0.8330E-01  0.6242E+00
      9.458  0.8782E-01  0.6320E+00
      9.547  0.9252E-01  0.6403E+00
      9.637  0.9315E-01  0.6487E+00
      9.726  0.8832E-01  0.6566E+00
      9.816  0.8086E-01  0.6638E+00
      9.905  0.7615E-01  0.6706E+00
      9.995  0.7925E-01  0.6777E+00
     10.084  0.9171E-01  0.6859E+00
     10.174  0.1097E+00  0.6958E+00
     10.263  0.1257E+00  0.7070E+00
     10.353  0.1315E+00  0.7188E+00
     10.442  0.1222E+00  0.7297E+00
     10.532  0.1022E+00  0.7389E+00
     10.622  0.8415E-01  0.7464E+00
     10.711  0.7748E-01  0.7533E+00
     10.801  0.8198E-01  0.7607E+00
     10.890  0.9143E-01  0.7689E+00
     10.980  0.9916E-01  0.7777E+00
     11.069  0.1018E+00  0.7868E+00
     11.159  0.1006E+00  0.7959E+00
     11.248  0.9597E-01  0.8044E+00
     11.338  0.8526E-01  0.8121E+00
     11.427  0.6889E-01  0.8182E+00
     11.517  0.5388E-01  0.8231E+00
     11.606  0.4771E-01  0.8273E+00
     11.696  0.5339E-01  0.8321E+00
     11.785  0.6773E-01  0.8382E+00
     11.875  0.8167E-01  0.8455E+00
     11.964  0.8886E-01  0.8534E+00
     12.054  0.9230E-01  0.8617E+00
     12.143  0.9565E-01  0.8703E+00
     12.233  0.9561E-01  0.8788E+00
     12.322  0.8679E-01  0.8866E+00
     12.412  0.6919E-01  0.8928E+00
     12.502  0.5098E-01  0.8974E+00
     12.591  0.4258E-01  0.9012E+00
     12.681  0.4730E-01  0.9054E+00
     12.770  0.6014E-01  0.9108E+00
     12.860  0.7255E-01  0.9173E+00
     12.949  0.7801E-01  0.9243E+00
     13.039  0.7717E-01  0.9312E+00
     13.128  0.7705E-01  0.9381E+00
     13.218  0.8144E-01  0.9454E+00
     13.307  0.8379E-01  0.9529E+00
     13.397  0.7649E-01  0.9597E+00
     13.486  0.6349E-01  0.9654E+00
     13.576  0.5430E-01  0.9703E+00
     13.665  0.5158E-01  0.9749E+00
     13.755  0.5054E-01  0.9794E+00
     13.844  0.4567E-01  0.9835E+00
     13.934  0.3683E-01  0.9868E+00
     14.023  0.2993E-01  0.9895E+00
     14.113  0.3093E-01  0.9922E+00
     14.202  0.4092E-01  0.9959E+00
     14.292  0.5668E-01  0.1001E+01
     14.382  0.7224E-01  0.1007E+01
     14.471  0.7935E-01  0.1015E+01
     14.561  0.7168E-01  0.1021E+01
     14.650  0.5307E-01  0.1026E+01
     14.740  0.3621E-01  0.1029E+01
     14.829  0.2952E-01  0.1032E+01
     14.919  0.3088E-01  0.1034E+01
     15.008  0.3304E-01  0.1037E+01
     15.098  0.3054E-01  0.1040E+01
     15.187  0.2363E-01  0.1042E+01
     15.277  0.1748E-01  0.1044E+01
     15.366  0.1598E-01  0.1045E+01
     15.456  0.1782E-01  0.1047E+01
     15.545  0.2029E-01  0.1049E+01
     15.635  0.2392E-01  0.1051E+01
     15.724  0.2922E-01  0.1053E+01
     15.814  0.3129E-01  0.1056E+01
     15.903  0.2533E-01  0.1058E+01
     15.993  0.1458E-01  0.1060E+01
     16.082  0.5855E-02  0.1060E+01
     16.172  0.1635E-02  0.1060E+01
     16.262  0.3377E-03  0.1060E+01
     16.351  0.2005E-03  0.1060E+01
     16.441  0.7656E-03  0.1061E+01
     16.530  0.2491E-02  0.1061E+01
     16.620  0.5575E-02  0.1061E+01
     16.709  0.8698E-02  0.1062E+01
     16.799  0.9950E-02  0.1063E+01
     16.888  0.9402E-02  0.1064E+01
     16.978  0.8675E-02  0.1065E+01
     17.067  0.8202E-02  0.1065E+01
     17.157  0.7074E-02  0.1066E+01
     17.246  0.4932E-02  0.1066E+01
     17.336  0.2584E-02  0.1067E+01
     17.425  0.9745E-03  0.1067E+01
     17.515  0.2575E-03  0.1067E+01
     17.604  0.4692E-04  0.1067E+01
     17.694  0.5842E-05  0.1067E+01
     17.783  0.4945E-06  0.1067E+01
     17.873  0.2837E-07  0.1067E+01
     17.962  0.1101E-08  0.1067E+01
     18.052  0.2886E-10  0.1067E+01
     18.142  0.5106E-12  0.1067E+01
     18.231  0.6088E-14  0.1067E+01
     18.321  0.5038E-16  0.1067E+01
     18.410  0.0000E+00  0.1067E+01
     18.500  0.0000E+00  0.1067E+01
     18.589  0.0000E+00  0.1067E+01
     18.679  0.0000E+00  0.1067E+01
     18.768  0.0000E+00  0.1067E+01
     18.858  0.0000E+00  0.1067E+01
     18.947  0.0000E+00  0.1067E+01
     19.037  0.0000E+00  0.1067E+01
     19.126  0.0000E+00  0.1067E+01
