    2    2   15    1
  0.1808638E+02  0.3712207E-09  0.3712207E-09  0.3712207E-09  0.5000000E-15
  1.000000000000000E-004
  CAR 
 unknown system                          
      8     60      8
 
  0.6250000E-01  0.6250000E-01  0.6250000E-01  0.3906250E-02
    1       -5.730936   1.000000
    2        6.366436   1.000000
    3        6.807994   0.979393
    4        6.807994   0.979393
    5        9.637448   0.000000
    6        9.643253   0.000000
    7        9.643253   0.000000
    8       11.791223   0.000000
 
  0.1875000E+00  0.6250000E-01  0.6250000E-01  0.1171875E-01
    1       -5.435012   1.000000
    2        4.807429   1.000000
    3        5.899810   1.000000
    4        6.692939   0.997848
    5        9.868053   0.000000
    6        9.903488   0.000000
    7       10.305646   0.000000
    8       12.941649   0.000000
 
  0.3125000E+00  0.6250000E-01  0.6250000E-01  0.1171875E-01
    1       -4.717137   1.000000
    2        2.387542   1.000000
    3        5.389097   1.000000
    4        6.189022   1.000000
    5        9.517366   0.000000
    6       10.374360   0.000000
    7       10.692104   0.000000
    8       13.689314   0.000000
 
  0.4375000E+00  0.6250000E-01  0.6250000E-01  0.1171875E-01
    1       -3.696396   1.000000
    2        0.300733   1.000000
    3        5.174178   1.000000
    4        5.743743   1.000000
    5        9.213711   0.000000
    6       10.339676   0.000000
    7       10.356683   0.000000
    8       15.002721   0.000000
 
 -0.4375000E+00  0.6250000E-01  0.6250000E-01  0.1171875E-01
    1       -3.165178   1.000000
    2       -0.503845   1.000000
    3        5.244300   1.000000
    4        5.497012   1.000000
    5        9.123144   0.000000
    6       10.112815   0.000000
    7       10.405996   0.000000
    8       14.978220   0.000000
 
 -0.3125000E+00  0.6250000E-01  0.6250000E-01  0.1171875E-01
    1       -4.050336   1.000000
    2        0.924560   1.000000
    3        5.505315   1.000000
    4        5.562125   1.000000
    5        9.268976   0.000000
    6       10.179936   0.000000
    7       10.742125   0.000000
    8       14.075845   0.000000
 
 -0.1875000E+00  0.6250000E-01  0.6250000E-01  0.1171875E-01
    1       -4.999452   1.000000
    2        3.183822   1.000000
    3        5.793740   1.000000
    4        6.063897   1.000000
    5        9.537850   0.000000
    6       10.219105   0.000000
    7       10.923565   0.000000
    8       12.856467   0.000000
 
 -0.6250000E-01  0.6250000E-01  0.6250000E-01  0.1171875E-01
    1       -5.582323   1.000000
    2        5.610329   1.000000
    3        6.318981   1.000000
    4        6.539697   0.999959
    5        9.332982   0.000000
    6       10.127111   0.000000
    7       10.298969   0.000000
    8       12.333880   0.000000
 
  0.1875000E+00  0.1875000E+00  0.6250000E-01  0.1171875E-01
    1       -5.286357   1.000000
    2        4.725069   1.000000
    3        5.694802   1.000000
    4        5.843437   1.000000
    5        8.858137   0.000000
    6       11.019977   0.000000
    7       11.247814   0.000000
    8       11.831856   0.000000
 
  0.3125000E+00  0.1875000E+00  0.6250000E-01  0.2343750E-01
    1       -4.705872   1.000000
    2        3.122188   1.000000
    3        4.628320   1.000000
    4        5.547709   1.000000
    5        9.043303   0.000000
    6       11.128284   0.000000
    7       11.366122   0.000000
    8       12.098824   0.000000
 
  0.4375000E+00  0.1875000E+00  0.6250000E-01  0.2343750E-01
    1       -3.759625   1.000000
    2        1.043095   1.000000
    3        4.141972   1.000000
    4        5.070288   1.000000
    5        9.255145   0.000000
    6       10.891686   0.000000
    7       12.113535   0.000000
    8       12.256918   0.000000
 
 -0.4375000E+00  0.1875000E+00  0.6250000E-01  0.2343750E-01
    1       -2.871379   1.000000
    2       -0.342514   1.000000
    3        3.841137   1.000000
    4        4.959104   1.000000
    5        9.372218   0.000000
    6       10.469299   0.000000
    7       11.897970   0.000000
    8       14.518220   0.000000
 
 -0.3125000E+00  0.1875000E+00  0.6250000E-01  0.2343750E-01
    1       -3.411224   1.000000
    2        0.454864   1.000000
    3        3.734098   1.000000
    4        5.288034   1.000000
    5        9.786828   0.000000
    6       10.282972   0.000000
    7       11.863028   0.000000
    8       13.652170   0.000000
 
 -0.1875000E+00  0.1875000E+00  0.6250000E-01  0.2343750E-01
    1       -4.428975   1.000000
    2        2.399990   1.000000
    3        4.007545   1.000000
    4        5.866656   1.000000
    5       10.078704   0.000000
    6       10.415068   0.000000
    7       11.768643   0.000000
    8       12.079888   0.000000
 
 -0.6250000E-01  0.1875000E+00  0.6250000E-01  0.2343750E-01
    1       -5.141829   1.000000
    2        3.962368   1.000000
    3        5.259273   1.000000
    4        6.289087   1.000000
    5        9.511709   0.000000
    6       10.501634   0.000000
    7       11.030760   0.000000
    8       12.288082   0.000000
 
  0.3125000E+00  0.3125000E+00  0.6250000E-01  0.1171875E-01
    1       -4.264669   1.000000
    2        2.677654   1.000000
    3        4.468847   1.000000
    4        4.604131   1.000000
    5        7.940551   0.000000
    6        9.600635   0.000000
    7       13.340318   0.000000
    8       13.419427   0.000000
 
  0.4375000E+00  0.3125000E+00  0.6250000E-01  0.2343750E-01
    1       -3.429050   1.000000
    2        1.331435   1.000000
    3        3.577048   1.000000
    4        4.208430   1.000000
    5        8.263953   0.000000
    6        9.454599   0.000000
    7       13.269150   0.000000
    8       14.512844   0.000000
 
 -0.4375000E+00  0.3125000E+00  0.6250000E-01  0.2343750E-01
    1       -2.404450   1.000000
    2       -0.029852   1.000000
    3        2.636730   1.000000
    4        4.176271   1.000000
    5        8.486061   0.000000
    6       11.276302   0.000000
    7       12.798202   0.000000
    8       14.444561   0.000000
 
 -0.3125000E+00  0.3125000E+00  0.6250000E-01  0.2343750E-01
    1       -2.475210   1.000000
    2        0.068633   1.000000
    3        2.222414   1.000000
    4        4.567540   1.000000
    5        8.951026   0.000000
    6       12.161921   0.000000
    7       13.557043   0.000000
    8       13.824708   0.000000
 
 -0.1875000E+00  0.3125000E+00  0.6250000E-01  0.2343750E-01
    1       -3.493795   1.000000
    2        1.079298   1.000000
    3        2.928234   1.000000
    4        5.233516   1.000000
    5        9.725774   0.000000
    6       10.996511   0.000000
    7       12.594772   0.000000
    8       12.780732   0.000000
 
 -0.6250000E-01  0.3125000E+00  0.6250000E-01  0.2343750E-01
    1       -4.300433   1.000000
    2        1.669508   1.000000
    3        4.803063   1.000000
    4        5.761800   1.000000
    5        9.644297   0.000000
    6       10.324518   0.000000
    7       11.201336   0.000000
    8       12.924358   0.000000
 
  0.4375000E+00  0.4375000E+00  0.6250000E-01  0.1171875E-01
    1       -2.709754   1.000000
    2        0.399567   1.000000
    3        3.694557   1.000000
    4        3.955426   1.000000
    5        7.460116   0.005087
    6        8.160332   0.000000
    7       15.741474   0.000000
    8       15.832527   0.000000
 
 -0.4375000E+00  0.4375000E+00  0.6250000E-01  0.2343750E-01
    1       -1.691536   1.000000
    2       -0.685107   1.000000
    3        3.040022   1.000000
    4        3.665749   1.000000
    5        7.910204   0.000000
    6        8.715693   0.000000
    7       15.476678   0.000000
    8       16.713057   0.000000
 
 -0.3125000E+00  0.4375000E+00  0.6250000E-01  0.2343750E-01
    1       -1.758993   1.000000
    2       -0.529137   1.000000
    3        2.192853   1.000000
    4        4.018240   1.000000
    5        8.318579   0.000000
    6       11.133614   0.000000
    7       13.822506   0.000000
    8       15.079708   0.000000
 
 -0.1875000E+00  0.4375000E+00  0.6250000E-01  0.2343750E-01
    1       -2.590544   1.000000
    2       -0.229347   1.000000
    3        2.926484   1.000000
    4        4.695141   1.000000
    5        9.100366   0.000000
    6       11.277229   0.000000
    7       12.948596   0.000000
    8       14.291758   0.000000
 
 -0.6250000E-01  0.4375000E+00  0.6250000E-01  0.2343750E-01
    1       -3.277220   1.000000
    2       -0.144460   1.000000
    3        4.643053   1.000000
    4        5.377191   1.000000
    5        9.518418   0.000000
    6       10.038284   0.000000
    7       10.961666   0.000000
    8       14.798742   0.000000
 
 -0.4375000E+00 -0.4375000E+00  0.6250000E-01  0.1171875E-01
    1       -1.758514   1.000000
    2       -0.712442   1.000000
    3        3.542049   1.000000
    4        3.823204   1.000000
    5        7.421769   0.010762
    6        7.810486   0.000000
    7       16.965284   0.000000
    8       17.126306   0.000000
 
 -0.3125000E+00 -0.4375000E+00  0.6250000E-01  0.2343750E-01
    1       -2.608400   1.000000
    2        0.333765   1.000000
    3        3.223707   1.000000
    4        3.839969   1.000000
    5        8.027978   0.000000
    6        8.962215   0.000000
    7       14.332883   0.000000
    8       15.790499   0.000000
 
 -0.1875000E+00 -0.4375000E+00  0.6250000E-01  0.2343750E-01
    1       -3.114031   1.000000
    2        0.491870   1.000000
    3        3.369608   1.000000
    4        4.512768   1.000000
    5        8.810903   0.000000
    6       11.435394   0.000000
    7       12.021883   0.000000
    8       13.241066   0.000000
 
 -0.3125000E+00 -0.3125000E+00  0.6250000E-01  0.1171875E-01
    1       -3.549582   1.000000
    2        1.544600   1.000000
    3        4.001918   1.000000
    4        4.217603   1.000000
    5        7.631365   0.000078
    6        8.763697   0.000000
    7       14.561538   0.000000
    8       14.569830   0.000000
 
 -0.1875000E+00 -0.3125000E+00  0.6250000E-01  0.2343750E-01
    1       -4.132294   1.000000
    2        2.259706   1.000000
    3        4.059538   1.000000
    4        4.794408   1.000000
    5        8.610087   0.000000
    6       10.190846   0.000000
    7       12.274303   0.000000
    8       13.274179   0.000000
 
 -0.1875000E+00 -0.1875000E+00  0.6250000E-01  0.1171875E-01
    1       -4.845715   1.000000
    2        3.748741   1.000000
    3        5.096338   1.000000
    4        5.104238   1.000000
    5        8.365068   0.000000
    6       10.642619   0.000000
    7       12.161414   0.000000
    8       12.309680   0.000000
 
  0.1875000E+00  0.1875000E+00  0.1875000E+00  0.3906250E-02
    1       -5.289231   1.000000
    2        4.004549   1.000000
    3        6.320906   1.000000
    4        6.320906   1.000000
    5        9.484621   0.000000
    6       10.311716   0.000000
    7       10.311716   0.000000
    8       13.681004   0.000000
 
  0.3125000E+00  0.1875000E+00  0.1875000E+00  0.1171875E-01
    1       -4.854653   1.000000
    2        3.161943   1.000000
    3        4.621949   1.000000
    4        6.366331   1.000000
    5       10.142701   0.000000
    6       10.428690   0.000000
    7       10.779968   0.000000
    8       13.053483   0.000000
 
  0.4375000E+00  0.1875000E+00  0.1875000E+00  0.1171875E-01
    1       -4.021198   1.000000
    2        1.709861   1.000000
    3        3.417122   1.000000
    4        5.799252   1.000000
    5        9.769684   0.000000
    6       11.233077   0.000000
    7       11.525689   0.000000
    8       13.186106   0.000000
 
 -0.4375000E+00  0.1875000E+00  0.1875000E+00  0.1171875E-01
    1       -2.997150   1.000000
    2        0.010057   1.000000
    3        3.305986   1.000000
    4        5.200333   1.000000
    5        9.118430   0.000000
    6       11.551261   0.000000
    7       11.574858   0.000000
    8       15.071852   0.000000
 
 -0.3125000E+00  0.1875000E+00  0.1875000E+00  0.1171875E-01
    1       -2.981887   1.000000
    2       -0.018839   1.000000
    3        3.657562   1.000000
    4        4.837944   1.000000
    5        8.761007   0.000000
    6       11.665286   0.000000
    7       11.922025   0.000000
    8       13.135865   0.000000
 
 -0.1875000E+00  0.1875000E+00  0.1875000E+00  0.1171875E-01
    1       -4.005755   1.000000
    2        1.702213   1.000000
    3        4.328798   1.000000
    4        4.800223   1.000000
    5        8.690099   0.000000
    6       10.998811   0.000000
    7       12.052767   0.000000
    8       12.404888   0.000000
 
  0.3125000E+00  0.3125000E+00  0.1875000E+00  0.1171875E-01
    1       -4.569421   1.000000
    2        2.418886   1.000000
    3        5.263703   1.000000
    4        5.270864   1.000000
    5        9.202476   0.000000
    6       10.941041   0.000000
    7       11.625735   0.000000
    8       11.832781   0.000000
 
  0.4375000E+00  0.3125000E+00  0.1875000E+00  0.2343750E-01
    1       -3.871961   1.000000
    2        1.675075   1.000000
    3        3.479180   1.000000
    4        5.054257   1.000000
    5        9.686387   0.000000
    6       10.847914   0.000000
    7       11.332197   0.000000
    8       13.057998   0.000000
 
 -0.4375000E+00  0.3125000E+00  0.1875000E+00  0.2343750E-01
    1       -2.866344   1.000000
    2        0.498960   1.000000
    3        2.577789   1.000000
    4        4.391878   1.000000
    5       10.124388   0.000000
    6       10.714776   0.000000
    7       12.094357   0.000000
    8       14.203603   0.000000
 
 -0.3125000E+00  0.3125000E+00  0.1875000E+00  0.2343750E-01
    1       -2.299121   1.000000
    2       -0.217947   1.000000
    3        2.614205   1.000000
    4        4.027652   1.000000
    5        9.604148   0.000000
    6       11.055697   0.000000
    7       12.908402   0.000000
    8       14.449181   0.000000
 
 -0.1875000E+00  0.3125000E+00  0.1875000E+00  0.2343750E-01
    1       -3.195458   1.000000
    2        0.950430   1.000000
    3        3.060836   1.000000
    4        4.236818   1.000000
    5        9.338501   0.000000
    6       10.534178   0.000000
    7       11.792616   0.000000
    8       14.398375   0.000000
 
  0.4375000E+00  0.4375000E+00  0.1875000E+00  0.1171875E-01
    1       -3.319493   1.000000
    2        0.984264   1.000000
    3        3.459005   1.000000
    4        4.435601   1.000000
    5        8.230022   0.000000
    6       10.399829   0.000000
    7       13.257941   0.000000
    8       13.276946   0.000000
 
 -0.4375000E+00  0.4375000E+00  0.1875000E+00  0.2343750E-01
    1       -2.419226   1.000000
    2        0.176310   1.000000
    3        2.764375   1.000000
    4        3.618699   1.000000
    5        9.089780   0.000000
    6       10.146433   0.000000
    7       12.701377   0.000000
    8       15.751101   0.000000
 
 -0.3125000E+00  0.4375000E+00  0.1875000E+00  0.2343750E-01
    1       -1.497665   1.000000
    2       -0.638868   1.000000
    3        2.373981   1.000000
    4        3.037235   1.000000
    5       10.278644   0.000000
    6       11.215398   0.000000
    7       12.263490   0.000000
    8       13.274579   0.000000
 
 -0.1875000E+00  0.4375000E+00  0.1875000E+00  0.2343750E-01
    1       -2.173885   1.000000
    2       -0.066845   1.000000
    3        2.392784   1.000000
    4        3.581568   1.000000
    5       10.360870   0.000000
    6       10.891582   0.000000
    7       11.857422   0.000000
    8       14.470589   0.000000
 
 -0.4375000E+00 -0.4375000E+00  0.1875000E+00  0.1171875E-01
    1       -1.695506   1.000000
    2       -0.640480   1.000000
    3        2.498616   1.000000
    4        4.059320   1.000000
    5        7.724010   0.000005
    6        9.829646   0.000000
    7       15.319721   0.000000
    8       15.751540   0.000000
 
 -0.3125000E+00 -0.4375000E+00  0.1875000E+00  0.2343750E-01
    1       -1.584839   1.000000
    2       -0.653076   1.000000
    3        2.605423   1.000000
    4        3.301925   1.000000
    5        8.960920   0.000000
    6        9.951304   0.000000
    7       13.757036   0.000000
    8       14.944547   0.000000
 
 -0.3125000E+00 -0.3125000E+00  0.1875000E+00  0.1171875E-01
    1       -2.530553   1.000000
    2        0.198911   1.000000
    3        2.821024   1.000000
    4        4.185933   1.000000
    5        7.896869   0.000000
    6       10.016114   0.000000
    7       14.255955   0.000000
    8       14.500772   0.000000
 
  0.3125000E+00  0.3125000E+00  0.3125000E+00  0.3906250E-02
    1       -4.445977   1.000000
    2        1.605005   1.000000
    3        5.877765   1.000000
    4        5.877765   1.000000
    5        9.076168   0.000000
    6       10.452984   0.000000
    7       10.452984   0.000000
    8       14.756983   0.000000
 
  0.4375000E+00  0.3125000E+00  0.3125000E+00  0.1171875E-01
    1       -3.908152   1.000000
    2        1.002995   1.000000
    3        4.270864   1.000000
    4        5.787742   1.000000
    5        9.675351   0.000000
    6       10.733177   0.000000
    7       10.752691   0.000000
    8       14.121371   0.000000
 
 -0.4375000E+00  0.3125000E+00  0.3125000E+00  0.1171875E-01
    1       -3.016808   1.000000
    2        0.536830   1.000000
    3        2.491317   1.000000
    4        5.125676   1.000000
    5        8.993619   0.000000
    6       12.328418   0.000000
    7       12.587143   0.000000
    8       13.950035   0.000000
 
 -0.3125000E+00  0.3125000E+00  0.3125000E+00  0.1171875E-01
    1       -2.079431   1.000000
    2       -0.284050   1.000000
    3        2.071666   1.000000
    4        4.510814   1.000000
    5        8.259288   0.000000
    6       12.407509   0.000000
    7       13.706960   0.000000
    8       14.323195   0.000000
 
  0.4375000E+00  0.4375000E+00  0.3125000E+00  0.1171875E-01
    1       -3.549110   1.000000
    2        0.376352   1.000000
    3        4.684433   1.000000
    4        5.142222   1.000000
    5        9.173535   0.000000
    6       10.669280   0.000000
    7       11.239034   0.000000
    8       13.495056   0.000000
 
 -0.4375000E+00  0.4375000E+00  0.3125000E+00  0.2343750E-01
    1       -2.847581   1.000000
    2        0.043391   1.000000
    3        3.188476   1.000000
    4        4.580716   1.000000
    5        9.882058   0.000000
    6       10.305112   0.000000
    7       13.056917   0.000000
    8       13.292785   0.000000
 
 -0.3125000E+00  0.4375000E+00  0.3125000E+00  0.2343750E-01
    1       -1.929359   1.000000
    2       -0.328049   1.000000
    3        2.173088   1.000000
    4        3.763785   1.000000
    5        9.460425   0.000000
    6       11.857504   0.000000
    7       12.844774   0.000000
    8       13.484627   0.000000
 
 -0.4375000E+00 -0.4375000E+00  0.3125000E+00  0.1171875E-01
    1       -2.436148   1.000000
    2       -0.237638   1.000000
    3        2.707105   1.000000
    4        4.622151   1.000000
    5        8.432032   0.000000
    6       12.363542   0.000000
    7       12.767234   0.000000
    8       13.330960   0.000000
 
  0.4375000E+00  0.4375000E+00  0.4375000E+00  0.3906250E-02
    1       -3.423294   1.000000
    2       -0.234380   1.000000
    3        5.645227   1.000000
    4        5.645227   1.000000
    5        8.834398   0.000000
    6       10.220660   0.000000
    7       10.220660   0.000000
    8       14.806714   0.000000
 
 -0.4375000E+00  0.4375000E+00  0.4375000E+00  0.1171875E-01
    1       -3.019143   1.000000
    2       -0.414764   1.000000
    3        4.321682   1.000000
    4        5.334423   1.000000
    5        9.289806   0.000000
    6       10.575895   0.000000
    7       10.868237   0.000000
    8       15.469068   0.000000
