unknown system                          
   1.00000000000000     
    -0.000000    2.732961    2.732961
     2.732961    0.000000    2.732961
     2.732961    2.732961   -0.000000
   Si
     2
Direct
  0.500000  0.500000  0.500000
  0.750000  0.750000  0.750000
 
   32   32   32
 0.85247574096E+00 0.87375398219E+00 0.93881108746E+00 0.10513075214E+01 0.12173035641E+01
 0.14450256465E+01 0.17441136236E+01 0.21239367689E+01 0.25906897440E+01 0.31433678412E+01
 0.37693328948E+01 0.44408234603E+01 0.51140849430E+01 0.57324826049E+01 0.62339595726E+01
 0.65617523613E+01 0.66758342731E+01 0.65617528455E+01 0.62339602041E+01 0.57324813144E+01
 0.51140795176E+01 0.44408150241E+01 0.37693253322E+01 0.31433633900E+01 0.25906874634E+01
 0.21239354667E+01 0.17441136178E+01 0.14450270842E+01 0.12173054395E+01 0.10513091498E+01
 0.93881266490E+00 0.87375522162E+00 0.87375398219E+00 0.91045896489E+00 0.98586802613E+00
 0.11038561546E+01 0.12699133124E+01 0.14906877453E+01 0.17731143836E+01 0.21228159760E+01
 0.25415623282E+01 0.30239419603E+01 0.35539955504E+01 0.41031247541E+01 0.46307198428E+01
 0.50883786907E+01 0.54274272954E+01 0.56081393221E+01 0.56081409491E+01 0.54274289717E+01
 0.50883733324E+01 0.46307038940E+01 0.41031055102E+01 0.35539881072E+01 0.30239542823E+01
 0.25415843377E+01 0.21228283139E+01 0.17731087183E+01 0.14906741658E+01 0.12699062705E+01
 0.11038580747E+01 0.98587080701E+00 0.91045776988E+00 0.87375244478E+00 0.93881108746E+00
 0.98586802613E+00 0.10669516321E+01 0.11857785888E+01 0.13470306204E+01 0.15557825563E+01
 0.18165694461E+01 0.21318783038E+01 0.24999541913E+01 0.29121672054E+01 0.33507210984E+01
 0.37878812746E+01 0.41877851756E+01 0.45111542224E+01 0.47221278736E+01 0.47954835147E+01
 0.47221293900E+01 0.45111559402E+01 0.41877861786E+01 0.37878818117E+01 0.33507215009E+01
 0.29121670547E+01 0.24999530854E+01 0.21318767621E+01 0.18165684382E+01 0.15557824569E+01
 0.13470310317E+01 0.11857789338E+01 0.10669516094E+01 0.98586769089E+00 0.93881076037E+00
 0.92339877737E+00 0.10513075214E+01 0.11038561546E+01 0.11857785888E+01 0.13004609357E+01
 0.14517960133E+01 0.16435227205E+01 0.18782317836E+01 0.21559350236E+01 0.24722198826E+01
 0.28163359539E+01 0.31699627845E+01 0.35075819592E+01 0.37990593732E+01 0.40142725573E+01
 0.41287491335E+01 0.41287496592E+01 0.40142738013E+01 0.37990626303E+01 0.35075908161E+01
 0.31699763185E+01 0.28163437445E+01 0.24722105956E+01 0.21559110794E+01 0.18782101990E+01
 0.16435184717E+01 0.14518076209E+01 0.13004749214E+01 0.11857849176E+01 0.11038554001E+01
 0.10513050768E+01 0.10256739557E+01 0.10256749484E+01 0.12173035641E+01 0.12699133124E+01
 0.13470306204E+01 0.14517960133E+01 0.15875370524E+01 0.17569967366E+01 0.19612813238E+01
 0.21985369371E+01 0.24624999434E+01 0.27413273728E+01 0.30173400022E+01 0.32682656781E+01
 0.34701415760E+01 0.36013748809E+01 0.36469183090E+01 0.36013750859E+01 0.34701419368E+01
 0.32682657071E+01 0.30173387415E+01 0.27413241902E+01 0.24624954861E+01 0.21985330102E+01
 0.19612795175E+01 0.17569971733E+01 0.15875385476E+01 0.14517972693E+01 0.13470310723E+01
 0.12699130681E+01 0.12173030098E+01 0.11867481109E+01 0.11767323857E+01 0.11867485424E+01
 0.14450256465E+01 0.14906877453E+01 0.15557825563E+01 0.16435227205E+01 0.17569967366E+01
 0.18982822294E+01 0.20673928803E+01 0.22611535568E+01 0.24722203920E+01 0.26886383828E+01
 0.28943846842E+01 0.30711355392E+01 0.32010526962E+01 0.32699410549E+01 0.32699402730E+01
 0.32010517218E+01 0.30711351338E+01 0.28943812772E+01 0.26886283819E+01 0.24722081200E+01
 0.22611504744E+01 0.20674060316E+01 0.18983047917E+01 0.17570125893E+01 0.16435210307E+01
 0.15557672208E+01 0.14906724695E+01 0.14450205239E+01 0.14161079608E+01 0.14020972398E+01
 0.14020944729E+01 0.14161046278E+01 0.17441136236E+01 0.17731143836E+01 0.18165694461E+01
 0.18782317836E+01 0.19612813238E+01 0.20673928803E+01 0.21958122364E+01 0.23425561964E+01
 0.24999541733E+01 0.26568461427E+01 0.27996725204E+01 0.29143884759E+01 0.29887744806E+01
 0.30145458363E+01 0.29887759662E+01 0.29143908376E+01 0.27996747846E+01 0.26568477905E+01
 0.24999556971E+01 0.23425582713E+01 0.21958144380E+01 0.20673939449E+01 0.19612807009E+01
 0.18782301965E+01 0.18165678001E+01 0.17731128420E+01 0.17441120093E+01 0.17260660288E+01
 0.17163033578E+01 0.17132236913E+01 0.17163042777E+01 0.17260675341E+01 0.21239367689E+01
 0.21228159760E+01 0.21318783038E+01 0.21559350236E+01 0.21985369371E+01 0.22611535568E+01
 0.23425561964E+01 0.24384564655E+01 0.25415617854E+01 0.26422562987E+01 0.27299415661E+01
 0.27947534173E+01 0.28291764473E+01 0.28291788598E+01 0.27947587082E+01 0.27299463566E+01
 0.26422601922E+01 0.25415678503E+01 0.24384657982E+01 0.23425625499E+01 0.22611466812E+01
 0.21985142874E+01 0.21559089757E+01 0.21318672663E+01 0.21228261415E+01 0.21239554193E+01
 0.21301432189E+01 0.21369270610E+01 0.21411302202E+01 0.21411333661E+01 0.21369291968E+01
 0.21301333836E+01 0.25906897440E+01 0.25415623282E+01 0.24999541913E+01 0.24722198826E+01
 0.24624999434E+01 0.24722203920E+01 0.24999541733E+01 0.25415617854E+01 0.25906897185E+01
 0.26397306688E+01 0.26811273397E+01 0.27086489755E+01 0.27182815817E+01 0.27086506625E+01
 0.26811291532E+01 0.26397321152E+01 0.25906912743E+01 0.25415620864E+01 0.24999503120E+01
 0.24722118838E+01 0.24624900908E+01 0.24722123933E+01 0.24999502939E+01 0.25415615437E+01
 0.25906912488E+01 0.26397326109E+01 0.26811291352E+01 0.27086501336E+01 0.27182815817E+01
 0.27086495045E+01 0.26811273577E+01 0.26397301732E+01 0.31433678412E+01 0.30239419603E+01
 0.29121672054E+01 0.28163359539E+01 0.27413273728E+01 0.26886383828E+01 0.26568461427E+01
 0.26422562987E+01 0.26397306688E+01 0.26437190235E+01 0.26493117717E+01 0.26529994272E+01
 0.26529994874E+01 0.26493104227E+01 0.26437157699E+01 0.26397288104E+01 0.26422559630E+01
 0.26568404694E+01 0.26886243362E+01 0.27413157617E+01 0.28163409951E+01 0.29121870843E+01
 0.30239585152E+01 0.31433670895E+01 0.32594683805E+01 0.33602183698E+01 0.34344779581E+01
 0.34738413043E+01 0.34738418618E+01 0.34344829884E+01 0.33602312224E+01 0.32594821456E+01
 0.37693328948E+01 0.35539955504E+01 0.33507210984E+01 0.31699627845E+01 0.30173400022E+01
 0.28943846842E+01 0.27996725204E+01 0.27299415661E+01 0.26811273397E+01 0.26493117717E+01
 0.26314459020E+01 0.26256911573E+01 0.26314459149E+01 0.26493101331E+01 0.26811250085E+01
 0.27299411982E+01 0.27996733810E+01 0.28943837924E+01 0.30173381458E+01 0.31699638487E+01
 0.33507254087E+01 0.35539994232E+01 0.37693349178E+01 0.39817115432E+01 0.41731848224E+01
 0.43256488077E+01 0.44238475729E+01 0.44577418469E+01 0.44238480396E+01 0.43256475167E+01
 0.41731819398E+01 0.39817092846E+01 0.44408234603E+01 0.41031247541E+01 0.37878812746E+01
 0.35075819592E+01 0.32682656781E+01 0.30711355392E+01 0.29143884759E+01 0.27947534173E+01
 0.27086489755E+01 0.26529994272E+01 0.26256911573E+01 0.26256901762E+01 0.26529977320E+01
 0.27086487457E+01 0.27947547888E+01 0.29143895341E+01 0.30711365599E+01 0.32682704892E+01
 0.35075909070E+01 0.37878856699E+01 0.41031158684E+01 0.44408069231E+01 0.47815327912E+01
 0.51003119797E+01 0.53699803052E+01 0.55655841331E+01 0.56683626206E+01 0.56683573025E+01
 0.55655683814E+01 0.53699599552E+01 0.51003009835E+01 0.47815399540E+01 0.51140849430E+01
 0.46307198428E+01 0.41877851756E+01 0.37990593732E+01 0.34701415760E+01 0.32010526962E+01
 0.29887744806E+01 0.28291764473E+01 0.27182815817E+01 0.26529994874E+01 0.26314459149E+01
 0.26529977320E+01 0.27182786955E+01 0.28291738827E+01 0.29887731242E+01 0.32010516772E+01
 0.34701402307E+01 0.37990595426E+01 0.41877891193E+01 0.46307264334E+01 0.51140904928E+01
 0.56143788216E+01 0.60991058679E+01 0.65303776320E+01 0.68705770868E+01 0.70883765679E+01
 0.71633309653E+01 0.70883798036E+01 0.68705807882E+01 0.65303797181E+01 0.60991059748E+01
 0.56143763597E+01 0.57324826049E+01 0.50883786907E+01 0.45111542224E+01 0.40142725573E+01
 0.36013748809E+01 0.32699410549E+01 0.30145458363E+01 0.28291788598E+01 0.27086506625E+01
 0.26493104227E+01 0.26493101331E+01 0.27086487457E+01 0.28291738827E+01 0.30145389165E+01
 0.32699356691E+01 0.36013728541E+01 0.40142719993E+01 0.45111540429E+01 0.50883837914E+01
 0.57324996086E+01 0.64173686905E+01 0.71037528769E+01 0.77424053832E+01 0.82805249121E+01
 0.86698781254E+01 0.88742045659E+01 0.88742177930E+01 0.86699083189E+01 0.82805504020E+01
 0.77424085476E+01 0.71037336637E+01 0.64173427659E+01 0.62339595726E+01 0.54274272954E+01
 0.47221278736E+01 0.41287491335E+01 0.36469183090E+01 0.32699402730E+01 0.29887759662E+01
 0.27947587082E+01 0.26811291532E+01 0.26437157699E+01 0.26811250085E+01 0.27947547888E+01
 0.29887731242E+01 0.32699356691E+01 0.36469134426E+01 0.41287503161E+01 0.47221375525E+01
 0.54274414153E+01 0.62339738974E+01 0.71157319693E+01 0.80293231960E+01 0.89156351154E+01
 0.97058528973E+01 0.10330920707E+02 0.10732172177E+02 0.10870487890E+02 0.10732171903E+02
 0.10330923519E+02 0.97058575073E+01 0.89156351306E+01 0.80293155158E+01 0.71157193958E+01
 0.65617523613E+01 0.56081393221E+01 0.47954835147E+01 0.41287496592E+01 0.36013750859E+01
 0.32010517218E+01 0.29143908376E+01 0.27299463566E+01 0.26397321152E+01 0.26397288104E+01
 0.27299411982E+01 0.29143895341E+01 0.32010516772E+01 0.36013728541E+01 0.41287503161E+01
 0.47954941435E+01 0.56081584707E+01 0.65617717572E+01 0.76341882901E+01 0.87822129272E+01
 0.99410987140E+01 0.11028535099E+02 0.11953434600E+02 0.12628646523E+02 0.12985287275E+02
 0.12985271450E+02 0.12628617487E+02 0.11953423232E+02 0.11028547329E+02 0.99411153068E+01
 0.87822166660E+01 0.76341772404E+01 0.66758342731E+01 0.56081409491E+01 0.47221293900E+01
 0.40142738013E+01 0.34701419368E+01 0.30711351338E+01 0.27996747846E+01 0.26422601922E+01
 0.25906912743E+01 0.26422559630E+01 0.27996733810E+01 0.30711365599E+01 0.34701402307E+01
 0.40142719993E+01 0.47221375525E+01 0.56081584707E+01 0.66758492730E+01 0.79109055048E+01
 0.92756660090E+01 0.10706241935E+02 0.12113292138E+02 0.13387570530E+02 0.14411589257E+02
 0.15077420515E+02 0.15308285136E+02 0.15077419609E+02 0.14411593772E+02 0.13387579219E+02
 0.12113296370E+02 0.10706239682E+02 0.92756619459E+01 0.79108984143E+01 0.65617528455E+01
 0.54274289717E+01 0.45111559402E+01 0.37990626303E+01 0.32682657071E+01 0.28943812772E+01
 0.26568477905E+01 0.25415678503E+01 0.25415620864E+01 0.26568404694E+01 0.28943837924E+01
 0.32682704892E+01 0.37990595426E+01 0.45111540429E+01 0.54274414153E+01 0.65617717572E+01
 0.79109055048E+01 0.94476619522E+01 0.11116164842E+02 0.12829308375E+02 0.14469239840E+02
 0.15892421481E+02 0.16941543924E+02 0.17496366065E+02 0.17496377145E+02 0.16941566618E+02
 0.15892434121E+02 0.14469232010E+02 0.12829292489E+02 0.11116158696E+02 0.94476632495E+01
 0.79108975495E+01 0.62339602041E+01 0.50883733324E+01 0.41877861786E+01 0.35075908161E+01
 0.30173387415E+01 0.26886283819E+01 0.24999556971E+01 0.24384657982E+01 0.24999503120E+01
 0.26886243362E+01 0.30173381458E+01 0.35075909070E+01 0.41877891193E+01 0.50883837914E+01
 0.62339738974E+01 0.76341882901E+01 0.92756660090E+01 0.11116164842E+02 0.13079906075E+02
 0.15053240645E+02 0.16875084621E+02 0.18342980879E+02 0.19291967934E+02 0.19619808607E+02
 0.19291961050E+02 0.18342974046E+02 0.16875079177E+02 0.15053232203E+02 0.13079896332E+02
 0.11116160215E+02 0.92756644422E+01 0.76341808286E+01 0.57324813144E+01 0.46307038940E+01
 0.37878818117E+01 0.31699763185E+01 0.27413241902E+01 0.24722081200E+01 0.23425582713E+01
 0.23425625499E+01 0.24722118838E+01 0.27413157617E+01 0.31699638487E+01 0.37878856699E+01
 0.46307264334E+01 0.57324996086E+01 0.71157319693E+01 0.87822129272E+01 0.10706241935E+02
 0.12829308375E+02 0.15053240645E+02 0.17219297057E+02 0.19095279287E+02 0.20472020377E+02
 0.21199666876E+02 0.21199652304E+02 0.20471994297E+02 0.19095267482E+02 0.17219296794E+02
 0.15053232902E+02 0.12829294163E+02 0.10706240064E+02 0.87822249378E+01 0.71157352449E+01
 0.51140795176E+01 0.41031055102E+01 0.33507215009E+01 0.28163437445E+01 0.24624954861E+01
 0.22611504744E+01 0.21958144380E+01 0.22611466812E+01 0.24624900908E+01 0.28163409951E+01
 0.33507254087E+01 0.41031158684E+01 0.51140904928E+01 0.64173686905E+01 0.80293231960E+01
 0.99410987140E+01 0.12113292138E+02 0.14469239840E+02 0.16875084621E+02 0.19095279287E+02
 0.20883637398E+02 0.22043223122E+02 0.22444879169E+02 0.22043211931E+02 0.20883620551E+02
 0.19095264250E+02 0.16875077042E+02 0.14469241843E+02 0.12113301761E+02 0.99411100246E+01
 0.80293287651E+01 0.64173645495E+01 0.44408150241E+01 0.35539881072E+01 0.29121670547E+01
 0.24722105956E+01 0.21985330102E+01 0.20674060316E+01 0.20673939449E+01 0.21985142874E+01
 0.24722123933E+01 0.29121870843E+01 0.35539994232E+01 0.44408069231E+01 0.56143788216E+01
 0.71037528769E+01 0.89156351154E+01 0.11028535099E+02 0.13387570530E+02 0.15892421481E+02
 0.18342980879E+02 0.20472020377E+02 0.22043223122E+02 0.22877867565E+02 0.22877866771E+02
 0.22043210644E+02 0.20471989919E+02 0.18342956504E+02 0.15892431542E+02 0.13387605029E+02
 0.11028556974E+02 0.89156310752E+01 0.71037459486E+01 0.56143867906E+01 0.37693253322E+01
 0.30239542823E+01 0.24999530854E+01 0.21559110794E+01 0.19612795175E+01 0.18983047917E+01
 0.19612807009E+01 0.21559089757E+01 0.24999502939E+01 0.30239585152E+01 0.37693349178E+01
 0.47815327912E+01 0.60991058679E+01 0.77424053832E+01 0.97058528973E+01 0.11953434600E+02
 0.14411589257E+02 0.16941543924E+02 0.19291967934E+02 0.21199666876E+02 0.22444879169E+02
 0.22877866771E+02 0.22444873563E+02 0.21199651848E+02 0.19291949251E+02 0.16941535656E+02
 0.14411596772E+02 0.11953450329E+02 0.97058691948E+01 0.77424195886E+01 0.60991133923E+01
 0.47815290432E+01 0.31433633900E+01 0.25415843377E+01 0.21318767621E+01 0.18782101990E+01
 0.17569971733E+01 0.17570125893E+01 0.18782301965E+01 0.21318672663E+01 0.25415615437E+01
 0.31433670895E+01 0.39817115432E+01 0.51003119797E+01 0.65303776320E+01 0.82805249121E+01
 0.10330920707E+02 0.12628646523E+02 0.15077420515E+02 0.17496366065E+02 0.19619808607E+02
 0.21199652304E+02 0.22043211931E+02 0.22043210644E+02 0.21199651848E+02 0.19619811754E+02
 0.17496365430E+02 0.15077407499E+02 0.12628631616E+02 0.10330929439E+02 0.82805615113E+01
 0.65304079547E+01 0.51003045961E+01 0.39816844454E+01 0.25906874634E+01 0.21228283139E+01
 0.18165684382E+01 0.16435184717E+01 0.15875385476E+01 0.16435210307E+01 0.18165678001E+01
 0.21228261415E+01 0.25906912488E+01 0.32594683805E+01 0.41731848224E+01 0.53699803052E+01
 0.68705770868E+01 0.86698781254E+01 0.10732172177E+02 0.12985287275E+02 0.15308285136E+02
 0.17496377145E+02 0.19291961050E+02 0.20471994297E+02 0.20883620551E+02 0.20471989919E+02
 0.19291949251E+02 0.17496365430E+02 0.15308287809E+02 0.12985305821E+02 0.10732193821E+02
 0.86698944905E+01 0.68705897193E+01 0.53699882286E+01 0.41731830778E+01 0.32594604095E+01
 0.21239354667E+01 0.17731087183E+01 0.15557824569E+01 0.14518076209E+01 0.14517972693E+01
 0.15557672208E+01 0.17731128420E+01 0.21239554193E+01 0.26397326109E+01 0.33602183698E+01
 0.43256488077E+01 0.55655841331E+01 0.70883765679E+01 0.88742045659E+01 0.10870487890E+02
 0.12985271450E+02 0.15077419609E+02 0.16941566618E+02 0.18342974046E+02 0.19095267482E+02
 0.19095264250E+02 0.18342956504E+02 0.16941535656E+02 0.15077407499E+02 0.12985305821E+02
 0.10870546261E+02 0.88742377166E+01 0.70883717273E+01 0.55655738978E+01 0.43256571612E+01
 0.33602293778E+01 0.26397235341E+01 0.17441136178E+01 0.14906741658E+01 0.13470310317E+01
 0.13004749214E+01 0.13470310723E+01 0.14906724695E+01 0.17441120093E+01 0.21301432189E+01
 0.26811291352E+01 0.34344779581E+01 0.44238475729E+01 0.56683626206E+01 0.71633309653E+01
 0.88742177930E+01 0.10732171903E+02 0.12628617487E+02 0.14411593772E+02 0.15892434121E+02
 0.16875079177E+02 0.17219296794E+02 0.16875077042E+02 0.15892431542E+02 0.14411596772E+02
 0.12628631616E+02 0.10732193821E+02 0.88742377166E+01 0.71633435246E+01 0.56683693162E+01
 0.44238496936E+01 0.34344748492E+01 0.26811235751E+01 0.21301407464E+01 0.14450270842E+01
 0.12699062705E+01 0.11857789338E+01 0.11857849176E+01 0.12699130681E+01 0.14450205239E+01
 0.17260660288E+01 0.21369270610E+01 0.27086501336E+01 0.34738413043E+01 0.44577418469E+01
 0.56683573025E+01 0.70883798036E+01 0.86699083189E+01 0.10330923519E+02 0.11953423232E+02
 0.13387579219E+02 0.14469232010E+02 0.15053232203E+02 0.15053232902E+02 0.14469241843E+02
 0.13387605029E+02 0.11953450329E+02 0.10330929439E+02 0.86698944905E+01 0.70883717273E+01
 0.56683693162E+01 0.44577580438E+01 0.34738412134E+01 0.27086393851E+01 0.21369263871E+01
 0.17260779512E+01 0.12173054395E+01 0.11038580747E+01 0.10669516094E+01 0.11038554001E+01
 0.12173030098E+01 0.14161079608E+01 0.17163033578E+01 0.21411302202E+01 0.27182815817E+01
 0.34738418618E+01 0.44238480396E+01 0.55655683814E+01 0.68705807882E+01 0.82805504020E+01
 0.97058575073E+01 0.11028547329E+02 0.12113296370E+02 0.12829292489E+02 0.13079896332E+02
 0.12829294163E+02 0.12113301761E+02 0.11028556974E+02 0.97058691948E+01 0.82805615113E+01
 0.68705897193E+01 0.55655738978E+01 0.44238496936E+01 0.34738412134E+01 0.27182808824E+01
 0.21411299784E+01 0.17163030923E+01 0.14161085211E+01 0.10513091498E+01 0.98587080701E+00
 0.98586769089E+00 0.10513050768E+01 0.11867481109E+01 0.14020972398E+01 0.17132236913E+01
 0.21411333661E+01 0.27086495045E+01 0.34344829884E+01 0.43256475167E+01 0.53699599552E+01
 0.65303797181E+01 0.77424085476E+01 0.89156351306E+01 0.99411153068E+01 0.10706239682E+02
 0.11116158696E+02 0.11116160215E+02 0.10706240064E+02 0.99411100246E+01 0.89156310752E+01
 0.77424195886E+01 0.65304079547E+01 0.53699882286E+01 0.43256571612E+01 0.34344748492E+01
 0.27086393851E+01 0.21411299784E+01 0.17132220184E+01 0.14020931964E+01 0.11867466332E+01
 0.93881266490E+00 0.91045776988E+00 0.93881076037E+00 0.10256739557E+01 0.11767323857E+01
 0.14020944729E+01 0.17163042777E+01 0.21369291968E+01 0.26811273577E+01 0.33602312224E+01
 0.41731819398E+01 0.51003009835E+01 0.60991059748E+01 0.71037336637E+01 0.80293155158E+01
 0.87822166660E+01 0.92756619459E+01 0.94476632495E+01 0.92756644422E+01 0.87822249378E+01
 0.80293287651E+01 0.71037459486E+01 0.60991133923E+01 0.51003045961E+01 0.41731830778E+01
 0.33602293778E+01 0.26811235751E+01 0.21369263871E+01 0.17163030923E+01 0.14020931964E+01
 0.11767311958E+01 0.10256747392E+01 0.87375522162E+00 0.87375244478E+00 0.92339877737E+00
 0.10256749484E+01 0.11867485424E+01 0.14161046278E+01 0.17260675341E+01 0.21301333836E+01
 0.26397301732E+01 0.32594821456E+01 0.39817092846E+01 0.47815399540E+01 0.56143763597E+01
 0.64173427659E+01 0.71157193958E+01 0.76341772404E+01 0.79108984143E+01 0.79108975495E+01
 0.76341808286E+01 0.71157352449E+01 0.64173645495E+01 0.56143867906E+01 0.47815290432E+01
 0.39816844454E+01 0.32594604095E+01 0.26397235341E+01 0.21301407464E+01 0.17260779512E+01
 0.14161085211E+01 0.11867466332E+01 0.10256747392E+01 0.92340288133E+00 0.87375463082E+00
 0.91045926510E+00 0.98586812034E+00 0.11038563294E+01 0.12699134922E+01 0.14906876964E+01
 0.17731142154E+01 0.21228159612E+01 0.25415624376E+01 0.30239420638E+01 0.35539958721E+01
 0.41031256347E+01 0.46307212337E+01 0.50883803361E+01 0.54274291818E+01 0.56081414444E+01
 0.56081428378E+01 0.54274299684E+01 0.50883731922E+01 0.46307027124E+01 0.41031033237E+01
 0.35539850796E+01 0.30239510627E+01 0.25415816822E+01 0.21228264656E+01 0.17731075592E+01
 0.14906737275E+01 0.12699066051E+01 0.11038588532E+01 0.98587157996E+00 0.91045847267E+00
 0.87375320123E+00 0.91045926510E+00 0.95636986750E+00 0.10355854607E+01 0.11518390401E+01
 0.13097597687E+01 0.15142830735E+01 0.17697399583E+01 0.20784145641E+01 0.24384572609E+01
 0.28413741996E+01 0.32698192206E+01 0.36968118698E+01 0.40874333056E+01 0.44033612631E+01
 0.46095300721E+01 0.46812282851E+01 0.46095338845E+01 0.44033573689E+01 0.40874150700E+01
 0.36967896306E+01 0.32698122350E+01 0.28413905827E+01 0.24384842420E+01 0.20784301621E+01
 0.17697339548E+01 0.15142652455E+01 0.13097473658E+01 0.11518384697E+01 0.10355889546E+01
 0.95636882881E+00 0.91045536611E+00 0.89543293384E+00 0.98586812034E+00 0.10355854607E+01
 0.11134101890E+01 0.12227692996E+01 0.13674497676E+01 0.15509260256E+01 0.17754482427E+01
 0.20407794181E+01 0.23425562691E+01 0.26705428997E+01 0.30074424416E+01 0.33291443796E+01
 0.36070464543E+01 0.38123897880E+01 0.39216823376E+01 0.39216839396E+01 0.38123919134E+01
 0.36070452408E+01 0.33291410135E+01 0.30074421685E+01 0.26705482670E+01 0.23425638182E+01
 0.20407835139E+01 0.17754466788E+01 0.15509213853E+01 0.13674462086E+01 0.12227685017E+01
 0.11134102550E+01 0.10355837615E+01 0.98586492361E+00 0.96169025536E+00 0.96169192948E+00
 0.11038563294E+01 0.11518390401E+01 0.12227692996E+01 0.13198265390E+01 0.14461759180E+01
 0.16042228653E+01 0.17947144371E+01 0.20156651345E+01 0.22611532031E+01 0.25202754504E+01
 0.27768212898E+01 0.30102649964E+01 0.31983272222E+01 0.33207380945E+01 0.33632549900E+01
 0.33207423810E+01 0.31983310182E+01 0.30102677481E+01 0.27768274830E+01 0.25202839539E+01
 0.22611537725E+01 0.20156516652E+01 0.17946966102E+01 0.16042167711E+01 0.14461846759E+01
 0.13198376048E+01 0.12227714401E+01 0.11518345884E+01 0.11038536460E+01 0.10762010910E+01
 0.10671769957E+01 0.10762004072E+01 0.12699134922E+01 0.13097597687E+01 0.13674497676E+01
 0.14461759180E+01 0.15488106380E+01 0.16771005924E+01 0.18308100527E+01 0.20068563099E+01
 0.21985370949E+01 0.23951242004E+01 0.25822311934E+01 0.27432590578E+01 0.28618503981E+01
 0.29248298943E+01 0.29248327268E+01 0.28618545418E+01 0.27432582420E+01 0.25822268419E+01
 0.23951227291E+01 0.21985394493E+01 0.20068565723E+01 0.18308052743E+01 0.16770959649E+01
 0.15488115798E+01 0.14461795943E+01 0.13674494700E+01 0.13097551365E+01 0.12699105337E+01
 0.12450703701E+01 0.12331771124E+01 0.12331755171E+01 0.12450689452E+01 0.14906876964E+01
 0.15142830735E+01 0.15509260256E+01 0.16042228653E+01 0.16771005924E+01 0.17709869179E+01
 0.18850643262E+01 0.20156654133E+01 0.21559354561E+01 0.22959877534E+01 0.24237698995E+01
 0.25266625781E+01 0.25935308457E+01 0.26167271956E+01 0.25935297211E+01 0.25266608616E+01
 0.24237673378E+01 0.22959838164E+01 0.21559318416E+01 0.20156662956E+01 0.18850722155E+01
 0.17709984971E+01 0.16771082165E+01 0.16042210433E+01 0.15509162898E+01 0.15142723824E+01
 0.14906822711E+01 0.14766442918E+01 0.14693750725E+01 0.14671437628E+01 0.14693726634E+01
 0.14766437228E+01 0.17731142154E+01 0.17697399583E+01 0.17754482427E+01 0.17947144371E+01
 0.18308100527E+01 0.18850643262E+01 0.19563422362E+01 0.20407791731E+01 0.21318781141E+01
 0.22211095301E+01 0.22990406108E+01 0.23568016615E+01 0.23875411646E+01 0.23875404048E+01
 0.23568004680E+01 0.22990416953E+01 0.22211150413E+01 0.21318866014E+01 0.20407854700E+01
 0.19563420454E+01 0.18850588509E+01 0.18308046630E+01 0.17947126759E+01 0.17754486749E+01
 0.17697393706E+01 0.17731121344E+01 0.17807751652E+01 0.17884727640E+01 0.17931178538E+01
 0.17931174573E+01 0.17884726516E+01 0.17807766570E+01 0.21228159612E+01 0.20784145641E+01
 0.20407794181E+01 0.20156651345E+01 0.20068563099E+01 0.20156654133E+01 0.20407791731E+01
 0.20784137786E+01 0.21228154465E+01 0.21671385689E+01 0.22045823148E+01 0.22295032289E+01
 0.22382314520E+01 0.22295033718E+01 0.22045856684E+01 0.21671488230E+01 0.21228316448E+01
 0.20784271608E+01 0.20407785353E+01 0.20156477320E+01 0.20068309393E+01 0.20156463885E+01
 0.20407754732E+01 0.20784230381E+01 0.21228279323E+01 0.21671460573E+01 0.22045833610E+01
 0.22295015772E+01 0.22382308396E+01 0.22295036050E+01 0.22045826786E+01 0.21671387061E+01
 0.25415624376E+01 0.24384572609E+01 0.23425562691E+01 0.22611532031E+01 0.21985370949E+01
 0.21559354561E+01 0.21318781141E+01 0.21228154465E+01 0.21239368818E+01 0.21301340018E+01
 0.21369295329E+01 0.21411337653E+01 0.21411316402E+01 0.21369292350E+01 0.21301451198E+01
 0.21239570463E+01 0.21228280338E+01 0.21318687582E+01 0.21559088140E+01 0.21985125773E+01
 0.22611444727E+01 0.23425600037E+01 0.24384625570E+01 0.25415646802E+01 0.26422583475E+01
 0.27299457122E+01 0.27947582844E+01 0.28291787129E+01 0.28291772548E+01 0.27947547187E+01
 0.27299422834E+01 0.26422565599E+01 0.30239420638E+01 0.28413741996E+01 0.26705428997E+01
 0.25202754504E+01 0.23951242004E+01 0.22959877534E+01 0.22211095301E+01 0.21671385689E+01
 0.21301340018E+01 0.21064409198E+01 0.20933008204E+01 0.20890931711E+01 0.20933016651E+01
 0.21064507707E+01 0.21301541579E+01 0.21671534271E+01 0.22210990562E+01 0.22959525025E+01
 0.23950913349E+01 0.25202726749E+01 0.26705688062E+01 0.28414013674E+01 0.30239484186E+01
 0.32053442067E+01 0.33699877894E+01 0.35018453784E+01 0.35871367122E+01 0.36166400414E+01
 0.35871300438E+01 0.35018428910E+01 0.33699965434E+01 0.32053547206E+01 0.35539958721E+01
 0.32698192206E+01 0.30074424416E+01 0.27768212898E+01 0.25822311934E+01 0.24237698995E+01
 0.22990406108E+01 0.22045823148E+01 0.21369295329E+01 0.20933008204E+01 0.20719030041E+01
 0.20719077043E+01 0.20933167589E+01 0.21369541672E+01 0.22045992911E+01 0.22990306145E+01
 0.24237345287E+01 0.25821980232E+01 0.27768177525E+01 0.30074678432E+01 0.32698490909E+01
 0.35540109585E+01 0.38437410479E+01 0.41175184355E+01 0.43512242588E+01 0.45220097371E+01
 0.46121948769E+01 0.46121934869E+01 0.45220058709E+01 0.43512204005E+01 0.41175175716E+01
 0.38437387873E+01 0.41031256347E+01 0.36968118698E+01 0.33291443796E+01 0.30102649964E+01
 0.27432590578E+01 0.25266625781E+01 0.23568016615E+01 0.22295032289E+01 0.21411337653E+01
 0.20890931711E+01 0.20719077043E+01 0.20891123256E+01 0.21411645480E+01 0.22295246291E+01
 0.23567908747E+01 0.25266224937E+01 0.27432239687E+01 0.30102669137E+01 0.33291779584E+01
 0.36968434572E+01 0.41031341253E+01 0.45291398917E+01 0.49472447093E+01 0.53237724727E+01
 0.56239107835E+01 0.58175668021E+01 0.58844910836E+01 0.58175634111E+01 0.56239005530E+01
 0.53237604035E+01 0.49472418815E+01 0.45291440444E+01 0.46307212337E+01 0.40874333056E+01
 0.36070464543E+01 0.31983272222E+01 0.28618503981E+01 0.25935308457E+01 0.23875411646E+01
 0.22382314520E+01 0.21411316402E+01 0.20933016651E+01 0.20933167589E+01 0.21411645480E+01
 0.22382527091E+01 0.23875266621E+01 0.25934864290E+01 0.28618118815E+01 0.31983281609E+01
 0.36070859992E+01 0.40874802251E+01 0.46307467264E+01 0.52168122649E+01 0.58129618808E+01
 0.63756613779E+01 0.68558979175E+01 0.72069418281E+01 0.73923859598E+01 0.73923860271E+01
 0.72069427083E+01 0.68559018306E+01 0.63756705069E+01 0.58129728215E+01 0.52168120427E+01
 0.50883803361E+01 0.44033612631E+01 0.38123897880E+01 0.33207380945E+01 0.29248298943E+01
 0.26167271956E+01 0.23875404048E+01 0.22295033718E+01 0.21369292350E+01 0.21064507707E+01
 0.21369541672E+01 0.22295246291E+01 0.23875266621E+01 0.26166785185E+01 0.29247851311E+01
 0.33207389819E+01 0.38124379794E+01 0.44034197249E+01 0.50884149778E+01 0.58487191878E+01
 0.66489984842E+01 0.74373920448E+01 0.81501333701E+01 0.87204132134E+01 0.90895101119E+01
 0.92172939652E+01 0.90895237578E+01 0.87204324814E+01 0.81501493465E+01 0.74374023836E+01
 0.66490039199E+01 0.58487117398E+01 0.54274291818E+01 0.46095300721E+01 0.39216823376E+01
 0.33632549900E+01 0.29248327268E+01 0.25935297211E+01 0.23568004680E+01 0.22045856684E+01
 0.21301451198E+01 0.21301541579E+01 0.22045992911E+01 0.23567908747E+01 0.25934864290E+01
 0.29247851311E+01 0.33632511022E+01 0.39217365812E+01 0.46096034208E+01 0.54274709060E+01
 0.63612481456E+01 0.73769383953E+01 0.84182449817E+01 0.94089603551E+01 0.10261164667E+02
 0.10888460762E+02 0.11221458571E+02 0.11221459740E+02 0.10888462975E+02 0.10261166034E+02
 0.94089636667E+01 0.84182576462E+01 0.73769578211E+01 0.63612498712E+01 0.56081414444E+01
 0.46812282851E+01 0.39216839396E+01 0.33207423810E+01 0.28618545418E+01 0.25266608616E+01
 0.22990416953E+01 0.21671488230E+01 0.21239570463E+01 0.21671534271E+01 0.22990306145E+01
 0.25266224937E+01 0.28618118815E+01 0.33207389819E+01 0.39217365812E+01 0.46813029344E+01
 0.56081872657E+01 0.66962980610E+01 0.79177187974E+01 0.92176059316E+01 0.10513116898E+02
 0.11698545000E+02 0.12657993984E+02 0.13284690815E+02 0.13502756576E+02 0.13284671794E+02
 0.12657975474E+02 0.11698542704E+02 0.10513131978E+02 0.92176330037E+01 0.79177455126E+01
 0.66962987329E+01 0.56081428378E+01 0.46095338845E+01 0.38123919134E+01 0.31983310182E+01
 0.27432582420E+01 0.24237673378E+01 0.22211150413E+01 0.21228316448E+01 0.21228280338E+01
 0.22210990562E+01 0.24237345287E+01 0.27432239687E+01 0.31983281609E+01 0.38124379794E+01
 0.46096034208E+01 0.56081872657E+01 0.68129056182E+01 0.82064616942E+01 0.97421181493E+01
 0.11338840619E+02 0.12881455701E+02 0.14229138161E+02 0.15234775257E+02 0.15773669667E+02
 0.15773670070E+02 0.15234778493E+02 0.14229144705E+02 0.12881462197E+02 0.11338850388E+02
 0.97421405828E+01 0.82064897531E+01 0.68129082523E+01 0.54274299684E+01 0.44033573689E+01
 0.36070452408E+01 0.30102677481E+01 0.25822268419E+01 0.22959838164E+01 0.21318866014E+01
 0.20784271608E+01 0.21318687582E+01 0.22959525025E+01 0.25821980232E+01 0.30102669137E+01
 0.36070859992E+01 0.44034197249E+01 0.54274709060E+01 0.66962980610E+01 0.82064616942E+01
 0.99250440701E+01 0.11781779458E+02 0.13663810454E+02 0.15417044961E+02 0.16860224063E+02
 0.17815480456E+02 0.18150305857E+02 0.17815499266E+02 0.16860246906E+02 0.15417053978E+02
 0.13663804194E+02 0.11781778669E+02 0.99250671070E+01 0.82064946954E+01 0.66963033404E+01
 0.50883731922E+01 0.40874150700E+01 0.33291410135E+01 0.27768274830E+01 0.23951227291E+01
 0.21559318416E+01 0.20407854700E+01 0.20407785353E+01 0.21559088140E+01 0.23950913349E+01
 0.27768177525E+01 0.33291779584E+01 0.40874802251E+01 0.50884149778E+01 0.63612481456E+01
 0.79177187974E+01 0.97421181493E+01 0.11781779458E+02 0.13937872625E+02 0.16059120669E+02
 0.17946154073E+02 0.19374743675E+02 0.20145476247E+02 0.20145471033E+02 0.19374736093E+02
 0.17946153750E+02 0.16059121945E+02 0.13937868062E+02 0.11781781385E+02 0.97421448547E+01