 running on    8 total cores
 distrk:  each k-point on    8 cores,    1 groups
 distr:  one band on    1 cores,    8 groups
 using from now: INCAR     
 vasp.5.4.4.18Apr17-6-g9f103f2a35 (build Dec 09 2018 21:25:21) complex          
  
 POSCAR found type information on POSCAR  Si
 POSCAR found :  1 types and       2 ions
 scaLAPACK will be used

 ----------------------------------------------------------------------------- 
|                                                                             |
|           W    W    AA    RRRRR   N    N  II  N    N   GGGG   !!!           |
|           W    W   A  A   R    R  NN   N  II  NN   N  G    G  !!!           |
|           W    W  A    A  R    R  N N  N  II  N N  N  G       !!!           |
|           W WW W  AAAAAA  RRRRR   N  N N  II  N  N N  G  GGG   !            |
|           WW  WW  A    A  R   R   N   NN  II  N   NN  G    G                |
|           W    W  A    A  R    R  N    N  II  N    N   GGGG   !!!           |
|                                                                             |
|      For optimal performance we recommend to set                            |
|        NCORE= 4 - approx SQRT( number of cores)                             |
|      NCORE specifies how many cores store one orbital (NPAR=cpu/NCORE).     |
|      This setting can  greatly improve the performance of VASP for DFT.     |
|      The default,   NCORE=1            might be grossly inefficient         |
|      on modern multi-core architectures or massively parallel machines.     |
|      Do your own testing !!!!                                               |
|      Unfortunately you need to use the default for GW and RPA calculations. |
|      (for HF NCORE is supported but not extensively tested yet)             |
|                                                                             |
 ----------------------------------------------------------------------------- 

 LDA part: xc-table for Pade appr. of Perdew
 POSCAR, INCAR and KPOINTS ok, starting setup
 FFT: planning ...
 WAVECAR not read
 entering main loop
       N       E                     dE             d eps       ncg     rms          rms(c)
DAV:   1     0.222494236295E+00    0.22249E+00   -0.24110E+03   472   0.457E+02
DAV:   2    -0.108957393243E+02   -0.11118E+02   -0.10547E+02   736   0.613E+01
DAV:   3    -0.110024535617E+02   -0.10671E+00   -0.10671E+00   552   0.777E+00
DAV:   4    -0.110028125748E+02   -0.35901E-03   -0.35901E-03   728   0.480E-01
DAV:   5    -0.110028127133E+02   -0.13846E-06   -0.13843E-06   520   0.723E-03    0.300E+00
DAV:   6    -0.108786852098E+02    0.12413E+00   -0.81645E-02   520   0.149E+00    0.178E+00
DAV:   7    -0.108222522195E+02    0.56433E-01   -0.15001E-01   584   0.214E+00    0.153E-01
DAV:   8    -0.108235456886E+02   -0.12935E-02   -0.39292E-03   496   0.463E-01    0.249E-02
DAV:   9    -0.108236377521E+02   -0.92064E-04   -0.93635E-05   416   0.768E-02
   1 F= -.10823638E+02 E0= -.10823625E+02  d E =-.108236E+02
 curvature:   0.00 expect dE= 0.000E+00 dE for cont linesearch  0.000E+00
 trial: gam= 0.00000 g(F)=  0.167E-44 g(S)=  0.150E-01 ort = 0.000E+00 (trialstep = 0.100E+01)
 search vector abs. value=  0.150E-01
 bond charge predicted
       N       E                     dE             d eps       ncg     rms          rms(c)
DAV:   1    -0.108317675935E+02   -0.82219E-02   -0.22734E-01   584   0.264E+00    0.303E-01
DAV:   2    -0.108279033778E+02    0.38642E-02   -0.31341E-03   568   0.357E-01    0.173E-01
DAV:   3    -0.108258924614E+02    0.20109E-02   -0.40764E-03   544   0.322E-01    0.217E-02
DAV:   4    -0.108258815965E+02    0.10865E-04   -0.42129E-05   240   0.574E-02
   2 F= -.10825882E+02 E0= -.10825875E+02  d E =-.224384E-02
 trial-energy change:   -0.002244  1 .order   -0.002561   -0.014954    0.009831
 step:   0.6033(harm=  0.6033)  dis= 0.00000  next Energy=   -10.828149 (dE=-0.451E-02)
 bond charge predicted
       N       E                     dE             d eps       ncg     rms          rms(c)
DAV:   1    -0.108288485434E+02   -0.29561E-02   -0.36576E-02   568   0.107E+00    0.122E-01
DAV:   2    -0.108282326338E+02    0.61591E-03   -0.50217E-04   560   0.144E-01    0.699E-02
DAV:   3    -0.108279201472E+02    0.31249E-03   -0.64041E-04   328   0.129E-01
   3 F= -.10827920E+02 E0= -.10827912E+02  d E =-.428240E-02
 curvature:  -0.30 expect dE=-0.343E-05 dE for cont linesearch -0.343E-05
 trial: gam= 0.00000 g(F)=  0.656E-44 g(S)=  0.114E-04 ort =-0.412E-03 (trialstep = 0.921E+00)
 search vector abs. value=  0.114E-04
 reached required accuracy - stopping structural energy minimisation
 writing wavefunctions
