<?xml version="1.0" encoding="ISO-8859-1"?>
<modeling>
 <generator>
  <i name="program" type="string">vasp </i>
  <i name="version" type="string">5.4.4.18Apr17-6-g9f103f2a35  </i>
  <i name="subversion" type="string">(build Dec 09 2018 21:25:21) complex            parallel </i>
  <i name="platform" type="string">IFC18.0.1.163_CrayMPICH7.7.0_MKL18.0.1.163 </i>
  <i name="date" type="string">2019 03 20 </i>
  <i name="time" type="string">09:53:19 </i>
 </generator>
 <incar>
  <i type="string" name="PREC">normal</i>
  <i type="int" name="IBRION">     2</i>
  <i name="EDIFF">      0.00040000</i>
  <i name="EDIFFG">     -0.01000000</i>
  <i type="int" name="NSW">    15</i>
  <i type="int" name="ISIF">     3</i>
  <i name="ENCUT">    250.00000000</i>
  <i type="int" name="NBANDS">     8</i>
  <i type="logical" name="LREAL"> F  </i>
  <i type="int" name="ISMEAR">     0</i>
  <i name="SIGMA">      0.20000000</i>
  <v type="int" name="KPOINT_BSE">    -1     0     0     0</v>
 </incar>
 <structure name="primitive_cell" >
  <crystal>
   <varray name="basis" >
    <v>       0.00000000       2.71500000       2.71500000 </v>
    <v>       2.71500000       0.00000000       2.71500000 </v>
    <v>       2.71500000       2.71500000       0.00000000 </v>
   </varray>
   <i name="volume">     40.02575175 </i>
   <varray name="rec_basis" >
    <v>      -0.18416206       0.18416206       0.18416206 </v>
    <v>       0.18416206      -0.18416206       0.18416206 </v>
    <v>       0.18416206       0.18416206      -0.18416206 </v>
   </varray>
  </crystal>
  <varray name="positions" >
   <v>      -0.50000000      -0.50000000      -0.50000000 </v>
   <v>      -0.25000000      -0.25000000      -0.25000000 </v>
  </varray>
 </structure>
 <varray name="primitive_index" >
  <v type="int" >        1 </v>
  <v type="int" >        2 </v>
 </varray>
 <kpoints>
  <generation param="Monkhorst-Pack">
   <v type="int" name="divisions">       6        6        6 </v>
   <v name="usershift">      0.00000000       0.00000000       0.00000000 </v>
   <v name="genvec1">      0.16666667      -0.00000000       0.00000000 </v>
   <v name="genvec2">     -0.00000000       0.16666667      -0.00000000 </v>
   <v name="genvec3">      0.00000000       0.00000000       0.16666667 </v>
   <v name="shift">      0.50000000       0.50000000       0.50000000 </v>
  </generation>
  <varray name="kpointlist" >
   <v>       0.08333333       0.08333333       0.08333333 </v>
   <v>       0.25000000       0.08333333       0.08333333 </v>
   <v>       0.41666667       0.08333333       0.08333333 </v>
   <v>      -0.41666667       0.08333333       0.08333333 </v>
   <v>      -0.25000000       0.08333333       0.08333333 </v>
   <v>      -0.08333333       0.08333333       0.08333333 </v>
   <v>       0.25000000       0.25000000       0.08333333 </v>
   <v>       0.41666667       0.25000000       0.08333333 </v>
   <v>      -0.41666667       0.25000000       0.08333333 </v>
   <v>      -0.25000000       0.25000000       0.08333333 </v>
   <v>      -0.08333333       0.25000000       0.08333333 </v>
   <v>       0.41666667       0.41666667       0.08333333 </v>
   <v>      -0.41666667       0.41666667       0.08333333 </v>
   <v>      -0.25000000       0.41666667       0.08333333 </v>
   <v>      -0.08333333       0.41666667       0.08333333 </v>
   <v>      -0.41666667      -0.41666667       0.08333333 </v>
   <v>      -0.25000000      -0.41666667       0.08333333 </v>
   <v>      -0.25000000      -0.25000000       0.08333333 </v>
   <v>       0.25000000       0.25000000       0.25000000 </v>
   <v>       0.41666667       0.25000000       0.25000000 </v>
   <v>      -0.41666667       0.25000000       0.25000000 </v>
   <v>      -0.25000000       0.25000000       0.25000000 </v>
   <v>       0.41666667       0.41666667       0.25000000 </v>
   <v>      -0.41666667       0.41666667       0.25000000 </v>
   <v>      -0.25000000       0.41666667       0.25000000 </v>
   <v>      -0.41666667      -0.41666667       0.25000000 </v>
   <v>       0.41666667       0.41666667       0.41666667 </v>
   <v>      -0.41666667       0.41666667       0.41666667 </v>
  </varray>
  <varray name="weights" >
   <v>       0.00925926 </v>
   <v>       0.02777778 </v>
   <v>       0.02777778 </v>
   <v>       0.02777778 </v>
   <v>       0.02777778 </v>
   <v>       0.02777778 </v>
   <v>       0.02777778 </v>
   <v>       0.05555556 </v>
   <v>       0.05555556 </v>
   <v>       0.05555556 </v>
   <v>       0.05555556 </v>
   <v>       0.02777778 </v>
   <v>       0.05555556 </v>
   <v>       0.05555556 </v>
   <v>       0.05555556 </v>
   <v>       0.02777778 </v>
   <v>       0.05555556 </v>
   <v>       0.02777778 </v>
   <v>       0.00925926 </v>
   <v>       0.02777778 </v>
   <v>       0.02777778 </v>
   <v>       0.02777778 </v>
   <v>       0.02777778 </v>
   <v>       0.05555556 </v>
   <v>       0.05555556 </v>
   <v>       0.02777778 </v>
   <v>       0.00925926 </v>
   <v>       0.02777778 </v>
  </varray>
 </kpoints>
 <parameters>
  <separator name="general" >
   <i type="string" name="SYSTEM">unknown system</i>
   <i type="logical" name="LCOMPAT"> F  </i>
  </separator>
  <separator name="electronic" >
   <i type="string" name="PREC">normal</i>
   <i name="ENMAX">    250.00000000</i>
   <i name="ENAUG">    322.06900000</i>
   <i name="EDIFF">      0.00040000</i>
   <i type="int" name="IALGO">    38</i>
   <i type="int" name="IWAVPR">    11</i>
   <i type="int" name="NBANDS">     8</i>
   <i name="NELECT">      8.00000000</i>
   <i type="int" name="TURBO">     0</i>
   <i type="int" name="IRESTART">     0</i>
   <i type="int" name="NREBOOT">     0</i>
   <i type="int" name="NMIN">     0</i>
   <i name="EREF">      0.00000000</i>
   <separator name="electronic smearing" >
    <i type="int" name="ISMEAR">     0</i>
    <i name="SIGMA">      0.20000000</i>
    <i name="KSPACING">      0.50000000</i>
    <i type="logical" name="KGAMMA"> T  </i>
   </separator>
   <separator name="electronic projectors" >
    <i type="logical" name="LREAL"> F  </i>
    <v name="ROPT">      0.00000000</v>
    <i type="int" name="LMAXPAW">  -100</i>
    <i type="int" name="LMAXMIX">     2</i>
    <i type="logical" name="NLSPLINE"> F  </i>
   </separator>
   <separator name="electronic startup" >
    <i type="int" name="ISTART">     0</i>
    <i type="int" name="ICHARG">     2</i>
    <i type="int" name="INIWAV">     1</i>
   </separator>
   <separator name="electronic spin" >
    <i type="int" name="ISPIN">     1</i>
    <i type="logical" name="LNONCOLLINEAR"> F  </i>
    <v name="MAGMOM">      1.00000000      1.00000000</v>
    <i name="NUPDOWN">     -1.00000000</i>
    <i type="logical" name="LSORBIT"> F  </i>
    <v name="SAXIS">      0.00000000      0.00000000      1.00000000</v>
    <i type="logical" name="LSPIRAL"> F  </i>
    <v name="QSPIRAL">      0.00000000      0.00000000      0.00000000</v>
    <i type="logical" name="LZEROZ"> F  </i>
   </separator>
   <separator name="electronic exchange-correlation" >
    <i type="logical" name="LASPH"> F  </i>
    <i type="logical" name="LMETAGGA"> F  </i>
   </separator>
   <separator name="electronic convergence" >
    <i type="int" name="NELM">    60</i>
    <i type="int" name="NELMDL">    -5</i>
    <i type="int" name="NELMIN">     2</i>
    <i name="ENINI">    250.00000000</i>
    <separator name="electronic convergence detail" >
     <i type="logical" name="LDIAG"> T  </i>
     <i type="logical" name="LSUBROT"> F  </i>
     <i name="WEIMIN">      0.00100000</i>
     <i name="EBREAK">      0.00001250</i>
     <i name="DEPER">      0.30000000</i>
     <i type="int" name="NRMM">     4</i>
     <i name="TIME">      0.40000000</i>
    </separator>
   </separator>
   <separator name="electronic mixer" >
    <i name="AMIX">      0.40000000</i>
    <i name="BMIX">      1.00000000</i>
    <i name="AMIN">      0.10000000</i>
    <i name="AMIX_MAG">      1.60000000</i>
    <i name="BMIX_MAG">      1.00000000</i>
    <separator name="electronic mixer details" >
     <i type="int" name="IMIX">     4</i>
     <i type="logical" name="MIXFIRST"> F  </i>
     <i type="int" name="MAXMIX">   -45</i>
     <i name="WC">    100.00000000</i>
     <i type="int" name="INIMIX">     1</i>
     <i type="int" name="MIXPRE">     1</i>
     <i type="int" name="MREMOVE">     5</i>
    </separator>
   </separator>
   <separator name="electronic dipolcorrection" >
    <i type="logical" name="LDIPOL"> F  </i>
    <i type="logical" name="LMONO"> F  </i>
    <i type="int" name="IDIPOL">     0</i>
    <i name="EPSILON">      1.00000000</i>
    <v name="DIPOL">   -100.00000000   -100.00000000   -100.00000000</v>
    <i name="EFIELD">      0.00000000</i>
   </separator>
  </separator>
  <separator name="grids" >
   <i type="int" name="NGX">    16</i>
   <i type="int" name="NGY">    16</i>
   <i type="int" name="NGZ">    16</i>
   <i type="int" name="NGXF">    32</i>
   <i type="int" name="NGYF">    32</i>
   <i type="int" name="NGZF">    32</i>
   <i type="logical" name="ADDGRID"> F  </i>
  </separator>
  <separator name="ionic" >
   <i type="int" name="NSW">    15</i>
   <i type="int" name="IBRION">     2</i>
   <i type="int" name="MDALGO">     0</i>
   <i type="int" name="ISIF">     3</i>
   <i name="PSTRESS">      0.00000000</i>
   <i name="EDIFFG">     -0.01000000</i>
   <i type="int" name="NFREE">     1</i>
   <i name="POTIM">      0.50000000</i>
   <i name="SMASS">     -3.00000000</i>
   <i name="SCALEE">      1.00000000</i>
  </separator>
  <separator name="ionic md" >
   <i name="TEBEG">      0.00010000</i>
   <i name="TEEND">      0.00010000</i>
   <i type="int" name="NBLOCK">     1</i>
   <i type="int" name="KBLOCK">    15</i>
   <i type="int" name="NPACO">   256</i>
   <i name="APACO">     16.00000000</i>
  </separator>
  <separator name="symmetry" >
   <i type="int" name="ISYM">     2</i>
   <i name="SYMPREC">      0.00001000</i>
  </separator>
  <separator name="dos" >
   <i type="int" name="LORBIT">     0</i>
   <v name="RWIGS">     -1.00000000</v>
   <i type="int" name="NEDOS">   301</i>
   <i name="EMIN">     10.00000000</i>
   <i name="EMAX">    -10.00000000</i>
   <i name="EFERMI">      0.00000000</i>
  </separator>
  <separator name="writing" >
   <i type="int" name="NWRITE">     2</i>
   <i type="logical" name="LWAVE"> T  </i>
   <i type="logical" name="LDOWNSAMPLE"> F  </i>
   <i type="logical" name="LCHARG"> T  </i>
   <i type="logical" name="LPARD"> F  </i>
   <i type="logical" name="LVTOT"> F  </i>
   <i type="logical" name="LVHAR"> F  </i>
   <i type="logical" name="LELF"> F  </i>
   <i type="logical" name="LOPTICS"> F  </i>
   <v name="STM">      0.00000000      0.00000000      0.00000000      0.00000000      0.00000000      0.00000000      0.00000000</v>
  </separator>
  <separator name="performance" >
   <i type="int" name="NPAR">     8</i>
   <i type="int" name="NSIM">     4</i>
   <i type="int" name="NBLK">    -1</i>
   <i type="logical" name="LPLANE"> T  </i>
   <i type="logical" name="LSCALAPACK"> T  </i>
   <i type="logical" name="LSCAAWARE"> F  </i>
   <i type="logical" name="LSCALU"> F  </i>
   <i type="logical" name="LASYNC"> F  </i>
   <i type="logical" name="LORBITALREAL"> F  </i>
  </separator>
  <separator name="miscellaneous" >
   <i type="int" name="IDIOT">     3</i>
   <i type="int" name="ISPECIAL">     0</i>
   <i type="logical" name="LMUSIC"> F  </i>
   <v name="POMASS">     28.08500000</v>
   <v name="DARWINR">      0.00000000</v>
   <v name="DARWINV">      1.00000000</v>
   <i type="logical" name="LCORR"> T  </i>
  </separator>
  <i type="logical" name="GGA_COMPAT"> T  </i>
  <i type="logical" name="LBERRY"> F  </i>
  <i type="int" name="ICORELEVEL">     0</i>
  <i type="logical" name="LDAU"> F  </i>
  <i type="int" name="I_CONSTRAINED_M">     0</i>
  <separator name="electronic exchange-correlation" >
   <i type="string" name="GGA">--</i>
   <i type="int" name="VOSKOWN">     0</i>
   <i type="logical" name="LHFCALC"> F  </i>
   <i type="string" name="PRECFOCK"></i>
   <i type="logical" name="LSYMGRAD"> F  </i>
   <i type="logical" name="LHFONE"> F  </i>
   <i type="logical" name="LRHFCALC"> F  </i>
   <i type="logical" name="LTHOMAS"> F  </i>
   <i type="logical" name="LMODELHF"> F  </i>
   <i name="ENCUT4O">     -1.00000000</i>
   <i type="int" name="EXXOEP">     0</i>
   <i type="int" name="FOURORBIT">     0</i>
   <i name="AEXX">      0.00000000</i>
   <i name="HFALPHA">      0.00000000</i>
   <i name="MCALPHA">      0.00000000</i>
   <i name="ALDAX">      1.00000000</i>
   <i name="AGGAX">      1.00000000</i>
   <i name="ALDAC">      1.00000000</i>
   <i name="AGGAC">      1.00000000</i>
   <i type="int" name="NKREDX">     1</i>
   <i type="int" name="NKREDY">     1</i>
   <i type="int" name="NKREDZ">     1</i>
   <i type="logical" name="SHIFTRED"> F  </i>
   <i type="logical" name="ODDONLY"> F  </i>
   <i type="logical" name="EVENONLY"> F  </i>
   <i type="int" name="LMAXFOCK">     0</i>
   <i type="int" name="NMAXFOCKAE">     0</i>
   <i type="logical" name="LFOCKAEDFT"> F  </i>
   <i name="HFSCREEN">      0.00000000</i>
   <i name="HFSCREENC">      0.00000000</i>
   <i type="int" name="NBANDSGWLOW">     0</i>
  </separator>
  <separator name="vdW DFT" >
   <i type="logical" name="LUSE_VDW"> F  </i>
   <i name="Zab_VDW">     -0.84910000</i>
   <i name="PARAM1">      0.12340000</i>
   <i name="PARAM2">      1.00000000</i>
   <i name="PARAM3">      0.00000000</i>
  </separator>
  <separator name="model GW" >
   <i type="int" name="MODEL_GW">     0</i>
   <i name="MODEL_EPS0">     12.00772552</i>
   <i name="MODEL_ALPHA">      1.00000000</i>
  </separator>
  <separator name="linear response parameters" >
   <i type="logical" name="LEPSILON"> F  </i>
   <i type="logical" name="LRPA"> F  </i>
   <i type="logical" name="LNABLA"> F  </i>
   <i type="logical" name="LVEL"> F  </i>
   <i type="int" name="KINTER">     0</i>
   <i name="CSHIFT">      0.10000000</i>
   <i name="OMEGAMAX">     -1.00000000</i>
   <i name="DEG_THRESHOLD">      0.00200000</i>
   <i name="RTIME">     -0.10000000</i>
   <i name="WPLASMAI">      0.00000000</i>
   <v name="DFIELD">      0.00000000      0.00000000      0.00000000</v>
   <v name="WPLASMA">      0.00000000      0.00000000      0.00000000      0.00000000      0.00000000      0.00000000      0.00000000      0.00000000      0.00000000</v>
  </separator>
  <separator name="orbital magnetization" >
   <i type="logical" name="NUCIND"> F  </i>
   <v name="MAGPOS">      0.00000000      0.00000000      0.00000000</v>
   <i type="logical" name="LNICSALL"> T  </i>
   <i type="logical" name="ORBITALMAG"> F  </i>
   <i type="logical" name="LMAGBLOCH"> F  </i>
   <i type="logical" name="LCHIMAG"> F  </i>
   <i type="logical" name="LGAUGE"> T  </i>
   <i type="int" name="MAGATOM">     0</i>
   <v name="MAGDIPOL">      0.00000000      0.00000000      0.00000000</v>
   <v name="AVECCONST">      0.00000000      0.00000000      0.00000000</v>
  </separator>
  <separator name="response functions" >
   <i type="logical" name="LADDER"> F  </i>
   <i type="logical" name="LRPAFORCE"> F  </i>
   <i type="logical" name="LFXC"> F  </i>
   <i type="logical" name="LHARTREE"> T  </i>
   <i type="int" name="IBSE">     0</i>
   <v type="int" name="KPOINT">    -1     0     0     0</v>
   <i type="logical" name="LTCTE"> F  </i>
   <i type="logical" name="LTETE"> F  </i>
   <i type="logical" name="LTRIPLET"> F  </i>
   <i type="logical" name="LFXCEPS"> F  </i>
   <i type="logical" name="LFXHEG"> F  </i>
   <i type="int" name="NATURALO">     2</i>
   <i type="logical" name="L2ORDER"> F  </i>
   <i type="logical" name="LMP2LT"> F  </i>
   <i type="logical" name="LUSEW"> F  </i>
   <i name="ENCUTGW">     -2.00000000</i>
   <i name="ENCUTGWSOFT">     -2.00000000</i>
   <i name="ENCUTLF">     -1.00000000</i>
   <i type="int" name="LMAXMP2">    -1</i>
   <i name="SCISSOR">      0.00000000</i>
   <i type="int" name="NOMEGA">     0</i>
   <i type="int" name="NOMEGAR">     0</i>
   <i type="int" name="NBANDSGW">    -1</i>
   <i type="int" name="NBANDSO">    -1</i>
   <i type="int" name="NBANDSV">    -1</i>
   <i type="int" name="NELM">     1</i>
   <i type="int" name="NELMHF">     1</i>
   <i type="int" name="DIM">     3</i>
   <i type="int" name="ANTIRES">     0</i>
   <i name="OMEGAMAX">    -30.00000000</i>
   <i name="OMEGAMIN">    -30.00000000</i>
   <i name="OMEGATL">   -200.00000000</i>
   <i type="int" name="OMEGAGRID">   140</i>
   <i name="CSHIFT">     -0.10000000</i>
   <i type="logical" name="SELFENERGY"> F  </i>
   <i type="logical" name="LSPECTRAL"> F  </i>
   <i type="logical" name="LSPECTRALGW"> F  </i>
   <i type="logical" name="LSINGLES"> F  </i>
   <i type="logical" name="LFERMIGW"> F  </i>
   <i type="logical" name="ODDONLYGW"> F  </i>
   <i type="logical" name="EVENONLYGW"> F  </i>
   <i type="int" name="NKREDLFX">     1</i>
   <i type="int" name="NKREDLFY">     1</i>
   <i type="int" name="NKREDLFZ">     1</i>
   <i type="int" name="MAXMEM">  2800</i>
   <i type="int" name="TELESCOPE">     0</i>
   <i type="int" name="TAUPAR">     1</i>
   <i type="int" name="OMEGAPAR">    -1</i>
   <i name="LAMBDA">      1.00000000</i>
  </separator>
  <separator name="External order field" >
   <i name="OFIELD_KAPPA">      0.00000000</i>
   <v name="OFIELD_K">      0.00000000      0.00000000      0.00000000</v>
   <i name="OFIELD_Q6_NEAR">      0.00000000</i>
   <i name="OFIELD_Q6_FAR">      0.00000000</i>
   <i name="OFIELD_A">      0.00000000</i>
  </separator>
 </parameters>
 <atominfo>
  <atoms>       2 </atoms>
  <types>       1 </types>
  <array name="atoms" >
   <dimension dim="1">ion</dimension>
   <field type="string">element</field>
   <field type="int">atomtype</field>
   <set>
    <rc><c>Si</c><c>   1</c></rc>
    <rc><c>Si</c><c>   1</c></rc>
   </set>
  </array>
  <array name="atomtypes" >
   <dimension dim="1">type</dimension>
   <field type="int">atomspertype</field>
   <field type="string">element</field>
   <field>mass</field>
   <field>valence</field>
   <field type="string">pseudopotential</field>
   <set>
    <rc><c>   2</c><c>Si</c><c>     28.08500000</c><c>      4.00000000</c><c> PAW_PBE Si 05Jan2001                   </c></rc>
   </set>
  </array>
 </atominfo>
 <structure name="initialpos" >
  <crystal>
   <varray name="basis" >
    <v>       0.00000000       2.71500000       2.71500000 </v>
    <v>       2.71500000       0.00000000       2.71500000 </v>
    <v>       2.71500000       2.71500000       0.00000000 </v>
   </varray>
   <i name="volume">     40.02575175 </i>
   <varray name="rec_basis" >
    <v>      -0.18416206       0.18416206       0.18416206 </v>
    <v>       0.18416206      -0.18416206       0.18416206 </v>
    <v>       0.18416206       0.18416206      -0.18416206 </v>
   </varray>
  </crystal>
  <varray name="positions" >
   <v>       0.50000000       0.50000000       0.50000000 </v>
   <v>       0.75000000       0.75000000       0.75000000 </v>
  </varray>
 </structure>
 <calculation>
  <scstep>
   <time name="dav">    0.23    0.23</time>
   <time name="total">    0.26    0.28</time>
   <energy>
    <i name="alphaZ">      3.36414203 </i>
    <i name="ewald">   -228.56352493 </i>
    <i name="hartreedc">    -11.00108243 </i>
    <i name="XCdc">    -18.60181216 </i>
    <i name="pawpsdc">     65.95520812 </i>
    <i name="pawaedc">    -30.76852678 </i>
    <i name="eentropy">     -0.01186695 </i>
    <i name="bandstr">     13.72645812 </i>
    <i name="atom">    206.12349923 </i>
    <i name="e_fr_energy">      0.22249424 </i>
    <i name="e_wo_entrp">      0.23436119 </i>
    <i name="e_0_energy">      0.22842771 </i>
   </energy>
  </scstep>
  <scstep>
   <time name="dav">    0.38    0.39</time>
   <time name="total">    0.38    0.39</time>
   <energy>
    <i name="e_fr_energy">    -10.89573932 </i>
    <i name="e_wo_entrp">    -10.89573900 </i>
    <i name="e_0_energy">    -10.89573916 </i>
   </energy>
  </scstep>
  <scstep>
   <time name="dav">    0.28    0.28</time>
   <time name="total">    0.28    0.29</time>
   <energy>
    <i name="e_fr_energy">    -11.00245356 </i>
    <i name="e_wo_entrp">    -11.00245312 </i>
    <i name="e_0_energy">    -11.00245334 </i>
   </energy>
  </scstep>
  <scstep>
   <time name="dav">    0.38    0.38</time>
   <time name="total">    0.37    0.38</time>
   <energy>
    <i name="e_fr_energy">    -11.00281257 </i>
    <i name="e_wo_entrp">    -11.00281214 </i>
    <i name="e_0_energy">    -11.00281236 </i>
   </energy>
  </scstep>
  <scstep>
   <time name="dav">    0.26    0.27</time>
   <time name="total">    0.28    0.29</time>
   <energy>
    <i name="e_fr_energy">    -11.00281271 </i>
    <i name="e_wo_entrp">    -11.00281227 </i>
    <i name="e_0_energy">    -11.00281249 </i>
   </energy>
  </scstep>
  <scstep>
   <time name="dav">    0.25    0.25</time>
   <time name="total">    0.29    0.30</time>
   <energy>
    <i name="e_fr_energy">    -10.87868521 </i>
    <i name="e_wo_entrp">    -10.87868172 </i>
    <i name="e_0_energy">    -10.87868346 </i>
   </energy>
  </scstep>
  <scstep>
   <time name="dav">    0.28    0.28</time>
   <time name="total">    0.32    0.34</time>
   <energy>
    <i name="e_fr_energy">    -10.82225222 </i>
    <i name="e_wo_entrp">    -10.82221822 </i>
    <i name="e_0_energy">    -10.82223522 </i>
   </energy>
  </scstep>
  <scstep>
   <time name="dav">    0.24    0.24</time>
   <time name="total">    0.28    0.29</time>
   <energy>
    <i name="e_fr_energy">    -10.82354569 </i>
    <i name="e_wo_entrp">    -10.82351984 </i>
    <i name="e_0_energy">    -10.82353277 </i>
   </energy>
  </scstep>
  <scstep>
   <time name="dav">    0.21    0.21</time>
   <time name="total">    0.24    0.25</time>
   <energy>
    <i name="alphaZ">      3.36414203 </i>
    <i name="ewald">   -228.56352493 </i>
    <i name="hartreedc">    -14.89877853 </i>
    <i name="XCdc">    -17.95428649 </i>
    <i name="pawpsdc">     74.98834239 </i>
    <i name="pawaedc">    -40.03190880 </i>
    <i name="eentropy">     -0.00002560 </i>
    <i name="bandstr">      6.14890295 </i>
    <i name="atom">    206.12349923 </i>
    <i name="e_fr_energy">    -10.82363775 </i>
    <i name="e_wo_entrp">    -10.82361215 </i>
    <i name="e_0_energy">    -10.82362495 </i>
   </energy>
  </scstep>
  <structure>
   <crystal>
    <varray name="basis" >
     <v>       0.00000000       2.71500000       2.71500000 </v>
     <v>       2.71500000       0.00000000       2.71500000 </v>
     <v>       2.71500000       2.71500000       0.00000000 </v>
    </varray>
    <i name="volume">     40.02575175 </i>
    <varray name="rec_basis" >
     <v>      -0.18416206       0.18416206       0.18416206 </v>
     <v>       0.18416206      -0.18416206       0.18416206 </v>
     <v>       0.18416206       0.18416206      -0.18416206 </v>
    </varray>
   </crystal>
   <varray name="positions" >
    <v>       0.50000000       0.50000000       0.50000000 </v>
    <v>       0.75000000       0.75000000       0.75000000 </v>
   </varray>
  </structure>
  <varray name="forces" >
   <v>       0.00000000       0.00000000       0.00000000 </v>
   <v>      -0.00000000      -0.00000000      -0.00000000 </v>
  </varray>
  <varray name="stress" >
   <v>      18.19637254       0.00000000      -0.00000000 </v>
   <v>       0.00000000      18.19637254      -0.00000000 </v>
   <v>      -0.00000000       0.00000000      18.19637254 </v>
  </varray>
  <energy>
   <i name="e_fr_energy">    -10.82363775 </i>
   <i name="e_wo_entrp">    -10.82362495 </i>
   <i name="e_0_energy">     -0.00002560 </i>
  </energy>
  <time name="totalsc">    3.65    4.34</time>
 </calculation>
 <calculation>
  <scstep>
   <time name="dav">    0.29    0.29</time>
   <time name="total">    0.33    0.34</time>
   <energy>
    <i name="alphaZ">      3.25586026 </i>
    <i name="ewald">   -226.08447275 </i>
    <i name="hartreedc">    -14.74883153 </i>
    <i name="XCdc">    -18.11410143 </i>
    <i name="pawpsdc">     74.98430999 </i>
    <i name="pawaedc">    -40.02884184 </i>
    <i name="eentropy">     -0.00000718 </i>
    <i name="bandstr">      3.78081766 </i>
    <i name="atom">    206.12349923 </i>
    <i name="e_fr_energy">    -10.83176759 </i>
    <i name="e_wo_entrp">    -10.83176041 </i>
    <i name="e_0_energy">    -10.83176400 </i>
   </energy>
  </scstep>
  <scstep>
   <time name="dav">    0.28    0.27</time>
   <time name="total">    0.32    0.33</time>
   <energy>
    <i name="e_fr_energy">    -10.82790338 </i>
    <i name="e_wo_entrp">    -10.82789377 </i>
    <i name="e_0_energy">    -10.82789857 </i>
   </energy>
  </scstep>
  <scstep>
   <time name="dav">    0.26    0.26</time>
   <time name="total">    0.30    0.31</time>
   <energy>
    <i name="e_fr_energy">    -10.82589246 </i>
    <i name="e_wo_entrp">    -10.82587872 </i>
    <i name="e_0_energy">    -10.82588559 </i>
   </energy>
  </scstep>
  <scstep>
   <time name="dav">    0.13    0.13</time>
   <time name="total">    0.16    0.17</time>
   <energy>
    <i name="alphaZ">      3.25586026 </i>
    <i name="ewald">   -226.08447275 </i>
    <i name="hartreedc">    -15.29595593 </i>
    <i name="XCdc">    -18.10289070 </i>
    <i name="pawpsdc">     74.00250775 </i>
    <i name="pawaedc">    -39.01962158 </i>
    <i name="eentropy">     -0.00001347 </i>
    <i name="bandstr">      4.29520559 </i>
    <i name="atom">    206.12349923 </i>
    <i name="e_fr_energy">    -10.82588160 </i>
    <i name="e_wo_entrp">    -10.82586813 </i>
    <i name="e_0_energy">    -10.82587486 </i>
   </energy>
  </scstep>
  <structure>
   <crystal>
    <varray name="basis" >
     <v>      -0.00000000       2.74477041       2.74477041 </v>
     <v>       2.74477041       0.00000000       2.74477041 </v>
     <v>       2.74477041       2.74477041      -0.00000000 </v>
    </varray>
    <i name="volume">     41.35690817 </i>
    <varray name="rec_basis" >
     <v>      -0.18216460       0.18216460       0.18216460 </v>
     <v>       0.18216460      -0.18216460       0.18216460 </v>
     <v>       0.18216460       0.18216460      -0.18216460 </v>
    </varray>
   </crystal>
   <varray name="positions" >
    <v>       0.50000000       0.50000000       0.50000000 </v>
    <v>       0.75000000       0.75000000       0.75000000 </v>
   </varray>
  </structure>
  <varray name="forces" >
   <v>      -0.00000000       0.00000000       0.00000000 </v>
   <v>       0.00000000      -0.00000000      -0.00000000 </v>
  </varray>
  <varray name="stress" >
   <v>     -11.57831292       0.00000000      -0.00000000 </v>
   <v>       0.00000000     -11.57831292       0.00000000 </v>
   <v>      -0.00000000       0.00000000     -11.57831292 </v>
  </varray>
  <energy>
   <i name="e_fr_energy">    -10.82588160 </i>
   <i name="e_wo_entrp">    -10.82587486 </i>
   <i name="e_0_energy">     -0.00001347 </i>
  </energy>
  <time name="totalsc">    1.36    1.52</time>
 </calculation>
 <calculation>
  <scstep>
   <time name="dav">    0.28    0.28</time>
   <time name="total">    0.32    0.33</time>
   <energy>
    <i name="alphaZ">      3.29824793 </i>
    <i name="ewald">   -227.06136820 </i>
    <i name="hartreedc">    -15.36418761 </i>
    <i name="XCdc">    -18.04085899 </i>
    <i name="pawpsdc">     73.96688318 </i>
    <i name="pawaedc">    -38.98246387 </i>
    <i name="eentropy">     -0.00002178 </i>
    <i name="bandstr">      5.23142158 </i>
    <i name="atom">    206.12349923 </i>
    <i name="e_fr_energy">    -10.82884854 </i>
    <i name="e_wo_entrp">    -10.82882676 </i>
    <i name="e_0_energy">    -10.82883765 </i>
   </energy>
  </scstep>
  <scstep>
   <time name="dav">    0.27    0.27</time>
   <time name="total">    0.32    0.33</time>
   <energy>
    <i name="e_fr_energy">    -10.82823263 </i>
    <i name="e_wo_entrp">    -10.82821309 </i>
    <i name="e_0_energy">    -10.82822286 </i>
   </energy>
  </scstep>
  <scstep>
   <time name="dav">    0.16    0.16</time>
   <time name="total">    0.19    0.20</time>
   <energy>
    <i name="alphaZ">      3.29824793 </i>
    <i name="ewald">   -227.06136820 </i>
    <i name="hartreedc">    -15.14236092 </i>
    <i name="XCdc">    -18.04616481 </i>
    <i name="pawpsdc">     74.29676482 </i>
    <i name="pawaedc">    -39.32076874 </i>
    <i name="eentropy">     -0.00001701 </i>
    <i name="bandstr">      5.02424756 </i>
    <i name="atom">    206.12349923 </i>
    <i name="e_fr_energy">    -10.82792015 </i>
    <i name="e_wo_entrp">    -10.82790314 </i>
    <i name="e_0_energy">    -10.82791164 </i>
   </energy>
  </scstep>
  <structure>
   <crystal>
    <varray name="basis" >
     <v>      -0.00000000       2.73296147       2.73296147 </v>
     <v>       2.73296147       0.00000000       2.73296147 </v>
     <v>       2.73296147       2.73296147      -0.00000000 </v>
    </varray>
    <i name="volume">     40.82540686 </i>
    <varray name="rec_basis" >
     <v>      -0.18295172       0.18295172       0.18295172 </v>
     <v>       0.18295172      -0.18295172       0.18295172 </v>
     <v>       0.18295172       0.18295172      -0.18295172 </v>
    </varray>
   </crystal>
   <varray name="positions" >
    <v>       0.50000000       0.50000000       0.50000000 </v>
    <v>       0.75000000       0.75000000       0.75000000 </v>
   </varray>
  </structure>
  <varray name="forces" >
   <v>       0.00000000       0.00000000       0.00000000 </v>
   <v>      -0.00000000      -0.00000000      -0.00000000 </v>
  </varray>
  <varray name="stress" >
   <v>      -0.49173681       0.00000000       0.00000000 </v>
   <v>       0.00000000      -0.49173681       0.00000000 </v>
   <v>       0.00000000       0.00000000      -0.49173681 </v>
  </varray>
  <energy>
   <i name="e_fr_energy">    -10.82792015 </i>
   <i name="e_wo_entrp">    -10.82791164 </i>
   <i name="e_0_energy">     -0.00001701 </i>
  </energy>
  <time name="totalsc">    1.12    1.52</time>
  <eigenvalues>
   <array>
    <dimension dim="1">band</dimension>
    <dimension dim="2">kpoint</dimension>
    <dimension dim="3">spin</dimension>
    <field>eigene</field>
    <field>occ</field>
    <set>
     <set comment="spin 1">
      <set comment="kpoint 1">
       <r>   -6.1047    1.0000 </r>
       <r>    4.7830    1.0000 </r>
       <r>    5.5015    0.9996 </r>
       <r>    5.5015    0.9996 </r>
       <r>    8.2115    0.0000 </r>
       <r>    8.4102    0.0000 </r>
       <r>    8.4102    0.0000 </r>
       <r>    9.4863    0.0000 </r>
      </set>
      <set comment="kpoint 2">
       <r>   -5.6346    1.0000 </r>
       <r>    2.7113    1.0000 </r>
       <r>    4.2788    1.0000 </r>
       <r>    5.2897    1.0000 </r>
       <r>    8.2976    0.0000 </r>
       <r>    8.8024    0.0000 </r>
       <r>    9.1517    0.0000 </r>
       <r>   11.2702    0.0000 </r>
      </set>
      <set comment="kpoint 3">
       <r>   -4.5588    1.0000 </r>
       <r>   -0.0193    1.0000 </r>
       <r>    3.8151    1.0000 </r>
       <r>    4.6591    1.0000 </r>
       <r>    7.7913    0.0000 </r>
       <r>    9.2020    0.0000 </r>
       <r>    9.2428    0.0000 </r>
       <r>   13.0615    0.0000 </r>
      </set>
      <set comment="kpoint 4">
       <r>   -3.8740    1.0000 </r>
       <r>   -1.1451    1.0000 </r>
       <r>    3.8787    1.0000 </r>
       <r>    4.2835    1.0000 </r>
       <r>    7.6355    0.0000 </r>
       <r>    8.9255    0.0000 </r>
       <r>    9.3524    0.0000 </r>
       <r>   13.5189    0.0000 </r>
      </set>
      <set comment="kpoint 5">
       <r>   -4.9639    1.0000 </r>
       <r>    0.8169    1.0000 </r>
       <r>    4.3452    1.0000 </r>
       <r>    4.3724    1.0000 </r>
       <r>    7.8918    0.0000 </r>
       <r>    8.9299    0.0000 </r>
       <r>    9.7269    0.0000 </r>
       <r>   11.6004    0.0000 </r>
      </set>
      <set comment="kpoint 6">
       <r>   -5.8673    1.0000 </r>
       <r>    3.7139    1.0000 </r>
       <r>    4.8635    1.0000 </r>
       <r>    5.0428    1.0000 </r>
       <r>    7.9517    0.0000 </r>
       <r>    8.8093    0.0000 </r>
       <r>    9.3017    0.0000 </r>
       <r>   10.4169    0.0000 </r>
      </set>
      <set comment="kpoint 7">
       <r>   -5.3965    1.0000 </r>
       <r>    2.5158    1.0000 </r>
       <r>    4.1225    1.0000 </r>
       <r>    4.1410    1.0000 </r>
       <r>    7.3772    0.0000 </r>
       <r>    9.4992    0.0000 </r>
       <r>   10.3051    0.0000 </r>
       <r>   10.5144    0.0000 </r>
      </set>
      <set comment="kpoint 8">
       <r>   -4.4990    1.0000 </r>
       <r>    0.6932    1.0000 </r>
       <r>    2.8225    1.0000 </r>
       <r>    3.7573    1.0000 </r>
       <r>    7.7747    0.0000 </r>
       <r>    9.3911    0.0000 </r>
       <r>   10.1657    0.0000 </r>
       <r>   11.6201    0.0000 </r>
      </set>
      <set comment="kpoint 9">
       <r>   -3.4025    1.0000 </r>
       <r>   -1.0293    1.0000 </r>
       <r>    2.2239    1.0000 </r>
       <r>    3.5337    1.0000 </r>
       <r>    8.0214    0.0000 </r>
       <r>    9.5618    0.0000 </r>
       <r>   11.4987    0.0000 </r>
       <r>   11.8810    0.0000 </r>
      </set>
      <set comment="kpoint 10">
       <r>   -4.1110    1.0000 </r>
       <r>    0.0106    1.0000 </r>
       <r>    2.1878    1.0000 </r>
       <r>    4.0127    1.0000 </r>
       <r>    8.6072    0.0000 </r>
       <r>    9.2415    0.0000 </r>
       <r>   10.8981    0.0000 </r>
       <r>   11.3859    0.0000 </r>
      </set>
      <set comment="kpoint 11">
       <r>   -5.1744    1.0000 </r>
       <r>    1.6923    1.0000 </r>
       <r>    3.5109    1.0000 </r>
       <r>    4.6710    1.0000 </r>
       <r>    8.2512    0.0000 </r>
       <r>    9.0993    0.0000 </r>
       <r>   10.1777    0.0000 </r>
       <r>   10.5424    0.0000 </r>
      </set>
      <set comment="kpoint 12">
       <r>   -3.7961    1.0000 </r>
       <r>   -0.1323    1.0000 </r>
       <r>    2.7892    1.0000 </r>
       <r>    3.1224    1.0000 </r>
       <r>    6.5665    0.0000 </r>
       <r>    7.5393    0.0000 </r>
       <r>   13.1507    0.0000 </r>
       <r>   13.2159    0.0000 </r>
      </set>
      <set comment="kpoint 13">
       <r>   -2.6181    1.0000 </r>
       <r>   -1.4574    1.0000 </r>
       <r>    1.9616    1.0000 </r>
       <r>    2.7233    1.0000 </r>
       <r>    7.1853    0.0000 </r>
       <r>    8.2974    0.0000 </r>
       <r>   12.7008    0.0000 </r>
       <r>   14.1477    0.0000 </r>
      </set>
      <set comment="kpoint 14">
       <r>   -2.9878    1.0000 </r>
       <r>   -1.1195    1.0000 </r>
       <r>    1.4838    1.0000 </r>
       <r>    3.2615    1.0000 </r>
       <r>    7.7957    0.0000 </r>
       <r>   10.6839    0.0000 </r>
       <r>   11.6591    0.0000 </r>
       <r>   12.3117    0.0000 </r>
      </set>
      <set comment="kpoint 15">
       <r>   -4.0023    1.0000 </r>
       <r>   -0.6557    1.0000 </r>
       <r>    3.1106    1.0000 </r>
       <r>    4.1089    1.0000 </r>
       <r>    8.2073    0.0000 </r>
       <r>    8.8579    0.0000 </r>
       <r>   10.1652    0.0000 </r>
       <r>   12.3715    0.0000 </r>
      </set>
      <set comment="kpoint 16">
       <r>   -2.7069    1.0000 </r>
       <r>   -1.4645    1.0000 </r>
       <r>    2.5229    1.0000 </r>
       <r>    2.9095    1.0000 </r>
       <r>    6.4593    0.0003 </r>
       <r>    7.0200    0.0000 </r>
       <r>   14.6301    0.0000 </r>
       <r>   14.7093    0.0000 </r>
      </set>
      <set comment="kpoint 17">
       <r>   -3.6310    1.0000 </r>
       <r>   -0.3518    1.0000 </r>
       <r>    2.2763    1.0000 </r>
       <r>    3.0598    1.0000 </r>
       <r>    7.3917    0.0000 </r>
       <r>    8.6656    0.0000 </r>
       <r>   11.3560    0.0000 </r>
       <r>   13.1593    0.0000 </r>
      </set>
      <set comment="kpoint 18">
       <r>   -4.7012    1.0000 </r>
       <r>    1.2209    1.0000 </r>
       <r>    3.3260    1.0000 </r>
       <r>    3.5410    1.0000 </r>
       <r>    6.8790    0.0000 </r>
       <r>    8.4457    0.0000 </r>
       <r>   11.6229    0.0000 </r>
       <r>   11.8349    0.0000 </r>
      </set>
      <set comment="kpoint 19">
       <r>   -5.4083    1.0000 </r>
       <r>    1.7455    1.0000 </r>
       <r>    4.8921    1.0000 </r>
       <r>    4.8921    1.0000 </r>
       <r>    7.6075    0.0000 </r>
       <r>    9.1406    0.0000 </r>
       <r>    9.1406    0.0000 </r>
       <r>   12.4035    0.0000 </r>
      </set>
      <set comment="kpoint 20">
       <r>   -4.7388    1.0000 </r>
       <r>    0.8133    1.0000 </r>
       <r>    2.7866    1.0000 </r>
       <r>    4.7226    1.0000 </r>
       <r>    8.3908    0.0000 </r>
       <r>    9.6269    0.0000 </r>
       <r>    9.8004    0.0000 </r>
       <r>   11.7003    0.0000 </r>
      </set>
      <set comment="kpoint 21">
       <r>   -3.5784    1.0000 </r>
       <r>   -0.6167    1.0000 </r>
       <r>    1.6962    1.0000 </r>
       <r>    3.9465    1.0000 </r>
       <r>    7.6799    0.0000 </r>
       <r>   10.9371    0.0000 </r>
       <r>   11.0414    0.0000 </r>
       <r>   12.7429    0.0000 </r>
      </set>
      <set comment="kpoint 22">
       <r>   -3.5261    1.0000 </r>
       <r>   -0.6954    1.0000 </r>
       <r>    2.1661    1.0000 </r>
       <r>    3.4711    1.0000 </r>
       <r>    7.1903    0.0000 </r>
       <r>   10.0896    0.0000 </r>
       <r>   11.3040    0.0000 </r>
       <r>   11.5420    0.0000 </r>
      </set>
      <set comment="kpoint 23">
       <r>   -4.3213    1.0000 </r>
       <r>    0.0167    1.0000 </r>
       <r>    3.2390    1.0000 </r>
       <r>    3.8402    1.0000 </r>
       <r>    7.6619    0.0000 </r>
       <r>    9.8470    0.0000 </r>
       <r>   10.5266    0.0000 </r>
       <r>   10.6838    0.0000 </r>
      </set>
      <set comment="kpoint 24">
       <r>   -3.3342    1.0000 </r>
       <r>   -0.7338    1.0000 </r>
       <r>    1.7958    1.0000 </r>
       <r>    3.0590    1.0000 </r>
       <r>    8.8726    0.0000 </r>
       <r>    9.3995    0.0000 </r>
       <r>   10.3672    0.0000 </r>
       <r>   13.0793    0.0000 </r>
      </set>
      <set comment="kpoint 25">
       <r>   -2.5155    1.0000 </r>
       <r>   -1.4650    1.0000 </r>
       <r>    1.6377    1.0000 </r>
       <r>    2.4019    1.0000 </r>
       <r>    8.6739    0.0000 </r>
       <r>    9.9353    0.0000 </r>
       <r>   10.7013    0.0000 </r>
       <r>   12.0859    0.0000 </r>
      </set>
      <set comment="kpoint 26">
       <r>   -2.7237    1.0000 </r>
       <r>   -1.3683    1.0000 </r>
       <r>    1.5129    1.0000 </r>
       <r>    3.2788    1.0000 </r>
       <r>    6.9178    0.0000 </r>
       <r>    9.8032    0.0000 </r>
       <r>   12.6927    0.0000 </r>
       <r>   12.8649    0.0000 </r>
      </set>
      <set comment="kpoint 27">
       <r>   -4.2360    1.0000 </r>
       <r>   -0.7505    1.0000 </r>
       <r>    4.5059    1.0000 </r>
       <r>    4.5059    1.0000 </r>
       <r>    7.1732    0.0000 </r>
       <r>    9.0556    0.0000 </r>
       <r>    9.0556    0.0000 </r>
       <r>   13.4224    0.0000 </r>
      </set>
      <set comment="kpoint 28">
       <r>   -3.6413    1.0000 </r>
       <r>   -1.0531    1.0000 </r>
       <r>    2.6910    1.0000 </r>
       <r>    4.0717    1.0000 </r>
       <r>    7.8248    0.0000 </r>
       <r>    9.6762    0.0000 </r>
       <r>   10.0372    0.0000 </r>
       <r>   13.5612    0.0000 </r>
      </set>
     </set>
    </set>
   </array>
  </eigenvalues>
  <separator name="orbital magnetization" >
   <v name="MAGDIPOLOUT">      0.00000000      0.00000000      0.00000000</v>
  </separator>
  <dos>
   <i name="efermi">      5.97169335 </i>
   <total>
    <array>
     <dimension dim="1">gridpoints</dimension>
     <dimension dim="2">spin</dimension>
     <field>energy</field>
     <field>total</field>
     <field>integrated</field>
     <set>
      <set comment="spin 1">
       <r>    -8.1047     0.0000     0.0000 </r>
       <r>    -8.0219     0.0000     0.0000 </r>
       <r>    -7.9392     0.0000     0.0000 </r>
       <r>    -7.8565     0.0000     0.0000 </r>
       <r>    -7.7738     0.0000     0.0000 </r>
       <r>    -7.6911     0.0000     0.0000 </r>
       <r>    -7.6084     0.0000     0.0000 </r>
       <r>    -7.5257     0.0000     0.0000 </r>
       <r>    -7.4430     0.0000     0.0000 </r>
       <r>    -7.3602     0.0000     0.0000 </r>
       <r>    -7.2775     0.0000     0.0000 </r>
       <r>    -7.1948     0.0000     0.0000 </r>
       <r>    -7.1121     0.0000     0.0000 </r>
       <r>    -7.0294     0.0000     0.0000 </r>
       <r>    -6.9467     0.0000     0.0000 </r>
       <r>    -6.8640     0.0000     0.0000 </r>
       <r>    -6.7812     0.0000     0.0000 </r>
       <r>    -6.6985     0.0000     0.0000 </r>
       <r>    -6.6158     0.0000     0.0000 </r>
       <r>    -6.5331     0.0002     0.0000 </r>
       <r>    -6.4504     0.0014     0.0001 </r>
       <r>    -6.3677     0.0055     0.0006 </r>
       <r>    -6.2850     0.0165     0.0020 </r>
       <r>    -6.2023     0.0372     0.0050 </r>
       <r>    -6.1195     0.0669     0.0106 </r>
       <r>    -6.0368     0.1043     0.0192 </r>
       <r>    -5.9541     0.1487     0.0315 </r>
       <r>    -5.8714     0.1919     0.0474 </r>
       <r>    -5.7887     0.2210     0.0657 </r>
       <r>    -5.7060     0.2357     0.0851 </r>
       <r>    -5.6233     0.2468     0.1056 </r>
       <r>    -5.5406     0.2631     0.1273 </r>
       <r>    -5.4578     0.2904     0.1513 </r>
       <r>    -5.3751     0.3296     0.1786 </r>
       <r>    -5.2924     0.3750     0.2096 </r>
       <r>    -5.2097     0.4141     0.2439 </r>
       <r>    -5.1270     0.4243     0.2790 </r>
       <r>    -5.0443     0.3947     0.3116 </r>
       <r>    -4.9616     0.3519     0.3407 </r>
       <r>    -4.8788     0.3408     0.3689 </r>
       <r>    -4.7961     0.3876     0.4010 </r>
       <r>    -4.7134     0.4808     0.4407 </r>
       <r>    -4.6307     0.5810     0.4888 </r>
       <r>    -4.5480     0.6442     0.5421 </r>
       <r>    -4.4653     0.6407     0.5951 </r>
       <r>    -4.3826     0.5809     0.6431 </r>
       <r>    -4.2999     0.5250     0.6866 </r>
       <r>    -4.2171     0.5362     0.7309 </r>
       <r>    -4.1344     0.6183     0.7820 </r>
       <r>    -4.0517     0.7103     0.8408 </r>
       <r>    -3.9690     0.7471     0.9026 </r>
       <r>    -3.8863     0.7298     0.9630 </r>
       <r>    -3.8036     0.7256     1.0230 </r>
       <r>    -3.7209     0.7933     1.0886 </r>
       <r>    -3.6381     0.9143     1.1642 </r>
       <r>    -3.5554     1.0080     1.2476 </r>
       <r>    -3.4727     1.0192     1.3319 </r>
       <r>    -3.3900     0.9445     1.4100 </r>
       <r>    -3.3073     0.7884     1.4752 </r>
       <r>    -3.2246     0.5812     1.5233 </r>
       <r>    -3.1419     0.4131     1.5575 </r>
       <r>    -3.0592     0.3552     1.5868 </r>
       <r>    -2.9764     0.3790     1.6182 </r>
       <r>    -2.8937     0.4238     1.6532 </r>
       <r>    -2.8110     0.4960     1.6943 </r>
       <r>    -2.7283     0.6258     1.7460 </r>
       <r>    -2.6456     0.7635     1.8092 </r>
       <r>    -2.5629     0.8003     1.8754 </r>
       <r>    -2.4802     0.6809     1.9317 </r>
       <r>    -2.3974     0.4580     1.9696 </r>
       <r>    -2.3147     0.2385     1.9893 </r>
       <r>    -2.2320     0.0943     1.9971 </r>
       <r>    -2.1493     0.0278     1.9994 </r>
       <r>    -2.0666     0.0061     1.9999 </r>
       <r>    -1.9839     0.0013     2.0000 </r>
       <r>    -1.9012     0.0030     2.0003 </r>
       <r>    -1.8185     0.0169     2.0017 </r>
       <r>    -1.7357     0.0717     2.0076 </r>
       <r>    -1.6530     0.2195     2.0258 </r>
       <r>    -1.5703     0.4861     2.0660 </r>
       <r>    -1.4876     0.7857     2.1310 </r>
       <r>    -1.4049     0.9493     2.2095 </r>
       <r>    -1.3222     0.9218     2.2857 </r>
       <r>    -1.2395     0.8505     2.3561 </r>
       <r>    -1.1567     0.8794     2.4288 </r>
       <r>    -1.0740     0.9487     2.5073 </r>
       <r>    -0.9913     0.9161     2.5831 </r>
       <r>    -0.9086     0.8019     2.6494 </r>
       <r>    -0.8259     0.7710     2.7132 </r>
       <r>    -0.7432     0.8810     2.7860 </r>
       <r>    -0.6605     0.9795     2.8670 </r>
       <r>    -0.5778     0.9087     2.9422 </r>
       <r>    -0.4950     0.7108     3.0010 </r>
       <r>    -0.4123     0.5417     3.0458 </r>
       <r>    -0.3296     0.4704     3.0847 </r>
       <r>    -0.2469     0.4721     3.1238 </r>
       <r>    -0.1642     0.5373     3.1682 </r>
       <r>    -0.0815     0.6573     3.2226 </r>
       <r>     0.0012     0.7410     3.2839 </r>
       <r>     0.0840     0.6748     3.3397 </r>
       <r>     0.1667     0.4656     3.3782 </r>
       <r>     0.2494     0.2378     3.3979 </r>
       <r>     0.3321     0.0942     3.4057 </r>
       <r>     0.4148     0.0520     3.4100 </r>
       <r>     0.4975     0.0970     3.4180 </r>
       <r>     0.5802     0.2223     3.4364 </r>
       <r>     0.6629     0.3973     3.4692 </r>
       <r>     0.7457     0.5377     3.5137 </r>
       <r>     0.8284     0.5542     3.5595 </r>
       <r>     0.9111     0.4400     3.5959 </r>
       <r>     0.9938     0.2830     3.6193 </r>
       <r>     1.0765     0.1831     3.6345 </r>
       <r>     1.1592     0.1725     3.6488 </r>
       <r>     1.2419     0.2246     3.6673 </r>
       <r>     1.3246     0.3244     3.6942 </r>
       <r>     1.4074     0.4954     3.7352 </r>
       <r>     1.4901     0.7443     3.7967 </r>
       <r>     1.5728     1.0171     3.8808 </r>
       <r>     1.6555     1.2203     3.9818 </r>
       <r>     1.7382     1.2689     4.0867 </r>
       <r>     1.8209     1.1493     4.1818 </r>
       <r>     1.9036     0.9559     4.2609 </r>
       <r>     1.9864     0.8318     4.3297 </r>
       <r>     2.0691     0.8719     4.4018 </r>
       <r>     2.1518     1.0579     4.4893 </r>
       <r>     2.2345     1.2475     4.5925 </r>
       <r>     2.3172     1.2893     4.6991 </r>
       <r>     2.3999     1.1786     4.7966 </r>
       <r>     2.4826     1.0436     4.8829 </r>
       <r>     2.5653     1.0142     4.9668 </r>
       <r>     2.6481     1.1357     5.0607 </r>
       <r>     2.7308     1.3306     5.1708 </r>
       <r>     2.8135     1.4498     5.2907 </r>
       <r>     2.8962     1.4478     5.4105 </r>
       <r>     2.9789     1.4428     5.5298 </r>
       <r>     3.0616     1.5220     5.6557 </r>
       <r>     3.1443     1.6045     5.7884 </r>
       <r>     3.2271     1.5779     5.9189 </r>
       <r>     3.3098     1.4565     6.0394 </r>
       <r>     3.3925     1.3457     6.1507 </r>
       <r>     3.4752     1.3064     6.2587 </r>
       <r>     3.5579     1.2926     6.3657 </r>
       <r>     3.6406     1.2518     6.4692 </r>
       <r>     3.7233     1.2210     6.5702 </r>
       <r>     3.8060     1.2468     6.6733 </r>
       <r>     3.8888     1.3112     6.7818 </r>
       <r>     3.9715     1.3860     6.8964 </r>
       <r>     4.0542     1.4451     7.0159 </r>
       <r>     4.1369     1.4319     7.1344 </r>
       <r>     4.2196     1.3122     7.2429 </r>
       <r>     4.3023     1.1220     7.3357 </r>
       <r>     4.3850     0.9202     7.4118 </r>
       <r>     4.4678     0.7626     7.4749 </r>
       <r>     4.5505     0.7101     7.5336 </r>
       <r>     4.6332     0.7674     7.5971 </r>
       <r>     4.7159     0.8376     7.6664 </r>
       <r>     4.7986     0.8162     7.7339 </r>
       <r>     4.8813     0.6973     7.7916 </r>
       <r>     4.9640     0.5443     7.8366 </r>
       <r>     5.0467     0.4081     7.8704 </r>
       <r>     5.1295     0.3097     7.8960 </r>
       <r>     5.2122     0.2553     7.9171 </r>
       <r>     5.2949     0.2340     7.9364 </r>
       <r>     5.3776     0.2203     7.9547 </r>
       <r>     5.4603     0.1954     7.9708 </r>
       <r>     5.5430     0.1558     7.9837 </r>
       <r>     5.6257     0.1060     7.9925 </r>
       <r>     5.7085     0.0578     7.9973 </r>
       <r>     5.7912     0.0239     7.9992 </r>
       <r>     5.8739     0.0073     7.9998 </r>
       <r>     5.9566     0.0017     8.0000 </r>
       <r>     6.0393     0.0012     8.0001 </r>
       <r>     6.1220     0.0053     8.0005 </r>
       <r>     6.2047     0.0214     8.0023 </r>
       <r>     6.2874     0.0640     8.0076 </r>
       <r>     6.3702     0.1414     8.0193 </r>
       <r>     6.4529     0.2335     8.0386 </r>
       <r>     6.5356     0.2925     8.0628 </r>
       <r>     6.6183     0.2919     8.0869 </r>
       <r>     6.7010     0.2692     8.1092 </r>
       <r>     6.7837     0.2944     8.1335 </r>
       <r>     6.8664     0.3893     8.1657 </r>
       <r>     6.9492     0.5104     8.2080 </r>
       <r>     7.0319     0.6182     8.2591 </r>
       <r>     7.1146     0.7147     8.3182 </r>
       <r>     7.1973     0.7984     8.3842 </r>
       <r>     7.2800     0.8467     8.4543 </r>
       <r>     7.3627     0.8580     8.5252 </r>
       <r>     7.4454     0.8665     8.5969 </r>
       <r>     7.5281     0.9294     8.6738 </r>
       <r>     7.6109     1.0987     8.7647 </r>
       <r>     7.6936     1.3490     8.8762 </r>
       <r>     7.7763     1.5498     9.0044 </r>
       <r>     7.8590     1.5671     9.1340 </r>
       <r>     7.9417     1.4037     9.2501 </r>
       <r>     8.0244     1.2084     9.3501 </r>
       <r>     8.1071     1.1480     9.4450 </r>
       <r>     8.1899     1.2639     9.5496 </r>
       <r>     8.2726     1.4234     9.6673 </r>
       <r>     8.3553     1.4496     9.7872 </r>
       <r>     8.4380     1.3309     9.8973 </r>
       <r>     8.5207     1.2330     9.9993 </r>
       <r>     8.6034     1.2896    10.1060 </r>
       <r>     8.6861     1.4640    10.2270 </r>
       <r>     8.7688     1.6311    10.3620 </r>
       <r>     8.8516     1.7010    10.5027 </r>
       <r>     8.9343     1.6534    10.6394 </r>
       <r>     9.0170     1.5604    10.7685 </r>
       <r>     9.0997     1.5453    10.8963 </r>
       <r>     9.1824     1.6437    11.0323 </r>
       <r>     9.2651     1.7654    11.1783 </r>
       <r>     9.3478     1.8056    11.3276 </r>
       <r>     9.4305     1.7281    11.4706 </r>
       <r>     9.5133     1.5681    11.6003 </r>
       <r>     9.5960     1.3974    11.7159 </r>
       <r>     9.6787     1.2736    11.8212 </r>
       <r>     9.7614     1.2071    11.9210 </r>
       <r>     9.8441     1.1764    12.0183 </r>
       <r>     9.9268     1.1784    12.1158 </r>
       <r>    10.0095     1.2495    12.2192 </r>
       <r>    10.0923     1.3971    12.3347 </r>
       <r>    10.1750     1.5273    12.4610 </r>
       <r>    10.2577     1.5330    12.5878 </r>
       <r>    10.3404     1.4401    12.7070 </r>
       <r>    10.4231     1.3682    12.8201 </r>
       <r>    10.5058     1.3744    12.9338 </r>
       <r>    10.5885     1.4105    13.0505 </r>
       <r>    10.6712     1.3908    13.1655 </r>
       <r>    10.7540     1.2708    13.2706 </r>
       <r>    10.8367     1.0861    13.3605 </r>
       <r>    10.9194     0.9016    13.4350 </r>
       <r>    11.0021     0.7397    13.4962 </r>
       <r>    11.0848     0.6192    13.5474 </r>
       <r>    11.1675     0.6156    13.5983 </r>
       <r>    11.2502     0.7911    13.6638 </r>
       <r>    11.3330     1.0890    13.7539 </r>
       <r>    11.4157     1.3803    13.8680 </r>
       <r>    11.4984     1.5916    13.9997 </r>
       <r>    11.5811     1.7023    14.1405 </r>
       <r>    11.6638     1.6629    14.2780 </r>
       <r>    11.7465     1.4512    14.3980 </r>
       <r>    11.8292     1.1552    14.4936 </r>
       <r>    11.9119     0.8940    14.5675 </r>
       <r>    11.9947     0.7163    14.6268 </r>
       <r>    12.0774     0.6208    14.6781 </r>
       <r>    12.1601     0.6043    14.7281 </r>
       <r>    12.2428     0.6589    14.7826 </r>
       <r>    12.3255     0.7307    14.8431 </r>
       <r>    12.4082     0.7298    14.9034 </r>
       <r>    12.4909     0.6476    14.9570 </r>
       <r>    12.5737     0.5978    15.0064 </r>
       <r>    12.6564     0.6568    15.0608 </r>
       <r>    12.7391     0.7448    15.1224 </r>
       <r>    12.8218     0.7550    15.1848 </r>
       <r>    12.9045     0.7273    15.2450 </r>
       <r>    12.9872     0.7896    15.3103 </r>
       <r>    13.0699     0.9545    15.3892 </r>
       <r>    13.1526     1.0635    15.4772 </r>
       <r>    13.2354     0.9714    15.5575 </r>
       <r>    13.3181     0.7297    15.6179 </r>
       <r>    13.4008     0.5158    15.6606 </r>
       <r>    13.4835     0.4200    15.6953 </r>
       <r>    13.5662     0.3796    15.7267 </r>
       <r>    13.6489     0.3044    15.7519 </r>
       <r>    13.7316     0.1908    15.7677 </r>
       <r>    13.8144     0.0970    15.7757 </r>
       <r>    13.8971     0.0680    15.7813 </r>
       <r>    13.9798     0.1136    15.7907 </r>
       <r>    14.0625     0.2106    15.8081 </r>
       <r>    14.1452     0.2953    15.8326 </r>
       <r>    14.2279     0.2994    15.8573 </r>
       <r>    14.3106     0.2238    15.8758 </r>
       <r>    14.3933     0.1426    15.8876 </r>
       <r>    14.4761     0.1276    15.8982 </r>
       <r>    14.5588     0.1878    15.9137 </r>
       <r>    14.6415     0.2690    15.9360 </r>
       <r>    14.7242     0.2966    15.9605 </r>
       <r>    14.8069     0.2421    15.9805 </r>
       <r>    14.8896     0.1453    15.9925 </r>
       <r>    14.9723     0.0639    15.9978 </r>
       <r>    15.0551     0.0206    15.9995 </r>
       <r>    15.1378     0.0048    15.9999 </r>
       <r>    15.2205     0.0008    16.0000 </r>
       <r>    15.3032     0.0001    16.0000 </r>
       <r>    15.3859     0.0000    16.0000 </r>
       <r>    15.4686     0.0000    16.0000 </r>
       <r>    15.5513     0.0000    16.0000 </r>
       <r>    15.6340     0.0000    16.0000 </r>
       <r>    15.7168     0.0000    16.0000 </r>
       <r>    15.7995     0.0000    16.0000 </r>
       <r>    15.8822     0.0000    16.0000 </r>
       <r>    15.9649     0.0000    16.0000 </r>
       <r>    16.0476     0.0000    16.0000 </r>
       <r>    16.1303     0.0000    16.0000 </r>
       <r>    16.2130     0.0000    16.0000 </r>
       <r>    16.2957     0.0000    16.0000 </r>
       <r>    16.3785     0.0000    16.0000 </r>
       <r>    16.4612     0.0000    16.0000 </r>
       <r>    16.5439     0.0000    16.0000 </r>
       <r>    16.6266     0.0000    16.0000 </r>
       <r>    16.7093     0.0000    16.0000 </r>
      </set>
     </set>
    </array>
   </total>
  </dos>
 </calculation>
 <structure name="finalpos" >
  <crystal>
   <varray name="basis" >
    <v>      -0.00000000       2.73296147       2.73296147 </v>
    <v>       2.73296147       0.00000000       2.73296147 </v>
    <v>       2.73296147       2.73296147      -0.00000000 </v>
   </varray>
   <i name="volume">     40.82540686 </i>
   <varray name="rec_basis" >
    <v>      -0.18295172       0.18295172       0.18295172 </v>
    <v>       0.18295172      -0.18295172       0.18295172 </v>
    <v>       0.18295172       0.18295172      -0.18295172 </v>
   </varray>
  </crystal>
  <varray name="positions" >
   <v>       0.50000000       0.50000000       0.50000000 </v>
   <v>       0.75000000       0.75000000       0.75000000 </v>
  </varray>
 </structure>
</modeling>
