unknown system                          
   1.00000000000000     
     0.000000    2.715000    2.715000
     2.715000    0.000000    2.715000
     2.715000    2.715000    0.000000
   Si
     2
Direct
  0.500000  0.500000  0.500000
  0.750000  0.750000  0.750000
 
   32   32   32
 0.87669449275E+00 0.89832776810E+00 0.96440497979E+00 0.10785991940E+01 0.12469624699E+01
 0.14776743227E+01 0.17803020840E+01 0.21641315286E+01 0.26352381593E+01 0.31924032332E+01
 0.38226502267E+01 0.44978190665E+01 0.51738417468E+01 0.57939899459E+01 0.62963604697E+01
 0.66244898739E+01 0.67386301504E+01 0.66244422678E+01 0.62962717270E+01 0.57938728600E+01
 0.51737176166E+01 0.44977189259E+01 0.38226070681E+01 0.31924365693E+01 0.26353425050E+01
 0.21642765482E+01 0.17804429893E+01 0.14777685010E+01 0.12469877563E+01 0.10785646492E+01
 0.96434554821E+00 0.89828473526E+00 0.89832776810E+00 0.93567869336E+00 0.10123652005E+01
 0.11322523227E+01 0.13007864243E+01 0.15245523827E+01 0.18104328031E+01 0.21640097471E+01
 0.25869716208E+01 0.30737178502E+01 0.36079814098E+01 0.41608156207E+01 0.46913447969E+01
 0.51510665527E+01 0.54913636314E+01 0.56726391473E+01 0.56726202766E+01 0.54913115314E+01
 0.51509947360E+01 0.46912764166E+01 0.41607823084E+01 0.36080122552E+01 0.30738196185E+01
 0.25871176160E+01 0.21641533319E+01 0.18105361131E+01 0.15246031652E+01 0.13007912413E+01
 0.11322225965E+01 0.10123152889E+01 0.93563108354E+00 0.89830799217E+00 0.96440497979E+00
 0.10123652005E+01 0.10949317799E+01 0.12157719950E+01 0.13794938504E+01 0.15911113667E+01
 0.18551363609E+01 0.21740424310E+01 0.25460014100E+01 0.29621986134E+01 0.34045606293E+01
 0.38450663460E+01 0.42476436272E+01 0.45729148369E+01 0.47850059735E+01 0.48587176408E+01
 0.47849784143E+01 0.45728783307E+01 0.42476264128E+01 0.38450923817E+01 0.34046374215E+01
 0.29623131911E+01 0.25461260223E+01 0.21741464965E+01 0.18551985876E+01 0.15911265243E+01
 0.13794717206E+01 0.12157303103E+01 0.10948879465E+01 0.10123311986E+01 0.96438689430E+00
 0.94868516740E+00 0.10785991940E+01 0.11322523227E+01 0.12157719950E+01 0.13324597460E+01
 0.14861265558E+01 0.16804714605E+01 0.19180869881E+01 0.21989752342E+01 0.25186366388E+01
 0.28661373578E+01 0.32229232165E+01 0.35632632798E+01 0.38568740407E+01 0.40735436633E+01
 0.41887504367E+01 0.41887366102E+01 0.40735139267E+01 0.38568583289E+01 0.35632926846E+01
 0.32230062937E+01 0.28662485405E+01 0.25187311495E+01 0.21990196583E+01 0.19180774663E+01
 0.16804265297E+01 0.14860691034E+01 0.13324072484E+01 0.12157359468E+01 0.11322368382E+01
 0.10785982698E+01 0.10524092823E+01 0.10524075415E+01 0.12469624699E+01 0.13007864243E+01
 0.13794938504E+01 0.14861265558E+01 0.16239448538E+01 0.17956775081E+01 0.20024402190E+01
 0.22423499030E+01 0.25090344498E+01 0.27904817734E+01 0.30688413016E+01 0.33217112807E+01
 0.35250414440E+01 0.36571732119E+01 0.37030118427E+01 0.36571487294E+01 0.35250119280E+01
 0.33217032023E+01 0.30688704647E+01 0.27905411742E+01 0.25090955628E+01 0.22423775284E+01
 0.20024121725E+01 0.17955975226E+01 0.16238413553E+01 0.14860379620E+01 0.13794485591E+01
 0.13007886847E+01 0.12469921292E+01 0.12156815756E+01 0.12053959713E+01 0.12156555375E+01
 0.14776743227E+01 0.15245523827E+01 0.15911113667E+01 0.16804714605E+01 0.17956775081E+01
 0.19388079016E+01 0.21098724174E+01 0.23056362631E+01 0.25186371866E+01 0.27367912579E+01
 0.29439868229E+01 0.31218585663E+01 0.32525442366E+01 0.33218207264E+01 0.33218072920E+01
 0.32525137610E+01 0.31218318231E+01 0.29439785223E+01 0.27368008159E+01 0.25186518388E+01
 0.23056389051E+01 0.21098474264E+01 0.19387470991E+01 0.17955883298E+01 0.16803807256E+01
 0.15910553970E+01 0.15245547026E+01 0.14777263813E+01 0.14479527826E+01 0.14334738757E+01
 0.14334464510E+01 0.14478903673E+01 0.17803020840E+01 0.18104328031E+01 0.18551363609E+01
 0.19180869881E+01 0.20024402190E+01 0.21098724174E+01 0.22396027432E+01 0.23875686862E+01
 0.25460013994E+01 0.27036828601E+01 0.28470610914E+01 0.29621359816E+01 0.30367248227E+01
 0.30625563203E+01 0.30367090954E+01 0.29621153603E+01 0.28470493504E+01 0.27036865163E+01
 0.25460140642E+01 0.23875737993E+01 0.22395835018E+01 0.21098237572E+01 0.20023752014E+01
 0.19180324738E+01 0.18551195929E+01 0.18104662374E+01 0.17803749497E+01 0.17614386978E+01
 0.17510814353E+01 0.17477740586E+01 0.17510282784E+01 0.17613572326E+01 0.21641315286E+01
 0.21640097471E+01 0.21740424310E+01 0.21989752342E+01 0.22423499030E+01 0.23056362631E+01
 0.23875686862E+01 0.24837913776E+01 0.25869710530E+01 0.26875272391E+01 0.27749655412E+01
 0.28395411236E+01 0.28738248782E+01 0.28738257556E+01 0.28395445265E+01 0.27749740974E+01
 0.26875449127E+01 0.25869995725E+01 0.24838248316E+01 0.23875923548E+01 0.23056357944E+01
 0.22423267993E+01 0.21989536647E+01 0.21740552466E+01 0.21640719735E+01 0.21642265021E+01
 0.21695149631E+01 0.21756020788E+01 0.21794152609E+01 0.21793942311E+01 0.21755400275E+01
 0.21694223533E+01 0.26352381593E+01 0.25869716208E+01 0.25460014100E+01 0.25186366388E+01
 0.25090344498E+01 0.25186371866E+01 0.25460013994E+01 0.25869710530E+01 0.26352381428E+01
 0.26833289959E+01 0.27238722722E+01 0.27508105878E+01 0.27602432264E+01 0.27508328393E+01
 0.27239121568E+01 0.26833804991E+01 0.26352955815E+01 0.25870286542E+01 0.25460547015E+01
 0.25186859506E+01 0.25090821227E+01 0.25186865018E+01 0.25460546976E+01 0.25870280961E+01
 0.26352955774E+01 0.26833810503E+01 0.27239121576E+01 0.27508322905E+01 0.27602432352E+01
 0.27508111538E+01 0.27238722876E+01 0.26833284592E+01 0.31924032332E+01 0.30737178502E+01
 0.29621986134E+01 0.28661373578E+01 0.27904817734E+01 0.27367912579E+01 0.27036828601E+01
 0.26875272391E+01 0.26833289959E+01 0.26857586843E+01 0.26901513826E+01 0.26931974493E+01
 0.26932214273E+01 0.26902162129E+01 0.26858493036E+01 0.26834309698E+01 0.26876270909E+01
 0.27037687085E+01 0.27368621897E+01 0.27905514913E+01 0.28662182756E+01 0.29622815285E+01
 0.30737755484E+01 0.31924168274E+01 0.33074010101E+01 0.34069440595E+01 0.34802023386E+01
 0.35190075089E+01 0.35190172731E+01 0.34802299962E+01 0.34069803378E+01 0.33074245123E+01
 0.38226502267E+01 0.36079814098E+01 0.34045606293E+01 0.32229232165E+01 0.30688413016E+01
 0.29439868229E+01 0.28470610914E+01 0.27749655412E+01 0.27238722722E+01 0.26901513826E+01
 0.26710289658E+01 0.26648584974E+01 0.26711005885E+01 0.26902745267E+01 0.27240190604E+01
 0.27751110404E+01 0.28471873580E+01 0.29440858810E+01 0.30689159545E+01 0.32229790302E+01
 0.34045947394E+01 0.36079829102E+01 0.38226118824E+01 0.40335659116E+01 0.42232230645E+01
 0.43739347873E+01 0.44708897776E+01 0.45043535423E+01 0.44709428198E+01 0.43740209614E+01
 0.42233148083E+01 0.40336390788E+01 0.44978190665E+01 0.41608156207E+01 0.38450663460E+01
 0.35632632798E+01 0.33217112807E+01 0.31218585663E+01 0.29621359816E+01 0.28395411236E+01
 0.27508105878E+01 0.26931974493E+01 0.26648584974E+01 0.26649059249E+01 0.26933272306E+01
 0.27509898201E+01 0.28397283208E+01 0.29622957555E+01 0.31219730931E+01 0.33217800897E+01
 0.35632902307E+01 0.38450477678E+01 0.41607463632E+01 0.44977074307E+01 0.48365172704E+01
 0.51525306350E+01 0.54192030627E+01 0.56123043051E+01 0.57136816585E+01 0.57137109442E+01
 0.56123832816E+01 0.54193141177E+01 0.51526592911E+01 0.48366487324E+01 0.51738417468E+01
 0.46913447969E+01 0.42476436272E+01 0.38568740407E+01 0.35250414440E+01 0.32525442366E+01
 0.30367248227E+01 0.28738248782E+01 0.27602432264E+01 0.26932214273E+01 0.26711005885E+01
 0.26933272306E+01 0.27604249405E+01 0.28740349908E+01 0.30369145122E+01 0.32526763413E+01
 0.35250987121E+01 0.38568602080E+01 0.42475752371E+01 0.46912400517E+01 0.51737153243E+01
 0.56713661582E+01 0.61519892126E+01 0.65784315069E+01 0.69141081993E+01 0.71287149052E+01
 0.72025349450E+01 0.71287660732E+01 0.69142003812E+01 0.65785507698E+01 0.61521227041E+01
 0.56715020089E+01 0.57939899459E+01 0.51510665527E+01 0.45729148369E+01 0.40735436633E+01
 0.36571732119E+01 0.33218207264E+01 0.30625563203E+01 0.28738257556E+01 0.27508328393E+01
 0.26902162129E+01 0.26902745267E+01 0.27509898201E+01 0.28740349908E+01 0.30627611947E+01
 0.33219721410E+01 0.36572398380E+01 0.40735167403E+01 0.45728108804E+01 0.51509247204E+01
 0.57938558320E+01 0.64751495421E+01 0.71557234071E+01 0.77871165105E+01 0.83178435305E+01
 0.87011768116E+01 0.89021326094E+01 0.89021451449E+01 0.87012083607E+01 0.83178824532E+01
 0.77871601870E+01 0.71557850963E+01 0.64752472612E+01 0.62963604697E+01 0.54913636314E+01
 0.47850059735E+01 0.41887504367E+01 0.37030118427E+01 0.33218072920E+01 0.30367090954E+01
 0.28395445265E+01 0.27239121568E+01 0.26858493036E+01 0.27240190604E+01 0.28397283208E+01
 0.30369145122E+01 0.33219721410E+01 0.37030920744E+01 0.41887330758E+01 0.47849056389E+01
 0.54912165153E+01 0.62962167290E+01 0.71733474322E+01 0.80791781922E+01 0.89553358591E+01
 0.97345274357E+01 0.10349678567E+02 0.10744046062E+02 0.10879880965E+02 0.10743986778E+02
 0.10349585514E+02 0.97344381191E+01 0.89552868434E+01 0.80791966890E+01 0.71734404052E+01
 0.66244898739E+01 0.56726391473E+01 0.48587176408E+01 0.41887366102E+01 0.36571487294E+01
 0.32525137610E+01 0.29621153603E+01 0.27749740974E+01 0.26833804991E+01 0.26834309698E+01
 0.27751110404E+01 0.29622957555E+01 0.32526763413E+01 0.36572398380E+01 0.41887330758E+01
 0.48586296651E+01 0.56725024045E+01 0.66243550731E+01 0.76911973790E+01 0.88295269260E+01
 0.99751860954E+01 0.11047479526E+02 0.11957703643E+02 0.12621290324E+02 0.12971493591E+02
 0.12971429033E+02 0.12621131221E+02 0.11957523157E+02 0.11047337468E+02 0.99751121502E+01
 0.88295332669E+01 0.76912815975E+01 0.67386301504E+01 0.56726202766E+01 0.47849784143E+01
 0.40735139267E+01 0.35250119280E+01 0.31218318231E+01 0.28470493504E+01 0.26875449127E+01
 0.26352955815E+01 0.26876270909E+01 0.28471873580E+01 0.31219730931E+01 0.35250987121E+01
 0.40735167403E+01 0.47849056389E+01 0.56725024045E+01 0.67385071066E+01 0.79674277742E+01
 0.93209448494E+01 0.10735488349E+02 0.12123274471E+02 0.13377705693E+02 0.14384466400E+02
 0.15038216672E+02 0.15264575212E+02 0.15038141847E+02 0.14384342230E+02 0.13377565066E+02
 0.12123150136E+02 0.10735415937E+02 0.93209518075E+01 0.79675105922E+01 0.66244422678E+01
 0.54913115314E+01 0.45728783307E+01 0.38568583289E+01 0.33217032023E+01 0.29439785223E+01
 0.27036865163E+01 0.25869995725E+01 0.25870286542E+01 0.27037687085E+01 0.29440858810E+01
 0.33217800897E+01 0.38568602080E+01 0.45728108804E+01 0.54912165153E+01 0.66243550731E+01
 0.79674277742E+01 0.94921639972E+01 0.11142606704E+02 0.12832973253E+02 0.14448126968E+02
 0.15847020192E+02 0.16875404421E+02 0.17418443485E+02 0.17418452515E+02 0.16875416119E+02
 0.15847005082E+02 0.14448075913E+02 0.12832913797E+02 0.11142579304E+02 0.94921861090E+01
 0.79674899767E+01 0.62962717270E+01 0.51509947360E+01 0.42476264128E+01 0.35632926846E+01
 0.30688704647E+01 0.27368008159E+01 0.25460140642E+01 0.24838248316E+01 0.25460547015E+01
 0.27368621897E+01 0.30689159545E+01 0.35632902307E+01 0.42475752371E+01 0.51509247204E+01
 0.62962167290E+01 0.76911973790E+01 0.93209448494E+01 0.11142606704E+02 0.13081290718E+02
 0.15025873165E+02 0.16816057168E+02 0.18254374678E+02 0.19182884015E+02 0.19503489424E+02
 0.19182953082E+02 0.18254487458E+02 0.16816168224E+02 0.15025940302E+02 0.13081304788E+02
 0.11142594051E+02 0.93209397132E+01 0.76912208489E+01 0.57938728600E+01 0.46912764166E+01
 0.38450923817E+01 0.32230062937E+01 0.27905411742E+01 0.25186518388E+01 0.23875737993E+01
 0.23875923548E+01 0.25186859506E+01 0.27905514913E+01 0.32229790302E+01 0.38450477678E+01
 0.46912400517E+01 0.57938558320E+01 0.71733474322E+01 0.88295269260E+01 0.10735488349E+02
 0.12832973253E+02 0.15025873165E+02 0.17155269156E+02 0.18994096652E+02 0.20341683844E+02
 0.21053594929E+02 0.21053649560E+02 0.20341839847E+02 0.18994313206E+02 0.17155464614E+02
 0.15025971381E+02 0.12832966439E+02 0.10735434681E+02 0.88294858350E+01 0.71733385081E+01
 0.51737176166E+01 0.41607823084E+01 0.34046374215E+01 0.28662485405E+01 0.25090955628E+01
 0.23056389051E+01 0.22395835018E+01 0.23056357944E+01 0.25090821227E+01 0.28662182756E+01
 0.34045947394E+01 0.41607463632E+01 0.51737153243E+01 0.64751495421E+01 0.80791781922E+01
 0.99751860954E+01 0.12123274471E+02 0.14448126968E+02 0.16816057168E+02 0.18994096652E+02
 0.20745817481E+02 0.21881175285E+02 0.22274482872E+02 0.21881296748E+02 0.20746012955E+02
 0.18994292270E+02 0.16816185823E+02 0.14448154682E+02 0.12123212677E+02 0.99750808060E+01
 0.80790824603E+01 0.64750998302E+01 0.44977189259E+01 0.36080122552E+01 0.29623131911E+01
 0.25187311495E+01 0.22423775284E+01 0.21098474264E+01 0.21098237572E+01 0.22423267993E+01
 0.25186865018E+01 0.29622815285E+01 0.36079829102E+01 0.44977074307E+01 0.56713661582E+01
 0.71557234071E+01 0.89553358591E+01 0.11047479526E+02 0.13377705693E+02 0.15847020192E+02
 0.18254374678E+02 0.20341683844E+02 0.21881175285E+02 0.22699028470E+02 0.22699066361E+02
 0.21881259737E+02 0.20341761020E+02 0.18254415999E+02 0.15847018945E+02 0.13377645000E+02
 0.11047348461E+02 0.89551687021E+01 0.71555919326E+01 0.56713157419E+01 0.38226070681E+01
 0.30738196185E+01 0.25461260223E+01 0.21990196583E+01 0.20024121725E+01 0.19387470991E+01
 0.20023752014E+01 0.21989536647E+01 0.25460546976E+01 0.30737755484E+01 0.38226118824E+01
 0.48365172704E+01 0.61519892126E+01 0.77871165105E+01 0.97345274357E+01 0.11957703643E+02
 0.14384466400E+02 0.16875404421E+02 0.19182884015E+02 0.21053594929E+02 0.22274482872E+02
 0.22699066361E+02 0.22274464776E+02 0.21053549200E+02 0.19182804838E+02 0.16875294178E+02
 0.14384326144E+02 0.11957536877E+02 0.97343534394E+01 0.77869636142E+01 0.61518794015E+01
 0.48364586179E+01 0.31924365693E+01 0.25871176160E+01 0.21741464965E+01 0.19180774663E+01
 0.17955975226E+01 0.17955883298E+01 0.19180324738E+01 0.21740552466E+01 0.25870280961E+01
 0.31924168274E+01 0.40335659116E+01 0.51525306350E+01 0.65784315069E+01 0.83178435305E+01
 0.10349678567E+02 0.12621290324E+02 0.15038216672E+02 0.17418443485E+02 0.19503489424E+02
 0.21053649560E+02 0.21881296748E+02 0.21881259737E+02 0.21053549200E+02 0.19503344275E+02
 0.17418262257E+02 0.15038003702E+02 0.12621068347E+02 0.10349488981E+02 0.83177044808E+01
 0.65783211769E+01 0.51524302492E+01 0.40335036293E+01 0.26353425050E+01 0.21641533319E+01
 0.18551985876E+01 0.16804265297E+01 0.16238413553E+01 0.16803807256E+01 0.18551195929E+01
 0.21640719735E+01 0.26352955774E+01 0.33074010101E+01 0.42232230645E+01 0.54192030627E+01
 0.69141081993E+01 0.87011768116E+01 0.10744046062E+02 0.12971493591E+02 0.15264575212E+02
 0.17418452515E+02 0.19182953082E+02 0.20341839847E+02 0.20746012955E+02 0.20341761020E+02
 0.19182804838E+02 0.17418262257E+02 0.15264378401E+02 0.12971309226E+02 0.10743876536E+02
 0.87010237240E+01 0.69139803438E+01 0.54191092633E+01 0.42231686744E+01 0.33073952476E+01
 0.21642765482E+01 0.18105361131E+01 0.15911265243E+01 0.14860691034E+01 0.14860379620E+01
 0.15910553970E+01 0.18104662374E+01 0.21642265021E+01 0.26833810503E+01 0.34069440595E+01
 0.43739347873E+01 0.56123043051E+01 0.71287149052E+01 0.89021326094E+01 0.10879880965E+02
 0.12971429033E+02 0.15038141847E+02 0.16875416119E+02 0.18254487458E+02 0.18994313206E+02
 0.18994292270E+02 0.18254415999E+02 0.16875294178E+02 0.15038003702E+02 0.12971309226E+02
 0.10879772108E+02 0.89020039337E+01 0.71285714524E+01 0.56121947485E+01 0.43738931713E+01
 0.34069563320E+01 0.26834160930E+01 0.17804429893E+01 0.15246031652E+01 0.13794717206E+01
 0.13324072484E+01 0.13794485591E+01 0.15245547026E+01 0.17803749497E+01 0.21695149631E+01
 0.27239121576E+01 0.34802023386E+01 0.44708897776E+01 0.57136816585E+01 0.72025349450E+01
 0.89021451449E+01 0.10743986778E+02 0.12621131221E+02 0.14384342230E+02 0.15847005082E+02
 0.16816168224E+02 0.17155464614E+02 0.16816185823E+02 0.15847018945E+02 0.14384326144E+02
 0.12621068347E+02 0.10743876536E+02 0.89020039337E+01 0.72023951496E+01 0.57135795356E+01
 0.44708451044E+01 0.34802130532E+01 0.27239628436E+01 0.21695852757E+01 0.14777685010E+01
 0.13007912413E+01 0.12157303103E+01 0.12157359468E+01 0.13007886847E+01 0.14777263813E+01
 0.17614386978E+01 0.21756020788E+01 0.27508322905E+01 0.35190075089E+01 0.45043535423E+01
 0.57137109442E+01 0.71287660732E+01 0.87012083607E+01 0.10349585514E+02 0.11957523157E+02
 0.13377565066E+02 0.14448075913E+02 0.15025940302E+02 0.15025971381E+02 0.14448154682E+02
 0.13377645000E+02 0.11957536877E+02 0.10349488981E+02 0.87010237240E+01 0.71285714524E+01
 0.57135795356E+01 0.45043073483E+01 0.35190295577E+01 0.27509001655E+01 0.21756937640E+01
 0.17615212630E+01 0.12469877563E+01 0.11322225965E+01 0.10948879465E+01 0.11322368382E+01
 0.12469921292E+01 0.14479527826E+01 0.17510814353E+01 0.21794152609E+01 0.27602432352E+01
 0.35190172731E+01 0.44709428198E+01 0.56123832816E+01 0.69142003812E+01 0.83178824532E+01
 0.97344381191E+01 0.11047337468E+02 0.12123150136E+02 0.12832913797E+02 0.13081304788E+02
 0.12832966439E+02 0.12123212677E+02 0.11047348461E+02 0.97343534394E+01 0.83177044808E+01
 0.69139803438E+01 0.56121947485E+01 0.44708451044E+01 0.35190295577E+01 0.27603383074E+01
 0.21795358027E+01 0.17511723297E+01 0.14479897079E+01 0.10785646492E+01 0.10123152889E+01
 0.10123311986E+01 0.10785982698E+01 0.12156815756E+01 0.14334738757E+01 0.17477740586E+01
 0.21793942311E+01 0.27508111538E+01 0.34802299962E+01 0.43740209614E+01 0.54193141177E+01
 0.65785507698E+01 0.77871601870E+01 0.89552868434E+01 0.99751121502E+01 0.10735415937E+02
 0.11142579304E+02 0.11142594051E+02 0.10735434681E+02 0.99750808060E+01 0.89551687021E+01
 0.77869636142E+01 0.65783211769E+01 0.54191092633E+01 0.43738931713E+01 0.34802130532E+01
 0.27509001655E+01 0.21795358027E+01 0.17478929502E+01 0.14335231015E+01 0.12156685722E+01
 0.96434554821E+00 0.93563108354E+00 0.96438689430E+00 0.10524092823E+01 0.12053959713E+01
 0.14334464510E+01 0.17510282784E+01 0.21755400275E+01 0.27238722876E+01 0.34069803378E+01
 0.42233148083E+01 0.51526592911E+01 0.61521227041E+01 0.71557850963E+01 0.80791966890E+01
 0.88295332669E+01 0.93209518075E+01 0.94921861090E+01 0.93209397132E+01 0.88294858350E+01
 0.80790824603E+01 0.71555919326E+01 0.61518794015E+01 0.51524302492E+01 0.42231686744E+01
 0.34069563320E+01 0.27239628436E+01 0.21756937640E+01 0.17511723297E+01 0.14335231015E+01
 0.12053933174E+01 0.10523615688E+01 0.89828473526E+00 0.89830799217E+00 0.94868516740E+00
 0.10524075415E+01 0.12156555375E+01 0.14478903673E+01 0.17613572326E+01 0.21694223533E+01
 0.26833284592E+01 0.33074245123E+01 0.40336390788E+01 0.48366487324E+01 0.56715020089E+01
 0.64752472612E+01 0.71734404052E+01 0.76912815975E+01 0.79675105922E+01 0.79674899767E+01
 0.76912208489E+01 0.71733385081E+01 0.64750998302E+01 0.56713157419E+01 0.48364586179E+01
 0.40335036293E+01 0.33073952476E+01 0.26834160930E+01 0.21695852757E+01 0.17615212630E+01
 0.14479897079E+01 0.12156685722E+01 0.10523615688E+01 0.94863017206E+00 0.89832842264E+00
 0.93567897511E+00 0.10123652631E+01 0.11322524707E+01 0.13007865740E+01 0.15245522871E+01
 0.18104325846E+01 0.21640096967E+01 0.25869717020E+01 0.30737179192E+01 0.36079817005E+01
 0.41608164830E+01 0.46913461584E+01 0.51510681267E+01 0.54913654059E+01 0.56726411394E+01
 0.56726220320E+01 0.54913124157E+01 0.51509945548E+01 0.46912753032E+01 0.41607802813E+01
 0.36080094272E+01 0.30738166002E+01 0.25871151359E+01 0.21641515995E+01 0.18105349969E+01
 0.15246027274E+01 0.13007915742E+01 0.11322233783E+01 0.10123160602E+01 0.93563178713E+00
 0.89830876039E+00 0.93567897511E+00 0.98247224684E+00 0.10631372008E+01 0.11813596194E+01
 0.13416981395E+01 0.15490319403E+01 0.18076742219E+01 0.21199007236E+01 0.24837921924E+01
 0.28906718597E+01 0.33229164018E+01 0.37532568914E+01 0.41465612974E+01 0.44644036670E+01
 0.46716999035E+01 0.47437573284E+01 0.46716719019E+01 0.44643550725E+01 0.41465144422E+01
 0.37532477264E+01 0.33229747526E+01 0.28907965836E+01 0.24839453139E+01 0.21200298990E+01
 0.18077457618E+01 0.15490465373E+01 0.13416784892E+01 0.11813267824E+01 0.10631004192E+01
 0.98243702049E+00 0.93565595711E+00 0.92035147205E+00 0.10123652631E+01 0.10631372008E+01
 0.11424862883E+01 0.12537601862E+01 0.14006714090E+01 0.15866643388E+01 0.18140024695E+01
 0.20824507213E+01 0.23875687329E+01 0.27189430267E+01 0.30590419007E+01 0.33835324277E+01
 0.36636455775E+01 0.38705127472E+01 0.39805747065E+01 0.39805621457E+01 0.38704834800E+01
 0.36636225759E+01 0.33835440710E+01 0.30591057528E+01 0.27190517678E+01 0.23876904950E+01
 0.20825458338E+01 0.18140449152E+01 0.15866536312E+01 0.14006284115E+01 0.12537117751E+01
 0.11424503758E+01 0.10631177009E+01 0.10123573918E+01 0.98765178559E+00 0.98765368054E+00
 0.11322524707E+01 0.11813596194E+01 0.12537601862E+01 0.13525448004E+01 0.14808249504E+01
 0.16410086929E+01 0.18338716637E+01 0.20574187374E+01 0.23056358488E+01 0.25674570028E+01
 0.28264903535E+01 0.30620528036E+01 0.32517376745E+01 0.33751685190E+01 0.34180254221E+01
 0.33751503203E+01 0.32517162583E+01 0.30620546595E+01 0.28265369167E+01 0.25675421270E+01
 0.23057230085E+01 0.20574673156E+01 0.18338664604E+01 0.16409633688E+01 0.14807632739E+01
 0.13524863871E+01 0.12537203331E+01 0.11813485502E+01 0.11322661161E+01 0.11039153336E+01
 0.10946452722E+01 0.11038979715E+01 0.13007865740E+01 0.13416981395E+01 0.14006714090E+01
 0.14808249504E+01 0.15850098015E+01 0.17149983901E+01 0.18705775597E+01 0.20486297679E+01
 0.22423500342E+01 0.24408773772E+01 0.26297064989E+01 0.27921437091E+01 0.29117444718E+01
 0.29752498899E+01 0.29752423836E+01 0.29117260177E+01 0.27921280216E+01 0.26297134269E+01
 0.24409164679E+01 0.22424049027E+01 0.20486648447E+01 0.18705649074E+01 0.17149380176E+01
 0.15849255346E+01 0.14807467298E+01 0.14006229345E+01 0.13416916891E+01 0.13008168520E+01
 0.12752262731E+01 0.12629281896E+01 0.12629093021E+01 0.12751850890E+01 0.15245522871E+01
 0.15490319403E+01 0.15866643388E+01 0.16410086929E+01 0.17149983901E+01 0.18100924327E+01
 0.19254746020E+01 0.20574190364E+01 0.21989756647E+01 0.23401737730E+01 0.24689114113E+01
 0.25725363481E+01 0.26398721076E+01 0.26632265362E+01 0.26398608158E+01 0.25725236965E+01
 0.24689091929E+01 0.23401865537E+01 0.21989972443E+01 0.20574350909E+01 0.19254688422E+01
 0.18100546590E+01 0.17149323481E+01 0.16409349339E+01 0.15866126469E+01 0.15490248343E+01
 0.15245898055E+01 0.15098683252E+01 0.15021456300E+01 0.14997416786E+01 0.15021041174E+01
 0.15098109128E+01 0.18104325846E+01 0.18076742219E+01 0.18140024695E+01 0.18338716637E+01
 0.18705775597E+01 0.19254746020E+01 0.19974082901E+01 0.20824504516E+01 0.21740421966E+01
 0.22636355751E+01 0.23418195077E+01 0.23997495556E+01 0.24305781587E+01 0.24305788800E+01
 0.23997543024E+01 0.23418336351E+01 0.22636609254E+01 0.21740713568E+01 0.20824680043E+01
 0.19974005563E+01 0.19254402368E+01 0.18705294390E+01 0.18338295701E+01 0.18139836934E+01
 0.18076877100E+01 0.18104760414E+01 0.18176092123E+01 0.18249004713E+01 0.18293174207E+01
 0.18292974099E+01 0.18248497939E+01 0.18175503898E+01 0.21640096967E+01 0.21199007236E+01
 0.20824507213E+01 0.20574187374E+01 0.20486297679E+01 0.20574190364E+01 0.20824504516E+01
 0.21198998704E+01 0.21640091413E+01 0.22079870843E+01 0.22451188542E+01 0.22698334784E+01
 0.22784980562E+01 0.22698564856E+01 0.22451617012E+01 0.22080428475E+01 0.21640651817E+01
 0.21199384495E+01 0.20824571638E+01 0.20573944949E+01 0.20485922305E+01 0.20573933185E+01
 0.20824543294E+01 0.21199345513E+01 0.21640616958E+01 0.22080402755E+01 0.22451594854E+01
 0.22698547006E+01 0.22784974650E+01 0.22698339091E+01 0.22451192495E+01 0.22079872283E+01
 0.25869717020E+01 0.24837921924E+01 0.23875687329E+01 0.23056358488E+01 0.22423500342E+01
 0.21989756647E+01 0.21740421966E+01 0.21640091413E+01 0.21641316042E+01 0.21694229657E+01
 0.21755403216E+01 0.21793945569E+01 0.21794166332E+01 0.21756042082E+01 0.21695167476E+01
 0.21642279587E+01 0.21640737356E+01 0.21740566785E+01 0.21989534837E+01 0.22423251407E+01
 0.23056337663E+01 0.23875900701E+01 0.24838218136E+01 0.25869965515E+01 0.26875431871E+01
 0.27749735342E+01 0.28395440987E+01 0.28738255555E+01 0.28738256708E+01 0.28395424469E+01
 0.27749662482E+01 0.26875274621E+01 0.30737179192E+01 0.28906718597E+01 0.27189430267E+01
 0.25674570028E+01 0.24408773772E+01 0.23401737730E+01 0.22636355751E+01 0.22079870843E+01
 0.21694229657E+01 0.21444625501E+01 0.21305083418E+01 0.21260433279E+01 0.21305776286E+01
 0.21445847466E+01 0.21695613936E+01 0.22080916018E+01 0.22636694040E+01 0.23401428352E+01
 0.24408289232E+01 0.25674396030E+01 0.27189646009E+01 0.28906993967E+01 0.30737155317E+01
 0.32551438559E+01 0.34195105305E+01 0.35509843936E+01 0.36359746419E+01 0.36653769013E+01
 0.36359987172E+01 0.35510299032E+01 0.34195648637E+01 0.32551826061E+01 0.36079817005E+01
 0.33229164018E+01 0.30590419007E+01 0.28264903535E+01 0.26297064989E+01 0.24689114113E+01
 0.23418195077E+01 0.22451188542E+01 0.21755403216E+01 0.21305083418E+01 0.21083916544E+01
 0.21084412547E+01 0.21306420401E+01 0.21757125241E+01 0.22452632508E+01 0.23418810961E+01
 0.24688828375E+01 0.26296317967E+01 0.28264254143E+01 0.30590088549E+01 0.33228962055E+01
 0.36079442783E+01 0.38978552370E+01 0.41712142173E+01 0.44041812848E+01 0.45742485175E+01
 0.46640152373E+01 0.46640405541E+01 0.45743156364E+01 0.44042696637E+01 0.41713013181E+01
 0.38979219254E+01 0.41608164830E+01 0.37532568914E+01 0.33835324277E+01 0.30620528036E+01
 0.27921437091E+01 0.25725363481E+01 0.23997495556E+01 0.22698334784E+01 0.21793945569E+01
 0.21260433279E+01 0.21084412547E+01 0.21261569331E+01 0.21795774692E+01 0.22700071511E+01
 0.23998376682E+01 0.25725135713E+01 0.27920490749E+01 0.30619470904E+01 0.33834441497E+01
 0.37531743530E+01 0.41607221308E+01 0.45869781443E+01 0.50043581772E+01 0.53795020014E+01
 0.56781072084E+01 0.58706051918E+01 0.59371187244E+01 0.58706544742E+01 0.56781872682E+01
 0.53795960221E+01 0.50044603930E+01 0.45870824688E+01 0.46913461584E+01 0.41465612974E+01
 0.36636455775E+01 0.32517376745E+01 0.29117444718E+01 0.26398721076E+01 0.24305781587E+01
 0.22784980562E+01 0.21794166332E+01 0.21305776286E+01 0.21306420401E+01 0.21795774692E+01
 0.22786736485E+01 0.24306815306E+01 0.26398617376E+01 0.29116429910E+01 0.32516002262E+01
 0.36635114166E+01 0.41464368851E+01 0.46912247193E+01 0.52774716459E+01 0.58723753142E+01
 0.64326957261E+01 0.69100729659E+01 0.72585966050E+01 0.74425821698E+01 0.74425980149E+01
 0.72586409638E+01 0.69101400184E+01 0.64327824973E+01 0.58724803928E+01 0.52775891383E+01
 0.51510681267E+01 0.44644036670E+01 0.38705127472E+01 0.33751685190E+01 0.29752498899E+01
 0.26632265362E+01 0.24305788800E+01 0.22698564856E+01 0.21756042082E+01 0.21445847466E+01
 0.21757125241E+01 0.22700071511E+01 0.24306815306E+01 0.26632250138E+01 0.29751525787E+01
 0.33750231900E+01 0.38703573241E+01 0.44642495791E+01 0.51509222959E+01 0.59111922766E+01
 0.67094815164E+01 0.74941385336E+01 0.82021348638E+01 0.87677754355E+01 0.91335041226E+01
 0.92600560976E+01 0.91335090192E+01 0.87677826595E+01 0.82021475971E+01 0.74941723784E+01
 0.67095558076E+01 0.59113107624E+01 0.54913654059E+01 0.46716999035E+01 0.39805747065E+01
 0.34180254221E+01 0.29752423836E+01 0.26398608158E+01 0.23997543024E+01 0.22451617012E+01
 0.21695167476E+01 0.21695613936E+01 0.22452632508E+01 0.23998376682E+01 0.26398617376E+01
 0.29751525787E+01 0.34178852416E+01 0.39804227808E+01 0.46715438821E+01 0.54912057732E+01
 0.64246635821E+01 0.74374831748E+01 0.84734263405E+01 0.94570257689E+01 0.10301718346E+02
 0.10922746690E+02 0.11252174357E+02 0.11252151944E+02 0.10922685830E+02 0.10301638927E+02
 0.94569621058E+01 0.84734194705E+01 0.74375561392E+01 0.64248003468E+01 0.56726411394E+01
 0.47437573284E+01 0.39805621457E+01 0.33751503203E+01 0.29117260177E+01 0.25725236965E+01
 0.23418336351E+01 0.22080428475E+01 0.21642279587E+01 0.22080916018E+01 0.23418810961E+01
 0.25725135713E+01 0.29116429910E+01 0.33750231900E+01 0.39804227808E+01 0.47436111680E+01
 0.56724859552E+01 0.67600837617E+01 0.79778119098E+01 0.92706661873E+01 0.10556445641E+02
 0.11730939790E+02 0.12680320430E+02 0.13299918003E+02 0.13515407731E+02 0.13299844631E+02
 0.12680207397E+02 0.11730830528E+02 0.10556377748E+02 0.92706692585E+01 0.79778958588E+01
 0.67602245514E+01 0.56726220320E+01 0.46716719019E+01 0.38704834800E+01 0.32517162583E+01
 0.27921280216E+01 0.24689091929E+01 0.22636609254E+01 0.21640651817E+01 0.21640737356E+01
 0.22636694040E+01 0.24688828375E+01 0.27920490749E+01 0.32516002262E+01 0.38703573241E+01
 0.46715438821E+01 0.56724859552E+01 0.68767766846E+01 0.82661482159E+01 0.97934035641E+01
 0.11377935315E+02 0.12906061969E+02 0.14239329184E+02 0.15233336606E+02 0.15765734034E+02
 0.15765722740E+02 0.15233304185E+02 0.14239278942E+02 0.12906004458E+02 0.11377898759E+02
 0.97934245449E+01 0.82662386313E+01 0.68769088066E+01 0.54913124157E+01 0.44643550725E+01
 0.36636225759E+01 0.30620546595E+01 0.26297134269E+01 0.23401865537E+01 0.21740713568E+01
 0.21199384495E+01 0.21740566785E+01 0.23401428352E+01 0.26296317967E+01 0.30619470904E+01
 0.36635114166E+01 0.44642495791E+01 0.54912057732E+01 0.67600837617E+01 0.82661482159E+01
 0.99756427952E+01 0.11818381144E+02 0.13682814987E+02 0.15417334796E+02 0.16843857151E+02
 0.17787601169E+02 0.18118227612E+02 0.17787655334E+02 0.16843929919E+02 0.15417382417E+02
 0.13682823900E+02 0.11818381159E+02 0.99756768813E+01 0.82662297831E+01 0.67601900690E+01
 0.51509945548E+01 0.41465144422E+01 0.33835440710E+01 0.28265369167E+01 0.24409164679E+01
 0.21989972443E+01 0.20824680043E+01 0.20824571638E+01 0.21989534837E+01 0.24408289232E+01
 0.28264254143E+01 0.33834441497E+01 0.41464368851E+01 0.51509222959E+01 0.64246635821E+01
 0.79778119098E+01 0.97934035641E+01 0.11818381144E+02 0.13954838666E+02 0.16053847291E+02
 0.17919424815E+02 0.19329989722E+02 0.20090205912E+02 0.20090250801E+02 0.19330111061E+02
 0.17919579505E+02 0.16053972907E+02 0.13954896783E+02 0.11818390877E+02 0.97934188254E+01