unknown system                          
   1.00000000000000     
    -2.501057    2.501057    1.427203
     2.501057   -2.501057    1.427203
     2.501057    2.501057   -1.427203
   Si
     2
Direct
  0.000000  0.000000  0.000000
  0.250000  0.750000  0.500000
 
   36   36   36
 -5.8684     -4.7373     -1.6494      2.5920      6.9656      10.550      12.759      13.440      12.834      11.441    
  9.8140      8.2537      6.8744      5.7369      4.8553      4.2135      3.7834      3.5377      3.4579      3.5377    
  3.7834      4.2136      4.8553      5.7369      6.8744      8.2537      9.8140      11.441      12.834      13.440    
  12.759      10.550      6.9655      2.5920     -1.6495     -4.7374     -4.7374     -5.2405     -3.5568     -.14430    
  4.1173      8.2256      11.355      13.052      13.286      12.385      10.880      9.2705      7.7677      6.4678    
  5.4162      4.6163      4.0467      3.6787      3.4875      3.4580      3.5878      3.8869      4.3768      5.0859    
  6.0406      7.2505      8.6902      10.286      11.900      13.152      13.482      12.444      9.8964      6.1075    
  1.7614     -2.1790     -1.6495     -3.5569     -3.4528     -1.3761      2.1038      6.0932      9.6702      12.147    
  13.218      12.972      11.803      10.240      8.6750      7.2510      6.0463      5.0905      4.3772      3.8817    
  3.5761      3.4386      3.4582      3.6362      3.9860      4.5309      5.2997      6.3156      7.5811      9.0607    
  10.669      12.245      13.356      13.467      12.208      9.5317      5.8033      1.7614      2.5920     -.14433    
 -1.3761     -.77306      1.4811      4.7598      8.2171      11.060      12.765      13.173      12.478      11.108    
  9.5470      8.0499      6.7234      5.6255      4.7710      4.1457      3.7234      3.4782      3.3923      3.4584    
  3.6814      4.0771      4.6702      5.4883      6.5508      7.8532      9.3510      10.952      12.473      13.466    
  13.445      12.120      9.5317      6.1075      6.9655      4.1172      2.1038      1.4811      2.4124      4.6114    
  7.4514      10.186      12.182      13.084      12.872      11.812      10.339      8.8250      7.4189      6.2044    
  5.2200      4.4679      3.9287      3.5762      3.3878      3.3498      3.4586      3.7219      4.1571      4.7893    
  5.6442      6.7367      8.0558      9.5507      11.125      12.586      13.500      13.445      12.208      9.8964    
  10.550      8.2256      6.0932      4.7598      4.6114      5.6738      7.6078      9.8374      11.750      12.883    
  13.041      12.316      11.019      9.5399      8.1014      6.8051      5.7117      4.8425      4.1898      3.7316    
  3.4436      3.3071      3.3121      3.4586      3.7561      4.2229      4.8835      5.7607      6.8652      8.1808    
  9.6523      11.183      12.586      13.466      13.467      12.444      12.759      11.355      9.6702      8.2171    
  7.4514      7.6079      8.6156      10.130      11.662      12.750      13.096      12.642      11.559      10.167    
  8.7414      7.4030      6.2293      5.2602      4.5029      3.9433      3.5590      3.3288      3.2381      3.2805    
  3.4585      3.7828      4.2720      4.9486      5.8328      6.9310      8.2230      9.6523      11.125      12.473    
  13.356      13.482      13.440      13.052      12.147      11.060      10.186      9.8374      10.130      10.939    
  11.952      12.789      13.137      12.842      11.954      10.688      9.3142      7.9739      6.7537      5.7088    
  4.8614      4.2086      3.7331      3.4141      3.2341      3.1824      3.2557      3.4582      3.8012      4.3023    
  4.9820      5.8572      6.9310      8.1808      9.5507      10.952      12.245      13.152      12.834      13.286    
  13.218      12.765      12.182      11.750      11.662      11.952      12.477      12.983      13.205      12.961    
  12.217      11.091      9.8009      8.4959      7.2649      6.1732      5.2563      4.5232      3.9645      3.5625    
  3.2993      3.1614      3.1415      3.2387      3.4580      3.8106      4.3125      4.9820      5.8328      6.8652    
  8.0558      9.3510      10.669      11.900      11.441      12.385      12.972      13.173      13.084      12.883    
  12.750      12.789      12.983      13.202      13.263      13.005      12.357      11.367      10.186      8.9504    
  7.7442      6.6374      5.6760      4.8803      4.2501      3.7733      3.4335      3.2163      3.1121      3.1165    
  3.2300      3.4580      3.8106      4.3023      4.9486      5.7607      6.7367      7.8532      9.0607      10.286    
  9.8140      10.880      11.803      12.478      12.872      13.041      13.096      13.137      13.205      13.263    
  13.211      12.935      12.363      11.506      10.457      9.3209      8.1742      7.0859      6.1085      5.2720    
  4.5857      4.0447      3.6363      3.3470      3.1661      3.0872      3.1081      3.2300      3.4580      3.8012    
  4.2720      4.8835      5.6442      6.5508      7.5811      8.6902      8.2537      9.2705      10.240      11.108    
  11.812      12.316      12.642      12.842      12.961      13.005      12.935      12.686      12.207      11.493    
  10.598      9.5921      8.5390      7.5038      6.5416      5.6896      4.9665      4.3749      3.9077      3.5540    
  3.3036      3.1493      3.0872      3.1165      3.2387      3.4582      3.7828      4.2229      4.7893      5.4883    
  6.3156      7.2505      6.8744      7.7677      8.6750      9.5470      10.339      11.019      11.559      11.954    
  12.217      12.357      12.363      12.207      11.858      11.312      10.596      9.7488      8.8233      7.8767    
  6.9632      6.1248      5.3875      4.7622      4.2484      3.8393      3.5266      3.3036      3.1661      3.1121    
  3.1415      3.2557      3.4585      3.7561      4.1571      4.6702      5.2997      6.0406      5.7369      6.4678    
  7.2510      8.0499      8.8250      9.5399      10.167      10.688      11.091      11.367      11.506      11.493    
  11.312      10.959      10.439      9.7778      9.0121      8.1901      7.3610      6.5683      5.8436      5.2053    
  4.6600      4.2062      3.8393      3.5540      3.3470      3.2163      3.1614      3.1824      3.2805      3.4586    
  3.7219      4.0771      4.5309      5.0859      4.8553      5.4163      6.0463      6.7234      7.4189      8.1014    
  8.7414      9.3142      9.8009      10.186      10.457      10.598      10.596      10.439      10.127      9.6704    
  9.0924      8.4288      7.7208      7.0092      6.3283      5.7023      5.1445      4.6600      4.2484      3.9077    
  3.6363      3.4335      3.2993      3.2341      3.2381      3.3121      3.4586      3.6814      3.9860      4.3768    
  4.2136      4.6163      5.0905      5.6255      6.2044      6.8051      7.4030      7.9739      8.4959      8.9504    
  9.3209      9.5921      9.7488      9.7778      9.6704      9.4261      9.0550      8.5785      8.0265      7.4332    
  6.8312      6.2479      5.7023      5.2053      4.7622      4.3749      4.0447      3.7733      3.5625      3.4141    
  3.3288      3.3071      3.3498      3.4584      3.6362      3.8869      3.7834      4.0467      4.3772      4.7710    
  5.2200      5.7117      6.2293      6.7537      7.2649      7.7442      8.1742      8.5390      8.8233      9.0121    
  9.0924      9.0550      8.8977      8.6277      8.2612      7.8218      7.3363      6.8312      6.3283      5.8436    
  5.3875      4.9665      4.5857      4.2501      3.9645      3.7331      3.5590      3.4436      3.3878      3.3923    
  3.4582      3.5878      3.5377      3.6787      3.8817      4.1457      4.4679      4.8425      5.2602      5.7088    
  6.1732      6.6374      7.0859      7.5038      7.8767      8.1901      8.4288      8.5785      8.6277      8.5707    
  8.4094      8.1541      7.8218      7.4332      7.0092      6.5683      6.1248      5.6896      5.2720      4.8803    
  4.5232      4.2086      3.9433      3.7316      3.5762      3.4782      3.4386      3.4580      3.4579      3.4875    
  3.5761      3.7234      3.9287      4.1898      4.5029      4.8614      5.2563      5.6760      6.1085      6.5416    
  6.9632      7.3610      7.7208      8.0265      8.2612      8.4094      8.4601      8.4094      8.2612      8.0265    
  7.7208      7.3610      6.9632      6.5416      6.1085      5.6760      5.2563      4.8614      4.5029      4.1898    
  3.9287      3.7234      3.5761      3.4875      3.5377      3.4580      3.4385      3.4782      3.5762      3.7316    
  3.9433      4.2086      4.5232      4.8803      5.2720      5.6896      6.1248      6.5683      7.0092      7.4332    
  7.8218      8.1541      8.4094      8.5707      8.6277      8.5785      8.4288      8.1901      7.8767      7.5038    
  7.0859      6.6374      6.1732      5.7088      5.2602      4.8425      4.4679      4.1457      3.8817      3.6787    
  3.7834      3.5878      3.4582      3.3922      3.3878      3.4436      3.5590      3.7331      3.9645      4.2501    
  4.5858      4.9665      5.3875      5.8436      6.3283      6.8312      7.3363      7.8218      8.2612      8.6277    
  8.8977      9.0550      9.0924      9.0121      8.8233      8.5390      8.1742      7.7442      7.2649      6.7537    
  6.2293      5.7117      5.2200      4.7710      4.3772      4.0467      4.2135      3.8869      3.6362      3.4584    
  3.3497      3.3071      3.3288      3.4141      3.5626      3.7733      4.0447      4.3749      4.7622      5.2053    
  5.7023      6.2479      6.8312      7.4332      8.0265      8.5785      9.0550      9.4261      9.6704      9.7778    
  9.7488      9.5921      9.3209      8.9504      8.4959      7.9739      7.4030      6.8051      6.2044      5.6255    
  5.0905      4.6163      4.8553      4.3768      3.9859      3.6814      3.4586      3.3121      3.2381      3.2341    
  3.2993      3.4335      3.6363      3.9077      4.2484      4.6600      5.1445      5.7023      6.3283      7.0092    
  7.7208      8.4288      9.0924      9.6704      10.127      10.439      10.596      10.598      10.457      10.186    
  9.8009      9.3142      8.7414      8.1014      7.4189      6.7234      6.0463      5.4162      5.7369      5.0859    
  4.5309      4.0771      3.7218      3.4586      3.2805      3.1824      3.1614      3.2163      3.3470      3.5541    
  3.8393      4.2063      4.6600      5.2053      5.8436      6.5683      7.3610      8.1901      9.0121      9.7778    
  10.439      10.959      11.312      11.493      11.506      11.367      11.091      10.688      10.167      9.5399    
  8.8250      8.0499      7.2510      6.4678      6.8744      6.0406      5.2997      4.6702      4.1571      3.7560    
  3.4584      3.2557      3.1415      3.1121      3.1661      3.3037      3.5266      3.8393      4.2484      4.7622    
  5.3875      6.1248      6.9632      7.8767      8.8233      9.7488      10.596      11.312      11.858      12.207    
  12.363      12.357      12.217      11.954      11.559      11.019      10.339      9.5470      8.6750      7.7677    
  8.2537      7.2505      6.3156      5.4883      4.7893      4.2229      3.7828      3.4582      3.2387      3.1165    
  3.0872      3.1493      3.3037      3.5541      3.9077      4.3749      4.9665      5.6896      6.5416      7.5038    
  8.5390      9.5921      10.598      11.493      12.207      12.686      12.935      13.005      12.961      12.842    
  12.642      12.316      11.812      11.108      10.240      9.2705      9.8140      8.6902      7.5811      6.5508    
  5.6442      4.8835      4.2720      3.8012      3.4580      3.2300      3.1081      3.0872      3.1661      3.3470    
  3.6363      4.0447      4.5858      5.2720      6.1085      7.0859      8.1742      9.3209      10.457      11.506    
  12.363      12.935      13.211      13.263      13.205      13.137      13.096      13.041      12.872      12.478    
  11.803      10.880      11.441      10.286      9.0607      7.8533      6.7367      5.7608      4.9487      4.3023    
  3.8106      3.4579      3.2300      3.1165      3.1121      3.2163      3.4335      3.7733      4.2501      4.8803    
  5.6760      6.6374      7.7442      8.9504      10.186      11.367      12.357      13.005      13.263      13.202    
  12.983      12.789      12.750      12.883      13.084      13.173      12.972      12.385      12.834      11.900    
  10.669      9.3511      8.0559      6.8653      5.8329      4.9820      4.3126      3.8106      3.4580      3.2387    
  3.1415      3.1614      3.2993      3.5626      3.9645      4.5232      5.2563      6.1732      7.2649      8.4959    
  9.8009      11.091      12.217      12.961      13.205      12.983      12.477      11.952      11.662      11.750    
  12.182      12.765      13.218      13.286      13.440      13.152      12.245      10.952      9.5507      8.1808    
  6.9310      5.8573      4.9820      4.3023      3.8012      3.4582      3.2557      3.1824      3.2341      3.4141    
  3.7331      4.2086      4.8614      5.7088      6.7537      7.9739      9.3142      10.688      11.954      12.842    
  13.137      12.789      11.952      10.939      10.130      9.8374      10.186      11.060      12.147      13.052    
  12.759      13.482      13.356      12.473      11.125      9.6524      8.2231      6.9310      5.8329      4.9487    
  4.2720      3.7828      3.4584      3.2805      3.2381      3.3288      3.5590      3.9433      4.5029      5.2602    
  6.2293      7.4030      8.7414      10.167      11.559      12.642      13.096      12.750      11.662      10.130    
  8.6156      7.6078      7.4514      8.2171      9.6702      11.355      10.550      12.444      13.467      13.466    
  12.586      11.183      9.6524      8.1808      6.8653      5.7608      4.8835      4.2229      3.7560      3.4586    
  3.3121      3.3071      3.4436      3.7316      4.1898      4.8425      5.7117      6.8051      8.1014      9.5399    
  11.019      12.316      13.041      12.883      11.750      9.8374      7.6079      5.6738      4.6114      4.7598    
  6.0932      8.2256      6.9656      9.8965      12.208      13.446      13.500      12.586      11.125      9.5507    
  8.0559      6.7367      5.6442      4.7893      4.1571      3.7218      3.4586      3.3497      3.3878      3.5762    
  3.9287      4.4679      5.2200      6.2044      7.4189      8.8250      10.339      11.812      12.872      13.084    
  12.182      10.186      7.4514      4.6114      2.4124      1.4811      2.1038      4.1173      2.5920      6.1075    
  9.5317      12.120      13.446      13.466      12.473      10.952      9.3511      7.8533      6.5508      5.4883    
  4.6702      4.0771      3.6814      3.4584      3.3922      3.4782      3.7234      4.1457      4.7710      5.6255    
  6.7234      8.0499      9.5470      11.108      12.478      13.173      12.765      11.060      8.2171      4.7598    
  1.4811     -.77306     -1.3761     -.14430     -1.6494      1.7615      5.8033      9.5317      12.208      13.467    
  13.356      12.245      10.669      9.0607      7.5811      6.3156      5.2997      4.5309      3.9859      3.6362    
  3.4582      3.4385      3.5761      3.8817      4.3772      5.0905      6.0463      7.2510      8.6750      10.240    
  11.803      12.972      13.218      12.147      9.6702      6.0932      2.1038     -1.3761     -3.4528     -3.5568    
 -4.7373     -2.1789      1.7615      6.1075      9.8965      12.444      13.482      13.152      11.900      10.286    
  8.6902      7.2505      6.0406      5.0859      4.3768      3.8869      3.5878      3.4580      3.4875      3.6787    
  4.0467      4.6163      5.4163      6.4678      7.7677      9.2705      10.880      12.385      13.286      13.052    
  11.355      8.2256      4.1172     -.14433     -3.5569     -5.2405     -4.7373     -3.9423     -1.2409      2.6610    
  6.8074      10.295      12.513      13.260      12.725      11.373      9.7510      8.1807      6.7830      5.6230    
  4.7182      4.0541      3.6022      3.3341      3.2300      3.2813      3.4926      3.8804      4.4709      5.2935    
  6.3683      7.6888      9.2044      10.813      12.275      13.077      12.712      10.900      7.7292      3.7041    
 -.33345     -3.4144     -3.9424     -4.7373     -3.4144     -.33344      3.7042      7.7292      10.900      12.712    
  13.077      12.275      10.813      9.2044      7.6888      6.3683      5.2935      4.4709      3.8804      3.4926    
  3.2813      3.2300      3.3341      3.6021      4.0541      4.7182      5.6230      6.7829      8.1806      9.7509    
  11.373      12.725      13.260      12.513      10.295      6.8074      2.6609     -1.2409     -1.1497     -3.3167    
 -3.5569     -1.8155      1.4268      5.3268      8.9606      11.595      12.859      12.781      11.714      10.181    
  8.6120      7.1714      5.9440      4.9647      4.2300      3.7155      3.3925      3.2377      3.2386      3.3948    
  3.7180      4.2313      4.9637      5.9416      7.1728      8.6290      10.233      11.843      13.070      13.376    
  12.360      9.9239      6.3688      2.3738      2.8954     -.71996E-01 -1.6333     -1.3761     0.60954      3.7654    
  7.2639      10.279      12.221      12.861      12.336      11.049      9.5008      7.9941      6.6470      5.5250    
  4.6475      4.0025      3.5638      3.3042      3.2044      3.2557      3.4615      3.8368      4.4062      5.1988    
  6.2375      7.5230      9.0174      10.634      12.211      13.324      13.472      12.328      9.8800      6.5011    
  7.1884      4.1434      1.8251     0.85348      1.4811      3.5031      6.3344      9.2160      11.459      12.634    
  12.651      11.735      10.310      8.7951      7.3725      6.1340      5.1250      4.3513      3.7948      3.4290    
  3.2298      3.1818      3.2805      3.5323      3.9546      4.5728      5.4148      6.4992      7.8198      9.3311    
  10.941      12.473      13.502      13.580      12.454      10.187      10.792      8.3147      5.9190      4.2543    
  3.7816      4.6113      6.4647      8.7793      10.906      12.316      12.738      12.205      11.002      9.5373    
  8.0877      6.7686      5.6490      4.7557      4.0839      3.6118      3.3142      3.1708      3.1705      3.3122    
  3.6049      4.0674      4.7250      5.6032      6.7160      8.0513      9.5581      11.142      12.625      13.607    
  13.702      12.726      13.084      11.579      9.6886      7.9470      6.8647      6.7520      7.6078      9.1241    
  10.802      12.128      12.735      12.499      11.548      10.194      8.7622      7.4030      6.2020      5.2062    
  4.4268      3.8513      3.4570      3.2214      3.1283      3.1705      3.3498      3.6770      4.1712      4.8568    
  5.7561      6.8787      8.2077      9.6890      11.230      12.662      13.631      13.814      13.871      13.437    
  12.395      11.083      9.9300      9.3083      9.3997      10.130      11.201      12.207      12.775      12.692    
  11.952      10.747      9.3715      8.0119      6.7636      5.6893      4.8165      4.1450      3.6577      3.3331    
  3.1523      3.1032      3.1819      3.3923      3.7462      4.2623      4.9628      5.8670      6.9802      8.2821    
  9.7177      11.198      12.577      13.556      13.356      13.816      13.681      13.078      12.278      11.602    
  11.299      11.452      11.952      12.541      12.918      12.847      12.242      11.186      9.8975      8.5731    
  7.3128      6.1890      5.2431      4.4877      3.9147      3.5058      3.2419      3.1080      3.0960      3.2044    
  3.4386      3.8103      4.3371      5.0388      5.9311      7.0159      8.2708      9.6420      11.045      12.362    
  12.015      13.012      13.597      13.726      13.495      13.104      12.773      12.652      12.760      12.983    
  13.122      12.978      12.436      11.506      10.325      9.0671      7.8295      6.6878      5.6938      4.8721    
  4.2243      3.7384      3.3970      3.1843      3.0893      3.1070      3.2378      3.4875      3.8673      4.3930    
  5.0816      5.9456      6.9841      8.1739      9.4634      10.776      10.397      11.541      12.514      13.185    
  13.513      13.561      13.462      13.351      13.305      13.308      13.263      13.036      12.523      11.699    
  10.640      9.4764      8.2946      7.1683      6.1548      5.2886      4.5814      4.0288      3.6173      3.3321    
  3.1610      3.0966      3.1362      3.2813      3.5377      3.9153      4.4278      5.0895      5.9100      6.8862    
  7.9947      9.1880      8.8258      9.9219      10.960      11.874      12.578      13.030      13.259      13.341    
  13.346      13.306      13.192      12.935      12.463      11.747      10.825      9.7832      8.6900      7.6132    
  6.6115      5.7266      4.9794      4.3736      3.9018      3.5516      3.3113      3.1722      3.1299      3.1832    
  3.3341      3.5878      3.9527      4.4405      5.0626      5.8261      6.7262      7.7404      7.4214      8.3911    
  9.3687      10.298      11.126      11.809      12.311      12.634      12.807      12.860      12.797      12.591    
  12.207      11.624      10.862      9.9695      8.9978      8.0055      7.0494      6.1750      5.4110      4.7695    
  4.2496      3.8435      3.5413      3.3345      3.2177      3.1886      3.2470      3.3948      3.6362      3.9784    
  4.4307      5.0023      5.6976      6.5110      6.2496      7.0508      7.9015      8.7594      9.5786      10.317    
  10.942      11.435      11.784      11.989      12.054      11.972      11.727      11.312      10.735      10.019    
  9.2004      8.3282      7.4535      6.6223      5.8689      5.2127      4.6603      4.2096      3.8538      3.5862    
  3.4015      3.2970      3.2717      3.3260      3.4615      3.6814      3.9915      4.3990      4.9111      5.5301    
  5.3304      5.9528      6.6438      7.3771      8.1189      8.8326      9.4843      10.047      10.502      10.838    
  11.045      11.117      11.043      10.817      10.439      9.9198      9.2828      8.5644      7.8076      7.0554    
  6.3440      5.6989      5.1338      4.6526      4.2536      3.9327      3.6861      3.5117      3.4089      3.3777    
  3.4184      3.5323      3.7218      3.9915      4.3469      4.7929      4.6523      5.1065      5.6326      6.2170    
  6.8392      7.4728      8.0893      8.6614      9.1660      9.5851      9.9051      10.115      10.203      10.161    
  9.9831      9.6704      9.2348      8.6992      8.0951      7.4588      6.8248      6.2214      5.6682      5.1755    
  4.7468      4.3821      4.0802      3.8408      3.6644      3.5520      3.5043      3.5216      3.6049      3.7560    
  3.9784      4.2762      4.1895      4.4947      4.8670      5.3013      5.7870      6.3084      6.8458      7.3769    
  7.8799      8.3351      8.7260      9.0387      9.2608      9.3811      9.3898      9.2809      9.0550      8.7216    
  8.2995      7.8143      7.2948      6.7686      6.2579      5.7782      5.3385      4.9433      4.5951      4.2962    
  4.0496      3.8581      3.7240      3.6487      3.6328      3.6770      3.7828      3.9528      3.9153      4.0900    
  4.3256      4.6207      4.9712      5.3693      5.8036      6.2593      6.7196      7.1669      7.5851      7.9597    
  8.2779      8.5274      8.6963      8.7737      8.7517      8.6277      8.4071      8.1026      7.7336      7.3220    
  6.8896      6.4541      6.0288      5.6227      5.2420      4.8925      4.5802      4.3110      4.0903      3.9217    
  3.8075      3.7487      3.7462      3.8012      3.8106      3.8673      3.9809      4.1510      4.3761      4.6533    
  4.9773      5.3401      5.7307      6.1365      6.5440      6.9404      7.3140      7.6534      7.9469      8.1813    
  8.3435      8.4219      8.4094      8.3056      8.1172      7.8569      7.5411      7.1865      6.8081      6.4180    
  6.0261      5.6411      5.2725      4.9297      4.6220      4.3572      4.1409      3.9765      3.8659      3.8103    
  3.8673      3.8106      3.8103      3.8659      3.9765      4.1409      4.3572      4.6220      4.9297      5.2725    
  5.6411      6.0261      6.4181      6.8081      7.1865      7.5410      7.8569      8.1172      8.3056      8.4094    
  8.4219      8.3435      8.1813      7.9469      7.6535      7.3140      6.9404      6.5440      6.1365      5.7307    
  5.3401      4.9774      4.6534      4.3761      4.1510      3.9809      4.0899      3.9153      3.8012      3.7462    
  3.7486      3.8075      3.9217      4.0903      4.3110      4.5802      4.8925      5.2420      5.6226      6.0288    
  6.4541      6.8896      7.3220      7.7336      8.1026      8.4071      8.6277      8.7517      8.7737      8.6963    
  8.5274      8.2779      7.9597      7.5851      7.1669      6.7196      6.2593      5.8036      5.3693      4.9712    
  4.6207      4.3256      4.4946      4.1895      3.9528      3.7828      3.6769      3.6327      3.6487      3.7240    
  3.8581      4.0496      4.2962      4.5951      4.9433      5.3385      5.7782      6.2579      6.7686      7.2948    
  7.8143      8.2995      8.7216      9.0550      9.2809      9.3898      9.3811      9.2608      9.0387      8.7260    
  8.3351      7.8799      7.3769      6.8458      6.3084      5.7870      5.3013      4.8670      5.1065      4.6523    
  4.2761      3.9784      3.7560      3.6049      3.5216      3.5043      3.5520      3.6644      3.8408      4.0802    
  4.3821      4.7468      5.1755      5.6682      6.2214      6.8248      7.4588      8.0951      8.6992      9.2348    
  9.6704      9.9831      10.161      10.203      10.115      9.9051      9.5852      9.1660      8.6614      8.0893    
  7.4728      6.8392      6.2170      5.6326      5.9528      5.3304      4.7929      4.3468      3.9915      3.7218    
  3.5323      3.4184      3.3777      3.4089      3.5117      3.6861      3.9327      4.2537      4.6526      5.1338    
  5.6989      6.3440      7.0554      7.8076      8.5644      9.2828      9.9198      10.439      10.817      11.043    
  11.117      11.045      10.838      10.502      10.047      9.4843      8.8326      8.1189      7.3771      6.6438    
  7.0507      6.2496      5.5301      4.9110      4.3990      3.9915      3.6814      3.4615      3.3261      3.2717    
  3.2970      3.4015      3.5862      3.8538      4.2096      4.6603      5.2127      5.8689      6.6223      7.4535    
  8.3282      9.2004      10.019      10.735      11.312      11.727      11.972      12.054      11.989      11.784    
  11.435      10.942      10.317      9.5786      8.7594      7.9014      8.3910      7.4214      6.5110      5.6976    
  5.0022      4.4307      3.9784      3.6362      3.3948      3.2470      3.1886      3.2177      3.3345      3.5413    
  3.8436      4.2496      4.7695      5.4110      6.1750      7.0494      8.0055      8.9978      9.9695      10.862    
  11.624      12.207      12.591      12.797      12.860      12.807      12.634      12.311      11.809      11.126    
  10.298      9.3687      9.9218      8.8257      7.7404      6.7262      5.8261      5.0626      4.4405      3.9528    
  3.5878      3.3341      3.1832      3.1299      3.1722      3.3113      3.5517      3.9018      4.3736      4.9794    
  5.7266      6.6115      7.6132      8.6900      9.7832      10.825      11.747      12.463      12.935      13.192    
  13.306      13.346      13.341      13.259      13.030      12.578      11.874      10.960      11.541      10.397    
  9.1879      7.9946      6.8861      5.9100      5.0895      4.4278      3.9153      3.5377      3.2813      3.1362    
  3.0966      3.1610      3.3321      3.6174      4.0288      4.5814      5.2886      6.1548      7.1683      8.2946    
  9.4764      10.640      11.699      12.523      13.036      13.263      13.308      13.305      13.351      13.462    
  13.561      13.513      13.185      12.514      13.012      12.014      10.776      9.4634      8.1738      6.9841    
  5.9456      5.0816      4.3930      3.8673      3.4875      3.2377      3.1070      3.0893      3.1843      3.3971    
  3.7385      4.2244      4.8721      5.6938      6.6878      7.8295      9.0671      10.325      11.506      12.436    
  12.978      13.122      12.983      12.760      12.652      12.773      13.104      13.494      13.726      13.597    
  13.816      13.356      12.362      11.045      9.6420      8.2708      7.0159      5.9311      5.0388      4.3371    
  3.8103      3.4386      3.2044      3.0960      3.1080      3.2419      3.5059      3.9147      4.4877      5.2431    
  6.1890      7.3128      8.5731      9.8975      11.186      12.242      12.847      12.918      12.541      11.952    
  11.452      11.299      11.602      12.278      13.078      13.681      13.437      13.871      13.556      12.577    
  11.198      9.7178      8.2821      6.9802      5.8670      4.9628      4.2623      3.7462      3.3923      3.1819    
  3.1032      3.1523      3.3332      3.6578      4.1450      4.8166      5.6893      6.7636      8.0119      9.3715    
  10.747      11.952      12.692      12.775      12.207      11.201      10.130      9.3997      9.3083      9.9300    
  11.083      12.395      11.579      13.084      13.814      13.631      12.662      11.230      9.6890      8.2078    
  6.8788      5.7561      4.8568      4.1712      3.6770      3.3498      3.1705      3.1283      3.2214      3.4570    
  3.8514      4.4268      5.2062      6.2020      7.4030      8.7622      10.194      11.548      12.499      12.735    
  12.128      10.802      9.1241      7.6079      6.7520      6.8647      7.9470      9.6886      8.3146      10.792    