   2   2   0   0
  0.1785513E+02  0.3814116E-09  0.3814116E-09  0.3814116E-09  0.5000000E-15
  1.000000000000000E-004
  CAR 
 unknown system                          
     20.14200871     -7.07634549  301      7.24811250      1.00000000
     -7.076  0.0000E+00  0.0000E+00
     -6.986  0.0000E+00  0.0000E+00
     -6.895  0.0000E+00  0.0000E+00
     -6.804  0.0000E+00  0.0000E+00
     -6.713  0.0000E+00  0.0000E+00
     -6.623  0.0000E+00  0.0000E+00
     -6.532  0.0000E+00  0.0000E+00
     -6.441  0.0000E+00  0.0000E+00
     -6.351  0.0000E+00  0.0000E+00
     -6.260  0.6373E-18  0.5782E-19
     -6.169  0.6246E-16  0.5725E-17
     -6.078  0.7909E-14  0.7233E-15
     -5.988  0.6617E-12  0.6076E-13
     -5.897  0.3693E-10  0.3412E-11
     -5.806  0.1376E-08  0.1283E-09
     -5.715  0.3427E-07  0.3238E-08
     -5.625  0.5709E-06  0.5504E-07
     -5.534  0.6371E-05  0.6331E-06
     -5.443  0.4772E-04  0.4963E-05
     -5.353  0.2407E-03  0.2680E-04
     -5.262  0.8232E-03  0.1015E-03
     -5.171  0.1943E-02  0.2778E-03
     -5.080  0.3328E-02  0.5798E-03
     -4.990  0.4708E-02  0.1007E-02
     -4.899  0.6743E-02  0.1619E-02
     -4.808  0.1025E-01  0.2549E-02
     -4.717  0.1404E-01  0.3822E-02
     -4.627  0.1556E-01  0.5234E-02
     -4.536  0.1411E-01  0.6514E-02
     -4.445  0.1148E-01  0.7556E-02
     -4.355  0.9891E-02  0.8453E-02
     -4.264  0.1102E-01  0.9453E-02
     -4.173  0.1570E-01  0.1088E-01
     -4.082  0.2250E-01  0.1292E-01
     -3.992  0.2670E-01  0.1534E-01
     -3.901  0.2476E-01  0.1759E-01
     -3.810  0.2023E-01  0.1942E-01
     -3.719  0.1929E-01  0.2117E-01
     -3.629  0.2152E-01  0.2313E-01
     -3.538  0.2212E-01  0.2513E-01
     -3.447  0.2050E-01  0.2699E-01
     -3.357  0.1992E-01  0.2880E-01
     -3.266  0.2166E-01  0.3076E-01
     -3.175  0.2443E-01  0.3298E-01
     -3.084  0.2724E-01  0.3545E-01
     -2.994  0.2912E-01  0.3809E-01
     -2.903  0.2854E-01  0.4068E-01
     -2.812  0.2707E-01  0.4314E-01
     -2.721  0.2980E-01  0.4584E-01
     -2.631  0.3644E-01  0.4915E-01
     -2.540  0.3838E-01  0.5263E-01
     -2.449  0.3085E-01  0.5543E-01
     -2.358  0.1963E-01  0.5721E-01
     -2.268  0.1297E-01  0.5839E-01
     -2.177  0.1526E-01  0.5977E-01
     -2.086  0.2711E-01  0.6223E-01
     -1.996  0.4412E-01  0.6624E-01
     -1.905  0.5592E-01  0.7131E-01
     -1.814  0.5388E-01  0.7620E-01
     -1.723  0.4230E-01  0.8004E-01
     -1.633  0.3366E-01  0.8309E-01
     -1.542  0.3273E-01  0.8606E-01
     -1.451  0.3413E-01  0.8916E-01
     -1.360  0.3286E-01  0.9214E-01
     -1.270  0.2969E-01  0.9483E-01
     -1.179  0.2802E-01  0.9737E-01
     -1.088  0.2954E-01  0.1001E+00
     -0.998  0.3263E-01  0.1030E+00
     -0.907  0.3458E-01  0.1062E+00
     -0.816  0.3652E-01  0.1095E+00
     -0.725  0.4319E-01  0.1134E+00
     -0.635  0.5418E-01  0.1183E+00
     -0.544  0.6104E-01  0.1238E+00
     -0.453  0.5821E-01  0.1291E+00
     -0.362  0.5026E-01  0.1337E+00
     -0.272  0.4510E-01  0.1378E+00
     -0.181  0.4717E-01  0.1420E+00
     -0.090  0.5582E-01  0.1471E+00
      0.000  0.6414E-01  0.1529E+00
      0.091  0.6444E-01  0.1588E+00
      0.182  0.5766E-01  0.1640E+00
      0.273  0.4997E-01  0.1685E+00
      0.363  0.4315E-01  0.1725E+00
      0.454  0.3607E-01  0.1757E+00
      0.545  0.3048E-01  0.1785E+00
      0.636  0.2753E-01  0.1810E+00
      0.726  0.2401E-01  0.1832E+00
      0.817  0.1752E-01  0.1848E+00
      0.908  0.1114E-01  0.1858E+00
      0.998  0.1008E-01  0.1867E+00
      1.089  0.1678E-01  0.1882E+00
      1.180  0.3050E-01  0.1910E+00
      1.271  0.4888E-01  0.1954E+00
      1.361  0.6699E-01  0.2015E+00
      1.452  0.7738E-01  0.2085E+00
      1.543  0.7573E-01  0.2154E+00
      1.634  0.6496E-01  0.2213E+00
      1.724  0.5105E-01  0.2259E+00
      1.815  0.3771E-01  0.2293E+00
      1.906  0.2675E-01  0.2318E+00
      1.996  0.2021E-01  0.2336E+00
      2.087  0.1826E-01  0.2352E+00
      2.178  0.1816E-01  0.2369E+00
      2.269  0.1881E-01  0.2386E+00
      2.359  0.2197E-01  0.2406E+00
      2.450  0.2786E-01  0.2431E+00
      2.541  0.3478E-01  0.2463E+00
      2.632  0.4175E-01  0.2501E+00
      2.722  0.4728E-01  0.2544E+00
      2.813  0.4978E-01  0.2589E+00
      2.904  0.5216E-01  0.2636E+00
      2.994  0.5935E-01  0.2690E+00
      3.085  0.6972E-01  0.2753E+00
      3.176  0.7657E-01  0.2823E+00
      3.267  0.7619E-01  0.2892E+00
      3.357  0.6942E-01  0.2955E+00
      3.448  0.6069E-01  0.3010E+00
      3.539  0.5558E-01  0.3060E+00
      3.630  0.5421E-01  0.3109E+00
      3.720  0.5100E-01  0.3156E+00
      3.811  0.4308E-01  0.3195E+00
      3.902  0.3418E-01  0.3226E+00
      3.992  0.2928E-01  0.3252E+00
      4.083  0.2974E-01  0.3279E+00
      4.174  0.3528E-01  0.3311E+00
      4.265  0.4688E-01  0.3354E+00
      4.355  0.6415E-01  0.3412E+00
      4.446  0.8141E-01  0.3486E+00
      4.537  0.9039E-01  0.3568E+00
      4.628  0.8793E-01  0.3648E+00
      4.718  0.7879E-01  0.3719E+00
      4.809  0.6953E-01  0.3782E+00
      4.900  0.6237E-01  0.3839E+00
      4.990  0.5690E-01  0.3890E+00
      5.081  0.5419E-01  0.3940E+00
      5.172  0.5533E-01  0.3990E+00
      5.263  0.5788E-01  0.4042E+00
      5.353  0.5725E-01  0.4094E+00
      5.444  0.5313E-01  0.4142E+00
      5.535  0.5245E-01  0.4190E+00
      5.626  0.6239E-01  0.4247E+00
      5.716  0.8181E-01  0.4321E+00
      5.807  0.1006E+00  0.4412E+00
      5.898  0.1084E+00  0.4511E+00
      5.988  0.1047E+00  0.4606E+00
      6.079  0.9620E-01  0.4693E+00
      6.170  0.8642E-01  0.4771E+00
      6.261  0.7456E-01  0.4839E+00
      6.351  0.6132E-01  0.4895E+00
      6.442  0.4904E-01  0.4939E+00
      6.533  0.4001E-01  0.4975E+00
      6.624  0.3679E-01  0.5009E+00
      6.714  0.4082E-01  0.5046E+00
      6.805  0.4870E-01  0.5090E+00
      6.896  0.5312E-01  0.5138E+00
      6.986  0.5205E-01  0.5185E+00
      7.077  0.5178E-01  0.5232E+00
      7.168  0.5668E-01  0.5284E+00
      7.259  0.6199E-01  0.5340E+00
      7.349  0.6071E-01  0.5395E+00
      7.440  0.5372E-01  0.5444E+00
      7.531  0.4858E-01  0.5488E+00
      7.622  0.4933E-01  0.5533E+00
      7.712  0.5249E-01  0.5580E+00
      7.803  0.5183E-01  0.5627E+00
      7.894  0.4429E-01  0.5667E+00
      7.984  0.3292E-01  0.5697E+00
      8.075  0.2560E-01  0.5721E+00
      8.166  0.2864E-01  0.5747E+00
      8.257  0.4096E-01  0.5784E+00
      8.347  0.5604E-01  0.5835E+00
      8.438  0.6750E-01  0.5896E+00
      8.529  0.7204E-01  0.5961E+00
      8.620  0.7040E-01  0.6025E+00
      8.710  0.6674E-01  0.6086E+00
      8.801  0.6525E-01  0.6145E+00
      8.892  0.6668E-01  0.6205E+00
      8.982  0.6952E-01  0.6268E+00
      9.073  0.7194E-01  0.6334E+00
      9.164  0.7006E-01  0.6397E+00
      9.255  0.6163E-01  0.6453E+00
      9.345  0.5179E-01  0.6500E+00
      9.436  0.4839E-01  0.6544E+00
      9.527  0.5425E-01  0.6593E+00
      9.618  0.6640E-01  0.6653E+00
      9.708  0.7884E-01  0.6725E+00
      9.799  0.8637E-01  0.6803E+00
      9.890  0.8775E-01  0.6883E+00
      9.980  0.8579E-01  0.6961E+00
     10.071  0.8446E-01  0.7037E+00
     10.162  0.8558E-01  0.7115E+00
     10.253  0.8615E-01  0.7193E+00
     10.343  0.7977E-01  0.7266E+00
     10.434  0.6446E-01  0.7324E+00
     10.525  0.4649E-01  0.7366E+00
     10.616  0.3403E-01  0.7397E+00
     10.706  0.3081E-01  0.7425E+00
     10.797  0.3724E-01  0.7459E+00
     10.888  0.5373E-01  0.7508E+00
     10.978  0.7674E-01  0.7577E+00
     11.069  0.9490E-01  0.7663E+00
     11.160  0.9845E-01  0.7753E+00
     11.251  0.9125E-01  0.7835E+00
     11.341  0.8502E-01  0.7913E+00
     11.432  0.8327E-01  0.7988E+00
     11.523  0.7983E-01  0.8061E+00
     11.614  0.7309E-01  0.8127E+00
     11.704  0.7156E-01  0.8192E+00
     11.795  0.8153E-01  0.8266E+00
     11.886  0.9708E-01  0.8354E+00
     11.977  0.1064E+00  0.8450E+00
     12.067  0.1046E+00  0.8545E+00
     12.158  0.9789E-01  0.8634E+00
     12.249  0.9342E-01  0.8719E+00
     12.339  0.9172E-01  0.8802E+00
     12.430  0.8985E-01  0.8884E+00
     12.521  0.8585E-01  0.8961E+00
     12.612  0.7937E-01  0.9033E+00
     12.702  0.7168E-01  0.9098E+00
     12.793  0.6438E-01  0.9157E+00
     12.884  0.5937E-01  0.9211E+00
     12.975  0.5950E-01  0.9265E+00
     13.065  0.6621E-01  0.9325E+00
     13.156  0.7514E-01  0.9393E+00
     13.247  0.7800E-01  0.9464E+00
     13.337  0.7265E-01  0.9530E+00
     13.428  0.6613E-01  0.9590E+00
     13.519  0.6514E-01  0.9649E+00
     13.610  0.6807E-01  0.9711E+00
     13.700  0.6726E-01  0.9772E+00
     13.791  0.5936E-01  0.9825E+00
     13.882  0.4985E-01  0.9871E+00
     13.973  0.4396E-01  0.9911E+00
     14.063  0.4132E-01  0.9948E+00
     14.154  0.4224E-01  0.9986E+00
     14.245  0.4962E-01  0.1003E+01
     14.335  0.6115E-01  0.1009E+01
     14.426  0.6782E-01  0.1015E+01
     14.517  0.6386E-01  0.1021E+01
     14.608  0.5168E-01  0.1025E+01
     14.698  0.3729E-01  0.1029E+01
     14.789  0.2592E-01  0.1031E+01
     14.880  0.2003E-01  0.1033E+01
     14.971  0.1860E-01  0.1035E+01
     15.061  0.1828E-01  0.1036E+01
     15.152  0.1618E-01  0.1038E+01
     15.243  0.1213E-01  0.1039E+01
     15.333  0.9236E-02  0.1040E+01
     15.424  0.1200E-01  0.1041E+01
     15.515  0.2151E-01  0.1043E+01
     15.606  0.3157E-01  0.1046E+01
     15.696  0.3315E-01  0.1049E+01
     15.787  0.2521E-01  0.1051E+01
     15.878  0.1550E-01  0.1052E+01
     15.969  0.9539E-02  0.1053E+01
     16.059  0.6318E-02  0.1054E+01
     16.150  0.3913E-02  0.1054E+01
     16.241  0.2880E-02  0.1054E+01
     16.331  0.4350E-02  0.1055E+01
     16.422  0.8025E-02  0.1055E+01
     16.513  0.1186E-01  0.1056E+01
     16.604  0.1344E-01  0.1058E+01
     16.694  0.1224E-01  0.1059E+01
     16.785  0.1009E-01  0.1060E+01
     16.876  0.8568E-02  0.1061E+01
     16.967  0.7617E-02  0.1061E+01
     17.057  0.7136E-02  0.1062E+01
     17.148  0.6934E-02  0.1062E+01
     17.239  0.6054E-02  0.1063E+01
     17.329  0.4520E-02  0.1063E+01
     17.420  0.3864E-02  0.1064E+01
     17.511  0.4722E-02  0.1064E+01
     17.602  0.5640E-02  0.1065E+01
     17.692  0.5022E-02  0.1065E+01
     17.783  0.3167E-02  0.1065E+01
     17.874  0.1599E-02  0.1066E+01
     17.965  0.1261E-02  0.1066E+01
     18.055  0.1973E-02  0.1066E+01
     18.146  0.2783E-02  0.1066E+01
     18.237  0.2725E-02  0.1066E+01
     18.327  0.1798E-02  0.1067E+01
     18.418  0.7975E-03  0.1067E+01
     18.509  0.2375E-03  0.1067E+01
     18.600  0.4744E-04  0.1067E+01
     18.690  0.6355E-05  0.1067E+01
     18.781  0.5703E-06  0.1067E+01
     18.872  0.3426E-07  0.1067E+01
     18.963  0.1376E-08  0.1067E+01
     19.053  0.3693E-10  0.1067E+01
     19.144  0.6617E-12  0.1067E+01
     19.235  0.7908E-14  0.1067E+01
     19.325  0.6373E-16  0.1067E+01
     19.416  0.0000E+00  0.1067E+01
     19.507  0.0000E+00  0.1067E+01
     19.598  0.0000E+00  0.1067E+01
     19.688  0.0000E+00  0.1067E+01
     19.779  0.0000E+00  0.1067E+01
     19.870  0.0000E+00  0.1067E+01
     19.961  0.0000E+00  0.1067E+01
     20.051  0.0000E+00  0.1067E+01
     20.142  0.0000E+00  0.1067E+01
