    2    2   15    1
  0.1785513E+02  0.3814116E-09  0.3814116E-09  0.3814116E-09  0.5000000E-15
  1.000000000000000E-004
  CAR 
 unknown system                          
      8     56      8
 
  0.6250000E-01  0.6250000E-01  0.6250000E-01  0.1562500E-01
    1       -4.716008   1.000000
    2        3.360016   1.000000
    3        5.617989   1.000000
    4        6.918208   0.990170
    5       10.761046   0.000000
    6       11.486424   0.000000
    7       11.985410   0.000000
    8       14.060815   0.000000
 
  0.1875000E+00  0.6250000E-01  0.6250000E-01  0.3125000E-01
    1       -3.643609   1.000000
    2        3.046337   1.000000
    3        5.777682   1.000000
    4        7.654127   0.002046
    5        8.840251   0.000000
    6        9.205394   0.000000
    7       11.982005   0.000000
    8       12.609169   0.000000
 
  0.3125000E+00  0.6250000E-01  0.6250000E-01  0.3125000E-01
    1       -1.899516   1.000000
    2        2.980680   1.000000
    3        4.412147   1.000000
    4        5.984375   1.000000
    5        7.048751   0.920686
    6       10.280373   0.000000
    7       11.050665   0.000000
    8       11.957780   0.000000
 
  0.4375000E+00  0.6250000E-01  0.6250000E-01  0.1562500E-01
    1       -0.064165   1.000000
    2        1.261448   1.000000
    3        4.333347   1.000000
    4        5.121515   1.000000
    5        6.904975   0.992374
    6        9.390108   0.000000
    7       11.179811   0.000000
    8       12.282910   0.000000
 
 -0.6250000E-01  0.6250000E-01  0.6250000E-01  0.7812500E-02
    1       -5.076345   1.000000
    2        3.900180   1.000000
    3        4.928568   1.000000
    4        6.596778   0.999998
    5       10.053277   0.000000
    6       12.965307   0.000000
    7       14.469592   0.000000
    8       14.937502   0.000000
 
  0.1875000E+00  0.1875000E+00  0.6250000E-01  0.1562500E-01
    1       -2.067640   1.000000
    2        3.094938   1.000000
    3        4.986491   1.000000
    4        5.374844   1.000000
    5        8.159669   0.000000
    6        9.635248   0.000000
    7       11.307859   0.000000
    8       11.511889   0.000000
 
  0.3125000E+00  0.1875000E+00  0.6250000E-01  0.3125000E-01
    1       -0.041865   1.000000
    2        1.785298   1.000000
    3        3.125061   1.000000
    4        4.697795   1.000000
    5        8.246633   0.000000
    6        9.943761   0.000000
    7       11.064232   0.000000
    8       12.860987   0.000000
 
  0.4375000E+00  0.1875000E+00  0.6250000E-01  0.3125000E-01
    1       -1.056452   1.000000
    2        1.510061   1.000000
    3        3.681327   1.000000
    4        5.878629   1.000000
    5        7.676220   0.001234
    6       10.228848   0.000000
    7       12.002879   0.000000
    8       12.478082   0.000000
 
 -0.4375000E+00  0.1875000E+00  0.6250000E-01  0.3125000E-01
    1       -2.943473   1.000000
    2        1.139167   1.000000
    3        6.153828   1.000000
    4        7.276949   0.419213
    5        8.583210   0.000000
    6        9.939057   0.000000
    7       11.153343   0.000000
    8       13.142526   0.000000
 
 -0.3125000E+00  0.1875000E+00  0.6250000E-01  0.1562500E-01
    1       -4.185127   1.000000
    2        1.300264   1.000000
    3        6.083700   1.000000
    4        7.878313   0.000004
    5       10.271244   0.000000
    6       11.525733   0.000000
    7       12.685777   0.000000
    8       12.982708   0.000000
 
 -0.1875000E+00  0.1875000E+00  0.6250000E-01  0.1562500E-01
    1       -4.721357   1.000000
    2        2.068108   1.000000
    3        5.013935   1.000000
    4        7.823327   0.000024
    5       11.232057   0.000000
    6       11.794614   0.000000
    7       13.956882   0.000000
    8       14.205914   0.000000
 
 -0.6250000E-01  0.1875000E+00  0.6250000E-01  0.1562500E-01
    1       -4.539058   1.000000
    2        3.031055   1.000000
    3        4.456633   1.000000
    4        8.299058   0.000000
    5       10.686899   0.000000
    6       11.455201   0.000000
    7       11.822438   0.000000
    8       13.262938   0.000000
 
  0.3125000E+00  0.3125000E+00  0.6250000E-01  0.1562500E-01
    1        0.021179   1.000000
    2        0.179490   1.000000
    3        3.468862   1.000000
    4        5.794159   1.000000
    5        8.492180   0.000000
    6        9.121614   0.000000
    7       12.902332   0.000000
    8       13.518040   0.000000
 
  0.4375000E+00  0.3125000E+00  0.6250000E-01  0.3125000E-01
    1       -1.902007   1.000000
    2       -0.532186   1.000000
    3        6.373797   1.000000
    4        7.202847   0.625543
    5        8.646371   0.000000
    6        9.803558   0.000000
    7       10.941433   0.000000
    8       12.208562   0.000000
 
 -0.4375000E+00  0.3125000E+00  0.6250000E-01  0.1562500E-01
    1       -3.305249   1.000000
    2       -0.539536   1.000000
    3        6.844459   0.997843
    4        8.840423   0.000000
    5        9.075892   0.000000
    6       11.181559   0.000000
    7       11.556222   0.000000
    8       11.788421   0.000000
 
 -0.3125000E+00  0.3125000E+00  0.6250000E-01  0.1562500E-01
    1       -4.014273   1.000000
    2        0.121861   1.000000
    3        5.646792   1.000000
    4        8.762753   0.000000
    5        9.460176   0.000000
    6       12.541323   0.000000
    7       13.865081   0.000000
    8       14.313339   0.000000
 
 -0.1875000E+00  0.3125000E+00  0.6250000E-01  0.3125000E-01
    1       -4.009765   1.000000
    2        1.393929   1.000000
    3        4.519344   1.000000
    4        9.097098   0.000000
    5        9.643076   0.000000
    6       10.994815   0.000000
    7       12.727407   0.000000
    8       13.654332   0.000000
 
 -0.6250000E-01  0.3125000E+00  0.6250000E-01  0.1562500E-01
    1       -3.294325   1.000000
    2        2.788899   1.000000
    3        4.405872   1.000000
    4        6.818739   0.998802
    5        9.412555   0.000000
    6       10.922859   0.000000
    7       11.303687   0.000000
    8       11.871577   0.000000
 
  0.4375000E+00  0.4375000E+00  0.6250000E-01  0.7812500E-02
    1       -2.084915   1.000000
    2       -2.084914   1.000000
    3        7.864527   0.000007
    4        7.864528   0.000007
    5       10.038886   0.000000
    6       10.038886   0.000000
    7       11.334254   0.000000
    8       11.334255   0.000000
 
 -0.4375000E+00  0.4375000E+00  0.6250000E-01  0.1562500E-01
    1       -2.961516   1.000000
    2       -1.574982   1.000000
    3        6.618052   0.999996
    4        7.899762   0.000002
    5        9.824219   0.000000
    6       11.100745   0.000000
    7       13.776576   0.000000
    8       13.906523   0.000000
 
 -0.3125000E+00  0.4375000E+00  0.6250000E-01  0.3125000E-01
    1       -3.133148   1.000000
    2       -0.389815   1.000000
    3        5.274861   1.000000
    4        7.757667   0.000157
    5        9.730299   0.000000
    6       11.078069   0.000000
    7       12.445628   0.000000
    8       13.646891   0.000000
 
 -0.1875000E+00  0.4375000E+00  0.6250000E-01  0.3125000E-01
    1       -2.599765   1.000000
    2        1.365798   1.000000
    3        4.498923   1.000000
    4        6.212183   1.000000
    5        8.412994   0.000000
    6       10.445184   0.000000
    7       12.294039   0.000000
    8       13.178161   0.000000
 
 -0.6250000E-01  0.4375000E+00  0.6250000E-01  0.1562500E-01
    1       -1.400187   1.000000
    2        2.475973   1.000000
    3        4.226079   1.000000
    4        4.855400   1.000000
    5        7.530225   0.023030
    6       10.085052   0.000000
    7       10.211292   0.000000
    8       13.005712   0.000000
 
 -0.4375000E+00 -0.4375000E+00  0.6250000E-01  0.1562500E-01
    1       -1.927151   1.000000
    2       -1.911602   1.000000
    3        6.328739   1.000000
    4        6.435267   1.000000
    5        9.668312   0.000000
    6       11.578785   0.000000
    7       12.436121   0.000000
    8       12.748132   0.000000
 
 -0.3125000E+00 -0.4375000E+00  0.6250000E-01  0.3125000E-01
    1       -1.569996   1.000000
    2       -0.224086   1.000000
    3        5.110289   1.000000
    4        6.007530   1.000000
    5        7.140193   0.777300
    6       10.087692   0.000000
    7       13.392885   0.000000
    8       14.349226   0.000000
 
 -0.1875000E+00 -0.4375000E+00  0.6250000E-01  0.3125000E-01
    1       -0.591465   1.000000
    2        1.653916   1.000000
    3        3.197786   1.000000
    4        5.286856   1.000000
    5        7.288120   0.388629
    6        8.907666   0.000000
    7       11.409943   0.000000
    8       14.334598   0.000000
 
 -0.6250000E-01 -0.4375000E+00  0.6250000E-01  0.1562500E-01
    1       -0.358308   1.000000
    2        1.573793   1.000000
    3        4.926407   1.000000
    4        5.578826   1.000000
    5        6.148792   1.000000
    6        9.031604   0.000000
    7        9.862768   0.000000
    8       13.436570   0.000000
 
 -0.3125000E+00 -0.3125000E+00  0.6250000E-01  0.1562500E-01
    1        0.300463   1.000000
    2        0.705736   1.000000
    3        2.814557   1.000000
    4        6.060133   1.000000
    5        6.524295   1.000000
    6        8.492598   0.000000
    7       13.158367   0.000000
    8       13.626173   0.000000
 
 -0.1875000E+00 -0.3125000E+00  0.6250000E-01  0.3125000E-01
    1       -0.604643   1.000000
    2        2.438015   1.000000
    3        3.742276   1.000000
    4        5.895089   1.000000
    5        6.810513   0.999014
    6        8.430371   0.000000
    7       10.276791   0.000000
    8       12.370979   0.000000
 
 -0.6250000E-01 -0.3125000E+00  0.6250000E-01  0.1562500E-01
    1       -2.411737   1.000000
    2        4.159104   1.000000
    3        5.764944   1.000000
    4        5.865841   1.000000
    5        6.751627   0.999777
    6        9.567755   0.000000
    7        9.604189   0.000000
    8       11.862804   0.000000
 
 -0.1875000E+00 -0.1875000E+00  0.6250000E-01  0.1562500E-01
    1       -2.583369   1.000000
    2        4.827044   1.000000
    3        5.622657   1.000000
    4        6.240614   1.000000
    5        7.292381   0.377130
    6        8.318063   0.000000
    7       10.335490   0.000000
    8       10.488086   0.000000
 
 -0.6250000E-01 -0.1875000E+00  0.6250000E-01  0.1562500E-01
    1       -3.995250   1.000000
    2        4.834676   1.000000
    3        5.726430   1.000000
    4        7.347138   0.241897
    5        8.806650   0.000000
    6        9.259113   0.000000
    7       10.909318   0.000000
    8       12.135062   0.000000
 
 -0.6250000E-01 -0.6250000E-01  0.6250000E-01  0.3906250E-02
    1       -4.893442   1.000000
    2        5.362494   1.000000
    3        5.461445   1.000000
    4        5.461446   1.000000
    5        9.835977   0.000000
    6       12.014534   0.000000
    7       12.262204   0.000000
    8       14.237823   0.000000
 
  0.1875000E+00  0.1875000E+00  0.1875000E+00  0.1562500E-01
    1       -1.216078   1.000000
    2        1.416952   1.000000
    3        4.604604   1.000000
    4        4.779016   1.000000
    5        9.165909   0.000000
    6       10.680391   0.000000
    7       11.992314   0.000000
    8       12.322970   0.000000
 
  0.3125000E+00  0.1875000E+00  0.1875000E+00  0.1562500E-01
    1        0.578608   1.000000
    2        1.453961   1.000000
    3        2.780981   1.000000
    4        3.555753   1.000000
    5        9.839721   0.000000
    6       11.768218   0.000000
    7       11.876952   0.000000
    8       12.134486   0.000000
 
 -0.1875000E+00  0.1875000E+00  0.1875000E+00  0.7812500E-02
    1       -4.368408   1.000000
    2        1.825845   1.000000
    3        3.470920   1.000000
    4        9.330055   0.000000
    5        9.772263   0.000000
    6       12.822027   0.000000
    7       13.704907   0.000000
    8       13.867945   0.000000
 
  0.3125000E+00  0.3125000E+00  0.1875000E+00  0.7812500E-02
    1       -0.043953   1.000000
    2       -0.043953   1.000000
    3        4.526638   1.000000
    4        4.526639   1.000000
    5       10.384773   0.000000
    6       10.384775   0.000000
    7       11.820319   0.000000
    8       11.820322   0.000000
 
 -0.3125000E+00  0.3125000E+00  0.1875000E+00  0.1562500E-01
    1       -3.666081   1.000000
    2        0.363868   1.000000
    3        3.614669   1.000000
    4        7.457046   0.069787
    5       11.039528   0.000000
    6       13.063468   0.000000
    7       13.553963   0.000000
    8       15.158367   0.000000
 
 -0.1875000E+00  0.3125000E+00  0.1875000E+00  0.1562500E-01
    1       -3.485825   1.000000
    2        1.289639   1.000000
    3        3.041677   1.000000
    4        7.513757   0.030164
    5        9.534788   0.000000
    6       12.175917   0.000000
    7       13.654317   0.000000
    8       14.403562   0.000000
 
 -0.4375000E+00  0.4375000E+00  0.1875000E+00  0.1562500E-01
    1       -2.623052   1.000000
    2       -1.258979   1.000000
    3        4.534592   1.000000
    4        5.837683   1.000000
    5       11.904358   0.000000
    6       12.520646   0.000000
    7       13.642592   0.000000
    8       14.316278   0.000000
 
 -0.3125000E+00  0.4375000E+00  0.1875000E+00  0.3125000E-01
    1       -2.620791   1.000000
    2        0.012690   1.000000
    3        3.307860   1.000000
    4        5.814106   1.000000
    5        9.073696   0.000000
    6       13.294364   0.000000
    7       14.039920   0.000000
    8       15.652450   0.000000
 
 -0.1875000E+00  0.4375000E+00  0.1875000E+00  0.1562500E-01
    1       -1.919126   1.000000
    2        1.395280   1.000000
    3        3.236524   1.000000
    4        5.422462   1.000000
    5        6.821205   0.998731
    6       11.479786   0.000000
    7       13.168617   0.000000
    8       14.467939   0.000000
 
 -0.4375000E+00 -0.4375000E+00  0.1875000E+00  0.1562500E-01
    1       -1.450166   1.000000
    2       -1.416491   1.000000
    3        4.336346   1.000000
    4        4.411873   1.000000
    5        8.913004   0.000000
    6       13.441840   0.000000
    7       14.909058   0.000000
    8       15.068656   0.000000
 
 -0.3125000E+00 -0.4375000E+00  0.1875000E+00  0.3125000E-01
    1       -0.922877   1.000000
    2        0.331536   1.000000
    3        3.580503   1.000000
    4        4.629030   1.000000
    5        5.755553   1.000000
    6       11.700220   0.000000
    7       14.541663   0.000000
    8       15.571777   0.000000
 
 -0.1875000E+00 -0.4375000E+00  0.1875000E+00  0.1562500E-01
    1        0.102250   1.000000
    2        1.583672   1.000000
    3        3.262156   1.000000
    4        4.043145   1.000000
    5        6.089645   1.000000
    6        9.756428   0.000000
    7       11.420421   0.000000
    8       14.535901   0.000000
 
 -0.3125000E+00 -0.3125000E+00  0.1875000E+00  0.1562500E-01
    1        0.591174   1.000000
    2        1.491821   1.000000
    3        2.763002   1.000000
    4        4.652397   1.000000
    5        4.840811   1.000000
    6       10.044773   0.000000
    7       12.680277   0.000000
    8       13.198964   0.000000
 
 -0.1875000E+00 -0.3125000E+00  0.1875000E+00  0.1562500E-01
    1       -0.907875   1.000000
    2        3.359927   1.000000
    3        4.289997   1.000000
    4        5.318668   1.000000
    5        6.088517   1.000000
    6        8.657380   0.000000
    7       10.218175   0.000000
    8       11.396207   0.000000
 
 -0.1875000E+00 -0.1875000E+00  0.1875000E+00  0.3906250E-02
    1       -2.756000   1.000000
    2        6.296165   1.000000
    3        6.320098   1.000000
    4        6.320099   1.000000
    5        6.551704   1.000000
    6        7.480079   0.050477
    7       10.080817   0.000000
    8       10.080819   0.000000
 
 -0.3125000E+00  0.3125000E+00  0.3125000E+00  0.7812500E-02
    1       -2.975591   1.000000
    2        0.418086   1.000000
    3        2.246604   1.000000
    4        5.535348   1.000000
    5       12.126986   0.000000
    6       12.577953   0.000000
    7       14.331921   0.000000
    8       16.573552   0.000000
 
 -0.4375000E+00  0.4375000E+00  0.3125000E+00  0.1562500E-01
    1       -1.960420   1.000000
    2       -0.684421   1.000000
    3        2.662610   1.000000
    4        3.904330   1.000000
    5       12.149056   0.000000
    6       12.248074   0.000000
    7       15.589248   0.000000
    8       16.600512   0.000000
 
 -0.3125000E+00  0.4375000E+00  0.3125000E+00  0.1562500E-01
    1       -1.784726   1.000000
    2        0.230285   1.000000
    3        2.099650   1.000000
    4        4.057710   1.000000
    5        8.591248   0.000000
    6       14.501586   0.000000
    7       15.957293   0.000000
    8       16.450721   0.000000
 
 -0.4375000E+00 -0.4375000E+00  0.3125000E+00  0.1562500E-01
    1       -0.718621   1.000000
    2       -0.658531   1.000000
    3        2.647562   1.000000
    4        2.684939   1.000000
    5        8.427762   0.000000
    6       14.692332   0.000000
    7       16.858062   0.000000
    8       17.145938   0.000000
 
 -0.3125000E+00 -0.4375000E+00  0.3125000E+00  0.1562500E-01
    1       -0.037762   1.000000
    2        0.709538   1.000000
    3        2.612414   1.000000
    4        3.282382   1.000000
    5        5.196246   1.000000
    6       13.151631   0.000000
    7       14.692512   0.000000
    8       15.651721   0.000000
 
 -0.3125000E+00 -0.3125000E+00  0.3125000E+00  0.3906250E-02
    1        0.686935   1.000000
    2        2.111456   1.000000
    3        3.270334   1.000000
    4        3.751314   1.000000
    5        3.751315   1.000000
    6       11.377344   0.000000
    7       12.512138   0.000000
    8       12.512144   0.000000
 
 -0.4375000E+00  0.4375000E+00  0.4375000E+00  0.7812500E-02
    1       -1.036898   1.000000
    2       -0.292882   1.000000
    3        1.603786   1.000000
    4        2.336695   1.000000
    5       11.956429   0.000000
    6       11.979542   0.000000
    7       17.613301   0.000000
    8       18.142009   0.000000
 
 -0.4375000E+00 -0.4375000E+00  0.4375000E+00  0.3906250E-02
    1       -0.172051   1.000000
    2       -0.078555   1.000000
    3        1.777285   1.000000
    4        1.777285   1.000000
    5        8.263921   0.000000
    6       15.019249   0.000000
    7       17.539962   0.000000
    8       17.539971   0.000000
