       N       E                     dE             d eps       ncg     rms          rms(c)
DAV:   1     0.123003740159E+01    0.12300E+01   -0.26875E+03   896   0.567E+02
DAV:   2    -0.996649109973E+01   -0.11197E+02   -0.10844E+02  1392   0.635E+01
DAV:   3    -0.100897441887E+02   -0.12325E+00   -0.12144E+00  1192   0.809E+00
DAV:   4    -0.100900814219E+02   -0.33723E-03   -0.33721E-03  1360   0.436E-01
DAV:   5    -0.100900818163E+02   -0.39436E-06   -0.39419E-06  1192   0.108E-02    0.147E+00
DAV:   6    -0.100825501750E+02    0.75316E-02   -0.65078E-03  1184   0.493E-01    0.907E-01
DAV:   7    -0.100781006533E+02    0.44495E-02   -0.15605E-02  1128   0.782E-01    0.602E-02
DAV:   8    -0.100780494808E+02    0.51173E-04   -0.54327E-04   736   0.168E-01
   1 F= -.10078049E+02 E0= -.10068625E+02  d E =-.100780E+02
