 running on    8 total cores
 distrk:  each k-point on    8 cores,    1 groups
 distr:  one band on    1 cores,    8 groups
 using from now: INCAR     
 vasp.5.4.4.18Apr17-6-g9f103f2a35 (build Dec 09 2018 21:25:21) complex          
  
 POSCAR found type information on POSCAR  Si
 POSCAR found :  1 types and       2 ions
 scaLAPACK will be used

 ----------------------------------------------------------------------------- 
|                                                                             |
|           W    W    AA    RRRRR   N    N  II  N    N   GGGG   !!!           |
|           W    W   A  A   R    R  NN   N  II  NN   N  G    G  !!!           |
|           W    W  A    A  R    R  N N  N  II  N N  N  G       !!!           |
|           W WW W  AAAAAA  RRRRR   N  N N  II  N  N N  G  GGG   !            |
|           WW  WW  A    A  R   R   N   NN  II  N   NN  G    G                |
|           W    W  A    A  R    R  N    N  II  N    N   GGGG   !!!           |
|                                                                             |
|      For optimal performance we recommend to set                            |
|        NCORE= 4 - approx SQRT( number of cores)                             |
|      NCORE specifies how many cores store one orbital (NPAR=cpu/NCORE).     |
|      This setting can  greatly improve the performance of VASP for DFT.     |
|      The default,   NCORE=1            might be grossly inefficient         |
|      on modern multi-core architectures or massively parallel machines.     |
|      Do your own testing !!!!                                               |
|      Unfortunately you need to use the default for GW and RPA calculations. |
|      (for HF NCORE is supported but not extensively tested yet)             |
|                                                                             |
 ----------------------------------------------------------------------------- 

 LDA part: xc-table for Pade appr. of Perdew
 POSCAR, INCAR and KPOINTS ok, starting setup
 FFT: planning ...
 WAVECAR not read
 entering main loop
       N       E                     dE             d eps       ncg     rms          rms(c)
DAV:   1     0.123003740159E+01    0.12300E+01   -0.26875E+03   896   0.567E+02
DAV:   2    -0.996649109973E+01   -0.11197E+02   -0.10844E+02  1392   0.635E+01
DAV:   3    -0.100897441887E+02   -0.12325E+00   -0.12144E+00  1192   0.809E+00
DAV:   4    -0.100900814219E+02   -0.33723E-03   -0.33721E-03  1360   0.436E-01
DAV:   5    -0.100900818163E+02   -0.39436E-06   -0.39419E-06  1192   0.108E-02    0.147E+00
DAV:   6    -0.100825501750E+02    0.75316E-02   -0.65078E-03  1184   0.493E-01    0.907E-01
DAV:   7    -0.100781006533E+02    0.44495E-02   -0.15605E-02  1128   0.782E-01    0.602E-02
DAV:   8    -0.100780494808E+02    0.51173E-04   -0.54327E-04   736   0.168E-01
   1 F= -.10078049E+02 E0= -.10068625E+02  d E =-.100780E+02
 curvature:   0.00 expect dE= 0.000E+00 dE for cont linesearch  0.000E+00
 trial: gam= 0.00000 g(F)=  0.630E-48 g(S)=  0.000E+00 ort = 0.000E+00 (trialstep = 0.100E+01)
 search vector abs. value=  0.100E-09
 reached required accuracy - stopping structural energy minimisation
 writing wavefunctions
