<?xml version="1.0" encoding="ISO-8859-1"?>
<modeling>
 <generator>
  <i name="program" type="string">vasp </i>
  <i name="version" type="string">5.4.4.18Apr17-6-g9f103f2a35  </i>
  <i name="subversion" type="string">(build Dec 09 2018 21:25:21) complex            parallel </i>
  <i name="platform" type="string">IFC18.0.1.163_CrayMPICH7.7.0_MKL18.0.1.163 </i>
  <i name="date" type="string">2019 04 01 </i>
  <i name="time" type="string">15:54:03 </i>
 </generator>
 <incar>
  <i type="string" name="PREC">normal</i>
  <i type="int" name="IBRION">     2</i>
  <i name="EDIFF">      0.00040000</i>
  <i name="EDIFFG">     -0.01000000</i>
  <i type="int" name="NSW">    15</i>
  <i type="int" name="ISIF">     2</i>
  <i name="ENCUT">    350.00000000</i>
  <i type="int" name="NBANDS">     8</i>
  <i type="logical" name="LREAL"> F  </i>
  <i type="int" name="ISMEAR">     0</i>
  <i name="SIGMA">      0.20000000</i>
  <v type="int" name="KPOINT_BSE">    -1     0     0     0</v>
 </incar>
 <structure name="primitive_cell" >
  <crystal>
   <varray name="basis" >
    <v>      -2.50105700       2.50105700       1.42720300 </v>
    <v>       2.50105700      -2.50105700       1.42720300 </v>
    <v>       2.50105700       2.50105700      -1.42720300 </v>
   </varray>
   <i name="volume">     35.71025245 </i>
   <varray name="rec_basis" >
    <v>       0.00000000       0.19991548       0.35033559 </v>
    <v>       0.19991548       0.00000000       0.35033559 </v>
    <v>       0.19991548       0.19991548      -0.00000000 </v>
   </varray>
  </crystal>
  <varray name="positions" >
   <v>       0.00000000       0.00000000       0.00000000 </v>
   <v>       0.25000000      -0.25000000      -0.50000000 </v>
  </varray>
 </structure>
 <varray name="primitive_index" >
  <v type="int" >        1 </v>
  <v type="int" >        2 </v>
 </varray>
 <kpoints>
  <generation param="Monkhorst-Pack">
   <v type="int" name="divisions">       8        8        8 </v>
   <v name="usershift">      0.00000000       0.00000000       0.00000000 </v>
   <v name="genvec1">      0.12500000       0.00000000      -0.00000000 </v>
   <v name="genvec2">      0.00000000       0.12500000      -0.00000000 </v>
   <v name="genvec3">     -0.00000000      -0.00000000       0.12500000 </v>
   <v name="shift">      0.50000000       0.50000000       0.50000000 </v>
  </generation>
  <varray name="kpointlist" >
   <v>       0.06250000       0.06250000       0.06250000 </v>
   <v>       0.18750000       0.06250000       0.06250000 </v>
   <v>       0.31250000       0.06250000       0.06250000 </v>
   <v>       0.43750000       0.06250000       0.06250000 </v>
   <v>      -0.06250000       0.06250000       0.06250000 </v>
   <v>       0.18750000       0.18750000       0.06250000 </v>
   <v>       0.31250000       0.18750000       0.06250000 </v>
   <v>       0.43750000       0.18750000       0.06250000 </v>
   <v>      -0.43750000       0.18750000       0.06250000 </v>
   <v>      -0.31250000       0.18750000       0.06250000 </v>
   <v>      -0.18750000       0.18750000       0.06250000 </v>
   <v>      -0.06250000       0.18750000       0.06250000 </v>
   <v>       0.31250000       0.31250000       0.06250000 </v>
   <v>       0.43750000       0.31250000       0.06250000 </v>
   <v>      -0.43750000       0.31250000       0.06250000 </v>
   <v>      -0.31250000       0.31250000       0.06250000 </v>
   <v>      -0.18750000       0.31250000       0.06250000 </v>
   <v>      -0.06250000       0.31250000       0.06250000 </v>
   <v>       0.43750000       0.43750000       0.06250000 </v>
   <v>      -0.43750000       0.43750000       0.06250000 </v>
   <v>      -0.31250000       0.43750000       0.06250000 </v>
   <v>      -0.18750000       0.43750000       0.06250000 </v>
   <v>      -0.06250000       0.43750000       0.06250000 </v>
   <v>      -0.43750000      -0.43750000       0.06250000 </v>
   <v>      -0.31250000      -0.43750000       0.06250000 </v>
   <v>      -0.18750000      -0.43750000       0.06250000 </v>
   <v>      -0.06250000      -0.43750000       0.06250000 </v>
   <v>      -0.31250000      -0.31250000       0.06250000 </v>
   <v>      -0.18750000      -0.31250000       0.06250000 </v>
   <v>      -0.06250000      -0.31250000       0.06250000 </v>
   <v>      -0.18750000      -0.18750000       0.06250000 </v>
   <v>      -0.06250000      -0.18750000       0.06250000 </v>
   <v>      -0.06250000      -0.06250000       0.06250000 </v>
   <v>       0.18750000       0.18750000       0.18750000 </v>
   <v>       0.31250000       0.18750000       0.18750000 </v>
   <v>      -0.18750000       0.18750000       0.18750000 </v>
   <v>       0.31250000       0.31250000       0.18750000 </v>
   <v>      -0.31250000       0.31250000       0.18750000 </v>
   <v>      -0.18750000       0.31250000       0.18750000 </v>
   <v>      -0.43750000       0.43750000       0.18750000 </v>
   <v>      -0.31250000       0.43750000       0.18750000 </v>
   <v>      -0.18750000       0.43750000       0.18750000 </v>
   <v>      -0.43750000      -0.43750000       0.18750000 </v>
   <v>      -0.31250000      -0.43750000       0.18750000 </v>
   <v>      -0.18750000      -0.43750000       0.18750000 </v>
   <v>      -0.31250000      -0.31250000       0.18750000 </v>
   <v>      -0.18750000      -0.31250000       0.18750000 </v>
   <v>      -0.18750000      -0.18750000       0.18750000 </v>
   <v>      -0.31250000       0.31250000       0.31250000 </v>
   <v>      -0.43750000       0.43750000       0.31250000 </v>
   <v>      -0.31250000       0.43750000       0.31250000 </v>
   <v>      -0.43750000      -0.43750000       0.31250000 </v>
   <v>      -0.31250000      -0.43750000       0.31250000 </v>
   <v>      -0.31250000      -0.31250000       0.31250000 </v>
   <v>      -0.43750000       0.43750000       0.43750000 </v>
   <v>      -0.43750000      -0.43750000       0.43750000 </v>
  </varray>
  <varray name="weights" >
   <v>       0.01562500 </v>
   <v>       0.03125000 </v>
   <v>       0.03125000 </v>
   <v>       0.01562500 </v>
   <v>       0.00781250 </v>
   <v>       0.01562500 </v>
   <v>       0.03125000 </v>
   <v>       0.03125000 </v>
   <v>       0.03125000 </v>
   <v>       0.01562500 </v>
   <v>       0.01562500 </v>
   <v>       0.01562500 </v>
   <v>       0.01562500 </v>
   <v>       0.03125000 </v>
   <v>       0.01562500 </v>
   <v>       0.01562500 </v>
   <v>       0.03125000 </v>
   <v>       0.01562500 </v>
   <v>       0.00781250 </v>
   <v>       0.01562500 </v>
   <v>       0.03125000 </v>
   <v>       0.03125000 </v>
   <v>       0.01562500 </v>
   <v>       0.01562500 </v>
   <v>       0.03125000 </v>
   <v>       0.03125000 </v>
   <v>       0.01562500 </v>
   <v>       0.01562500 </v>
   <v>       0.03125000 </v>
   <v>       0.01562500 </v>
   <v>       0.01562500 </v>
   <v>       0.01562500 </v>
   <v>       0.00390625 </v>
   <v>       0.01562500 </v>
   <v>       0.01562500 </v>
   <v>       0.00781250 </v>
   <v>       0.00781250 </v>
   <v>       0.01562500 </v>
   <v>       0.01562500 </v>
   <v>       0.01562500 </v>
   <v>       0.03125000 </v>
   <v>       0.01562500 </v>
   <v>       0.01562500 </v>
   <v>       0.03125000 </v>
   <v>       0.01562500 </v>
   <v>       0.01562500 </v>
   <v>       0.01562500 </v>
   <v>       0.00390625 </v>
   <v>       0.00781250 </v>
   <v>       0.01562500 </v>
   <v>       0.01562500 </v>
   <v>       0.01562500 </v>
   <v>       0.01562500 </v>
   <v>       0.00390625 </v>
   <v>       0.00781250 </v>
   <v>       0.00390625 </v>
  </varray>
 </kpoints>
 <parameters>
  <separator name="general" >
   <i type="string" name="SYSTEM">unknown system</i>
   <i type="logical" name="LCOMPAT"> F  </i>
  </separator>
  <separator name="electronic" >
   <i type="string" name="PREC">normal</i>
   <i name="ENMAX">    350.00000000</i>
   <i name="ENAUG">    322.06900000</i>
   <i name="EDIFF">      0.00040000</i>
   <i type="int" name="IALGO">    38</i>
   <i type="int" name="IWAVPR">    11</i>
   <i type="int" name="NBANDS">     8</i>
   <i name="NELECT">      8.00000000</i>
   <i type="int" name="TURBO">     0</i>
   <i type="int" name="IRESTART">     0</i>
   <i type="int" name="NREBOOT">     0</i>
   <i type="int" name="NMIN">     0</i>
   <i name="EREF">      0.00000000</i>
   <separator name="electronic smearing" >
    <i type="int" name="ISMEAR">     0</i>
    <i name="SIGMA">      0.20000000</i>
    <i name="KSPACING">      0.50000000</i>
    <i type="logical" name="KGAMMA"> T  </i>
   </separator>
   <separator name="electronic projectors" >
    <i type="logical" name="LREAL"> F  </i>
    <v name="ROPT">      0.00000000</v>
    <i type="int" name="LMAXPAW">  -100</i>
    <i type="int" name="LMAXMIX">     2</i>
    <i type="logical" name="NLSPLINE"> F  </i>
   </separator>
   <separator name="electronic startup" >
    <i type="int" name="ISTART">     0</i>
    <i type="int" name="ICHARG">     2</i>
    <i type="int" name="INIWAV">     1</i>
   </separator>
   <separator name="electronic spin" >
    <i type="int" name="ISPIN">     1</i>
    <i type="logical" name="LNONCOLLINEAR"> F  </i>
    <v name="MAGMOM">      1.00000000      1.00000000</v>
    <i name="NUPDOWN">     -1.00000000</i>
    <i type="logical" name="LSORBIT"> F  </i>
    <v name="SAXIS">      0.00000000      0.00000000      1.00000000</v>
    <i type="logical" name="LSPIRAL"> F  </i>
    <v name="QSPIRAL">      0.00000000      0.00000000      0.00000000</v>
    <i type="logical" name="LZEROZ"> F  </i>
   </separator>
   <separator name="electronic exchange-correlation" >
    <i type="logical" name="LASPH"> F  </i>
    <i type="logical" name="LMETAGGA"> F  </i>
   </separator>
   <separator name="electronic convergence" >
    <i type="int" name="NELM">    60</i>
    <i type="int" name="NELMDL">    -5</i>
    <i type="int" name="NELMIN">     2</i>
    <i name="ENINI">    350.00000000</i>
    <separator name="electronic convergence detail" >
     <i type="logical" name="LDIAG"> T  </i>
     <i type="logical" name="LSUBROT"> F  </i>
     <i name="WEIMIN">      0.00100000</i>
     <i name="EBREAK">      0.00001250</i>
     <i name="DEPER">      0.30000000</i>
     <i type="int" name="NRMM">     4</i>
     <i name="TIME">      0.40000000</i>
    </separator>
   </separator>
   <separator name="electronic mixer" >
    <i name="AMIX">      0.40000000</i>
    <i name="BMIX">      1.00000000</i>
    <i name="AMIN">      0.10000000</i>
    <i name="AMIX_MAG">      1.60000000</i>
    <i name="BMIX_MAG">      1.00000000</i>
    <separator name="electronic mixer details" >
     <i type="int" name="IMIX">     4</i>
     <i type="logical" name="MIXFIRST"> F  </i>
     <i type="int" name="MAXMIX">   -45</i>
     <i name="WC">    100.00000000</i>
     <i type="int" name="INIMIX">     1</i>
     <i type="int" name="MIXPRE">     1</i>
     <i type="int" name="MREMOVE">     5</i>
    </separator>
   </separator>
   <separator name="electronic dipolcorrection" >
    <i type="logical" name="LDIPOL"> F  </i>
    <i type="logical" name="LMONO"> F  </i>
    <i type="int" name="IDIPOL">     0</i>
    <i name="EPSILON">      1.00000000</i>
    <v name="DIPOL">   -100.00000000   -100.00000000   -100.00000000</v>
    <i name="EFIELD">      0.00000000</i>
   </separator>
  </separator>
  <separator name="grids" >
   <i type="int" name="NGX">    18</i>
   <i type="int" name="NGY">    18</i>
   <i type="int" name="NGZ">    18</i>
   <i type="int" name="NGXF">    36</i>
   <i type="int" name="NGYF">    36</i>
   <i type="int" name="NGZF">    36</i>
   <i type="logical" name="ADDGRID"> F  </i>
  </separator>
  <separator name="ionic" >
   <i type="int" name="NSW">    15</i>
   <i type="int" name="IBRION">     2</i>
   <i type="int" name="MDALGO">     0</i>
   <i type="int" name="ISIF">     2</i>
   <i name="PSTRESS">      0.00000000</i>
   <i name="EDIFFG">     -0.01000000</i>
   <i type="int" name="NFREE">     1</i>
   <i name="POTIM">      0.50000000</i>
   <i name="SMASS">     -3.00000000</i>
   <i name="SCALEE">      1.00000000</i>
  </separator>
  <separator name="ionic md" >
   <i name="TEBEG">      0.00010000</i>
   <i name="TEEND">      0.00010000</i>
   <i type="int" name="NBLOCK">     1</i>
   <i type="int" name="KBLOCK">    15</i>
   <i type="int" name="NPACO">   256</i>
   <i name="APACO">     16.00000000</i>
  </separator>
  <separator name="symmetry" >
   <i type="int" name="ISYM">     2</i>
   <i name="SYMPREC">      0.00001000</i>
  </separator>
  <separator name="dos" >
   <i type="int" name="LORBIT">     0</i>
   <v name="RWIGS">     -1.00000000</v>
   <i type="int" name="NEDOS">   301</i>
   <i name="EMIN">     10.00000000</i>
   <i name="EMAX">    -10.00000000</i>
   <i name="EFERMI">      0.00000000</i>
  </separator>
  <separator name="writing" >
   <i type="int" name="NWRITE">     2</i>
   <i type="logical" name="LWAVE"> T  </i>
   <i type="logical" name="LDOWNSAMPLE"> F  </i>
   <i type="logical" name="LCHARG"> T  </i>
   <i type="logical" name="LPARD"> F  </i>
   <i type="logical" name="LVTOT"> F  </i>
   <i type="logical" name="LVHAR"> F  </i>
   <i type="logical" name="LELF"> F  </i>
   <i type="logical" name="LOPTICS"> F  </i>
   <v name="STM">      0.00000000      0.00000000      0.00000000      0.00000000      0.00000000      0.00000000      0.00000000</v>
  </separator>
  <separator name="performance" >
   <i type="int" name="NPAR">     8</i>
   <i type="int" name="NSIM">     4</i>
   <i type="int" name="NBLK">    -1</i>
   <i type="logical" name="LPLANE"> T  </i>
   <i type="logical" name="LSCALAPACK"> T  </i>
   <i type="logical" name="LSCAAWARE"> F  </i>
   <i type="logical" name="LSCALU"> F  </i>
   <i type="logical" name="LASYNC"> F  </i>
   <i type="logical" name="LORBITALREAL"> F  </i>
  </separator>
  <separator name="miscellaneous" >
   <i type="int" name="IDIOT">     3</i>
   <i type="int" name="ISPECIAL">     0</i>
   <i type="logical" name="LMUSIC"> F  </i>
   <v name="POMASS">     28.08500000</v>
   <v name="DARWINR">      0.00000000</v>
   <v name="DARWINV">      1.00000000</v>
   <i type="logical" name="LCORR"> T  </i>
  </separator>
  <i type="logical" name="GGA_COMPAT"> T  </i>
  <i type="logical" name="LBERRY"> F  </i>
  <i type="int" name="ICORELEVEL">     0</i>
  <i type="logical" name="LDAU"> F  </i>
  <i type="int" name="I_CONSTRAINED_M">     0</i>
  <separator name="electronic exchange-correlation" >
   <i type="string" name="GGA">--</i>
   <i type="int" name="VOSKOWN">     0</i>
   <i type="logical" name="LHFCALC"> F  </i>
   <i type="string" name="PRECFOCK"></i>
   <i type="logical" name="LSYMGRAD"> F  </i>
   <i type="logical" name="LHFONE"> F  </i>
   <i type="logical" name="LRHFCALC"> F  </i>
   <i type="logical" name="LTHOMAS"> F  </i>
   <i type="logical" name="LMODELHF"> F  </i>
   <i name="ENCUT4O">     -1.00000000</i>
   <i type="int" name="EXXOEP">     0</i>
   <i type="int" name="FOURORBIT">     0</i>
   <i name="AEXX">      0.00000000</i>
   <i name="HFALPHA">      0.00000000</i>
   <i name="MCALPHA">      0.00000000</i>
   <i name="ALDAX">      1.00000000</i>
   <i name="AGGAX">      1.00000000</i>
   <i name="ALDAC">      1.00000000</i>
   <i name="AGGAC">      1.00000000</i>
   <i type="int" name="NKREDX">     1</i>
   <i type="int" name="NKREDY">     1</i>
   <i type="int" name="NKREDZ">     1</i>
   <i type="logical" name="SHIFTRED"> F  </i>
   <i type="logical" name="ODDONLY"> F  </i>
   <i type="logical" name="EVENONLY"> F  </i>
   <i type="int" name="LMAXFOCK">     0</i>
   <i type="int" name="NMAXFOCKAE">     0</i>
   <i type="logical" name="LFOCKAEDFT"> F  </i>
   <i name="HFSCREEN">      0.00000000</i>
   <i name="HFSCREENC">      0.00000000</i>
   <i type="int" name="NBANDSGWLOW">     0</i>
  </separator>
  <separator name="vdW DFT" >
   <i type="logical" name="LUSE_VDW"> F  </i>
   <i name="Zab_VDW">     -0.84910000</i>
   <i name="PARAM1">      0.12340000</i>
   <i name="PARAM2">      1.00000000</i>
   <i name="PARAM3">      0.00000000</i>
  </separator>
  <separator name="model GW" >
   <i type="int" name="MODEL_GW">     0</i>
   <i name="MODEL_EPS0">     10.71307573</i>
   <i name="MODEL_ALPHA">      1.00000000</i>
  </separator>
  <separator name="linear response parameters" >
   <i type="logical" name="LEPSILON"> F  </i>
   <i type="logical" name="LRPA"> F  </i>
   <i type="logical" name="LNABLA"> F  </i>
   <i type="logical" name="LVEL"> F  </i>
   <i type="int" name="KINTER">     0</i>
   <i name="CSHIFT">      0.10000000</i>
   <i name="OMEGAMAX">     -1.00000000</i>
   <i name="DEG_THRESHOLD">      0.00200000</i>
   <i name="RTIME">     -0.10000000</i>
   <i name="WPLASMAI">      0.00000000</i>
   <v name="DFIELD">      0.00000000      0.00000000      0.00000000</v>
   <v name="WPLASMA">      0.00000000      0.00000000      0.00000000      0.00000000      0.00000000      0.00000000      0.00000000      0.00000000      0.00000000</v>
  </separator>
  <separator name="orbital magnetization" >
   <i type="logical" name="NUCIND"> F  </i>
   <v name="MAGPOS">      0.00000000      0.00000000      0.00000000</v>
   <i type="logical" name="LNICSALL"> T  </i>
   <i type="logical" name="ORBITALMAG"> F  </i>
   <i type="logical" name="LMAGBLOCH"> F  </i>
   <i type="logical" name="LCHIMAG"> F  </i>
   <i type="logical" name="LGAUGE"> T  </i>
   <i type="int" name="MAGATOM">     0</i>
   <v name="MAGDIPOL">      0.00000000      0.00000000      0.00000000</v>
   <v name="AVECCONST">      0.00000000      0.00000000      0.00000000</v>
  </separator>
  <separator name="response functions" >
   <i type="logical" name="LADDER"> F  </i>
   <i type="logical" name="LRPAFORCE"> F  </i>
   <i type="logical" name="LFXC"> F  </i>
   <i type="logical" name="LHARTREE"> T  </i>
   <i type="int" name="IBSE">     0</i>
   <v type="int" name="KPOINT">    -1     0     0     0</v>
   <i type="logical" name="LTCTE"> F  </i>
   <i type="logical" name="LTETE"> F  </i>
   <i type="logical" name="LTRIPLET"> F  </i>
   <i type="logical" name="LFXCEPS"> F  </i>
   <i type="logical" name="LFXHEG"> F  </i>
   <i type="int" name="NATURALO">     2</i>
   <i type="logical" name="L2ORDER"> F  </i>
   <i type="logical" name="LMP2LT"> F  </i>
   <i type="logical" name="LUSEW"> F  </i>
   <i name="ENCUTGW">     -2.00000000</i>
   <i name="ENCUTGWSOFT">     -2.00000000</i>
   <i name="ENCUTLF">     -1.00000000</i>
   <i type="int" name="LMAXMP2">    -1</i>
   <i name="SCISSOR">      0.00000000</i>
   <i type="int" name="NOMEGA">     0</i>
   <i type="int" name="NOMEGAR">     0</i>
   <i type="int" name="NBANDSGW">    -1</i>
   <i type="int" name="NBANDSO">    -1</i>
   <i type="int" name="NBANDSV">    -1</i>
   <i type="int" name="NELM">     1</i>
   <i type="int" name="NELMHF">     1</i>
   <i type="int" name="DIM">     3</i>
   <i type="int" name="ANTIRES">     0</i>
   <i name="OMEGAMAX">    -30.00000000</i>
   <i name="OMEGAMIN">    -30.00000000</i>
   <i name="OMEGATL">   -200.00000000</i>
   <i type="int" name="OMEGAGRID">   140</i>
   <i name="CSHIFT">     -0.10000000</i>
   <i type="logical" name="SELFENERGY"> F  </i>
   <i type="logical" name="LSPECTRAL"> F  </i>
   <i type="logical" name="LSPECTRALGW"> F  </i>
   <i type="logical" name="LSINGLES"> F  </i>
   <i type="logical" name="LFERMIGW"> F  </i>
   <i type="logical" name="ODDONLYGW"> F  </i>
   <i type="logical" name="EVENONLYGW"> F  </i>
   <i type="int" name="NKREDLFX">     1</i>
   <i type="int" name="NKREDLFY">     1</i>
   <i type="int" name="NKREDLFZ">     1</i>
   <i type="int" name="MAXMEM">  2800</i>
   <i type="int" name="TELESCOPE">     0</i>
   <i type="int" name="TAUPAR">     1</i>
   <i type="int" name="OMEGAPAR">    -1</i>
   <i name="LAMBDA">      1.00000000</i>
  </separator>
  <separator name="External order field" >
   <i name="OFIELD_KAPPA">      0.00000000</i>
   <v name="OFIELD_K">      0.00000000      0.00000000      0.00000000</v>
   <i name="OFIELD_Q6_NEAR">      0.00000000</i>
   <i name="OFIELD_Q6_FAR">      0.00000000</i>
   <i name="OFIELD_A">      0.00000000</i>
  </separator>
 </parameters>
 <atominfo>
  <atoms>       2 </atoms>
  <types>       1 </types>
  <array name="atoms" >
   <dimension dim="1">ion</dimension>
   <field type="string">element</field>
   <field type="int">atomtype</field>
   <set>
    <rc><c>Si</c><c>   1</c></rc>
    <rc><c>Si</c><c>   1</c></rc>
   </set>
  </array>
  <array name="atomtypes" >
   <dimension dim="1">type</dimension>
   <field type="int">atomspertype</field>
   <field type="string">element</field>
   <field>mass</field>
   <field>valence</field>
   <field type="string">pseudopotential</field>
   <set>
    <rc><c>   2</c><c>Si</c><c>     28.08500000</c><c>      4.00000000</c><c> PAW_PBE Si 05Jan2001                   </c></rc>
   </set>
  </array>
 </atominfo>
 <structure name="initialpos" >
  <crystal>
   <varray name="basis" >
    <v>      -2.50105700       2.50105700       1.42720300 </v>
    <v>       2.50105700      -2.50105700       1.42720300 </v>
    <v>       2.50105700       2.50105700      -1.42720300 </v>
   </varray>
   <i name="volume">     35.71025245 </i>
   <varray name="rec_basis" >
    <v>       0.00000000       0.19991548       0.35033559 </v>
    <v>       0.19991548       0.00000000       0.35033559 </v>
    <v>       0.19991548       0.19991548      -0.00000000 </v>
   </varray>
  </crystal>
  <varray name="positions" >
   <v>       0.00000000       0.00000000       0.00000000 </v>
   <v>       0.25000000       0.75000000       0.50000000 </v>
  </varray>
 </structure>
 <calculation>
  <scstep>
   <time name="dav">    0.73    0.73</time>
   <time name="total">    0.77    0.79</time>
   <energy>
    <i name="alphaZ">      3.77069061 </i>
    <i name="ewald">   -251.84804165 </i>
    <i name="hartreedc">     -3.37721982 </i>
    <i name="XCdc">    -18.55634408 </i>
    <i name="pawpsdc">     65.95520812 </i>
    <i name="pawaedc">    -30.76852678 </i>
    <i name="eentropy">     -0.00842468 </i>
    <i name="bandstr">     29.93144156 </i>
    <i name="atom">    206.13125414 </i>
    <i name="e_fr_energy">      1.23003740 </i>
    <i name="e_wo_entrp">      1.23846209 </i>
    <i name="e_0_energy">      1.23424974 </i>
   </energy>
  </scstep>
  <scstep>
   <time name="dav">    1.10    1.11</time>
   <time name="total">    1.10    1.11</time>
   <energy>
    <i name="e_fr_energy">     -9.96649110 </i>
    <i name="e_wo_entrp">     -9.95037949 </i>
    <i name="e_0_energy">     -9.95843529 </i>
   </energy>
  </scstep>
  <scstep>
   <time name="dav">    0.96    0.96</time>
   <time name="total">    0.96    0.97</time>
   <energy>
    <i name="e_fr_energy">    -10.08974419 </i>
    <i name="e_wo_entrp">    -10.07105210 </i>
    <i name="e_0_energy">    -10.08039814 </i>
   </energy>
  </scstep>
  <scstep>
   <time name="dav">    1.08    1.09</time>
   <time name="total">    1.08    1.09</time>
   <energy>
    <i name="e_fr_energy">    -10.09008142 </i>
    <i name="e_wo_entrp">    -10.07138496 </i>
    <i name="e_0_energy">    -10.08073319 </i>
   </energy>
  </scstep>
  <scstep>
   <time name="dav">    0.96    0.96</time>
   <time name="total">    1.02    1.03</time>
   <energy>
    <i name="e_fr_energy">    -10.09008182 </i>
    <i name="e_wo_entrp">    -10.07138535 </i>
    <i name="e_0_energy">    -10.08073358 </i>
   </energy>
  </scstep>
  <scstep>
   <time name="dav">    0.94    0.94</time>
   <time name="total">    1.04    1.05</time>
   <energy>
    <i name="e_fr_energy">    -10.08255017 </i>
    <i name="e_wo_entrp">    -10.06380546 </i>
    <i name="e_0_energy">    -10.07317782 </i>
   </energy>
  </scstep>
  <scstep>
   <time name="dav">    0.90    0.90</time>
   <time name="total">    1.00    1.01</time>
   <energy>
    <i name="e_fr_energy">    -10.07810065 </i>
    <i name="e_wo_entrp">    -10.05924741 </i>
    <i name="e_0_energy">    -10.06867403 </i>
   </energy>
  </scstep>
  <scstep>
   <time name="dav">    0.65    0.64</time>
   <time name="total">    0.68    0.69</time>
   <energy>
    <i name="alphaZ">      3.77069061 </i>
    <i name="ewald">   -251.84804165 </i>
    <i name="hartreedc">     -3.39000457 </i>
    <i name="XCdc">    -18.40088738 </i>
    <i name="pawpsdc">     67.44174675 </i>
    <i name="pawaedc">    -32.27809104 </i>
    <i name="eentropy">     -0.01884867 </i>
    <i name="bandstr">     18.51413233 </i>
    <i name="atom">    206.13125414 </i>
    <i name="e_fr_energy">    -10.07804948 </i>
    <i name="e_wo_entrp">    -10.05920081 </i>
    <i name="e_0_energy">    -10.06862514 </i>
   </energy>
  </scstep>
  <structure>
   <crystal>
    <varray name="basis" >
     <v>      -2.50105700       2.50105700       1.42720300 </v>
     <v>       2.50105700      -2.50105700       1.42720300 </v>
     <v>       2.50105700       2.50105700      -1.42720300 </v>
    </varray>
    <i name="volume">     35.71025245 </i>
    <varray name="rec_basis" >
     <v>       0.00000000       0.19991548       0.35033559 </v>
     <v>       0.19991548       0.00000000       0.35033559 </v>
     <v>       0.19991548       0.19991548      -0.00000000 </v>
    </varray>
   </crystal>
   <varray name="positions" >
    <v>       0.00000000       0.00000000       0.00000000 </v>
    <v>       0.25000000       0.75000000       0.50000000 </v>
   </varray>
  </structure>
  <varray name="forces" >
   <v>       0.00000000       0.00000000       0.00000000 </v>
   <v>      -0.00000000      -0.00000000      -0.00000000 </v>
  </varray>
  <varray name="stress" >
   <v>    -115.79436675       0.00000000       0.00000000 </v>
   <v>       0.00000000    -115.79436675       0.00000000 </v>
   <v>      -0.00000000      -0.00000000    -102.51205089 </v>
  </varray>
  <energy>
   <i name="e_fr_energy">    -10.07804948 </i>
   <i name="e_wo_entrp">    -10.06862514 </i>
   <i name="e_0_energy">     -0.01884867 </i>
  </energy>
  <time name="totalsc">    9.27    9.89</time>
  <eigenvalues>
   <array>
    <dimension dim="1">band</dimension>
    <dimension dim="2">kpoint</dimension>
    <dimension dim="3">spin</dimension>
    <field>eigene</field>
    <field>occ</field>
    <set>
     <set comment="spin 1">
      <set comment="kpoint 1">
       <r>   -4.7160    1.0000 </r>
       <r>    3.3600    1.0000 </r>
       <r>    5.6180    1.0000 </r>
       <r>    6.9182    0.9902 </r>
       <r>   10.7610    0.0000 </r>
       <r>   11.4864    0.0000 </r>
       <r>   11.9854    0.0000 </r>
       <r>   14.0608    0.0000 </r>
      </set>
      <set comment="kpoint 2">
       <r>   -3.6436    1.0000 </r>
       <r>    3.0463    1.0000 </r>
       <r>    5.7777    1.0000 </r>
       <r>    7.6541    0.0020 </r>
       <r>    8.8403    0.0000 </r>
       <r>    9.2054    0.0000 </r>
       <r>   11.9820    0.0000 </r>
       <r>   12.6092    0.0000 </r>
      </set>
      <set comment="kpoint 3">
       <r>   -1.8995    1.0000 </r>
       <r>    2.9807    1.0000 </r>
       <r>    4.4121    1.0000 </r>
       <r>    5.9844    1.0000 </r>
       <r>    7.0488    0.9207 </r>
       <r>   10.2804    0.0000 </r>
       <r>   11.0507    0.0000 </r>
       <r>   11.9578    0.0000 </r>
      </set>
      <set comment="kpoint 4">
       <r>   -0.0642    1.0000 </r>
       <r>    1.2614    1.0000 </r>
       <r>    4.3333    1.0000 </r>
       <r>    5.1215    1.0000 </r>
       <r>    6.9050    0.9924 </r>
       <r>    9.3901    0.0000 </r>
       <r>   11.1798    0.0000 </r>
       <r>   12.2829    0.0000 </r>
      </set>
      <set comment="kpoint 5">
       <r>   -5.0763    1.0000 </r>
       <r>    3.9002    1.0000 </r>
       <r>    4.9286    1.0000 </r>
       <r>    6.5968    1.0000 </r>
       <r>   10.0533    0.0000 </r>
       <r>   12.9653    0.0000 </r>
       <r>   14.4696    0.0000 </r>
       <r>   14.9375    0.0000 </r>
      </set>
      <set comment="kpoint 6">
       <r>   -2.0676    1.0000 </r>
       <r>    3.0949    1.0000 </r>
       <r>    4.9865    1.0000 </r>
       <r>    5.3748    1.0000 </r>
       <r>    8.1597    0.0000 </r>
       <r>    9.6352    0.0000 </r>
       <r>   11.3079    0.0000 </r>
       <r>   11.5119    0.0000 </r>
      </set>
      <set comment="kpoint 7">
       <r>   -0.0419    1.0000 </r>
       <r>    1.7853    1.0000 </r>
       <r>    3.1251    1.0000 </r>
       <r>    4.6978    1.0000 </r>
       <r>    8.2466    0.0000 </r>
       <r>    9.9438    0.0000 </r>
       <r>   11.0642    0.0000 </r>
       <r>   12.8610    0.0000 </r>
      </set>
      <set comment="kpoint 8">
       <r>   -1.0565    1.0000 </r>
       <r>    1.5101    1.0000 </r>
       <r>    3.6813    1.0000 </r>
       <r>    5.8786    1.0000 </r>
       <r>    7.6762    0.0012 </r>
       <r>   10.2288    0.0000 </r>
       <r>   12.0029    0.0000 </r>
       <r>   12.4781    0.0000 </r>
      </set>
      <set comment="kpoint 9">
       <r>   -2.9435    1.0000 </r>
       <r>    1.1392    1.0000 </r>
       <r>    6.1538    1.0000 </r>
       <r>    7.2769    0.4192 </r>
       <r>    8.5832    0.0000 </r>
       <r>    9.9391    0.0000 </r>
       <r>   11.1533    0.0000 </r>
       <r>   13.1425    0.0000 </r>
      </set>
      <set comment="kpoint 10">
       <r>   -4.1851    1.0000 </r>
       <r>    1.3003    1.0000 </r>
       <r>    6.0837    1.0000 </r>
       <r>    7.8783    0.0000 </r>
       <r>   10.2712    0.0000 </r>
       <r>   11.5257    0.0000 </r>
       <r>   12.6858    0.0000 </r>
       <r>   12.9827    0.0000 </r>
      </set>
      <set comment="kpoint 11">
       <r>   -4.7214    1.0000 </r>
       <r>    2.0681    1.0000 </r>
       <r>    5.0139    1.0000 </r>
       <r>    7.8233    0.0000 </r>
       <r>   11.2321    0.0000 </r>
       <r>   11.7946    0.0000 </r>
       <r>   13.9569    0.0000 </r>
       <r>   14.2059    0.0000 </r>
      </set>
      <set comment="kpoint 12">
       <r>   -4.5391    1.0000 </r>
       <r>    3.0311    1.0000 </r>
       <r>    4.4566    1.0000 </r>
       <r>    8.2991    0.0000 </r>
       <r>   10.6869    0.0000 </r>
       <r>   11.4552    0.0000 </r>
       <r>   11.8224    0.0000 </r>
       <r>   13.2629    0.0000 </r>
      </set>
      <set comment="kpoint 13">
       <r>    0.0212    1.0000 </r>
       <r>    0.1795    1.0000 </r>
       <r>    3.4689    1.0000 </r>
       <r>    5.7942    1.0000 </r>
       <r>    8.4922    0.0000 </r>
       <r>    9.1216    0.0000 </r>
       <r>   12.9023    0.0000 </r>
       <r>   13.5180    0.0000 </r>
      </set>
      <set comment="kpoint 14">
       <r>   -1.9020    1.0000 </r>
       <r>   -0.5322    1.0000 </r>
       <r>    6.3738    1.0000 </r>
       <r>    7.2028    0.6255 </r>
       <r>    8.6464    0.0000 </r>
       <r>    9.8036    0.0000 </r>
       <r>   10.9414    0.0000 </r>
       <r>   12.2086    0.0000 </r>
      </set>
      <set comment="kpoint 15">
       <r>   -3.3052    1.0000 </r>
       <r>   -0.5395    1.0000 </r>
       <r>    6.8445    0.9978 </r>
       <r>    8.8404    0.0000 </r>
       <r>    9.0759    0.0000 </r>
       <r>   11.1816    0.0000 </r>
       <r>   11.5562    0.0000 </r>
       <r>   11.7884    0.0000 </r>
      </set>
      <set comment="kpoint 16">
       <r>   -4.0143    1.0000 </r>
       <r>    0.1219    1.0000 </r>
       <r>    5.6468    1.0000 </r>
       <r>    8.7628    0.0000 </r>
       <r>    9.4602    0.0000 </r>
       <r>   12.5413    0.0000 </r>
       <r>   13.8651    0.0000 </r>
       <r>   14.3133    0.0000 </r>
      </set>
      <set comment="kpoint 17">
       <r>   -4.0098    1.0000 </r>
       <r>    1.3939    1.0000 </r>
       <r>    4.5193    1.0000 </r>
       <r>    9.0971    0.0000 </r>
       <r>    9.6431    0.0000 </r>
       <r>   10.9948    0.0000 </r>
       <r>   12.7274    0.0000 </r>
       <r>   13.6543    0.0000 </r>
      </set>
      <set comment="kpoint 18">
       <r>   -3.2943    1.0000 </r>
       <r>    2.7889    1.0000 </r>
       <r>    4.4059    1.0000 </r>
       <r>    6.8187    0.9988 </r>
       <r>    9.4126    0.0000 </r>
       <r>   10.9229    0.0000 </r>
       <r>   11.3037    0.0000 </r>
       <r>   11.8716    0.0000 </r>
      </set>
      <set comment="kpoint 19">
       <r>   -2.0849    1.0000 </r>
       <r>   -2.0849    1.0000 </r>
       <r>    7.8645    0.0000 </r>
       <r>    7.8645    0.0000 </r>
       <r>   10.0389    0.0000 </r>
       <r>   10.0389    0.0000 </r>
       <r>   11.3343    0.0000 </r>
       <r>   11.3343    0.0000 </r>
      </set>
      <set comment="kpoint 20">
       <r>   -2.9615    1.0000 </r>
       <r>   -1.5750    1.0000 </r>
       <r>    6.6181    1.0000 </r>
       <r>    7.8998    0.0000 </r>
       <r>    9.8242    0.0000 </r>
       <r>   11.1007    0.0000 </r>
       <r>   13.7766    0.0000 </r>
       <r>   13.9065    0.0000 </r>
      </set>
      <set comment="kpoint 21">
       <r>   -3.1331    1.0000 </r>
       <r>   -0.3898    1.0000 </r>
       <r>    5.2749    1.0000 </r>
       <r>    7.7577    0.0002 </r>
       <r>    9.7303    0.0000 </r>
       <r>   11.0781    0.0000 </r>
       <r>   12.4456    0.0000 </r>
       <r>   13.6469    0.0000 </r>
      </set>
      <set comment="kpoint 22">
       <r>   -2.5998    1.0000 </r>
       <r>    1.3658    1.0000 </r>
       <r>    4.4989    1.0000 </r>
       <r>    6.2122    1.0000 </r>
       <r>    8.4130    0.0000 </r>
       <r>   10.4452    0.0000 </r>
       <r>   12.2940    0.0000 </r>
       <r>   13.1782    0.0000 </r>
      </set>
      <set comment="kpoint 23">
       <r>   -1.4002    1.0000 </r>
       <r>    2.4760    1.0000 </r>
       <r>    4.2261    1.0000 </r>
       <r>    4.8554    1.0000 </r>
       <r>    7.5302    0.0230 </r>
       <r>   10.0851    0.0000 </r>
       <r>   10.2113    0.0000 </r>
       <r>   13.0057    0.0000 </r>
      </set>
      <set comment="kpoint 24">
       <r>   -1.9272    1.0000 </r>
       <r>   -1.9116    1.0000 </r>
       <r>    6.3287    1.0000 </r>
       <r>    6.4353    1.0000 </r>
       <r>    9.6683    0.0000 </r>
       <r>   11.5788    0.0000 </r>
       <r>   12.4361    0.0000 </r>
       <r>   12.7481    0.0000 </r>
      </set>
      <set comment="kpoint 25">
       <r>   -1.5700    1.0000 </r>
       <r>   -0.2241    1.0000 </r>
       <r>    5.1103    1.0000 </r>
       <r>    6.0075    1.0000 </r>
       <r>    7.1402    0.7773 </r>
       <r>   10.0877    0.0000 </r>
       <r>   13.3929    0.0000 </r>
       <r>   14.3492    0.0000 </r>
      </set>
      <set comment="kpoint 26">
       <r>   -0.5915    1.0000 </r>
       <r>    1.6539    1.0000 </r>
       <r>    3.1978    1.0000 </r>
       <r>    5.2869    1.0000 </r>
       <r>    7.2881    0.3886 </r>
       <r>    8.9077    0.0000 </r>
       <r>   11.4099    0.0000 </r>
       <r>   14.3346    0.0000 </r>
      </set>
      <set comment="kpoint 27">
       <r>   -0.3583    1.0000 </r>
       <r>    1.5738    1.0000 </r>
       <r>    4.9264    1.0000 </r>
       <r>    5.5788    1.0000 </r>
       <r>    6.1488    1.0000 </r>
       <r>    9.0316    0.0000 </r>
       <r>    9.8628    0.0000 </r>
       <r>   13.4366    0.0000 </r>
      </set>
      <set comment="kpoint 28">
       <r>    0.3005    1.0000 </r>
       <r>    0.7057    1.0000 </r>
       <r>    2.8146    1.0000 </r>
       <r>    6.0601    1.0000 </r>
       <r>    6.5243    1.0000 </r>
       <r>    8.4926    0.0000 </r>
       <r>   13.1584    0.0000 </r>
       <r>   13.6262    0.0000 </r>
      </set>
      <set comment="kpoint 29">
       <r>   -0.6046    1.0000 </r>
       <r>    2.4380    1.0000 </r>
       <r>    3.7423    1.0000 </r>
       <r>    5.8951    1.0000 </r>
       <r>    6.8105    0.9990 </r>
       <r>    8.4304    0.0000 </r>
       <r>   10.2768    0.0000 </r>
       <r>   12.3710    0.0000 </r>
      </set>
      <set comment="kpoint 30">
       <r>   -2.4117    1.0000 </r>
       <r>    4.1591    1.0000 </r>
       <r>    5.7649    1.0000 </r>
       <r>    5.8658    1.0000 </r>
       <r>    6.7516    0.9998 </r>
       <r>    9.5678    0.0000 </r>
       <r>    9.6042    0.0000 </r>
       <r>   11.8628    0.0000 </r>
      </set>
      <set comment="kpoint 31">
       <r>   -2.5834    1.0000 </r>
       <r>    4.8270    1.0000 </r>
       <r>    5.6227    1.0000 </r>
       <r>    6.2406    1.0000 </r>
       <r>    7.2924    0.3771 </r>
       <r>    8.3181    0.0000 </r>
       <r>   10.3355    0.0000 </r>
       <r>   10.4881    0.0000 </r>
      </set>
      <set comment="kpoint 32">
       <r>   -3.9952    1.0000 </r>
       <r>    4.8347    1.0000 </r>
       <r>    5.7264    1.0000 </r>
       <r>    7.3471    0.2419 </r>
       <r>    8.8066    0.0000 </r>
       <r>    9.2591    0.0000 </r>
       <r>   10.9093    0.0000 </r>
       <r>   12.1351    0.0000 </r>
      </set>
      <set comment="kpoint 33">
       <r>   -4.8934    1.0000 </r>
       <r>    5.3625    1.0000 </r>
       <r>    5.4614    1.0000 </r>
       <r>    5.4614    1.0000 </r>
       <r>    9.8360    0.0000 </r>
       <r>   12.0145    0.0000 </r>
       <r>   12.2622    0.0000 </r>
       <r>   14.2378    0.0000 </r>
      </set>
      <set comment="kpoint 34">
       <r>   -1.2161    1.0000 </r>
       <r>    1.4170    1.0000 </r>
       <r>    4.6046    1.0000 </r>
       <r>    4.7790    1.0000 </r>
       <r>    9.1659    0.0000 </r>
       <r>   10.6804    0.0000 </r>
       <r>   11.9923    0.0000 </r>
       <r>   12.3230    0.0000 </r>
      </set>
      <set comment="kpoint 35">
       <r>    0.5786    1.0000 </r>
       <r>    1.4540    1.0000 </r>
       <r>    2.7810    1.0000 </r>
       <r>    3.5558    1.0000 </r>
       <r>    9.8397    0.0000 </r>
       <r>   11.7682    0.0000 </r>
       <r>   11.8770    0.0000 </r>
       <r>   12.1345    0.0000 </r>
      </set>
      <set comment="kpoint 36">
       <r>   -4.3684    1.0000 </r>
       <r>    1.8258    1.0000 </r>
       <r>    3.4709    1.0000 </r>
       <r>    9.3301    0.0000 </r>
       <r>    9.7723    0.0000 </r>
       <r>   12.8220    0.0000 </r>
       <r>   13.7049    0.0000 </r>
       <r>   13.8679    0.0000 </r>
      </set>
      <set comment="kpoint 37">
       <r>   -0.0440    1.0000 </r>
       <r>   -0.0440    1.0000 </r>
       <r>    4.5266    1.0000 </r>
       <r>    4.5266    1.0000 </r>
       <r>   10.3848    0.0000 </r>
       <r>   10.3848    0.0000 </r>
       <r>   11.8203    0.0000 </r>
       <r>   11.8203    0.0000 </r>
      </set>
      <set comment="kpoint 38">
       <r>   -3.6661    1.0000 </r>
       <r>    0.3639    1.0000 </r>
       <r>    3.6147    1.0000 </r>
       <r>    7.4570    0.0698 </r>
       <r>   11.0395    0.0000 </r>
       <r>   13.0635    0.0000 </r>
       <r>   13.5540    0.0000 </r>
       <r>   15.1584    0.0000 </r>
      </set>
      <set comment="kpoint 39">
       <r>   -3.4858    1.0000 </r>
       <r>    1.2896    1.0000 </r>
       <r>    3.0417    1.0000 </r>
       <r>    7.5138    0.0302 </r>
       <r>    9.5348    0.0000 </r>
       <r>   12.1759    0.0000 </r>
       <r>   13.6543    0.0000 </r>
       <r>   14.4036    0.0000 </r>
      </set>
      <set comment="kpoint 40">
       <r>   -2.6231    1.0000 </r>
       <r>   -1.2590    1.0000 </r>
       <r>    4.5346    1.0000 </r>
       <r>    5.8377    1.0000 </r>
       <r>   11.9044    0.0000 </r>
       <r>   12.5206    0.0000 </r>
       <r>   13.6426    0.0000 </r>
       <r>   14.3163    0.0000 </r>
      </set>
      <set comment="kpoint 41">
       <r>   -2.6208    1.0000 </r>
       <r>    0.0127    1.0000 </r>
       <r>    3.3079    1.0000 </r>
       <r>    5.8141    1.0000 </r>
       <r>    9.0737    0.0000 </r>
       <r>   13.2944    0.0000 </r>
       <r>   14.0399    0.0000 </r>
       <r>   15.6524    0.0000 </r>
      </set>
      <set comment="kpoint 42">
       <r>   -1.9191    1.0000 </r>
       <r>    1.3953    1.0000 </r>
       <r>    3.2365    1.0000 </r>
       <r>    5.4225    1.0000 </r>
       <r>    6.8212    0.9987 </r>
       <r>   11.4798    0.0000 </r>
       <r>   13.1686    0.0000 </r>
       <r>   14.4679    0.0000 </r>
      </set>
      <set comment="kpoint 43">
       <r>   -1.4502    1.0000 </r>
       <r>   -1.4165    1.0000 </r>
       <r>    4.3363    1.0000 </r>
       <r>    4.4119    1.0000 </r>
       <r>    8.9130    0.0000 </r>
       <r>   13.4418    0.0000 </r>
       <r>   14.9091    0.0000 </r>
       <r>   15.0687    0.0000 </r>
      </set>
      <set comment="kpoint 44">
       <r>   -0.9229    1.0000 </r>
       <r>    0.3315    1.0000 </r>
       <r>    3.5805    1.0000 </r>
       <r>    4.6290    1.0000 </r>
       <r>    5.7556    1.0000 </r>
       <r>   11.7002    0.0000 </r>
       <r>   14.5417    0.0000 </r>
       <r>   15.5718    0.0000 </r>
      </set>
      <set comment="kpoint 45">
       <r>    0.1023    1.0000 </r>
       <r>    1.5837    1.0000 </r>
       <r>    3.2622    1.0000 </r>
       <r>    4.0431    1.0000 </r>
       <r>    6.0896    1.0000 </r>
       <r>    9.7564    0.0000 </r>
       <r>   11.4204    0.0000 </r>
       <r>   14.5359    0.0000 </r>
      </set>
      <set comment="kpoint 46">
       <r>    0.5912    1.0000 </r>
       <r>    1.4918    1.0000 </r>
       <r>    2.7630    1.0000 </r>
       <r>    4.6524    1.0000 </r>
       <r>    4.8408    1.0000 </r>
       <r>   10.0448    0.0000 </r>
       <r>   12.6803    0.0000 </r>
       <r>   13.1990    0.0000 </r>
      </set>
      <set comment="kpoint 47">
       <r>   -0.9079    1.0000 </r>
       <r>    3.3599    1.0000 </r>
       <r>    4.2900    1.0000 </r>
       <r>    5.3187    1.0000 </r>
       <r>    6.0885    1.0000 </r>
       <r>    8.6574    0.0000 </r>
       <r>   10.2182    0.0000 </r>
       <r>   11.3962    0.0000 </r>
      </set>
      <set comment="kpoint 48">
       <r>   -2.7560    1.0000 </r>
       <r>    6.2962    1.0000 </r>
       <r>    6.3201    1.0000 </r>
       <r>    6.3201    1.0000 </r>
       <r>    6.5517    1.0000 </r>
       <r>    7.4801    0.0505 </r>
       <r>   10.0808    0.0000 </r>
       <r>   10.0808    0.0000 </r>
      </set>
      <set comment="kpoint 49">
       <r>   -2.9756    1.0000 </r>
       <r>    0.4181    1.0000 </r>
       <r>    2.2466    1.0000 </r>
       <r>    5.5353    1.0000 </r>
       <r>   12.1270    0.0000 </r>
       <r>   12.5780    0.0000 </r>
       <r>   14.3319    0.0000 </r>
       <r>   16.5736    0.0000 </r>
      </set>
      <set comment="kpoint 50">
       <r>   -1.9604    1.0000 </r>
       <r>   -0.6844    1.0000 </r>
       <r>    2.6626    1.0000 </r>
       <r>    3.9043    1.0000 </r>
       <r>   12.1491    0.0000 </r>
       <r>   12.2481    0.0000 </r>
       <r>   15.5892    0.0000 </r>
       <r>   16.6005    0.0000 </r>
      </set>
      <set comment="kpoint 51">
       <r>   -1.7847    1.0000 </r>
       <r>    0.2303    1.0000 </r>
       <r>    2.0997    1.0000 </r>
       <r>    4.0577    1.0000 </r>
       <r>    8.5912    0.0000 </r>
       <r>   14.5016    0.0000 </r>
       <r>   15.9573    0.0000 </r>
       <r>   16.4507    0.0000 </r>
      </set>
      <set comment="kpoint 52">
       <r>   -0.7186    1.0000 </r>
       <r>   -0.6585    1.0000 </r>
       <r>    2.6476    1.0000 </r>
       <r>    2.6849    1.0000 </r>
       <r>    8.4278    0.0000 </r>
       <r>   14.6923    0.0000 </r>
       <r>   16.8581    0.0000 </r>
       <r>   17.1459    0.0000 </r>
      </set>
      <set comment="kpoint 53">
       <r>   -0.0378    1.0000 </r>
       <r>    0.7095    1.0000 </r>
       <r>    2.6124    1.0000 </r>
       <r>    3.2824    1.0000 </r>
       <r>    5.1962    1.0000 </r>
       <r>   13.1516    0.0000 </r>
       <r>   14.6925    0.0000 </r>
       <r>   15.6517    0.0000 </r>
      </set>
      <set comment="kpoint 54">
       <r>    0.6869    1.0000 </r>
       <r>    2.1115    1.0000 </r>
       <r>    3.2703    1.0000 </r>
       <r>    3.7513    1.0000 </r>
       <r>    3.7513    1.0000 </r>
       <r>   11.3773    0.0000 </r>
       <r>   12.5121    0.0000 </r>
       <r>   12.5121    0.0000 </r>
      </set>
      <set comment="kpoint 55">
       <r>   -1.0369    1.0000 </r>
       <r>   -0.2929    1.0000 </r>
       <r>    1.6038    1.0000 </r>
       <r>    2.3367    1.0000 </r>
       <r>   11.9564    0.0000 </r>
       <r>   11.9795    0.0000 </r>
       <r>   17.6133    0.0000 </r>
       <r>   18.1420    0.0000 </r>
      </set>
      <set comment="kpoint 56">
       <r>   -0.1721    1.0000 </r>
       <r>   -0.0786    1.0000 </r>
       <r>    1.7773    1.0000 </r>
       <r>    1.7773    1.0000 </r>
       <r>    8.2639    0.0000 </r>
       <r>   15.0192    0.0000 </r>
       <r>   17.5400    0.0000 </r>
       <r>   17.5400    0.0000 </r>
      </set>
     </set>
    </set>
   </array>
  </eigenvalues>
  <separator name="orbital magnetization" >
   <v name="MAGDIPOLOUT">      0.00000000      0.00000000      0.00000000</v>
  </separator>
  <dos>
   <i name="efermi">      7.24811250 </i>
   <total>
    <array>
     <dimension dim="1">gridpoints</dimension>
     <dimension dim="2">spin</dimension>
     <field>energy</field>
     <field>total</field>
     <field>integrated</field>
     <set>
      <set comment="spin 1">
       <r>    -7.0763     0.0000     0.0000 </r>
       <r>    -6.9856     0.0000     0.0000 </r>
       <r>    -6.8949     0.0000     0.0000 </r>
       <r>    -6.8042     0.0000     0.0000 </r>
       <r>    -6.7134     0.0000     0.0000 </r>
       <r>    -6.6227     0.0000     0.0000 </r>
       <r>    -6.5320     0.0000     0.0000 </r>
       <r>    -6.4413     0.0000     0.0000 </r>
       <r>    -6.3505     0.0000     0.0000 </r>
       <r>    -6.2598     0.0000     0.0000 </r>
       <r>    -6.1691     0.0000     0.0000 </r>
       <r>    -6.0783     0.0000     0.0000 </r>
       <r>    -5.9876     0.0000     0.0000 </r>
       <r>    -5.8969     0.0000     0.0000 </r>
       <r>    -5.8062     0.0000     0.0000 </r>
       <r>    -5.7154     0.0000     0.0000 </r>
       <r>    -5.6247     0.0000     0.0000 </r>
       <r>    -5.5340     0.0001     0.0000 </r>
       <r>    -5.4432     0.0007     0.0001 </r>
       <r>    -5.3525     0.0036     0.0004 </r>
       <r>    -5.2618     0.0123     0.0015 </r>
       <r>    -5.1711     0.0292     0.0042 </r>
       <r>    -5.0803     0.0499     0.0087 </r>
       <r>    -4.9896     0.0706     0.0151 </r>
       <r>    -4.8989     0.1012     0.0243 </r>
       <r>    -4.8081     0.1537     0.0382 </r>
       <r>    -4.7174     0.2106     0.0573 </r>
       <r>    -4.6267     0.2334     0.0785 </r>
       <r>    -4.5360     0.2116     0.0977 </r>
       <r>    -4.4452     0.1722     0.1133 </r>
       <r>    -4.3545     0.1484     0.1268 </r>
       <r>    -4.2638     0.1652     0.1418 </r>
       <r>    -4.1731     0.2355     0.1632 </r>
       <r>    -4.0823     0.3374     0.1938 </r>
       <r>    -3.9916     0.4005     0.2301 </r>
       <r>    -3.9009     0.3714     0.2638 </r>
       <r>    -3.8101     0.3034     0.2913 </r>
       <r>    -3.7194     0.2894     0.3176 </r>
       <r>    -3.6287     0.3229     0.3469 </r>
       <r>    -3.5380     0.3319     0.3770 </r>
       <r>    -3.4472     0.3075     0.4049 </r>
       <r>    -3.3565     0.2988     0.4320 </r>
       <r>    -3.2658     0.3249     0.4615 </r>
       <r>    -3.1750     0.3665     0.4947 </r>
       <r>    -3.0843     0.4086     0.5318 </r>
       <r>    -2.9936     0.4367     0.5714 </r>
       <r>    -2.9029     0.4282     0.6103 </r>
       <r>    -2.8121     0.4061     0.6471 </r>
       <r>    -2.7214     0.4470     0.6877 </r>
       <r>    -2.6307     0.5466     0.7372 </r>
       <r>    -2.5400     0.5758     0.7895 </r>
       <r>    -2.4492     0.4628     0.8315 </r>
       <r>    -2.3585     0.2944     0.8582 </r>
       <r>    -2.2678     0.1945     0.8758 </r>
       <r>    -2.1770     0.2289     0.8966 </r>
       <r>    -2.0863     0.4066     0.9335 </r>
       <r>    -1.9956     0.6618     0.9935 </r>
       <r>    -1.9049     0.8388     1.0696 </r>
       <r>    -1.8141     0.8083     1.1430 </r>
       <r>    -1.7234     0.6345     1.2005 </r>
       <r>    -1.6327     0.5049     1.2464 </r>
       <r>    -1.5419     0.4910     1.2909 </r>
       <r>    -1.4512     0.5120     1.3374 </r>
       <r>    -1.3605     0.4929     1.3821 </r>
       <r>    -1.2698     0.4453     1.4225 </r>
       <r>    -1.1790     0.4203     1.4606 </r>
       <r>    -1.0883     0.4431     1.5008 </r>
       <r>    -0.9976     0.4894     1.5452 </r>
       <r>    -0.9069     0.5186     1.5923 </r>
       <r>    -0.8161     0.5478     1.6420 </r>
       <r>    -0.7254     0.6478     1.7007 </r>
       <r>    -0.6347     0.8127     1.7745 </r>
       <r>    -0.5439     0.9156     1.8576 </r>
       <r>    -0.4532     0.8731     1.9368 </r>
       <r>    -0.3625     0.7538     2.0052 </r>
       <r>    -0.2718     0.6765     2.0665 </r>
       <r>    -0.1810     0.7075     2.1307 </r>
       <r>    -0.0903     0.8374     2.2067 </r>
       <r>     0.0004     0.9621     2.2940 </r>
       <r>     0.0912     0.9666     2.3817 </r>
       <r>     0.1819     0.8649     2.4602 </r>
       <r>     0.2726     0.7496     2.5282 </r>
       <r>     0.3633     0.6472     2.5869 </r>
       <r>     0.4541     0.5411     2.6360 </r>
       <r>     0.5448     0.4571     2.6775 </r>
       <r>     0.6355     0.4129     2.7149 </r>
       <r>     0.7262     0.3602     2.7476 </r>
       <r>     0.8170     0.2629     2.7715 </r>
       <r>     0.9077     0.1671     2.7866 </r>
       <r>     0.9984     0.1511     2.8003 </r>
       <r>     1.0892     0.2517     2.8232 </r>
       <r>     1.1799     0.4575     2.8647 </r>
       <r>     1.2706     0.7332     2.9312 </r>
       <r>     1.3613     1.0049     3.0224 </r>
       <r>     1.4521     1.1607     3.1277 </r>
       <r>     1.5428     1.1359     3.2307 </r>
       <r>     1.6335     0.9744     3.3191 </r>
       <r>     1.7243     0.7658     3.3886 </r>
       <r>     1.8150     0.5656     3.4399 </r>
       <r>     1.9057     0.4012     3.4763 </r>
       <r>     1.9964     0.3032     3.5038 </r>
       <r>     2.0872     0.2740     3.5287 </r>
       <r>     2.1779     0.2723     3.5534 </r>
       <r>     2.2686     0.2822     3.5790 </r>
       <r>     2.3594     0.3296     3.6089 </r>
       <r>     2.4501     0.4179     3.6468 </r>
       <r>     2.5408     0.5217     3.6942 </r>
       <r>     2.6315     0.6263     3.7510 </r>
       <r>     2.7223     0.7092     3.8153 </r>
       <r>     2.8130     0.7466     3.8831 </r>
       <r>     2.9037     0.7824     3.9540 </r>
       <r>     2.9944     0.8903     4.0348 </r>
       <r>     3.0852     1.0458     4.1297 </r>
       <r>     3.1759     1.1485     4.2339 </r>
       <r>     3.2666     1.1428     4.3376 </r>
       <r>     3.3574     1.0413     4.4321 </r>
       <r>     3.4481     0.9104     4.5147 </r>
       <r>     3.5388     0.8337     4.5903 </r>
       <r>     3.6295     0.8131     4.6641 </r>
       <r>     3.7203     0.7649     4.7335 </r>
       <r>     3.8110     0.6462     4.7921 </r>
       <r>     3.9017     0.5127     4.8386 </r>
       <r>     3.9925     0.4392     4.8785 </r>
       <r>     4.0832     0.4461     4.9189 </r>
       <r>     4.1739     0.5293     4.9670 </r>
       <r>     4.2646     0.7032     5.0308 </r>
       <r>     4.3554     0.9622     5.1181 </r>
       <r>     4.4461     1.2212     5.2289 </r>
       <r>     4.5368     1.3559     5.3519 </r>
       <r>     4.6275     1.3190     5.4715 </r>
       <r>     4.7183     1.1818     5.5788 </r>
       <r>     4.8090     1.0429     5.6734 </r>
       <r>     4.8997     0.9356     5.7583 </r>
       <r>     4.9905     0.8535     5.8357 </r>
       <r>     5.0812     0.8128     5.9095 </r>
       <r>     5.1719     0.8299     5.9848 </r>
       <r>     5.2626     0.8682     6.0635 </r>
       <r>     5.3534     0.8588     6.1414 </r>
       <r>     5.4441     0.7970     6.2137 </r>
       <r>     5.5348     0.7867     6.2851 </r>
       <r>     5.6256     0.9358     6.3700 </r>
       <r>     5.7163     1.2272     6.4814 </r>
       <r>     5.8070     1.5094     6.6183 </r>
       <r>     5.8977     1.6263     6.7659 </r>
       <r>     5.9885     1.5700     6.9083 </r>
       <r>     6.0792     1.4430     7.0392 </r>
       <r>     6.1699     1.2963     7.1568 </r>
       <r>     6.2606     1.1184     7.2583 </r>
       <r>     6.3514     0.9198     7.3418 </r>
       <r>     6.4421     0.7356     7.4085 </r>
       <r>     6.5328     0.6002     7.4629 </r>
       <r>     6.6236     0.5518     7.5130 </r>
       <r>     6.7143     0.6122     7.5686 </r>
       <r>     6.8050     0.7304     7.6348 </r>
       <r>     6.8957     0.7968     7.7071 </r>
       <r>     6.9865     0.7807     7.7780 </r>
       <r>     7.0772     0.7768     7.8484 </r>
       <r>     7.1679     0.8502     7.9256 </r>
       <r>     7.2587     0.9299     8.0099 </r>
       <r>     7.3494     0.9106     8.0925 </r>
       <r>     7.4401     0.8058     8.1657 </r>
       <r>     7.5308     0.7286     8.2318 </r>
       <r>     7.6216     0.7399     8.2989 </r>
       <r>     7.7123     0.7873     8.3703 </r>
       <r>     7.8030     0.7774     8.4409 </r>
       <r>     7.8937     0.6643     8.5011 </r>
       <r>     7.9845     0.4937     8.5459 </r>
       <r>     8.0752     0.3840     8.5808 </r>
       <r>     8.1659     0.4297     8.6198 </r>
       <r>     8.2567     0.6144     8.6755 </r>
       <r>     8.3474     0.8406     8.7518 </r>
       <r>     8.4381     1.0126     8.8436 </r>
       <r>     8.5288     1.0806     8.9417 </r>
       <r>     8.6196     1.0559     9.0375 </r>
       <r>     8.7103     1.0010     9.1283 </r>
       <r>     8.8010     0.9787     9.2171 </r>
       <r>     8.8918     1.0003     9.3078 </r>
       <r>     8.9825     1.0429     9.4025 </r>
       <r>     9.0732     1.0790     9.5004 </r>
       <r>     9.1639     1.0509     9.5957 </r>
       <r>     9.2547     0.9245     9.6796 </r>
       <r>     9.3454     0.7769     9.7501 </r>
       <r>     9.4361     0.7258     9.8159 </r>
       <r>     9.5269     0.8138     9.8897 </r>
       <r>     9.6176     0.9960     9.9801 </r>
       <r>     9.7083     1.1827    10.0874 </r>
       <r>     9.7990     1.2956    10.2050 </r>
       <r>     9.8898     1.3163    10.3244 </r>
       <r>     9.9805     1.2868    10.4411 </r>
       <r>    10.0712     1.2669    10.5561 </r>
       <r>    10.1619     1.2838    10.6725 </r>
       <r>    10.2527     1.2923    10.7898 </r>
       <r>    10.3434     1.1966    10.8984 </r>
       <r>    10.4341     0.9669    10.9861 </r>
       <r>    10.5249     0.6973    11.0493 </r>
       <r>    10.6156     0.5105    11.0957 </r>
       <r>    10.7063     0.4621    11.1376 </r>
       <r>    10.7970     0.5587    11.1883 </r>
       <r>    10.8878     0.8060    11.2614 </r>
       <r>    10.9785     1.1511    11.3658 </r>
       <r>    11.0692     1.4235    11.4950 </r>
       <r>    11.1600     1.4768    11.6290 </r>
       <r>    11.2507     1.3688    11.7532 </r>
       <r>    11.3414     1.2753    11.8689 </r>
       <r>    11.4321     1.2491    11.9822 </r>
       <r>    11.5229     1.1975    12.0908 </r>
       <r>    11.6136     1.0964    12.1903 </r>
       <r>    11.7043     1.0733    12.2877 </r>
       <r>    11.7950     1.2230    12.3987 </r>
       <r>    11.8858     1.4562    12.5308 </r>
       <r>    11.9765     1.5953    12.6755 </r>
       <r>    12.0672     1.5692    12.8179 </r>
       <r>    12.1580     1.4684    12.9511 </r>
       <r>    12.2487     1.4014    13.0782 </r>
       <r>    12.3394     1.3757    13.2031 </r>
       <r>    12.4301     1.3478    13.3253 </r>
       <r>    12.5209     1.2877    13.4422 </r>
       <r>    12.6116     1.1906    13.5502 </r>
       <r>    12.7023     1.0751    13.6477 </r>
       <r>    12.7931     0.9657    13.7354 </r>
       <r>    12.8838     0.8905    13.8162 </r>
       <r>    12.9745     0.8925    13.8971 </r>
       <r>    13.0652     0.9932    13.9872 </r>
       <r>    13.1560     1.1272    14.0895 </r>
       <r>    13.2467     1.1700    14.1956 </r>
       <r>    13.3374     1.0897    14.2945 </r>
       <r>    13.4281     0.9919    14.3845 </r>
       <r>    13.5189     0.9770    14.4732 </r>
       <r>    13.6096     1.0211    14.5658 </r>
       <r>    13.7003     1.0089    14.6573 </r>
       <r>    13.7911     0.8904    14.7381 </r>
       <r>    13.8818     0.7477    14.8060 </r>
       <r>    13.9725     0.6594    14.8658 </r>
       <r>    14.0632     0.6198    14.9220 </r>
       <r>    14.1540     0.6335    14.9795 </r>
       <r>    14.2447     0.7443    15.0470 </r>
       <r>    14.3354     0.9172    15.1302 </r>
       <r>    14.4262     1.0173    15.2225 </r>
       <r>    14.5169     0.9580    15.3095 </r>
       <r>    14.6076     0.7752    15.3798 </r>
       <r>    14.6983     0.5593    15.4305 </r>
       <r>    14.7891     0.3888    15.4658 </r>
       <r>    14.8798     0.3004    15.4931 </r>
       <r>    14.9705     0.2790    15.5184 </r>
       <r>    15.0612     0.2742    15.5433 </r>
       <r>    15.1520     0.2427    15.5653 </r>
       <r>    15.2427     0.1819    15.5818 </r>
       <r>    15.3334     0.1385    15.5943 </r>
       <r>    15.4242     0.1800    15.6107 </r>
       <r>    15.5149     0.3227    15.6400 </r>
       <r>    15.6056     0.4736    15.6829 </r>
       <r>    15.6963     0.4972    15.7280 </r>
       <r>    15.7871     0.3782    15.7623 </r>
       <r>    15.8778     0.2324    15.7834 </r>
       <r>    15.9685     0.1431    15.7964 </r>
       <r>    16.0593     0.0948    15.8050 </r>
       <r>    16.1500     0.0587    15.8103 </r>
       <r>    16.2407     0.0432    15.8143 </r>
       <r>    16.3314     0.0653    15.8202 </r>
       <r>    16.4222     0.1204    15.8311 </r>
       <r>    16.5129     0.1780    15.8472 </r>
       <r>    16.6036     0.2015    15.8655 </r>
       <r>    16.6944     0.1835    15.8822 </r>
       <r>    16.7851     0.1514    15.8959 </r>
       <r>    16.8758     0.1285    15.9076 </r>
       <r>    16.9665     0.1143    15.9180 </r>
       <r>    17.0573     0.1070    15.9277 </r>
       <r>    17.1480     0.1040    15.9371 </r>
       <r>    17.2387     0.0908    15.9453 </r>
       <r>    17.3294     0.0678    15.9515 </r>
       <r>    17.4202     0.0580    15.9567 </r>
       <r>    17.5109     0.0708    15.9632 </r>
       <r>    17.6016     0.0846    15.9709 </r>
       <r>    17.6924     0.0753    15.9777 </r>
       <r>    17.7831     0.0475    15.9820 </r>
       <r>    17.8738     0.0240    15.9842 </r>
       <r>    17.9645     0.0189    15.9859 </r>
       <r>    18.0553     0.0296    15.9886 </r>
       <r>    18.1460     0.0417    15.9924 </r>
       <r>    18.2367     0.0409    15.9961 </r>
       <r>    18.3275     0.0270    15.9985 </r>
       <r>    18.4182     0.0120    15.9996 </r>
       <r>    18.5089     0.0036    15.9999 </r>
       <r>    18.5996     0.0007    16.0000 </r>
       <r>    18.6904     0.0001    16.0000 </r>
       <r>    18.7811     0.0000    16.0000 </r>
       <r>    18.8718     0.0000    16.0000 </r>
       <r>    18.9625     0.0000    16.0000 </r>
       <r>    19.0533     0.0000    16.0000 </r>
       <r>    19.1440     0.0000    16.0000 </r>
       <r>    19.2347     0.0000    16.0000 </r>
       <r>    19.3255     0.0000    16.0000 </r>
       <r>    19.4162     0.0000    16.0000 </r>
       <r>    19.5069     0.0000    16.0000 </r>
       <r>    19.5976     0.0000    16.0000 </r>
       <r>    19.6884     0.0000    16.0000 </r>
       <r>    19.7791     0.0000    16.0000 </r>
       <r>    19.8698     0.0000    16.0000 </r>
       <r>    19.9606     0.0000    16.0000 </r>
       <r>    20.0513     0.0000    16.0000 </r>
       <r>    20.1420     0.0000    16.0000 </r>
      </set>
     </set>
    </array>
   </total>
  </dos>
 </calculation>
 <structure name="finalpos" >
  <crystal>
   <varray name="basis" >
    <v>      -2.50105700       2.50105700       1.42720300 </v>
    <v>       2.50105700      -2.50105700       1.42720300 </v>
    <v>       2.50105700       2.50105700      -1.42720300 </v>
   </varray>
   <i name="volume">     35.71025245 </i>
   <varray name="rec_basis" >
    <v>       0.00000000       0.19991548       0.35033559 </v>
    <v>       0.19991548       0.00000000       0.35033559 </v>
    <v>       0.19991548       0.19991548      -0.00000000 </v>
   </varray>
  </crystal>
  <varray name="positions" >
   <v>       0.00000000       0.00000000       0.00000000 </v>
   <v>       0.25000000       0.75000000       0.50000000 </v>
  </varray>
 </structure>
</modeling>
