unknown system                          
           1
    -2.501057    2.501057    1.427203
     2.501057   -2.501057    1.427203
     2.501057    2.501057   -1.427203
   Si
   2
Direct configuration=     1
   0.00000000  0.00000000  0.00000000
   0.25000000  0.75000000  0.50000000
