unknown system                          
   1.00000000000000     
     0.000000    2.745857    2.745857
     2.745857    0.000000    2.745857
     2.745857    2.745857   -0.000000
   Si
     2
Direct
  0.500000  0.500000  0.500000
  0.750000  0.750000  0.750000
 
   32   32   32
 0.88090     0.90131     0.96440      1.0754      1.2418      1.4725      1.7768      2.1630      2.6363      3.1949    
  3.8258      4.5008      5.1757      5.7941      6.2946      6.6213      6.7350      6.6213      6.2946      5.7941    
  5.1757      4.5009      3.8259      3.1950      2.6362      2.1629      1.7768      1.4725      1.2418      1.0754    
 0.96441     0.90131     0.90131     0.93625      1.0093      1.1259      1.2931      1.5179      1.8067      2.1639    
  2.5899      3.0782      3.6122      4.1631      4.6908      5.1475      5.4854      5.6653      5.6653      5.4854    
  5.1475      4.6908      4.1631      3.6122      3.0782      2.5899      2.1639      1.8067      1.5179      1.2931    
  1.1259      1.0093     0.93625     0.90131     0.96440      1.0093      1.0883      1.2067      1.3703      1.5843    
  1.8522      2.1753      2.5502      2.9674      3.4088      3.8470      4.2467      4.5695      4.7799      4.8531    
  4.7799      4.5695      4.2468      3.8470      3.4088      2.9674      2.5501      2.1752      1.8522      1.5843    
  1.3703      1.2067      1.0883      1.0093     0.96440     0.94991      1.0754      1.1259      1.2067      1.3224    
  1.4774      1.6750      1.9168      2.2014      2.5234      2.8714      3.2273      3.5660      3.8581      4.0736    
  4.1883      4.1883      4.0736      3.8581      3.5661      3.2273      2.8714      2.5233      2.2014      1.9168    
  1.6750      1.4774      1.3224      1.2067      1.1259      1.0754      1.0512      1.0512      1.2418      1.2931    
  1.3703      1.4774      1.6175      1.7927      2.0030      2.2457      2.5139      2.7957      3.0737      3.3262    
  3.5293      3.6615      3.7075      3.6616      3.5293      3.3262      3.0737      2.7957      2.5139      2.2457    
  2.0030      1.7927      1.6175      1.4774      1.3704      1.2931      1.2418      1.2128      1.2035      1.2128    
  1.4725      1.5179      1.5843      1.6750      1.7927      1.9386      2.1121      2.3096      2.5234      2.7418    
  2.9492      3.1274      3.2587      3.3284      3.3285      3.2587      3.1274      2.9491      2.7418      2.5233    
  2.3096      2.1122      1.9387      1.7927      1.6750      1.5843      1.5179      1.4725      1.4447      1.4317    
  1.4317      1.4448      1.7768      1.8067      1.8522      1.9168      2.0030      2.1121      2.2430      2.3916    
  2.5502      2.7078      2.8512      2.9667      3.0418      3.0678      3.0418      2.9667      2.8513      2.7078    
  2.5502      2.3916      2.2431      2.1121      2.0030      1.9168      1.8522      1.8067      1.7768      1.7589    
  1.7498      1.7470      1.7498      1.7589      2.1630      2.1639      2.1753      2.2014      2.2457      2.3096    
  2.3916      2.4875      2.5899      2.6895      2.7763      2.8405      2.8747      2.8747      2.8405      2.7763    
  2.6896      2.5899      2.4875      2.3917      2.3095      2.2457      2.2014      2.1752      2.1639      2.1630    
  2.1678      2.1739      2.1779      2.1779      2.1739      2.1678      2.6363      2.5899      2.5502      2.5234    
  2.5139      2.5234      2.5502      2.5899      2.6363      2.6821      2.7207      2.7464      2.7554      2.7464    
  2.7208      2.6822      2.6363      2.5899      2.5501      2.5233      2.5139      2.5233      2.5501      2.5899    
  2.6362      2.6822      2.7208      2.7464      2.7554      2.7464      2.7207      2.6821      3.1949      3.0782    
  2.9674      2.8714      2.7957      2.7418      2.7078      2.6895      2.6821      2.6809      2.6822      2.6835    
  2.6835      2.6823      2.6810      2.6821      2.6895      2.7077      2.7417      2.7956      2.8714      2.9674    
  3.0782      3.1949      3.3067      3.4024      3.4723      3.5091      3.5091      3.4723      3.4024      3.3067    
  3.8258      3.6122      3.4088      3.2273      3.0737      2.9492      2.8512      2.7763      2.7207      2.6822    
  2.6594      2.6519      2.6595      2.6822      2.7207      2.7762      2.8512      2.9491      3.0737      3.2273    
  3.4088      3.6122      3.8259      4.0341      4.2193      4.3651      4.4582      4.4902      4.4582      4.3651    
  4.2193      4.0340      4.5008      4.1631      3.8470      3.5660      3.3262      3.1274      2.9667      2.8405    
  2.7464      2.6835      2.6519      2.6519      2.6835      2.7464      2.8404      2.9666      3.1274      3.3262    
  3.5660      3.8470      4.1632      4.5008      4.8389      5.1521      5.4142      5.6028      5.7013      5.7014    
  5.6028      5.4142      5.1520      4.8389      5.1757      4.6908      4.2467      3.8581      3.5293      3.2587    
  3.0418      2.8747      2.7554      2.6835      2.6595      2.6835      2.7554      2.8747      3.0417      3.2586    
  3.5293      3.8580      4.2468      4.6909      5.1757      5.6758      6.1569      6.5815      6.9139      7.1255    
  7.1982      7.1256      6.9139      6.5816      6.1570      5.6758      5.7941      5.1475      4.5695      4.0736    
  3.6615      3.3284      3.0678      2.8747      2.7464      2.6823      2.6822      2.7464      2.8747      3.0678    
  3.3284      3.6615      4.0736      4.5695      5.1475      5.7941      6.4810      7.1661      7.7992      8.3290    
  8.7104      8.9100      8.9100      8.7105      8.3291      7.7992      7.1661      6.4809      6.2946      5.4854    
  4.7799      4.1883      3.7075      3.3285      3.0418      2.8405      2.7208      2.6810      2.7207      2.8404    
  3.0417      3.3284      3.7074      4.1883      4.7800      5.4854      6.2946      7.1795      8.0931      8.9740    
  9.7541      10.368      10.760      10.895      10.760      10.368      9.7541      8.9740      8.0931      7.1795    
  6.6213      5.6653      4.8531      4.1883      3.6616      3.2587      2.9667      2.7763      2.6822      2.6821    
  2.7762      2.9666      3.2586      3.6615      4.1883      4.8531      5.6654      6.6214      7.6971      8.8449    
  9.9965      11.069      11.977      12.636      12.984      12.984      12.636      11.977      11.069      9.9965    
  8.8449      7.6971      6.7350      5.6653      4.7799      4.0736      3.5293      3.1274      2.8513      2.6896    
  2.6363      2.6895      2.8512      3.1274      3.5293      4.0736      4.7800      5.6654      6.7350      7.9729    
  9.3365      10.757      12.143      13.390      14.389      15.037      15.261      15.037      14.389      13.390    
  12.143      10.757      9.3365      7.9729      6.6213      5.4854      4.5695      3.8581      3.3262      2.9491    
  2.7078      2.5899      2.5899      2.7077      2.9491      3.3262      3.8580      4.5695      5.4854      6.6214    
  7.9729      9.5076      11.163      12.849      14.452      15.837      16.854      17.392      17.392      16.854    
  15.836      14.452      12.849      11.163      9.5077      7.9729      6.2946      5.1475      4.2468      3.5661    
  3.0737      2.7418      2.5502      2.4875      2.5501      2.7417      3.0737      3.5660      4.2468      5.1475    
  6.2946      7.6971      9.3365      11.163      13.096      15.024      16.794      18.217      19.138      19.456    
  19.138      18.217      16.794      15.024      13.096      11.163      9.3365      7.6970      5.7941      4.6908    
  3.8470      3.2273      2.7957      2.5233      2.3916      2.3917      2.5233      2.7956      3.2273      3.8470    
  4.6909      5.7941      7.1795      8.8449      10.757      12.849      15.024      17.129      18.948      20.286    
  20.996      20.996      20.286      18.948      17.129      15.024      12.849      10.757      8.8449      7.1795    
  5.1757      4.1631      3.4088      2.8714      2.5139      2.3096      2.2431      2.3095      2.5139      2.8714    
  3.4088      4.1632      5.1757      6.4810      8.0931      9.9965      12.143      14.452      16.794      18.948    
  20.687      21.821      22.216      21.821      20.687      18.948      16.794      14.452      12.143      9.9964    
  8.0931      6.4810      4.5009      3.6122      2.9674      2.5233      2.2457      2.1122      2.1121      2.2457    
  2.5233      2.9674      3.6122      4.5008      5.6758      7.1661      8.9740      11.069      13.390      15.837    
  18.217      20.286      21.821      22.642      22.642      21.821      20.286      18.217      15.836      13.390    
  11.069      8.9739      7.1660      5.6759      3.8259      3.0782      2.5501      2.2014      2.0030      1.9387    
  2.0030      2.2014      2.5501      3.0782      3.8259      4.8389      6.1569      7.7992      9.7541      11.977    
  14.389      16.854      19.138      20.996      22.216      22.642      22.216      20.996      19.138      16.854    
  14.389      11.977      9.7541      7.7992      6.1570      4.8390      3.1950      2.5899      2.1752      1.9168    
  1.7927      1.7927      1.9168      2.1752      2.5899      3.1949      4.0341      5.1521      6.5815      8.3290    
  10.368      12.636      15.037      17.392      19.456      20.996      21.821      21.821      20.996      19.457    
  17.392      15.037      12.636      10.368      8.3291      6.5816      5.1521      4.0341      2.6362      2.1639    
  1.8522      1.6750      1.6175      1.6750      1.8522      2.1639      2.6362      3.3067      4.2193      5.4142    
  6.9139      8.7104      10.760      12.984      15.261      17.392      19.138      20.286      20.687      20.286    
  19.138      17.392      15.261      12.984      10.760      8.7105      6.9139      5.4143      4.2194      3.3068    
  2.1629      1.8067      1.5843      1.4774      1.4774      1.5843      1.8067      2.1630      2.6822      3.4024    
  4.3651      5.6028      7.1255      8.9100      10.895      12.984      15.037      16.854      18.217      18.948    
  18.948      18.217      16.854      15.037      12.984      10.896      8.9100      7.1256      5.6029      4.3652    
  3.4025      2.6822      1.7768      1.5179      1.3703      1.3224      1.3704      1.5179      1.7768      2.1678    
  2.7208      3.4723      4.4582      5.7013      7.1982      8.9100      10.760      12.636      14.389      15.836    
  16.794      17.129      16.794      15.836      14.389      12.636      10.760      8.9100      7.1982      5.7014    
  4.4583      3.4723      2.7208      2.1677      1.4725      1.2931      1.2067      1.2067      1.2931      1.4725    
  1.7589      2.1739      2.7464      3.5091      4.4902      5.7014      7.1256      8.7105      10.368      11.977    
  13.390      14.452      15.024      15.024      14.452      13.390      11.977      10.368      8.7105      7.1256    
  5.7014      4.4903      3.5092      2.7464      2.1739      1.7589      1.2418      1.1259      1.0883      1.1259    
  1.2418      1.4447      1.7498      2.1779      2.7554      3.5091      4.4582      5.6028      6.9139      8.3291    
  9.7541      11.069      12.143      12.849      13.096      12.849      12.143      11.069      9.7541      8.3291    
  6.9139      5.6029      4.4583      3.5092      2.7554      2.1779      1.7497      1.4447      1.0754      1.0093    
  1.0093      1.0754      1.2128      1.4317      1.7470      2.1779      2.7464      3.4723      4.3651      5.4142    
  6.5816      7.7992      8.9740      9.9965      10.757      11.163      11.163      10.757      9.9964      8.9739    
  7.7992      6.5816      5.4143      4.3652      3.4723      2.7464      2.1779      1.7470      1.4317      1.2128    
 0.96441     0.93625     0.96440      1.0512      1.2035      1.4317      1.7498      2.1739      2.7207      3.4024    
  4.2193      5.1520      6.1570      7.1661      8.0931      8.8449      9.3365      9.5077      9.3365      8.8449    
  8.0931      7.1660      6.1570      5.1521      4.2194      3.4025      2.7208      2.1739      1.7497      1.4317    
  1.2034      1.0512     0.90131     0.90131     0.94991      1.0512      1.2128      1.4448      1.7589      2.1678    
  2.6821      3.3067      4.0340      4.8389      5.6758      6.4809      7.1795      7.6971      7.9729      7.9729    
  7.6970      7.1795      6.4810      5.6759      4.8390      4.0341      3.3068      2.6822      2.1677      1.7589    
  1.4447      1.2128      1.0512     0.94991     0.90131     0.93625      1.0093      1.1259      1.2931      1.5179    
  1.8067      2.1639      2.5899      3.0782      3.6122      4.1631      4.6908      5.1475      5.4854      5.6653    
  5.6653      5.4854      5.1475      4.6908      4.1631      3.6122      3.0782      2.5899      2.1639      1.8067    
  1.5179      1.2931      1.1259      1.0093     0.93625     0.90131     0.93625     0.97960      1.0562      1.1714    
  1.3310      1.5403      1.8029      2.1197      2.4875      2.8965      3.3290      3.7578      4.1486      4.4639    
  4.6693      4.7407      4.6693      4.4639      4.1486      3.7578      3.3290      2.8966      2.4875      2.1197    
  1.8029      1.5403      1.3311      1.1714      1.0562     0.97960     0.93626     0.92228      1.0093      1.0562    
  1.1318      1.2411      1.3885      1.5774      1.8093      2.0826      2.3916      2.7254      3.0662      3.3902    
  3.6691      3.8748      3.9841      3.9841      3.8748      3.6691      3.3902      3.0662      2.7254      2.3916    
  2.0825      1.8093      1.5774      1.3885      1.2411      1.1318      1.0562      1.0093     0.98699     0.98699    
  1.1259      1.1714      1.2411      1.3392      1.4691      1.6327      1.8300      2.0578      2.3096      2.5738    
  2.8343      3.0707      3.2608      3.3844      3.4273      3.3843      3.2607      3.0707      2.8344      2.5738    
  2.3095      2.0578      1.8300      1.6328      1.4691      1.3392      1.2411      1.1714      1.1259      1.1006    
  1.0926      1.1006      1.2931      1.3310      1.3885      1.4691      1.5754      1.7087      1.8678      2.0492    
  2.2457      2.4466      2.6376      2.8019      2.9230      2.9873      2.9873      2.9229      2.8019      2.6376    
  2.4466      2.2457      2.0491      1.8678      1.7087      1.5754      1.4691      1.3885      1.3310      1.2931    
  1.2707      1.2605      1.2605      1.2707      1.5179      1.5403      1.5774      1.6327      1.7087      1.8061    
  1.9238      2.0578      2.2014      2.3448      2.4758      2.5817      2.6507      2.6747      2.6507      2.5817    
  2.4758      2.3447      2.2014      2.0578      1.9238      1.8061      1.7087      1.6327      1.5774      1.5404    
  1.5179      1.5060      1.5007      1.4994      1.5008      1.5060      1.8067      1.8029      1.8093      1.8300    
  1.8678      1.9238      1.9966      2.0826      2.1753      2.2664      2.3465      2.4063      2.4384      2.4384    
  2.4063      2.3465      2.2664      2.1753      2.0826      1.9967      1.9238      1.8678      1.8300      1.8093    
  1.8029      1.8067      1.8158      1.8253      1.8312      1.8312      1.8253      1.8158      2.1639      2.1197    
  2.0826      2.0578      2.0492      2.0578      2.0826      2.1198      2.1639      2.2085      2.2467      2.2725    
  2.2816      2.2725      2.2467      2.2085      2.1639      2.1198      2.0826      2.0578      2.0491      2.0578    
  2.0826      2.1198      2.1639      2.2085      2.2467      2.2725      2.2816      2.2725      2.2467      2.2085    
  2.5899      2.4875      2.3916      2.3096      2.2457      2.2014      2.1753      2.1639      2.1630      2.1678    
  2.1739      2.1779      2.1780      2.1739      2.1678      2.1630      2.1639      2.1752      2.2014      2.2457    
  2.3095      2.3916      2.4875      2.5899      2.6895      2.7763      2.8405      2.8747      2.8747      2.8405    
  2.7763      2.6895      3.0782      2.8965      2.7254      2.5738      2.4466      2.3448      2.2664      2.2085    
  2.1678      2.1412      2.1263      2.1215      2.1263      2.1412      2.1678      2.2085      2.2663      2.3446    
  2.4465      2.5738      2.7255      2.8967      3.0782      3.2575      3.4193      3.5486      3.6321      3.6610    
  3.6321      3.5486      3.4193      3.2575      3.6122      3.3290      3.0662      2.8343      2.6376      2.4758    
  2.3465      2.2467      2.1739      2.1263      2.1027      2.1027      2.1263      2.1739      2.2467      2.3464    
  2.4756      2.6374      2.8343      3.0664      3.3292      3.6123      3.8993      4.1691      4.3986      4.5659    
  4.6542      4.6542      4.5659      4.3986      4.1691      3.8993      4.1631      3.7578      3.3902      3.0707    
  2.8019      2.5817      2.4063      2.2725      2.1779      2.1215      2.1027      2.1215      2.1779      2.2725    
  2.4062      2.5814      2.8017      3.0707      3.3904      3.7580      4.1633      4.5867      5.0008      5.3726    
  5.6684      5.8592      5.9252      5.8592      5.6684      5.3726      5.0008      4.5867      4.6908      4.1486    
  3.6691      3.2608      2.9230      2.6507      2.4384      2.2816      2.1780      2.1263      2.1263      2.1779    
  2.2816      2.4382      2.6504      2.9227      3.2607      3.6694      4.1489      4.6910      5.2751      5.8680    
  6.4266      6.9028      7.2508      7.4347      7.4347      7.2508      6.9028      6.4266      5.8681      5.2751    
  5.1475      4.4639      3.8748      3.3844      2.9873      2.6747      2.4384      2.2725      2.1739      2.1412    
  2.1739      2.2725      2.4382      2.6745      2.9870      3.3843      3.8750      4.4643      5.1477      5.9067    
  6.7049      7.4902      8.1993      8.7665      9.1337      9.2609      9.1337      8.7665      8.1993      7.4903    
  6.7050      5.9067      5.4854      4.6693      3.9841      3.4273      2.9873      2.6507      2.4063      2.2467    
  2.1678      2.1678      2.2467      2.4062      2.6504      2.9870      3.4272      3.9844      4.6697      5.4856    
  6.4185      7.4332      8.4719      9.4584      10.306      10.930      11.261      11.261      10.930      10.306    
  9.4584      8.4720      7.4333      6.4185      5.6653      4.7407      3.9841      3.3843      2.9229      2.5817    
  2.3465      2.2085      2.1630      2.2085      2.3464      2.5814      2.9227      3.3843      3.9844      4.7411    
  5.6656      6.7529      7.9739      9.2712      10.561      11.738      12.689      13.310      13.527      13.310    
  12.689      11.738      10.561      9.2713      7.9740      6.7529      5.6653      4.6693      3.8748      3.2607    
  2.8019      2.4758      2.2664      2.1639      2.1639      2.2663      2.4756      2.8017      3.2607      3.8750    
  4.6697      5.6656      6.8693      8.2625      9.7953      11.383      12.912      14.245      15.238      15.770    
  15.770      15.238      14.245      12.912      11.384      9.7954      8.2627      6.8693      5.4854      4.4639    
  3.6691      3.0707      2.6376      2.3447      2.1753      2.1198      2.1752      2.3446      2.6374      3.0707    
  3.6694      4.4643      5.4856      6.7529      8.2625      9.9780      11.824      13.688      15.417      16.839    
  17.780      18.109      17.780      16.839      15.417      13.688      11.824      9.9781      8.2627      6.7529    
  5.1475      4.1486      3.3902      2.8344      2.4466      2.2014      2.0826      2.0826      2.2014      2.4465    
  2.8343      3.3904      4.1489      5.1477      6.4185      7.9739      9.7953      11.824      13.959      16.050    
  17.906      19.310      20.068      20.068      19.310      17.906      16.050      13.959      11.824      9.7954    
  7.9741      6.4185      4.6908      3.7578      3.0662      2.5738      2.2457      2.0578      1.9967      2.0578    
  2.2457      2.5738      3.0664      3.7580      4.6910      5.9067      7.4332      9.2712      11.383      13.688    
  16.050      18.282      20.140      21.375      21.808      21.375      20.140      18.282      16.050      13.688    
  11.384      9.2713      7.4333      5.9067      4.1631      3.3290      2.7254      2.3095      2.0491      1.9238    
  1.9238      2.0491      2.3095      2.7255      3.3292      4.1633      5.2751      6.7049      8.4719      10.561    
  12.912      15.417      17.906      20.140      21.835      22.751      22.752      21.835      20.140      17.906    
  15.417      12.912      10.561      8.4720      6.7050      5.2750      3.6122      2.8966      2.3916      2.0578    
  1.8678      1.8061      1.8678      2.0578      2.3916      2.8967      3.6123      4.5867      5.8680      7.4902    
  9.4584      11.738      14.245      16.839      19.310      21.375      22.751      23.236      22.752      21.375    
  19.310      16.839      14.245      11.738      9.4585      7.4902      5.8680      4.5867      3.0782      2.4875    
  2.0825      1.8300      1.7087      1.7087      1.8300      2.0826      2.4875      3.0782      3.8993      5.0008    
  6.4266      8.1993      10.306      12.689      15.238      17.780      20.068      21.808      22.752      22.752    
  21.809      20.068      17.780      15.238      12.689      10.306      8.1992      6.4265      5.0008      3.8993    
  2.5899      2.1197      1.8093      1.6328      1.5754      1.6327      1.8093      2.1198      2.5899      3.2575    
  4.1691      5.3726      6.9028      8.7665      10.930      13.310      15.770      18.109      20.068      21.375    
  21.835      21.375      20.068      18.110      15.770      13.311      10.930      8.7664      6.9025      5.3724    
  4.1692      3.2575      2.1639      1.8029      1.5774      1.4691      1.4691      1.5774      1.8029      2.1639    
  2.6895      3.4193      4.3986      5.6684      7.2508      9.1337      11.261      13.527      15.770      17.780    
  19.310      20.140      20.140      19.310      17.780      15.770      13.527      11.261      9.1337      7.2505    
  5.6682      4.3986      3.4194      2.6896      1.8067      1.5403      1.3885      1.3392      1.3885      1.5404    
  1.8067      2.2085      2.7763      3.5486      4.5659      5.8592      7.4347      9.2609      11.261      13.310    
  15.238      16.839      17.906      18.282      17.906      16.839      15.238      13.311      11.261      9.2608    
  7.4344      5.8590      4.5660      3.5487      2.7763      2.2085      1.5179      1.3311      1.2411      1.2411    
  1.3310      1.5179      1.8158      2.2467      2.8405      3.6321      4.6542      5.9252      7.4347      9.1337    
  10.930      12.689      14.245      15.417      16.050      16.050      15.417      14.245      12.689      10.930    
  9.1337      7.4344      5.9249      4.6543      3.6323      2.8406      2.2467      1.8157      1.2931      1.1714    
  1.1318      1.1714      1.2931      1.5060      1.8253      2.2725      2.8747      3.6610      4.6542      5.8592    
  7.2508      8.7665      10.306      11.738      12.912      13.688      13.959      13.688      12.912      11.738    
  10.306      8.7664      7.2505      5.8590      4.6543      3.6611      2.8748      2.2725      1.8252      1.5059    
  1.1259      1.0562      1.0562      1.1259      1.2707      1.5007      1.8312      2.2816      2.8747      3.6321    
  4.5659      5.6684      6.9028      8.1993      9.4584      10.561      11.384      11.824      11.824      11.384    
  10.561      9.4585      8.1992      6.9025      5.6682      4.5660      3.6323      2.8748      2.2816      1.8312    
  1.5007      1.2707      1.0093     0.97960      1.0093      1.1006      1.2605      1.4994      1.8312      2.2725    
  2.8405      3.5486      4.3986      5.3726      6.4266      7.4903      8.4720      9.2713      9.7954      9.9781    
  9.7954      9.2713      8.4720      7.4902      6.4265      5.3724      4.3986      3.5487      2.8406      2.2725    
  1.8312      1.4993      1.2605      1.1006     0.93625     0.93626     0.98699      1.0926      1.2605      1.5008    
  1.8253      2.2467      2.7763      3.4193      4.1691      5.0008      5.8681      6.7050      7.4333      7.9740    
  8.2627      8.2627      7.9741      7.4333      6.7050      5.8680      5.0008      4.1692      3.4194      2.7763    
  2.2467      1.8252      1.5007      1.2605      1.0926     0.98699     0.90131     0.92228     0.98699      1.1006    
  1.2707      1.5060      1.8158      2.2085      2.6895      3.2575      3.8993      4.5867      5.2751      5.9067    
  6.4185      6.7529      6.8693      6.7529      6.4185      5.9067      5.2750      4.5867      3.8993      3.2575    
  2.6896      2.2085      1.8157      1.5059      1.2707      1.1006     0.98699     0.92226     0.96441      1.0093    
  1.0883      1.2067      1.3703      1.5843      1.8522      2.1753      2.5502      2.9674      3.4088      3.8470    
  4.2467      4.5695      4.7799      4.8531      4.7799      4.5695      4.2468      3.8470      3.4088      2.9674    
  2.5501      2.1752      1.8522      1.5843      1.3703      1.2067      1.0883      1.0093     0.96441     0.94991    
  1.0093      1.0562      1.1318      1.2411      1.3885      1.5774      1.8093      2.0826      2.3916      2.7254    
  3.0662      3.3902      3.6691      3.8748      3.9841      3.9841      3.8748      3.6691      3.3902      3.0662    
  2.7254      2.3916      2.0825      1.8093      1.5774      1.3885      1.2411      1.1318      1.0562      1.0093    
 0.98699     0.98699      1.0883      1.1318      1.1990      1.2941      1.4207      1.5806      1.7736      1.9966    
  2.2430      2.5017      2.7565      2.9876      3.1733      3.2941      3.3360      3.2941      3.1733      2.9876    
  2.7565      2.5017      2.2431      1.9966      1.7736      1.5806      1.4207      1.2942      1.1990      1.1318    
  1.0883      1.0642      1.0565      1.0642      1.2067      1.2411      1.2941      1.3698      1.4706      1.5978    
  1.7500      1.9238      2.1121      2.3047      2.4877      2.6452      2.7613      2.8230      2.8230      2.7613    
  2.6452      2.4877      2.3047      2.1121      1.9238      1.7500      1.5978      1.4707      1.3698      1.2941    
  1.2411      1.2067      1.1869      1.1781      1.1781      1.1869      1.3703      1.3885      1.4207      1.4706    
  1.5407      1.6315      1.7418      1.8678      2.0030      2.1383      2.2623      2.3626      2.4281      2.4509    
  2.4281      2.3626      2.2623      2.1383      2.0030      1.8678      1.7418      1.6315      1.5407      1.4707    
  1.4207      1.3885      1.3703      1.3619      1.3589      1.3583      1.3589      1.3619      1.5843      1.5774    
  1.5806      1.5978      1.6315      1.6827      1.7500      1.8300      1.9168      2.0027      2.0787      2.1356    
  2.1662      2.1662      2.1357      2.0787      2.0027      1.9168      1.8300      1.7500      1.6827      1.6315    
  1.5978      1.5806      1.5774      1.5843      1.5961      1.6078      1.6149      1.6149      1.6078      1.5961    
  1.8522      1.8093      1.7736      1.7500      1.7418      1.7500      1.7736      1.8093      1.8522      1.8961    
  1.9340      1.9598      1.9689      1.9598      1.9340      1.8961      1.8522      1.8093      1.7736      1.7501    
  1.7419      1.7501      1.7736      1.8093      1.8522      1.8961      1.9340      1.9598      1.9689      1.9598    
  1.9340      1.8961      2.1753      2.0826      1.9966      1.9238      1.8678      1.8300      1.8093      1.8029    
  1.8067      1.8158      1.8253      1.8312      1.8312      1.8253      1.8158      1.8067      1.8029      1.8093    
  1.8300      1.8678      1.9238      1.9967      2.0826      2.1753      2.2664      2.3465      2.4063      2.4384    
  2.4384      2.4063      2.3465      2.2664      2.5502      2.3916      2.2430      2.1121      2.0030      1.9168    
  1.8522      1.8067      1.7768      1.7589      1.7498      1.7470      1.7498      1.7589      1.7768      1.8067    
  1.8522      1.9168      2.0030      2.1121      2.2431      2.3916      2.5502      2.7078      2.8513      2.9667    
  3.0418      3.0678      3.0418      2.9667      2.8512      2.7078      2.9674      2.7254      2.5017      2.3047    
  2.1383      2.0027      1.8961      1.8158      1.7589      1.7228      1.7054      1.7054      1.7228      1.7589    
  1.8157      1.8961      2.0027      2.1383      2.3047      2.5017      2.7254      2.9674      3.2141      3.4476    
  3.6477      3.7946      3.8725      3.8725      3.7946      3.6477      3.4476      3.2141      3.4088      3.0662    
  2.7565      2.4877      2.2623      2.0787      1.9340      1.8253      1.7498      1.7054      1.6907      1.7053    
  1.7497      1.8253      1.9340      2.0787      2.2623      2.4878      2.7565      3.0663      3.4089      3.7687    
  4.1230      4.4438      4.7011      4.8681      4.9260      4.8681      4.7011      4.4438      4.1230      3.7686    
  3.8470      3.3902      2.9876      2.6452      2.3626      2.1356      1.9598      1.8312      1.7470      1.7054    
  1.7053      1.7470      1.8312      1.9598      2.1356      2.3626      2.6453      2.9876      3.3903      3.8470    
  4.3421      4.8487      5.3303      5.7447      6.0501      6.2123      6.2122      6.0500      5.7447      5.3303    
  4.8486      4.3420      4.2467      3.6691      3.1733      2.7613      2.4281      2.1662      1.9689      1.8312    
  1.7498      1.7228      1.7497      1.8312      1.9689      2.1662      2.4281      2.7614      3.1734      3.6692    