<?xml version="1.0" encoding="ISO-8859-1"?>
<modeling>
 <generator>
  <i name="program" type="string">vasp </i>
  <i name="version" type="string">5.4.4.18Apr17-6-g9f103f2a35  </i>
  <i name="subversion" type="string">(build Dec 09 2018 21:25:21) complex            parallel </i>
  <i name="platform" type="string">IFC18.0.1.163_CrayMPICH7.7.0_MKL18.0.1.163 </i>
  <i name="date" type="string">2019 03 20 </i>
  <i name="time" type="string">09:59:00 </i>
 </generator>
 <incar>
  <i type="string" name="PREC">normal</i>
  <i type="int" name="IBRION">     2</i>
  <i name="EDIFF">      0.00040000</i>
  <i name="EDIFFG">     -0.01000000</i>
  <i type="int" name="NSW">    15</i>
  <i type="int" name="ISIF">     3</i>
  <i name="ENCUT">    300.00000000</i>
  <i type="int" name="NBANDS">     8</i>
  <i type="logical" name="LREAL"> F  </i>
  <i type="int" name="ISMEAR">     0</i>
  <i name="SIGMA">      0.20000000</i>
  <v type="int" name="KPOINT_BSE">    -1     0     0     0</v>
 </incar>
 <structure name="primitive_cell" >
  <crystal>
   <varray name="basis" >
    <v>       0.00000000       2.71500000       2.71500000 </v>
    <v>       2.71500000       0.00000000       2.71500000 </v>
    <v>       2.71500000       2.71500000       0.00000000 </v>
   </varray>
   <i name="volume">     40.02575175 </i>
   <varray name="rec_basis" >
    <v>      -0.18416206       0.18416206       0.18416206 </v>
    <v>       0.18416206      -0.18416206       0.18416206 </v>
    <v>       0.18416206       0.18416206      -0.18416206 </v>
   </varray>
  </crystal>
  <varray name="positions" >
   <v>      -0.50000000      -0.50000000      -0.50000000 </v>
   <v>      -0.25000000      -0.25000000      -0.25000000 </v>
  </varray>
 </structure>
 <varray name="primitive_index" >
  <v type="int" >        1 </v>
  <v type="int" >        2 </v>
 </varray>
 <kpoints>
  <generation param="Monkhorst-Pack">
   <v type="int" name="divisions">       4        4        4 </v>
   <v name="usershift">      0.00000000       0.00000000       0.00000000 </v>
   <v name="genvec1">      0.25000000       0.00000000      -0.00000000 </v>
   <v name="genvec2">      0.00000000       0.25000000       0.00000000 </v>
   <v name="genvec3">     -0.00000000      -0.00000000       0.25000000 </v>
   <v name="shift">      0.50000000       0.50000000       0.50000000 </v>
  </generation>
  <varray name="kpointlist" >
   <v>       0.12500000       0.12500000       0.12500000 </v>
   <v>       0.37500000       0.12500000       0.12500000 </v>
   <v>      -0.37500000       0.12500000       0.12500000 </v>
   <v>      -0.12500000       0.12500000       0.12500000 </v>
   <v>       0.37500000       0.37500000       0.12500000 </v>
   <v>      -0.37500000       0.37500000       0.12500000 </v>
   <v>      -0.12500000       0.37500000       0.12500000 </v>
   <v>      -0.37500000      -0.37500000       0.12500000 </v>
   <v>       0.37500000       0.37500000       0.37500000 </v>
   <v>      -0.37500000       0.37500000       0.37500000 </v>
  </varray>
  <varray name="weights" >
   <v>       0.03125000 </v>
   <v>       0.09375000 </v>
   <v>       0.09375000 </v>
   <v>       0.09375000 </v>
   <v>       0.09375000 </v>
   <v>       0.18750000 </v>
   <v>       0.18750000 </v>
   <v>       0.09375000 </v>
   <v>       0.03125000 </v>
   <v>       0.09375000 </v>
  </varray>
 </kpoints>
 <parameters>
  <separator name="general" >
   <i type="string" name="SYSTEM">unknown system</i>
   <i type="logical" name="LCOMPAT"> F  </i>
  </separator>
  <separator name="electronic" >
   <i type="string" name="PREC">normal</i>
   <i name="ENMAX">    300.00000000</i>
   <i name="ENAUG">    322.06900000</i>
   <i name="EDIFF">      0.00040000</i>
   <i type="int" name="IALGO">    38</i>
   <i type="int" name="IWAVPR">    11</i>
   <i type="int" name="NBANDS">     8</i>
   <i name="NELECT">      8.00000000</i>
   <i type="int" name="TURBO">     0</i>
   <i type="int" name="IRESTART">     0</i>
   <i type="int" name="NREBOOT">     0</i>
   <i type="int" name="NMIN">     0</i>
   <i name="EREF">      0.00000000</i>
   <separator name="electronic smearing" >
    <i type="int" name="ISMEAR">     0</i>
    <i name="SIGMA">      0.20000000</i>
    <i name="KSPACING">      0.50000000</i>
    <i type="logical" name="KGAMMA"> T  </i>
   </separator>
   <separator name="electronic projectors" >
    <i type="logical" name="LREAL"> F  </i>
    <v name="ROPT">      0.00000000</v>
    <i type="int" name="LMAXPAW">  -100</i>
    <i type="int" name="LMAXMIX">     2</i>
    <i type="logical" name="NLSPLINE"> F  </i>
   </separator>
   <separator name="electronic startup" >
    <i type="int" name="ISTART">     0</i>
    <i type="int" name="ICHARG">     2</i>
    <i type="int" name="INIWAV">     1</i>
   </separator>
   <separator name="electronic spin" >
    <i type="int" name="ISPIN">     1</i>
    <i type="logical" name="LNONCOLLINEAR"> F  </i>
    <v name="MAGMOM">      1.00000000      1.00000000</v>
    <i name="NUPDOWN">     -1.00000000</i>
    <i type="logical" name="LSORBIT"> F  </i>
    <v name="SAXIS">      0.00000000      0.00000000      1.00000000</v>
    <i type="logical" name="LSPIRAL"> F  </i>
    <v name="QSPIRAL">      0.00000000      0.00000000      0.00000000</v>
    <i type="logical" name="LZEROZ"> F  </i>
   </separator>
   <separator name="electronic exchange-correlation" >
    <i type="logical" name="LASPH"> F  </i>
    <i type="logical" name="LMETAGGA"> F  </i>
   </separator>
   <separator name="electronic convergence" >
    <i type="int" name="NELM">    60</i>
    <i type="int" name="NELMDL">    -5</i>
    <i type="int" name="NELMIN">     2</i>
    <i name="ENINI">    300.00000000</i>
    <separator name="electronic convergence detail" >
     <i type="logical" name="LDIAG"> T  </i>
     <i type="logical" name="LSUBROT"> F  </i>
     <i name="WEIMIN">      0.00100000</i>
     <i name="EBREAK">      0.00001250</i>
     <i name="DEPER">      0.30000000</i>
     <i type="int" name="NRMM">     4</i>
     <i name="TIME">      0.40000000</i>
    </separator>
   </separator>
   <separator name="electronic mixer" >
    <i name="AMIX">      0.40000000</i>
    <i name="BMIX">      1.00000000</i>
    <i name="AMIN">      0.10000000</i>
    <i name="AMIX_MAG">      1.60000000</i>
    <i name="BMIX_MAG">      1.00000000</i>
    <separator name="electronic mixer details" >
     <i type="int" name="IMIX">     4</i>
     <i type="logical" name="MIXFIRST"> F  </i>
     <i type="int" name="MAXMIX">   -45</i>
     <i name="WC">    100.00000000</i>
     <i type="int" name="INIMIX">     1</i>
     <i type="int" name="MIXPRE">     1</i>
     <i type="int" name="MREMOVE">     5</i>
    </separator>
   </separator>
   <separator name="electronic dipolcorrection" >
    <i type="logical" name="LDIPOL"> F  </i>
    <i type="logical" name="LMONO"> F  </i>
    <i type="int" name="IDIPOL">     0</i>
    <i name="EPSILON">      1.00000000</i>
    <v name="DIPOL">   -100.00000000   -100.00000000   -100.00000000</v>
    <i name="EFIELD">      0.00000000</i>
   </separator>
  </separator>
  <separator name="grids" >
   <i type="int" name="NGX">    16</i>
   <i type="int" name="NGY">    16</i>
   <i type="int" name="NGZ">    16</i>
   <i type="int" name="NGXF">    32</i>
   <i type="int" name="NGYF">    32</i>
   <i type="int" name="NGZF">    32</i>
   <i type="logical" name="ADDGRID"> F  </i>
  </separator>
  <separator name="ionic" >
   <i type="int" name="NSW">    15</i>
   <i type="int" name="IBRION">     2</i>
   <i type="int" name="MDALGO">     0</i>
   <i type="int" name="ISIF">     3</i>
   <i name="PSTRESS">      0.00000000</i>
   <i name="EDIFFG">     -0.01000000</i>
   <i type="int" name="NFREE">     1</i>
   <i name="POTIM">      0.50000000</i>
   <i name="SMASS">     -3.00000000</i>
   <i name="SCALEE">      1.00000000</i>
  </separator>
  <separator name="ionic md" >
   <i name="TEBEG">      0.00010000</i>
   <i name="TEEND">      0.00010000</i>
   <i type="int" name="NBLOCK">     1</i>
   <i type="int" name="KBLOCK">    15</i>
   <i type="int" name="NPACO">   256</i>
   <i name="APACO">     16.00000000</i>
  </separator>
  <separator name="symmetry" >
   <i type="int" name="ISYM">     2</i>
   <i name="SYMPREC">      0.00001000</i>
  </separator>
  <separator name="dos" >
   <i type="int" name="LORBIT">     0</i>
   <v name="RWIGS">     -1.00000000</v>
   <i type="int" name="NEDOS">   301</i>
   <i name="EMIN">     10.00000000</i>
   <i name="EMAX">    -10.00000000</i>
   <i name="EFERMI">      0.00000000</i>
  </separator>
  <separator name="writing" >
   <i type="int" name="NWRITE">     2</i>
   <i type="logical" name="LWAVE"> T  </i>
   <i type="logical" name="LDOWNSAMPLE"> F  </i>
   <i type="logical" name="LCHARG"> T  </i>
   <i type="logical" name="LPARD"> F  </i>
   <i type="logical" name="LVTOT"> F  </i>
   <i type="logical" name="LVHAR"> F  </i>
   <i type="logical" name="LELF"> F  </i>
   <i type="logical" name="LOPTICS"> F  </i>
   <v name="STM">      0.00000000      0.00000000      0.00000000      0.00000000      0.00000000      0.00000000      0.00000000</v>
  </separator>
  <separator name="performance" >
   <i type="int" name="NPAR">     8</i>
   <i type="int" name="NSIM">     4</i>
   <i type="int" name="NBLK">    -1</i>
   <i type="logical" name="LPLANE"> T  </i>
   <i type="logical" name="LSCALAPACK"> T  </i>
   <i type="logical" name="LSCAAWARE"> F  </i>
   <i type="logical" name="LSCALU"> F  </i>
   <i type="logical" name="LASYNC"> F  </i>
   <i type="logical" name="LORBITALREAL"> F  </i>
  </separator>
  <separator name="miscellaneous" >
   <i type="int" name="IDIOT">     3</i>
   <i type="int" name="ISPECIAL">     0</i>
   <i type="logical" name="LMUSIC"> F  </i>
   <v name="POMASS">     28.08500000</v>
   <v name="DARWINR">      0.00000000</v>
   <v name="DARWINV">      1.00000000</v>
   <i type="logical" name="LCORR"> T  </i>
  </separator>
  <i type="logical" name="GGA_COMPAT"> T  </i>
  <i type="logical" name="LBERRY"> F  </i>
  <i type="int" name="ICORELEVEL">     0</i>
  <i type="logical" name="LDAU"> F  </i>
  <i type="int" name="I_CONSTRAINED_M">     0</i>
  <separator name="electronic exchange-correlation" >
   <i type="string" name="GGA">--</i>
   <i type="int" name="VOSKOWN">     0</i>
   <i type="logical" name="LHFCALC"> F  </i>
   <i type="string" name="PRECFOCK"></i>
   <i type="logical" name="LSYMGRAD"> F  </i>
   <i type="logical" name="LHFONE"> F  </i>
   <i type="logical" name="LRHFCALC"> F  </i>
   <i type="logical" name="LTHOMAS"> F  </i>
   <i type="logical" name="LMODELHF"> F  </i>
   <i name="ENCUT4O">     -1.00000000</i>
   <i type="int" name="EXXOEP">     0</i>
   <i type="int" name="FOURORBIT">     0</i>
   <i name="AEXX">      0.00000000</i>
   <i name="HFALPHA">      0.00000000</i>
   <i name="MCALPHA">      0.00000000</i>
   <i name="ALDAX">      1.00000000</i>
   <i name="AGGAX">      1.00000000</i>
   <i name="ALDAC">      1.00000000</i>
   <i name="AGGAC">      1.00000000</i>
   <i type="int" name="NKREDX">     1</i>
   <i type="int" name="NKREDY">     1</i>
   <i type="int" name="NKREDZ">     1</i>
   <i type="logical" name="SHIFTRED"> F  </i>
   <i type="logical" name="ODDONLY"> F  </i>
   <i type="logical" name="EVENONLY"> F  </i>
   <i type="int" name="LMAXFOCK">     0</i>
   <i type="int" name="NMAXFOCKAE">     0</i>
   <i type="logical" name="LFOCKAEDFT"> F  </i>
   <i name="HFSCREEN">      0.00000000</i>
   <i name="HFSCREENC">      0.00000000</i>
   <i type="int" name="NBANDSGWLOW">     0</i>
  </separator>
  <separator name="vdW DFT" >
   <i type="logical" name="LUSE_VDW"> F  </i>
   <i name="Zab_VDW">     -0.84910000</i>
   <i name="PARAM1">      0.12340000</i>
   <i name="PARAM2">      1.00000000</i>
   <i name="PARAM3">      0.00000000</i>
  </separator>
  <separator name="model GW" >
   <i type="int" name="MODEL_GW">     0</i>
   <i name="MODEL_EPS0">     12.00772552</i>
   <i name="MODEL_ALPHA">      1.00000000</i>
  </separator>
  <separator name="linear response parameters" >
   <i type="logical" name="LEPSILON"> F  </i>
   <i type="logical" name="LRPA"> F  </i>
   <i type="logical" name="LNABLA"> F  </i>
   <i type="logical" name="LVEL"> F  </i>
   <i type="int" name="KINTER">     0</i>
   <i name="CSHIFT">      0.10000000</i>
   <i name="OMEGAMAX">     -1.00000000</i>
   <i name="DEG_THRESHOLD">      0.00200000</i>
   <i name="RTIME">     -0.10000000</i>
   <i name="WPLASMAI">      0.00000000</i>
   <v name="DFIELD">      0.00000000      0.00000000      0.00000000</v>
   <v name="WPLASMA">      0.00000000      0.00000000      0.00000000      0.00000000      0.00000000      0.00000000      0.00000000      0.00000000      0.00000000</v>
  </separator>
  <separator name="orbital magnetization" >
   <i type="logical" name="NUCIND"> F  </i>
   <v name="MAGPOS">      0.00000000      0.00000000      0.00000000</v>
   <i type="logical" name="LNICSALL"> T  </i>
   <i type="logical" name="ORBITALMAG"> F  </i>
   <i type="logical" name="LMAGBLOCH"> F  </i>
   <i type="logical" name="LCHIMAG"> F  </i>
   <i type="logical" name="LGAUGE"> T  </i>
   <i type="int" name="MAGATOM">     0</i>
   <v name="MAGDIPOL">      0.00000000      0.00000000      0.00000000</v>
   <v name="AVECCONST">      0.00000000      0.00000000      0.00000000</v>
  </separator>
  <separator name="response functions" >
   <i type="logical" name="LADDER"> F  </i>
   <i type="logical" name="LRPAFORCE"> F  </i>
   <i type="logical" name="LFXC"> F  </i>
   <i type="logical" name="LHARTREE"> T  </i>
   <i type="int" name="IBSE">     0</i>
   <v type="int" name="KPOINT">    -1     0     0     0</v>
   <i type="logical" name="LTCTE"> F  </i>
   <i type="logical" name="LTETE"> F  </i>
   <i type="logical" name="LTRIPLET"> F  </i>
   <i type="logical" name="LFXCEPS"> F  </i>
   <i type="logical" name="LFXHEG"> F  </i>
   <i type="int" name="NATURALO">     2</i>
   <i type="logical" name="L2ORDER"> F  </i>
   <i type="logical" name="LMP2LT"> F  </i>
   <i type="logical" name="LUSEW"> F  </i>
   <i name="ENCUTGW">     -2.00000000</i>
   <i name="ENCUTGWSOFT">     -2.00000000</i>
   <i name="ENCUTLF">     -1.00000000</i>
   <i type="int" name="LMAXMP2">    -1</i>
   <i name="SCISSOR">      0.00000000</i>
   <i type="int" name="NOMEGA">     0</i>
   <i type="int" name="NOMEGAR">     0</i>
   <i type="int" name="NBANDSGW">    -1</i>
   <i type="int" name="NBANDSO">    -1</i>
   <i type="int" name="NBANDSV">    -1</i>
   <i type="int" name="NELM">     1</i>
   <i type="int" name="NELMHF">     1</i>
   <i type="int" name="DIM">     3</i>
   <i type="int" name="ANTIRES">     0</i>
   <i name="OMEGAMAX">    -30.00000000</i>
   <i name="OMEGAMIN">    -30.00000000</i>
   <i name="OMEGATL">   -200.00000000</i>
   <i type="int" name="OMEGAGRID">   140</i>
   <i name="CSHIFT">     -0.10000000</i>
   <i type="logical" name="SELFENERGY"> F  </i>
   <i type="logical" name="LSPECTRAL"> F  </i>
   <i type="logical" name="LSPECTRALGW"> F  </i>
   <i type="logical" name="LSINGLES"> F  </i>
   <i type="logical" name="LFERMIGW"> F  </i>
   <i type="logical" name="ODDONLYGW"> F  </i>
   <i type="logical" name="EVENONLYGW"> F  </i>
   <i type="int" name="NKREDLFX">     1</i>
   <i type="int" name="NKREDLFY">     1</i>
   <i type="int" name="NKREDLFZ">     1</i>
   <i type="int" name="MAXMEM">  2800</i>
   <i type="int" name="TELESCOPE">     0</i>
   <i type="int" name="TAUPAR">     1</i>
   <i type="int" name="OMEGAPAR">    -1</i>
   <i name="LAMBDA">      1.00000000</i>
  </separator>
  <separator name="External order field" >
   <i name="OFIELD_KAPPA">      0.00000000</i>
   <v name="OFIELD_K">      0.00000000      0.00000000      0.00000000</v>
   <i name="OFIELD_Q6_NEAR">      0.00000000</i>
   <i name="OFIELD_Q6_FAR">      0.00000000</i>
   <i name="OFIELD_A">      0.00000000</i>
  </separator>
 </parameters>
 <atominfo>
  <atoms>       2 </atoms>
  <types>       1 </types>
  <array name="atoms" >
   <dimension dim="1">ion</dimension>
   <field type="string">element</field>
   <field type="int">atomtype</field>
   <set>
    <rc><c>Si</c><c>   1</c></rc>
    <rc><c>Si</c><c>   1</c></rc>
   </set>
  </array>
  <array name="atomtypes" >
   <dimension dim="1">type</dimension>
   <field type="int">atomspertype</field>
   <field type="string">element</field>
   <field>mass</field>
   <field>valence</field>
   <field type="string">pseudopotential</field>
   <set>
    <rc><c>   2</c><c>Si</c><c>     28.08500000</c><c>      4.00000000</c><c> PAW_PBE Si 05Jan2001                   </c></rc>
   </set>
  </array>
 </atominfo>
 <structure name="initialpos" >
  <crystal>
   <varray name="basis" >
    <v>       0.00000000       2.71500000       2.71500000 </v>
    <v>       2.71500000       0.00000000       2.71500000 </v>
    <v>       2.71500000       2.71500000       0.00000000 </v>
   </varray>
   <i name="volume">     40.02575175 </i>
   <varray name="rec_basis" >
    <v>      -0.18416206       0.18416206       0.18416206 </v>
    <v>       0.18416206      -0.18416206       0.18416206 </v>
    <v>       0.18416206       0.18416206      -0.18416206 </v>
   </varray>
  </crystal>
  <varray name="positions" >
   <v>       0.50000000       0.50000000       0.50000000 </v>
   <v>       0.75000000       0.75000000       0.75000000 </v>
  </varray>
 </structure>
 <calculation>
  <scstep>
   <time name="dav">    0.08    0.09</time>
   <time name="total">    0.12    0.14</time>
   <energy>
    <i name="alphaZ">      3.36414203 </i>
    <i name="ewald">   -228.56352493 </i>
    <i name="hartreedc">    -11.00108243 </i>
    <i name="XCdc">    -18.60181216 </i>
    <i name="pawpsdc">     65.95520812 </i>
    <i name="pawaedc">    -30.76852678 </i>
    <i name="eentropy">     -0.02668774 </i>
    <i name="bandstr">     18.07510213 </i>
    <i name="atom">    206.12968587 </i>
    <i name="e_fr_energy">      4.56250411 </i>
    <i name="e_wo_entrp">      4.58919185 </i>
    <i name="e_0_energy">      4.57584798 </i>
   </energy>
  </scstep>
  <scstep>
   <time name="dav">    0.14    0.15</time>
   <time name="total">    0.14    0.15</time>
   <energy>
    <i name="e_fr_energy">    -10.86541910 </i>
    <i name="e_wo_entrp">    -10.86541901 </i>
    <i name="e_0_energy">    -10.86541905 </i>
   </energy>
  </scstep>
  <scstep>
   <time name="dav">    0.11    0.12</time>
   <time name="total">    0.11    0.12</time>
   <energy>
    <i name="e_fr_energy">    -11.01532991 </i>
    <i name="e_wo_entrp">    -11.01532989 </i>
    <i name="e_0_energy">    -11.01532990 </i>
   </energy>
  </scstep>
  <scstep>
   <time name="dav">    0.14    0.14</time>
   <time name="total">    0.14    0.14</time>
   <energy>
    <i name="e_fr_energy">    -11.01595484 </i>
    <i name="e_wo_entrp">    -11.01595482 </i>
    <i name="e_0_energy">    -11.01595483 </i>
   </energy>
  </scstep>
  <scstep>
   <time name="dav">    0.11    0.11</time>
   <time name="total">    0.12    0.13</time>
   <energy>
    <i name="e_fr_energy">    -11.01595505 </i>
    <i name="e_wo_entrp">    -11.01595503 </i>
    <i name="e_0_energy">    -11.01595504 </i>
   </energy>
  </scstep>
  <scstep>
   <time name="dav">    0.09    0.09</time>
   <time name="total">    0.13    0.14</time>
   <energy>
    <i name="e_fr_energy">    -10.89113726 </i>
    <i name="e_wo_entrp">    -10.89113702 </i>
    <i name="e_0_energy">    -10.89113714 </i>
   </energy>
  </scstep>
  <scstep>
   <time name="dav">    0.10    0.10</time>
   <time name="total">    0.14    0.14</time>
   <energy>
    <i name="e_fr_energy">    -10.83412484 </i>
    <i name="e_wo_entrp">    -10.83412104 </i>
    <i name="e_0_energy">    -10.83412294 </i>
   </energy>
  </scstep>
  <scstep>
   <time name="dav">    0.08    0.08</time>
   <time name="total">    0.12    0.13</time>
   <energy>
    <i name="e_fr_energy">    -10.83544826 </i>
    <i name="e_wo_entrp">    -10.83544558 </i>
    <i name="e_0_energy">    -10.83544692 </i>
   </energy>
  </scstep>
  <scstep>
   <time name="dav">    0.09    0.09</time>
   <time name="total">    0.11    0.12</time>
   <energy>
    <i name="alphaZ">      3.36414203 </i>
    <i name="ewald">   -228.56352493 </i>
    <i name="hartreedc">    -14.91290824 </i>
    <i name="XCdc">    -17.95875102 </i>
    <i name="pawpsdc">     74.51670579 </i>
    <i name="pawaedc">    -39.55619474 </i>
    <i name="eentropy">     -0.00000265 </i>
    <i name="bandstr">      6.14530467 </i>
    <i name="atom">    206.12968587 </i>
    <i name="e_fr_energy">    -10.83554322 </i>
    <i name="e_wo_entrp">    -10.83554057 </i>
    <i name="e_0_energy">    -10.83554190 </i>
   </energy>
  </scstep>
  <structure>
   <crystal>
    <varray name="basis" >
     <v>       0.00000000       2.71500000       2.71500000 </v>
     <v>       2.71500000       0.00000000       2.71500000 </v>
     <v>       2.71500000       2.71500000       0.00000000 </v>
    </varray>
    <i name="volume">     40.02575175 </i>
    <varray name="rec_basis" >
     <v>      -0.18416206       0.18416206       0.18416206 </v>
     <v>       0.18416206      -0.18416206       0.18416206 </v>
     <v>       0.18416206       0.18416206      -0.18416206 </v>
    </varray>
   </crystal>
   <varray name="positions" >
    <v>       0.50000000       0.50000000       0.50000000 </v>
    <v>       0.75000000       0.75000000       0.75000000 </v>
   </varray>
  </structure>
  <varray name="forces" >
   <v>       0.00000000      -0.00000000      -0.00000000 </v>
   <v>      -0.00000000       0.00000000       0.00000000 </v>
  </varray>
  <varray name="stress" >
   <v>      18.86082520       0.00000000      -0.00000000 </v>
   <v>       0.00000000      18.86082520      -0.00000000 </v>
   <v>       0.00000000      -0.00000000      18.86082520 </v>
  </varray>
  <energy>
   <i name="e_fr_energy">    -10.83554322 </i>
   <i name="e_wo_entrp">    -10.83554190 </i>
   <i name="e_0_energy">     -0.00000265 </i>
  </energy>
  <time name="totalsc">    2.00    2.41</time>
 </calculation>
 <calculation>
  <scstep>
   <time name="dav">    0.10    0.10</time>
   <time name="total">    0.14    0.14</time>
   <energy>
    <i name="alphaZ">      3.25199480 </i>
    <i name="ewald">   -225.99496580 </i>
    <i name="hartreedc">    -14.75669821 </i>
    <i name="XCdc">    -18.12457431 </i>
    <i name="pawpsdc">     74.51276949 </i>
    <i name="pawaedc">    -39.55321340 </i>
    <i name="eentropy">     -0.00000059 </i>
    <i name="bandstr">      3.69076197 </i>
    <i name="atom">    206.12968587 </i>
    <i name="e_fr_energy">    -10.84424018 </i>
    <i name="e_wo_entrp">    -10.84423959 </i>
    <i name="e_0_energy">    -10.84423989 </i>
   </energy>
  </scstep>
  <scstep>
   <time name="dav">    0.10    0.10</time>
   <time name="total">    0.14    0.15</time>
   <energy>
    <i name="e_fr_energy">    -10.84009452 </i>
    <i name="e_wo_entrp">    -10.84009368 </i>
    <i name="e_0_energy">    -10.84009410 </i>
   </energy>
  </scstep>
  <scstep>
   <time name="dav">    0.10    0.10</time>
   <time name="total">    0.14    0.15</time>
   <energy>
    <i name="e_fr_energy">    -10.83792575 </i>
    <i name="e_wo_entrp">    -10.83792443 </i>
    <i name="e_0_energy">    -10.83792509 </i>
   </energy>
  </scstep>
  <scstep>
   <time name="dav">    0.05    0.05</time>
   <time name="total">    0.08    0.08</time>
   <energy>
    <i name="alphaZ">      3.25199480 </i>
    <i name="ewald">   -225.99496580 </i>
    <i name="hartreedc">    -15.32429961 </i>
    <i name="XCdc">    -18.11295170 </i>
    <i name="pawpsdc">     73.48640247 </i>
    <i name="pawaedc">    -38.49849549 </i>
    <i name="eentropy">     -0.00000129 </i>
    <i name="bandstr">      4.22471592 </i>
    <i name="atom">    206.12968587 </i>
    <i name="e_fr_energy">    -10.83791482 </i>
    <i name="e_wo_entrp">    -10.83791354 </i>
    <i name="e_0_energy">    -10.83791418 </i>
   </energy>
  </scstep>
  <structure>
   <crystal>
    <varray name="basis" >
     <v>       0.00000000       2.74585749       2.74585749 </v>
     <v>       2.74585749       0.00000000       2.74585749 </v>
     <v>       2.74585749       2.74585749      -0.00000000 </v>
    </varray>
    <i name="volume">     41.40606674 </i>
    <varray name="rec_basis" >
     <v>      -0.18209248       0.18209248       0.18209248 </v>
     <v>       0.18209248      -0.18209248       0.18209248 </v>
     <v>       0.18209248       0.18209248      -0.18209248 </v>
    </varray>
   </crystal>
   <varray name="positions" >
    <v>       0.50000000       0.50000000       0.50000000 </v>
    <v>       0.75000000       0.75000000       0.75000000 </v>
   </varray>
  </structure>
  <varray name="forces" >
   <v>       0.00000000       0.00000000       0.00000000 </v>
   <v>      -0.00000000      -0.00000000      -0.00000000 </v>
  </varray>
  <varray name="stress" >
   <v>     -12.08128510       0.00000000      -0.00000000 </v>
   <v>       0.00000000     -12.08128510       0.00000000 </v>
   <v>      -0.00000000       0.00000000     -12.08128510 </v>
  </varray>
  <energy>
   <i name="e_fr_energy">    -10.83791482 </i>
   <i name="e_wo_entrp">    -10.83791418 </i>
   <i name="e_0_energy">     -0.00000129 </i>
  </energy>
  <time name="totalsc">    0.68    0.75</time>
 </calculation>
 <calculation>
  <scstep>
   <time name="dav">    0.10    0.10</time>
   <time name="total">    0.14    0.14</time>
   <energy>
    <i name="alphaZ">      3.29608424 </i>
    <i name="ewald">   -227.01170574 </i>
    <i name="hartreedc">    -15.39543089 </i>
    <i name="XCdc">    -18.04834641 </i>
    <i name="pawpsdc">     73.44877883 </i>
    <i name="pawaedc">    -38.45924390 </i>
    <i name="eentropy">     -0.00000228 </i>
    <i name="bandstr">      5.19904348 </i>
    <i name="atom">    206.12968587 </i>
    <i name="e_fr_energy">    -10.84113678 </i>
    <i name="e_wo_entrp">    -10.84113451 </i>
    <i name="e_0_energy">    -10.84113565 </i>
   </energy>
  </scstep>
  <scstep>
   <time name="dav">    0.10    0.10</time>
   <time name="total">    0.14    0.16</time>
   <energy>
    <i name="e_fr_energy">    -10.84047295 </i>
    <i name="e_wo_entrp">    -10.84047097 </i>
    <i name="e_0_energy">    -10.84047196 </i>
   </energy>
  </scstep>
  <scstep>
   <time name="dav">    0.07    0.07</time>
   <time name="total">    0.10    0.11</time>
   <energy>
    <i name="alphaZ">      3.29608424 </i>
    <i name="ewald">   -227.01170574 </i>
    <i name="hartreedc">    -15.16400220 </i>
    <i name="XCdc">    -18.05385306 </i>
    <i name="pawpsdc">     73.79683534 </i>
    <i name="pawaedc">    -38.81605671 </i>
    <i name="eentropy">     -0.00000166 </i>
    <i name="bandstr">      4.98288163 </i>
    <i name="atom">    206.12968587 </i>
    <i name="e_fr_energy">    -10.84013228 </i>
    <i name="e_wo_entrp">    -10.84013062 </i>
    <i name="e_0_energy">    -10.84013145 </i>
   </energy>
  </scstep>
  <structure>
   <crystal>
    <varray name="basis" >
     <v>       0.00000000       2.73355935       2.73355935 </v>
     <v>       2.73355935       0.00000000       2.73355935 </v>
     <v>       2.73355935       2.73355935      -0.00000000 </v>
    </varray>
    <i name="volume">     40.85220637 </i>
    <varray name="rec_basis" >
     <v>      -0.18291170       0.18291170       0.18291170 </v>
     <v>       0.18291170      -0.18291170       0.18291170 </v>
     <v>       0.18291170       0.18291170      -0.18291170 </v>
    </varray>
   </crystal>
   <varray name="positions" >
    <v>       0.50000000       0.50000000       0.50000000 </v>
    <v>       0.75000000       0.75000000       0.75000000 </v>
   </varray>
  </structure>
  <varray name="forces" >
   <v>      -0.00000000      -0.00000000      -0.00000000 </v>
   <v>       0.00000000       0.00000000       0.00000000 </v>
  </varray>
  <varray name="stress" >
   <v>      -0.49123447       0.00000000      -0.00000000 </v>
   <v>       0.00000000      -0.49123447       0.00000000 </v>
   <v>      -0.00000000       0.00000000      -0.49123447 </v>
  </varray>
  <energy>
   <i name="e_fr_energy">    -10.84013228 </i>
   <i name="e_wo_entrp">    -10.84013145 </i>
   <i name="e_0_energy">     -0.00000166 </i>
  </energy>
  <time name="totalsc">    0.57    0.91</time>
  <eigenvalues>
   <array>
    <dimension dim="1">band</dimension>
    <dimension dim="2">kpoint</dimension>
    <dimension dim="3">spin</dimension>
    <field>eigene</field>
    <field>occ</field>
    <set>
     <set comment="spin 1">
      <set comment="kpoint 1">
       <r>   -5.9948    1.0000 </r>
       <r>    4.0359    1.0000 </r>
       <r>    5.3446    1.0000 </r>
       <r>    5.3446    1.0000 </r>
       <r>    8.0751    0.0000 </r>
       <r>    8.6029    0.0000 </r>
       <r>    8.6029    0.0000 </r>
       <r>   10.1685    0.0000 </r>
      </set>
      <set comment="kpoint 2">
       <r>   -4.9676    1.0000 </r>
       <r>    1.0431    1.0000 </r>
       <r>    3.3582    1.0000 </r>
       <r>    4.8655    1.0000 </r>
       <r>    8.2891    0.0000 </r>
       <r>    9.2943    0.0000 </r>
       <r>    9.4702    0.0000 </r>
       <r>   11.8483    0.0000 </r>
      </set>
      <set comment="kpoint 3">
       <r>   -3.8273    1.0000 </r>
       <r>   -1.0358    1.0000 </r>
       <r>    3.3799    1.0000 </r>
       <r>    4.0936    1.0000 </r>
       <r>    7.7957    0.0000 </r>
       <r>    9.1230    0.0000 </r>
       <r>    9.7290    0.0000 </r>
       <r>   12.9455    0.0000 </r>
      </set>
      <set comment="kpoint 4">
       <r>   -5.4666    1.0000 </r>
       <r>    2.4201    1.0000 </r>
       <r>    4.3367    1.0000 </r>
       <r>    4.4014    1.0000 </r>
       <r>    7.7761    0.0000 </r>
       <r>    9.2588    0.0000 </r>
       <r>   10.0627    0.0000 </r>
       <r>   10.3752    0.0000 </r>
      </set>
      <set comment="kpoint 5">
       <r>   -4.4348    1.0000 </r>
       <r>    0.7100    1.0000 </r>
       <r>    3.0097    1.0000 </r>
       <r>    3.4626    1.0000 </r>
       <r>    7.0015    0.0000 </r>
       <r>    8.5360    0.0000 </r>
       <r>   11.5486    0.0000 </r>
       <r>   11.8469    0.0000 </r>
      </set>
      <set comment="kpoint 6">
       <r>   -2.7943    1.0000 </r>
       <r>   -1.2525    1.0000 </r>
       <r>    1.6543    1.0000 </r>
       <r>    2.7314    1.0000 </r>
       <r>    8.0266    0.0000 </r>
       <r>    9.9040    0.0000 </r>
       <r>   10.8498    0.0000 </r>
       <r>   12.9929    0.0000 </r>
      </set>
      <set comment="kpoint 7">
       <r>   -4.0191    1.0000 </r>
       <r>   -0.1640    1.0000 </r>
       <r>    2.3676    1.0000 </r>
       <r>    3.7373    1.0000 </r>
       <r>    8.4969    0.0000 </r>
       <r>    9.1635    0.0000 </r>
       <r>   10.6136    0.0000 </r>
       <r>   11.5185    0.0000 </r>
      </set>
      <set comment="kpoint 8">
       <r>   -2.9622    1.0000 </r>
       <r>   -1.1550    1.0000 </r>
       <r>    2.2647    1.0000 </r>
       <r>    2.9957    1.0000 </r>
       <r>    6.5610    0.0000 </r>
       <r>    7.6161    0.0000 </r>
       <r>   13.8188    0.0000 </r>
       <r>   13.8745    0.0000 </r>
      </set>
      <set comment="kpoint 9">
       <r>   -4.5345    1.0000 </r>
       <r>   -0.2478    1.0000 </r>
       <r>    4.5582    1.0000 </r>
       <r>    4.5582    1.0000 </r>
       <r>    7.2276    0.0000 </r>
       <r>    9.0863    0.0000 </r>
       <r>    9.0863    0.0000 </r>
       <r>   13.4700    0.0000 </r>
      </set>
      <set comment="kpoint 10">
       <r>   -3.3315    1.0000 </r>
       <r>   -0.9504    1.0000 </r>
       <r>    1.7129    1.0000 </r>
       <r>    3.7763    1.0000 </r>
       <r>    7.4875    0.0000 </r>
       <r>   11.0399    0.0000 </r>
       <r>   11.0804    0.0000 </r>
       <r>   12.5241    0.0000 </r>
      </set>
     </set>
    </set>
   </array>
  </eigenvalues>
  <separator name="orbital magnetization" >
   <v name="MAGDIPOLOUT">      0.00000000      0.00000000      0.00000000</v>
  </separator>
  <dos>
   <i name="efermi">      5.94644025 </i>
   <total>
    <array>
     <dimension dim="1">gridpoints</dimension>
     <dimension dim="2">spin</dimension>
     <field>energy</field>
     <field>total</field>
     <field>integrated</field>
     <set>
      <set comment="spin 1">
       <r>    -7.9948     0.0000     0.0000 </r>
       <r>    -7.9152     0.0000     0.0000 </r>
       <r>    -7.8357     0.0000     0.0000 </r>
       <r>    -7.7561     0.0000     0.0000 </r>
       <r>    -7.6765     0.0000     0.0000 </r>
       <r>    -7.5970     0.0000     0.0000 </r>
       <r>    -7.5174     0.0000     0.0000 </r>
       <r>    -7.4378     0.0000     0.0000 </r>
       <r>    -7.3583     0.0000     0.0000 </r>
       <r>    -7.2787     0.0000     0.0000 </r>
       <r>    -7.1991     0.0000     0.0000 </r>
       <r>    -7.1196     0.0000     0.0000 </r>
       <r>    -7.0400     0.0000     0.0000 </r>
       <r>    -6.9605     0.0000     0.0000 </r>
       <r>    -6.8809     0.0000     0.0000 </r>
       <r>    -6.8013     0.0000     0.0000 </r>
       <r>    -6.7218     0.0000     0.0000 </r>
       <r>    -6.6422     0.0000     0.0000 </r>
       <r>    -6.5626     0.0000     0.0000 </r>
       <r>    -6.4831     0.0002     0.0000 </r>
       <r>    -6.4035     0.0013     0.0001 </r>
       <r>    -6.3239     0.0063     0.0006 </r>
       <r>    -6.2444     0.0226     0.0024 </r>
       <r>    -6.1648     0.0596     0.0072 </r>
       <r>    -6.0852     0.1151     0.0163 </r>
       <r>    -6.0057     0.1636     0.0293 </r>
       <r>    -5.9261     0.1717     0.0430 </r>
       <r>    -5.8466     0.1378     0.0540 </r>
       <r>    -5.7670     0.1048     0.0623 </r>
       <r>    -5.6874     0.1303     0.0727 </r>
       <r>    -5.6079     0.2443     0.0921 </r>
       <r>    -5.5283     0.4085     0.1246 </r>
       <r>    -5.4487     0.5170     0.1658 </r>
       <r>    -5.3692     0.4860     0.2044 </r>
       <r>    -5.2896     0.3515     0.2324 </r>
       <r>    -5.2100     0.2412     0.2516 </r>
       <r>    -5.1305     0.2535     0.2718 </r>
       <r>    -5.0509     0.3778     0.3018 </r>
       <r>    -4.9713     0.5027     0.3418 </r>
       <r>    -4.8918     0.5113     0.3825 </r>
       <r>    -4.8122     0.3995     0.4143 </r>
       <r>    -4.7327     0.2828     0.4368 </r>
       <r>    -4.6531     0.2806     0.4591 </r>
       <r>    -4.5735     0.4146     0.4921 </r>
       <r>    -4.4940     0.5923     0.5392 </r>
       <r>    -4.4144     0.6773     0.5931 </r>
       <r>    -4.3348     0.6198     0.6424 </r>
       <r>    -4.2553     0.5335     0.6849 </r>
       <r>    -4.1757     0.5978     0.7324 </r>
       <r>    -4.0961     0.8630     0.8011 </r>
       <r>    -4.0166     1.1714     0.8943 </r>
       <r>    -3.9370     1.3058     0.9982 </r>
       <r>    -3.8574     1.1914     1.0930 </r>
       <r>    -3.7779     0.9113     1.1655 </r>
       <r>    -3.6983     0.5920     1.2126 </r>
       <r>    -3.6188     0.3435     1.2399 </r>
       <r>    -3.5392     0.2431     1.2593 </r>
       <r>    -3.4596     0.3027     1.2834 </r>
       <r>    -3.3801     0.4442     1.3187 </r>
       <r>    -3.3005     0.5395     1.3616 </r>
       <r>    -3.2209     0.5271     1.4036 </r>
       <r>    -3.1414     0.4909     1.4426 </r>
       <r>    -3.0618     0.5742     1.4883 </r>
       <r>    -2.9822     0.8245     1.5539 </r>
       <r>    -2.9027     1.1420     1.6448 </r>
       <r>    -2.8231     1.3441     1.7517 </r>
       <r>    -2.7436     1.2808     1.8536 </r>
       <r>    -2.6640     0.9578     1.9298 </r>
       <r>    -2.5844     0.5484     1.9735 </r>
       <r>    -2.5049     0.2363     1.9923 </r>
       <r>    -2.4253     0.0758     1.9983 </r>
       <r>    -2.3457     0.0180     1.9997 </r>
       <r>    -2.2662     0.0031     2.0000 </r>
       <r>    -2.1866     0.0004     2.0000 </r>
       <r>    -2.1070     0.0000     2.0000 </r>
       <r>    -2.0275     0.0000     2.0000 </r>
       <r>    -1.9479     0.0000     2.0000 </r>
       <r>    -1.8683     0.0000     2.0000 </r>
       <r>    -1.7888     0.0003     2.0000 </r>
       <r>    -1.7092     0.0027     2.0002 </r>
       <r>    -1.6297     0.0160     2.0015 </r>
       <r>    -1.5501     0.0708     2.0071 </r>
       <r>    -1.4705     0.2334     2.0257 </r>
       <r>    -1.3910     0.5771     2.0716 </r>
       <r>    -1.3114     1.0849     2.1580 </r>
       <r>    -1.2318     1.5868     2.2842 </r>
       <r>    -1.1523     1.8742     2.4333 </r>
       <r>    -1.0727     1.8752     2.5825 </r>
       <r>    -0.9931     1.6501     2.7138 </r>
       <r>    -0.9136     1.2763     2.8154 </r>
       <r>    -0.8340     0.8358     2.8819 </r>
       <r>    -0.7544     0.4426     2.9171 </r>
       <r>    -0.6749     0.1843     2.9317 </r>
       <r>    -0.5953     0.0668     2.9371 </r>
       <r>    -0.5158     0.0560     2.9415 </r>
       <r>    -0.4362     0.1490     2.9534 </r>
       <r>    -0.3566     0.3822     2.9838 </r>
       <r>    -0.2771     0.7462     3.0431 </r>
       <r>    -0.1975     1.0897     3.1298 </r>
       <r>    -0.1179     1.1859     3.2242 </r>
       <r>    -0.0384     0.9588     3.3005 </r>
       <r>     0.0412     0.5745     3.3462 </r>
       <r>     0.1208     0.2546     3.3665 </r>
       <r>     0.2003     0.0836     3.3731 </r>
       <r>     0.2799     0.0225     3.3749 </r>
       <r>     0.3595     0.0163     3.3762 </r>
       <r>     0.4390     0.0502     3.3802 </r>
       <r>     0.5186     0.1423     3.3915 </r>
       <r>     0.5981     0.2999     3.4154 </r>
       <r>     0.6777     0.4696     3.4527 </r>
       <r>     0.7573     0.5608     3.4973 </r>
       <r>     0.8368     0.5536     3.5414 </r>
       <r>     0.9164     0.5314     3.5837 </r>
       <r>     0.9960     0.5537     3.6277 </r>
       <r>     1.0755     0.5608     3.6723 </r>
       <r>     1.1551     0.4703     3.7098 </r>
       <r>     1.2347     0.3065     3.7342 </r>
       <r>     1.3142     0.1779     3.7483 </r>
       <r>     1.3938     0.1884     3.7633 </r>
       <r>     1.4734     0.4096     3.7959 </r>
       <r>     1.5529     0.8427     3.8629 </r>
       <r>     1.6325     1.3195     3.9679 </r>
       <r>     1.7120     1.5375     4.0902 </r>
       <r>     1.7916     1.3323     4.1962 </r>
       <r>     1.8712     0.8638     4.2650 </r>
       <r>     1.9507     0.4430     4.3002 </r>
       <r>     2.0303     0.2686     4.3216 </r>
       <r>     2.1099     0.3938     4.3529 </r>
       <r>     2.1894     0.8024     4.4168 </r>
       <r>     2.2690     1.3795     4.5265 </r>
       <r>     2.3486     1.8572     4.6743 </r>
       <r>     2.4281     1.9618     4.8304 </r>
       <r>     2.5077     1.6955     4.9653 </r>
       <r>     2.5873     1.3659     5.0739 </r>
       <r>     2.6668     1.2426     5.1728 </r>
       <r>     2.7464     1.2912     5.2756 </r>
       <r>     2.8259     1.3400     5.3822 </r>
       <r>     2.9055     1.3431     5.4890 </r>
       <r>     2.9851     1.3205     5.5941 </r>
       <r>     3.0646     1.2228     5.6914 </r>
       <r>     3.1442     1.0603     5.7757 </r>
       <r>     3.2238     1.0102     5.8561 </r>
       <r>     3.3033     1.1999     5.9516 </r>
       <r>     3.3829     1.4846     6.0697 </r>
       <r>     3.4625     1.6062     6.1975 </r>
       <r>     3.5420     1.5386     6.3199 </r>
       <r>     3.6216     1.5070     6.4398 </r>
       <r>     3.7012     1.6280     6.5694 </r>
       <r>     3.7807     1.7120     6.7056 </r>
       <r>     3.8603     1.5525     6.8291 </r>
       <r>     3.9398     1.2403     6.9278 </r>
       <r>     4.0194     1.0135     7.0084 </r>
       <r>     4.0990     0.9481     7.0839 </r>
       <r>     4.1785     0.9762     7.1615 </r>
       <r>     4.2581     1.0657     7.2463 </r>
       <r>     4.3377     1.1952     7.3414 </r>
       <r>     4.4172     1.2585     7.4415 </r>
       <r>     4.4968     1.1546     7.5334 </r>
       <r>     4.5764     0.9182     7.6065 </r>
       <r>     4.6559     0.6840     7.6609 </r>
       <r>     4.7355     0.5643     7.7058 </r>
       <r>     4.8151     0.5609     7.7504 </r>
       <r>     4.8946     0.5666     7.7955 </r>
       <r>     4.9742     0.4825     7.8339 </r>
       <r>     5.0537     0.3317     7.8603 </r>
       <r>     5.1333     0.2224     7.8780 </r>
       <r>     5.2129     0.2222     7.8957 </r>
       <r>     5.2924     0.2968     7.9193 </r>
       <r>     5.3720     0.3493     7.9471 </r>
       <r>     5.4516     0.3122     7.9719 </r>
       <r>     5.5311     0.2060     7.9883 </r>
       <r>     5.6107     0.1000     7.9963 </r>
       <r>     5.6903     0.0356     7.9991 </r>
       <r>     5.7698     0.0093     7.9998 </r>
       <r>     5.8494     0.0018     8.0000 </r>
       <r>     5.9289     0.0003     8.0000 </r>
       <r>     6.0085     0.0001     8.0000 </r>
       <r>     6.0881     0.0009     8.0001 </r>
       <r>     6.1676     0.0054     8.0005 </r>
       <r>     6.2472     0.0248     8.0025 </r>
       <r>     6.3268     0.0839     8.0092 </r>
       <r>     6.4063     0.2079     8.0257 </r>
       <r>     6.4859     0.3788     8.0558 </r>
       <r>     6.5655     0.5085     8.0963 </r>
       <r>     6.6450     0.5091     8.1368 </r>
       <r>     6.7246     0.4049     8.1690 </r>
       <r>     6.8042     0.3244     8.1948 </r>
       <r>     6.8837     0.3644     8.2238 </r>
       <r>     6.9633     0.4900     8.2628 </r>
       <r>     7.0428     0.5792     8.3089 </r>
       <r>     7.1224     0.5598     8.3534 </r>
       <r>     7.2020     0.4784     8.3915 </r>
       <r>     7.2815     0.4391     8.4264 </r>
       <r>     7.3611     0.5187     8.4677 </r>
       <r>     7.4407     0.7271     8.5256 </r>
       <r>     7.5202     1.0027     8.6053 </r>
       <r>     7.5998     1.2626     8.7058 </r>
       <r>     7.6794     1.4639     8.8223 </r>
       <r>     7.7589     1.5925     8.9490 </r>
       <r>     7.8385     1.6422     9.0796 </r>
       <r>     7.9181     1.6453     9.2105 </r>
       <r>     7.9976     1.6339     9.3405 </r>
       <r>     8.0772     1.5603     9.4647 </r>
       <r>     8.1567     1.3897     9.5753 </r>
       <r>     8.2363     1.2332     9.6734 </r>
       <r>     8.3159     1.2622     9.7738 </r>
       <r>     8.3954     1.5265     9.8953 </r>
       <r>     8.4750     1.8705    10.0441 </r>
       <r>     8.5546     1.9964    10.2029 </r>
       <r>     8.6341     1.7132    10.3392 </r>
       <r>     8.7137     1.1501    10.4307 </r>
       <r>     8.7933     0.6394    10.4816 </r>
       <r>     8.8728     0.4464    10.5171 </r>
       <r>     8.9524     0.6792    10.5712 </r>
       <r>     9.0320     1.3010    10.6747 </r>
       <r>     9.1115     2.0787    10.8401 </r>
       <r>     9.1911     2.6218    11.0487 </r>
       <r>     9.2706     2.6535    11.2598 </r>
       <r>     9.3502     2.2374    11.4378 </r>
       <r>     9.4298     1.6690    11.5706 </r>
       <r>     9.5093     1.2024    11.6663 </r>
       <r>     9.5889     0.9459    11.7415 </r>
       <r>     9.6685     0.9216    11.8149 </r>
       <r>     9.7480     1.0968    11.9021 </r>
       <r>     9.8276     1.3663    12.0108 </r>
       <r>     9.9072     1.5757    12.1362 </r>
       <r>     9.9867     1.5999    12.2635 </r>
       <r>    10.0663     1.4247    12.3769 </r>
       <r>    10.1459     1.1511    12.4684 </r>
       <r>    10.2254     0.9184    12.5415 </r>
       <r>    10.3050     0.8184    12.6066 </r>
       <r>    10.3845     0.8583    12.6749 </r>
       <r>    10.4641     0.9998    12.7545 </r>
       <r>    10.5437     1.2008    12.8500 </r>
       <r>    10.6232     1.3961    12.9611 </r>
       <r>    10.7028     1.5239    13.0823 </r>
       <r>    10.7824     1.5978    13.2095 </r>
       <r>    10.8619     1.6582    13.3414 </r>
       <r>    10.9415     1.6846    13.4754 </r>
       <r>    11.0211     1.6166    13.6041 </r>
       <r>    11.1006     1.4026    13.7157 </r>
       <r>    11.1802     1.0623    13.8002 </r>
       <r>    11.2598     0.7559    13.8603 </r>
       <r>    11.3393     0.7115    13.9169 </r>
       <r>    11.4189     1.0069    13.9970 </r>
       <r>    11.4984     1.4351    14.1112 </r>
       <r>    11.5780     1.6608    14.2434 </r>
       <r>    11.6576     1.5751    14.3687 </r>
       <r>    11.7371     1.3865    14.4790 </r>
       <r>    11.8167     1.2766    14.5806 </r>
       <r>    11.8963     1.1586    14.6728 </r>
       <r>    11.9758     0.8915    14.7437 </r>
       <r>    12.0554     0.5311    14.7860 </r>
       <r>    12.1350     0.2413    14.8051 </r>
       <r>    12.2145     0.1038    14.8134 </r>
       <r>    12.2941     0.1073    14.8219 </r>
       <r>    12.3737     0.2197    14.8394 </r>
       <r>    12.4532     0.3888    14.8704 </r>
       <r>    12.5328     0.5159    14.9114 </r>
       <r>    12.6123     0.5247    14.9532 </r>
       <r>    12.6919     0.4761    14.9910 </r>
       <r>    12.7715     0.5525    15.0350 </r>
       <r>    12.8510     0.8742    15.1045 </r>
       <r>    12.9306     1.3153    15.2092 </r>
       <r>    13.0102     1.5499    15.3325 </r>
       <r>    13.0897     1.3677    15.4413 </r>
       <r>    13.1693     0.9020    15.5131 </r>
       <r>    13.2489     0.4639    15.5500 </r>
       <r>    13.3284     0.2325    15.5685 </r>
       <r>    13.4080     0.1804    15.5829 </r>
       <r>    13.4876     0.2042    15.5991 </r>
       <r>    13.5671     0.2555    15.6194 </r>
       <r>    13.6467     0.3766    15.6494 </r>
       <r>    13.7262     0.6172    15.6985 </r>
       <r>    13.8058     0.9005    15.7702 </r>
       <r>    13.8854     1.0301    15.8521 </r>
       <r>    13.9649     0.8878    15.9228 </r>
       <r>    14.0445     0.5705    15.9681 </r>
       <r>    14.1241     0.2725    15.9898 </r>
       <r>    14.2036     0.0966    15.9975 </r>
       <r>    14.2832     0.0254    15.9995 </r>
       <r>    14.3628     0.0049    15.9999 </r>
       <r>    14.4423     0.0007    16.0000 </r>
       <r>    14.5219     0.0001    16.0000 </r>
       <r>    14.6014     0.0000    16.0000 </r>
       <r>    14.6810     0.0000    16.0000 </r>
       <r>    14.7606     0.0000    16.0000 </r>
       <r>    14.8401     0.0000    16.0000 </r>
       <r>    14.9197     0.0000    16.0000 </r>
       <r>    14.9993     0.0000    16.0000 </r>
       <r>    15.0788     0.0000    16.0000 </r>
       <r>    15.1584     0.0000    16.0000 </r>
       <r>    15.2380     0.0000    16.0000 </r>
       <r>    15.3175     0.0000    16.0000 </r>
       <r>    15.3971     0.0000    16.0000 </r>
       <r>    15.4767     0.0000    16.0000 </r>
       <r>    15.5562     0.0000    16.0000 </r>
       <r>    15.6358     0.0000    16.0000 </r>
       <r>    15.7153     0.0000    16.0000 </r>
       <r>    15.7949     0.0000    16.0000 </r>
       <r>    15.8745     0.0000    16.0000 </r>
      </set>
     </set>
    </array>
   </total>
  </dos>
 </calculation>
 <structure name="finalpos" >
  <crystal>
   <varray name="basis" >
    <v>       0.00000000       2.73355935       2.73355935 </v>
    <v>       2.73355935       0.00000000       2.73355935 </v>
    <v>       2.73355935       2.73355935      -0.00000000 </v>
   </varray>
   <i name="volume">     40.85220637 </i>
   <varray name="rec_basis" >
    <v>      -0.18291170       0.18291170       0.18291170 </v>
    <v>       0.18291170      -0.18291170       0.18291170 </v>
    <v>       0.18291170       0.18291170      -0.18291170 </v>
   </varray>
  </crystal>
  <varray name="positions" >
   <v>       0.50000000       0.50000000       0.50000000 </v>
   <v>       0.75000000       0.75000000       0.75000000 </v>
  </varray>
 </structure>
</modeling>
