unknown system                          
   1.00000000000000     
    -0.000000    2.733640    2.733640
     2.733640    0.000000    2.733640
     2.733640    2.733640   -0.000000
   Si
     2
Direct
  0.500000  0.500000  0.500000
  0.750000  0.750000  0.750000
 
   32   32   32
 0.85788713461E+00 0.87796369414E+00 0.94004987866E+00 0.10493163523E+01 0.12133073774E+01
 0.14408936389E+01 0.17413349898E+01 0.21230866074E+01 0.25915631340E+01 0.31453913750E+01
 0.37717779541E+01 0.44427649913E+01 0.51144311374E+01 0.57303058738E+01 0.62289676867E+01
 0.65545475917E+01 0.66677782723E+01 0.65545130541E+01 0.62289286034E+01 0.57302865426E+01
 0.51144261119E+01 0.44427542527E+01 0.37717554011E+01 0.31453698889E+01 0.25915565793E+01
 0.21230952956E+01 0.17413484651E+01 0.14409021678E+01 0.12133091293E+01 0.10493157851E+01
 0.94005100813E+00 0.87796575197E+00 0.87796369414E+00 0.91228233790E+00 0.98404303392E+00
 0.10987830579E+01 0.12633778372E+01 0.14849666092E+01 0.17699744351E+01 0.21228963983E+01
 0.25443140065E+01 0.30279641896E+01 0.35575076409E+01 0.41044239618E+01 0.46285956972E+01
 0.50824426133E+01 0.54182510880E+01 0.55971193759E+01 0.55971262392E+01 0.54182488224E+01
 0.50823974999E+01 0.46285173826E+01 0.41043617035E+01 0.35574947222E+01 0.30279861421E+01
 0.25443363051E+01 0.21229059009E+01 0.17699820899E+01 0.14849812902E+01 0.12633942001E+01
 0.10987935629E+01 0.98404839427E+00 0.91228617759E+00 0.87796548919E+00 0.94004987866E+00
 0.98404303392E+00 0.10615910802E+01 0.11779949983E+01 0.13389989734E+01 0.15497982003E+01
 0.18141384243E+01 0.21332022930E+01 0.25039529563E+01 0.29169579129E+01 0.33543111445E+01
 0.37887822836E+01 0.41853503367E+01 0.45056142529E+01 0.47144238052E+01 0.47870058467E+01
 0.47144238006E+01 0.45056174687E+01 0.41853570014E+01 0.37887858016E+01 0.33543057765E+01
 0.29169506091E+01 0.25039585980E+01 0.21332225075E+01 0.18141551801E+01 0.15497970418E+01
 0.13389888877E+01 0.11779934603E+01 0.10615984122E+01 0.98404678256E+00 0.94004766603E+00
 0.92583942855E+00 0.10493163523E+01 0.10987830579E+01 0.11779949983E+01 0.12916031055E+01
 0.14440532500E+01 0.16387536245E+01 0.18772890584E+01 0.21584345513E+01 0.24767962423E+01
 0.28212405829E+01 0.31737240496E+01 0.35094325388E+01 0.37989846094E+01 0.40127640753E+01
 0.41264998376E+01 0.41264876322E+01 0.40127422704E+01 0.37989837489E+01 0.35094666705E+01
 0.31737703932E+01 0.28212600364E+01 0.24767768563E+01 0.21584029624E+01 0.18772744909E+01
 0.16387554659E+01 0.14440533102E+01 0.12915951714E+01 0.11779875525E+01 0.10987816877E+01
 0.10493180023E+01 0.10256992146E+01 0.10256983542E+01 0.12133073774E+01 0.12633778372E+01
 0.13389989734E+01 0.14440532500E+01 0.15818537992E+01 0.17544866957E+01 0.19620889298E+01
 0.22019163577E+01 0.24672196845E+01 0.27462163271E+01 0.30217177112E+01 0.32720508269E+01
 0.34736209021E+01 0.36048339088E+01 0.36504220387E+01 0.36048481086E+01 0.34736208699E+01
 0.32720221139E+01 0.30216809980E+01 0.27461979626E+01 0.24672175964E+01 0.22019085509E+01
 0.19620663395E+01 0.17544631877E+01 0.15818460530E+01 0.14440622061E+01 0.13390128541E+01
 0.12633860603E+01 0.12133081758E+01 0.11850798015E+01 0.11760026340E+01 0.11850817418E+01
 0.14408936389E+01 0.14849666092E+01 0.15497982003E+01 0.16387536245E+01 0.17544866957E+01
 0.18983731427E+01 0.20697611509E+01 0.22650432439E+01 0.24767951506E+01 0.26933512578E+01
 0.28991767000E+01 0.30763003123E+01 0.32068398080E+01 0.32762210675E+01 0.32762270109E+01
 0.32068545405E+01 0.30763091410E+01 0.28991567665E+01 0.26932986826E+01 0.24767409349E+01
 0.22650239569E+01 0.20697769651E+01 0.18983913930E+01 0.17544856846E+01 0.16387452052E+01
 0.15498030319E+01 0.14849836833E+01 0.14409057187E+01 0.14140650411E+01 0.14015048314E+01
 0.14015073720E+01 0.14140650988E+01 0.17413349898E+01 0.17699744351E+01 0.18141384243E+01
 0.18772890584E+01 0.19620889298E+01 0.20697611509E+01 0.21992725934E+01 0.23465295651E+01
 0.25039521694E+01 0.26607022529E+01 0.28036214641E+01 0.29188230098E+01 0.29938218408E+01
 0.30198658302E+01 0.29938084715E+01 0.29188170392E+01 0.28036342648E+01 0.26607221637E+01
 0.25039627839E+01 0.23465270630E+01 0.21992632272E+01 0.20697543319E+01 0.19620930147E+01
 0.18773021459E+01 0.18141455648E+01 0.17699662630E+01 0.17413239801E+01 0.17244956201E+01
 0.17160466682E+01 0.17135214386E+01 0.17160355780E+01 0.17244925971E+01 0.21230866074E+01
 0.21228963983E+01 0.21332022930E+01 0.21584345513E+01 0.22019163577E+01 0.22650432439E+01
 0.23465295651E+01 0.24420234272E+01 0.25443133868E+01 0.26441063462E+01 0.27311915076E+01
 0.27958371305E+01 0.28303143663E+01 0.28303129644E+01 0.27958312260E+01 0.27311818436E+01
 0.26441049388E+01 0.25443365007E+01 0.24420668021E+01 0.23465594374E+01 0.22650298473E+01
 0.22018732987E+01 0.21584041916E+01 0.21332020721E+01 0.21229038081E+01 0.21230809026E+01
 0.21289497112E+01 0.21359684242E+01 0.21404975950E+01 0.21404947973E+01 0.21359686890E+01
 0.21289595548E+01 0.25915631340E+01 0.25443140065E+01 0.25039529563E+01 0.24767962423E+01
 0.24672196845E+01 0.24767951506E+01 0.25039521694E+01 0.25443133868E+01 0.25915610626E+01
 0.26385143636E+01 0.26781655931E+01 0.27046128451E+01 0.27138936419E+01 0.27046128734E+01
 0.26781731124E+01 0.26385265869E+01 0.25915628691E+01 0.25442985709E+01 0.25039342618E+01
 0.24767883085E+01 0.24672180639E+01 0.24767834682E+01 0.25039269695E+01 0.25442904382E+01
 0.25915543110E+01 0.26385192492E+01 0.26781694382E+01 0.27046129670E+01 0.27138953740E+01
 0.27046151422E+01 0.26781688721E+01 0.26385179144E+01 0.31453913750E+01 0.30279641896E+01
 0.29169579129E+01 0.28212405829E+01 0.27462163271E+01 0.26933512578E+01 0.26607022529E+01
 0.26441063462E+01 0.26385143636E+01 0.26390716028E+01 0.26417885376E+01 0.26438698505E+01
 0.26438725312E+01 0.26417951428E+01 0.26390834653E+01 0.26385333173E+01 0.26441174708E+01
 0.26606813023E+01 0.26933042953E+01 0.27461873395E+01 0.28212578157E+01 0.29169933918E+01
 0.30279707450E+01 0.31453629031E+01 0.32582386800E+01 0.33552545211E+01 0.34262991053E+01
 0.34638300192E+01 0.34638242260E+01 0.34262903010E+01 0.33552616944E+01 0.32582687303E+01
 0.37717779541E+01 0.35575076409E+01 0.33543111445E+01 0.31737240496E+01 0.30217177112E+01
 0.28991767000E+01 0.28036214641E+01 0.27311915076E+01 0.26781655931E+01 0.26417885376E+01
 0.26204495617E+01 0.26134142762E+01 0.26204669684E+01 0.26417915251E+01 0.26781515739E+01
 0.27311930014E+01 0.28036468669E+01 0.28991972633E+01 0.30217190434E+01 0.31737220496E+01
 0.33543125199E+01 0.35575015139E+01 0.37717693754E+01 0.39812703628E+01 0.41682656605E+01
 0.43158800691E+01 0.44104156992E+01 0.44429710758E+01 0.44104388275E+01 0.43158918029E+01
 0.41682561560E+01 0.39812647439E+01 0.44427649913E+01 0.41044239618E+01 0.37887822836E+01
 0.35094325388E+01 0.32720508269E+01 0.30763003123E+01 0.29188230098E+01 0.27958371305E+01
 0.27046128451E+01 0.26438698505E+01 0.26134142762E+01 0.26134200327E+01 0.26438767485E+01
 0.27046081055E+01 0.27958264853E+01 0.29188204420E+01 0.30763139091E+01 0.32720834936E+01
 0.35094713542E+01 0.37887880228E+01 0.41043710050E+01 0.44426945291E+01 0.47827161704E+01
 0.50985921632E+01 0.53637501998E+01 0.55548911292E+01 0.56549683440E+01 0.56549935650E+01
 0.55549219948E+01 0.53637306197E+01 0.50985546352E+01 0.47827331825E+01 0.51144311374E+01
 0.46285956972E+01 0.41853503367E+01 0.37989846094E+01 0.34736209021E+01 0.32068398080E+01
 0.29938218408E+01 0.28303143663E+01 0.27138936419E+01 0.26438725312E+01 0.26204669684E+01
 0.26438767485E+01 0.27138959546E+01 0.28303152304E+01 0.29938292120E+01 0.32068531941E+01
 0.34736254735E+01 0.37989701055E+01 0.41853276922E+01 0.46285822273E+01 0.51144234729E+01
 0.56172751806E+01 0.61026548479E+01 0.65321349261E+01 0.68691513795E+01 0.70841014577E+01
 0.71579295104E+01 0.70840956944E+01 0.68691625453E+01 0.65321719087E+01 0.61026961415E+01
 0.56172973719E+01 0.57303058738E+01 0.50824426133E+01 0.45056142529E+01 0.40127640753E+01
 0.36048339088E+01 0.32762210675E+01 0.30198658302E+01 0.28303129644E+01 0.27046128734E+01
 0.26417951428E+01 0.26417915251E+01 0.27046081055E+01 0.28303152304E+01 0.30198761100E+01
 0.32762383569E+01 0.36048507523E+01 0.40127575032E+01 0.45055724786E+01 0.50824014790E+01
 0.57303158096E+01 0.64211242232E+01 0.71124948425E+01 0.77532395074E+01 0.82907344522E+01
 0.86783003883E+01 0.88812790530E+01 0.88812794353E+01 0.86783227543E+01 0.82907914355E+01
 0.77532832812E+01 0.71124771076E+01 0.64210754284E+01 0.62289676867E+01 0.54182510880E+01
 0.47144238052E+01 0.41264998376E+01 0.36504220387E+01 0.32762270109E+01 0.29938084715E+01
 0.27958312260E+01 0.26781731124E+01 0.26390834653E+01 0.26781515739E+01 0.27958264853E+01
 0.29938292120E+01 0.32762383569E+01 0.36504086838E+01 0.41264922342E+01 0.47144440036E+01
 0.54182764950E+01 0.62289716001E+01 0.71189736654E+01 0.80411322575E+01 0.89329617207E+01
 0.97246816658E+01 0.10348610032E+02 0.10748200083E+02 0.10885808618E+02 0.10748205852E+02
 0.10348611591E+02 0.97246695258E+01 0.89329428600E+01 0.80411257225E+01 0.71189806069E+01
 0.65545475917E+01 0.55971193759E+01 0.47870058467E+01 0.41264876322E+01 0.36048481086E+01
 0.32068545405E+01 0.29188170392E+01 0.27311818436E+01 0.26385265869E+01 0.26385333173E+01
 0.27311930014E+01 0.29188204420E+01 0.32068531941E+01 0.36048507523E+01 0.41264922342E+01
 0.47870094866E+01 0.55971348931E+01 0.65545860407E+01 0.76362623831E+01 0.87947486332E+01
 0.99606774272E+01 0.11049740411E+02 0.11972188747E+02 0.12643800819E+02 0.12998083144E+02
 0.12998038892E+02 0.12643717114E+02 0.11972153131E+02 0.11049776748E+02 0.99607283697E+01
 0.87947538787E+01 0.76362242523E+01 0.66677782723E+01 0.55971262392E+01 0.47144238006E+01
 0.40127422704E+01 0.34736208699E+01 0.30763091410E+01 0.28036342648E+01 0.26441049388E+01
 0.25915628691E+01 0.26441174708E+01 0.28036468669E+01 0.30763139091E+01 0.34736254735E+01
 0.40127575032E+01 0.47144440036E+01 0.55971348931E+01 0.66677744932E+01 0.79119784416E+01
 0.92877369210E+01 0.10725229907E+02 0.12131841629E+02 0.13399767384E+02 0.14415849054E+02
 0.15075923400E+02 0.15304785834E+02 0.15075911032E+02 0.14415845896E+02 0.13399778232E+02
 0.12131844911E+02 0.10725213575E+02 0.92877182866E+01 0.79119755301E+01 0.65545130541E+01
 0.54182488224E+01 0.45056174687E+01 0.37989837489E+01 0.32720221139E+01 0.28991567665E+01
 0.26607221637E+01 0.25443365007E+01 0.25442985709E+01 0.26606813023E+01 0.28991972633E+01
 0.32720834936E+01 0.37989701055E+01 0.45055724786E+01 0.54182764950E+01 0.65545860407E+01
 0.79119784416E+01 0.94593107344E+01 0.11133912600E+02 0.12843889753E+02 0.14472408703E+02
 0.15881764036E+02 0.16920406287E+02 0.17470205642E+02 0.17470267023E+02 0.16920509210E+02
 0.15881765008E+02 0.14472285462E+02 0.12843776317E+02 0.11133922104E+02 0.94593820101E+01
 0.79119775290E+01 0.62289286034E+01 0.50823974999E+01 0.41853570014E+01 0.35094666705E+01
 0.30216809980E+01 0.26932986826E+01 0.25039627839E+01 0.24420668021E+01 0.25039342618E+01
 0.26933042953E+01 0.30217190434E+01 0.35094713542E+01 0.41853276922E+01 0.50824014790E+01
 0.62289716001E+01 0.76362623831E+01 0.92877369210E+01 0.11133912600E+02 0.13092608951E+02
 0.15050151559E+02 0.16852473598E+02 0.18305244819E+02 0.19246604136E+02 0.19572441511E+02
 0.19246563114E+02 0.18305218021E+02 0.16852461369E+02 0.15050104578E+02 0.13092539987E+02
 0.11133884878E+02 0.92877448521E+01 0.76362428725E+01 0.57302865426E+01 0.46285173826E+01
 0.37887858016E+01 0.31737703932E+01 0.27461979626E+01 0.24767409349E+01 0.23465270630E+01
 0.23465594374E+01 0.24767883085E+01 0.27461873395E+01 0.31737220496E+01 0.37887880228E+01
 0.46285822273E+01 0.57303158096E+01 0.71189736654E+01 0.87947486332E+01 0.10725229907E+02
 0.12843889753E+02 0.15050151559E+02 0.17192107841E+02 0.19048481062E+02 0.20415885967E+02
 0.21141568943E+02 0.21141471740E+02 0.20415740967E+02 0.19048494994E+02 0.17192228083E+02
 0.15050167608E+02 0.12843766543E+02 0.10725137222E+02 0.87947806689E+01 0.71190282774E+01
 0.51144261119E+01 0.41043617035E+01 0.33543057765E+01 0.28212600364E+01 0.24672175964E+01
 0.22650239569E+01 0.21992632272E+01 0.22650298473E+01 0.24672180639E+01 0.28212578157E+01
 0.33543125199E+01 0.41043710050E+01 0.51144234729E+01 0.64211242232E+01 0.80411322575E+01
 0.99606774272E+01 0.12131841629E+02 0.14472408703E+02 0.16852473598E+02 0.19048481062E+02
 0.20824251392E+02 0.21982371588E+02 0.22385216875E+02 0.21982375039E+02 0.20824234588E+02
 0.19048448181E+02 0.16852458263E+02 0.14472418796E+02 0.12131848892E+02 0.99606686434E+01
 0.80411264647E+01 0.64211309532E+01 0.44427542527E+01 0.35574947222E+01 0.29169506091E+01
 0.24767768563E+01 0.22019085509E+01 0.20697769651E+01 0.20697543319E+01 0.22018732987E+01
 0.24767834682E+01 0.29169933918E+01 0.35575015139E+01 0.44426945291E+01 0.56172751806E+01
 0.71124948425E+01 0.89329617207E+01 0.11049740411E+02 0.13399767384E+02 0.15881764036E+02
 0.18305244819E+02 0.20415885967E+02 0.21982371588E+02 0.22819306926E+02 0.22819351594E+02
 0.21982403993E+02 0.20415788349E+02 0.18305112025E+02 0.15881766581E+02 0.13399880788E+02
 0.11049794866E+02 0.89329104018E+01 0.71124567181E+01 0.56173223727E+01 0.37717554011E+01
 0.30279861421E+01 0.25039585980E+01 0.21584029624E+01 0.19620663395E+01 0.18983913930E+01
 0.19620930147E+01 0.21584041916E+01 0.25039269695E+01 0.30279707450E+01 0.37717693754E+01
 0.47827161704E+01 0.61026548479E+01 0.77532395074E+01 0.97246816658E+01 0.11972188747E+02
 0.14415849054E+02 0.16920406287E+02 0.19246604136E+02 0.21141568943E+02 0.22385216875E+02
 0.22819351594E+02 0.22385204114E+02 0.21141548254E+02 0.19246598186E+02 0.16920428545E+02
 0.14415872875E+02 0.11972186303E+02 0.97246751924E+01 0.77532627089E+01 0.61026871208E+01
 0.47827171250E+01 0.31453698889E+01 0.25443363051E+01 0.21332225075E+01 0.18772744909E+01
 0.17544631877E+01 0.17544856846E+01 0.18773021459E+01 0.21332020721E+01 0.25442904382E+01
 0.31453629031E+01 0.39812703628E+01 0.50985921632E+01 0.65321349261E+01 0.82907344522E+01
 0.10348610032E+02 0.12643800819E+02 0.15075923400E+02 0.17470205642E+02 0.19572441511E+02
 0.21141471740E+02 0.21982375039E+02 0.21982403993E+02 0.21141548254E+02 0.19572532122E+02
 0.17470263031E+02 0.15075923236E+02 0.12643773109E+02 0.10348611267E+02 0.82907769360E+01
 0.65321677113E+01 0.50985737069E+01 0.39812338755E+01 0.25915565793E+01 0.21229059009E+01
 0.18141551801E+01 0.16387554659E+01 0.15818460530E+01 0.16387452052E+01 0.18141455648E+01
 0.21229038081E+01 0.25915543110E+01 0.32582386800E+01 0.41682656605E+01 0.53637501998E+01
 0.68691513795E+01 0.86783003883E+01 0.10748200083E+02 0.12998083144E+02 0.15304785834E+02
 0.17470267023E+02 0.19246563114E+02 0.20415740967E+02 0.20824234588E+02 0.20415788349E+02
 0.19246598186E+02 0.17470263031E+02 0.15304784159E+02 0.12998120795E+02 0.10748252706E+02
 0.86783250884E+01 0.68691486035E+01 0.53637505644E+01 0.41682795304E+01 0.32582508249E+01
 0.21230952956E+01 0.17699820899E+01 0.15497970418E+01 0.14440533102E+01 0.14440622061E+01
 0.15498030319E+01 0.17699662630E+01 0.21230809026E+01 0.26385192492E+01 0.33552545211E+01
 0.43158800691E+01 0.55548911292E+01 0.70841014577E+01 0.88812790530E+01 0.10885808618E+02
 0.12998038892E+02 0.15075911032E+02 0.16920509210E+02 0.18305218021E+02 0.19048494994E+02
 0.19048448181E+02 0.18305112025E+02 0.16920428545E+02 0.15075923236E+02 0.12998120795E+02
 0.10885871679E+02 0.88812832815E+01 0.70840951126E+01 0.55549184956E+01 0.43159145809E+01
 0.33552601096E+01 0.26385148930E+01 0.17413484651E+01 0.14849812902E+01 0.13389888877E+01
 0.12915951714E+01 0.13390128541E+01 0.14849836833E+01 0.17413239801E+01 0.21289497112E+01
 0.26781694382E+01 0.34262991053E+01 0.44104156992E+01 0.56549683440E+01 0.71579295104E+01
 0.88812794353E+01 0.10748205852E+02 0.12643717114E+02 0.14415845896E+02 0.15881765008E+02
 0.16852461369E+02 0.17192228083E+02 0.16852458263E+02 0.15881766581E+02 0.14415872875E+02
 0.12643773109E+02 0.10748252706E+02 0.88812832815E+01 0.71579141635E+01 0.56549754662E+01
 0.44104344159E+01 0.34262928855E+01 0.26781502471E+01 0.21289573580E+01 0.14409021678E+01
 0.12633942001E+01 0.11779934603E+01 0.11779875525E+01 0.12633860603E+01 0.14409057187E+01
 0.17244956201E+01 0.21359684242E+01 0.27046129670E+01 0.34638300192E+01 0.44429710758E+01
 0.56549935650E+01 0.70840956944E+01 0.86783227543E+01 0.10348611591E+02 0.11972153131E+02
 0.13399778232E+02 0.14472285462E+02 0.15050104578E+02 0.15050167608E+02 0.14472418796E+02
 0.13399880788E+02 0.11972186303E+02 0.10348611267E+02 0.86783250884E+01 0.70840951126E+01
 0.56549754662E+01 0.44429462527E+01 0.34638173320E+01 0.27046101477E+01 0.21359609065E+01
 0.17244833366E+01 0.12133091293E+01 0.10987935629E+01 0.10615984122E+01 0.10987816877E+01
 0.12133081758E+01 0.14140650411E+01 0.17160466682E+01 0.21404975950E+01 0.27138953740E+01
 0.34638242260E+01 0.44104388275E+01 0.55549219948E+01 0.68691625453E+01 0.82907914355E+01
 0.97246695258E+01 0.11049776748E+02 0.12131844911E+02 0.12843776317E+02 0.13092539987E+02
 0.12843766543E+02 0.12131848892E+02 0.11049794866E+02 0.97246751924E+01 0.82907769360E+01
 0.68691486035E+01 0.55549184956E+01 0.44104344159E+01 0.34638173320E+01 0.27138976710E+01
 0.21405044677E+01 0.17160411598E+01 0.14140522420E+01 0.10493157851E+01 0.98404839427E+00
 0.98404678256E+00 0.10493180023E+01 0.11850798015E+01 0.14015048314E+01 0.17135214386E+01
 0.21404947973E+01 0.27046151422E+01 0.34262903010E+01 0.43158918029E+01 0.53637306197E+01
 0.65321719087E+01 0.77532832812E+01 0.89329428600E+01 0.99607283697E+01 0.10725213575E+02
 0.11133922104E+02 0.11133884878E+02 0.10725137222E+02 0.99606686434E+01 0.89329104018E+01
 0.77532627089E+01 0.65321677113E+01 0.53637505644E+01 0.43159145809E+01 0.34262928855E+01
 0.27046101477E+01 0.21405044677E+01 0.17135371862E+01 0.14015062927E+01 0.11850715867E+01
 0.94005100813E+00 0.91228617759E+00 0.94004766603E+00 0.10256992146E+01 0.11760026340E+01
 0.14015073720E+01 0.17160355780E+01 0.21359686890E+01 0.26781688721E+01 0.33552616944E+01
 0.41682561560E+01 0.50985546352E+01 0.61026961415E+01 0.71124771076E+01 0.80411257225E+01
 0.87947538787E+01 0.92877182866E+01 0.94593820101E+01 0.92877448521E+01 0.87947806689E+01
 0.80411264647E+01 0.71124567181E+01 0.61026871208E+01 0.50985737069E+01 0.41682795304E+01
 0.33552601096E+01 0.26781502471E+01 0.21359609065E+01 0.17160411598E+01 0.14015062927E+01
 0.11759913162E+01 0.10256935740E+01 0.87796575197E+00 0.87796548919E+00 0.92583942855E+00
 0.10256983542E+01 0.11850817418E+01 0.14140650988E+01 0.17244925971E+01 0.21289595548E+01
 0.26385179144E+01 0.32582687303E+01 0.39812647439E+01 0.47827331825E+01 0.56172973719E+01
 0.64210754284E+01 0.71189806069E+01 0.76362242523E+01 0.79119755301E+01 0.79119775290E+01
 0.76362428725E+01 0.71190282774E+01 0.64211309532E+01 0.56173223727E+01 0.47827171250E+01
 0.39812338755E+01 0.32582508249E+01 0.26385148930E+01 0.21289573580E+01 0.17244833366E+01
 0.14140522420E+01 0.11850715867E+01 0.10256935740E+01 0.92583867475E+00 0.87796627960E+00
 0.91228503640E+00 0.98404461784E+00 0.10987840998E+01 0.12633795830E+01 0.14849685691E+01
 0.17699754349E+01 0.21228969376E+01 0.25443151903E+01 0.30279654329E+01 0.35575078596E+01
 0.41044239386E+01 0.46285968208E+01 0.50824443436E+01 0.54182521229E+01 0.55971202894E+01
 0.55971285408E+01 0.54182524150E+01 0.50824013776E+01 0.46285216314E+01 0.41043662908E+01
 0.35574974153E+01 0.30279842835E+01 0.25443299566E+01 0.21228971455E+01 0.17699724030E+01
 0.14849718424E+01 0.12633873035E+01 0.10987909780E+01 0.98404898344E+00 0.91228758185E+00
 0.87796719389E+00 0.91228503640E+00 0.95482217648E+00 0.10300195495E+01 0.11432481799E+01
 0.13003314084E+01 0.15065138345E+01 0.17655105415E+01 0.20783971052E+01 0.24420235701E+01
 0.28469304922E+01 0.32753608235E+01 0.37005067869E+01 0.40881138228E+01 0.44008297904E+01
 0.46045879153E+01 0.46754012252E+01 0.46045929670E+01 0.44008029051E+01 0.40880514359E+01
 0.37004596649E+01 0.32753652797E+01 0.28469566995E+01 0.24420214806E+01 0.20783678100E+01
 0.17654973168E+01 0.15065352620E+01 0.13003596915E+01 0.11432553257E+01 0.10300135979E+01
 0.95482452436E+00 0.91229444589E+00 0.89857710042E+00 0.98404461784E+00 0.10300195495E+01
 0.11042181419E+01 0.12114982543E+01 0.13564613409E+01 0.15425400091E+01 0.17711963625E+01
 0.20410205939E+01 0.23465299200E+01 0.26767628658E+01 0.30142329778E+01 0.33351264353E+01
 0.36114591123E+01 0.38152048892E+01 0.39235114289E+01 0.39235105494E+01 0.38152026624E+01
 0.36114593404E+01 0.33351352217E+01 0.30142489254E+01 0.26767748211E+01 0.23465308960E+01
 0.20410174280E+01 0.17711987891E+01 0.15425467339E+01 0.13564645529E+01 0.12114961151E+01
 0.11042147260E+01 0.10300168388E+01 0.98404206178E+00 0.96221869293E+00 0.96221997795E+00
 0.10987840998E+01 0.11432481799E+01 0.12114982543E+01 0.13077430385E+01 0.14354530377E+01
 0.15966302189E+01 0.17911811756E+01 0.20161965518E+01 0.22650444702E+01 0.25264893019E+01
 0.27843637406E+01 0.30184158311E+01 0.32066777517E+01 0.33291075057E+01 0.33715962440E+01
 0.33290763272E+01 0.32066615083E+01 0.30184440383E+01 0.27844091087E+01 0.25265035534E+01
 0.22650200476E+01 0.20161718126E+01 0.17911869951E+01 0.15966531167E+01 0.14354594901E+01
 0.13077239922E+01 0.12114746622E+01 0.11432404485E+01 0.10987915030E+01 0.10740778296E+01
 0.10661886103E+01 0.10740689527E+01 0.12633795830E+01 0.13003314084E+01 0.13564613409E+01
 0.14354530377E+01 0.15400011184E+01 0.16712564130E+01 0.18282961456E+01 0.20075041681E+01
 0.22019168628E+01 0.24008099870E+01 0.25899354285E+01 0.27527644165E+01 0.28728077502E+01
 0.29366141760E+01 0.29366062856E+01 0.28727954308E+01 0.27527634722E+01 0.25899410236E+01
 0.24008044822E+01 0.22018964770E+01 0.20074830933E+01 0.18282857979E+01 0.16712532736E+01
 0.15399964764E+01 0.14354449852E+01 0.13564540616E+01 0.13003287436E+01 0.12633820099E+01
 0.12416492779E+01 0.12317556677E+01 0.12317533671E+01 0.12416446584E+01 0.14849685691E+01
 0.15065138345E+01 0.15425400091E+01 0.15966302189E+01 0.16712564130E+01 0.17673032815E+01
 0.18835579541E+01 0.20161958616E+01 0.21584338431E+01 0.23005743430E+01 0.24306543730E+01
 0.25358379066E+01 0.26044682775E+01 0.26283404753E+01 0.26044895947E+01 0.25358654884E+01
 0.24306617285E+01 0.23005484887E+01 0.21583985177E+01 0.20161886765E+01 0.18835810747E+01
 0.17673193088E+01 0.16712404979E+01 0.15966034573E+01 0.15425368648E+01 0.15065341566E+01
 0.14849816100E+01 0.14737544533E+01 0.14689455265E+01 0.14677033031E+01 0.14689644016E+01
 0.14737660012E+01 0.17699754349E+01 0.17655105415E+01 0.17711963625E+01 0.17911811756E+01
 0.18282961456E+01 0.18835579541E+01 0.19557232872E+01 0.20410206395E+01 0.21332020637E+01
 0.22239856323E+01 0.23039199759E+01 0.23636846085E+01 0.23957057264E+01 0.23957117232E+01
 0.23636996360E+01 0.23039344637E+01 0.22239896766E+01 0.21331992899E+01 0.20410268331E+01
 0.19557440943E+01 0.18835785873E+01 0.18283023594E+01 0.17911795494E+01 0.17712018660E+01
 0.17655227254E+01 0.17699804028E+01 0.17796718165E+01 0.17896534427E+01 0.17958232183E+01
 0.17958295319E+01 0.17896671718E+01 0.17796804851E+01 0.21228969376E+01 0.20783971052E+01
 0.20410205939E+01 0.20161965518E+01 0.20075041681E+01 0.20161958616E+01 0.20410206395E+01
 0.20783979342E+01 0.21228972347E+01 0.21679294425E+01 0.22066007997E+01 0.22327321872E+01
 0.22419715137E+01 0.22327335698E+01 0.22065923652E+01 0.21679163455E+01 0.21229036542E+01
 0.20784304737E+01 0.20410483663E+01 0.20161871528E+01 0.20074729824E+01 0.20161875829E+01
 0.20410495314E+01 0.20784308479E+01 0.21229007836E+01 0.21679102639E+01 0.22065856041E+01
 0.22327277607E+01 0.22419665368E+01 0.22327284292E+01 0.22065992584E+01 0.21679294609E+01
 0.25443151903E+01 0.24420235701E+01 0.23465299200E+01 0.22650444702E+01 0.22019168628E+01
 0.21584338431E+01 0.21332020637E+01 0.21228972347E+01 0.21230870092E+01 0.21289593893E+01
 0.21359702943E+01 0.21404994030E+01 0.21405037505E+01 0.21359749478E+01 0.21289568782E+01
 0.21230876908E+01 0.21229074521E+01 0.21332016980E+01 0.21584017849E+01 0.22018699972E+01
 0.22650244803E+01 0.23465517275E+01 0.24420586589E+01 0.25443290381E+01 0.26440975258E+01
 0.27311751788E+01 0.27958279103E+01 0.28303137138E+01 0.28303168133E+01 0.27958394960E+01
 0.27311942986E+01 0.26441094947E+01 0.30279654329E+01 0.28469304922E+01 0.26767628658E+01
 0.25264893019E+01 0.24008099870E+01 0.23005743430E+01 0.22239856323E+01 0.21679294425E+01
 0.21289593893E+01 0.21038606294E+01 0.20899869369E+01 0.20855655759E+01 0.20899770900E+01
 0.21038653245E+01 0.21289930512E+01 0.21679608764E+01 0.22239579692E+01 0.23004806615E+01
 0.24007258058E+01 0.25264943323E+01 0.26768445587E+01 0.28470038436E+01 0.30279784241E+01
 0.32070555973E+01 0.33691672762E+01 0.34989120549E+01 0.35828975831E+01 0.36119755827E+01
 0.35828926150E+01 0.34989107864E+01 0.33691829667E+01 0.32070787397E+01 0.35575078596E+01
 0.32753608235E+01 0.30142329778E+01 0.27843637406E+01 0.25899354285E+01 0.24306543730E+01
 0.23039199759E+01 0.22066007997E+01 0.21359702943E+01 0.20899869369E+01 0.20673129731E+01
 0.20673005499E+01 0.20899741186E+01 0.21359920925E+01 0.22066363151E+01 0.23038951126E+01
 0.24305371818E+01 0.25898075415E+01 0.27843479716E+01 0.30143487725E+01 0.32755011521E+01
 0.35575708737E+01 0.38442205304E+01 0.41143053898E+01 0.43444789752E+01 0.45126284206E+01
 0.46014530606E+01 0.46014451122E+01 0.45126085563E+01 0.43444659651E+01 0.41143174176E+01
 0.38442282847E+01 0.41044239386E+01 0.37005067869E+01 0.33351264353E+01 0.30184158311E+01
 0.27527644165E+01 0.25358379066E+01 0.23636846085E+01 0.22327321872E+01 0.21404994030E+01
 0.20855655759E+01 0.20673005499E+01 0.20855646629E+01 0.21405255603E+01 0.22327578154E+01
 0.23636232253E+01 0.25356671307E+01 0.27526001007E+01 0.30184012643E+01 0.33352659372E+01
 0.37006665530E+01 0.41044943425E+01 0.45275389159E+01 0.49421549966E+01 0.53151836092E+01
 0.56125424724E+01 0.58045567089E+01 0.58709682747E+01 0.58045624754E+01 0.56125320795E+01
 0.53151640077E+01 0.49421557568E+01 0.45275406668E+01 0.46285968208E+01 0.40881138228E+01
 0.36114591123E+01 0.32066777517E+01 0.28728077502E+01 0.26044682775E+01 0.23957057264E+01
 0.22419715137E+01 0.21405037505E+01 0.20899770900E+01 0.20899741186E+01 0.21405255603E+01
 0.22420168459E+01 0.23956597209E+01 0.26042524931E+01 0.28725571016E+01 0.32066253244E+01
 0.36116502651E+01 0.40883531369E+01 0.46286937684E+01 0.52124954486E+01 0.58066299797E+01
 0.63675077907E+01 0.68464727130E+01 0.71970151210E+01 0.73824439579E+01 0.73824614421E+01
 0.71970404596E+01 0.68464743409E+01 0.63675132247E+01 0.58066785749E+01 0.52125325902E+01
 0.50824443436E+01 0.44008297904E+01 0.38152048892E+01 0.33291075057E+01 0.29366141760E+01
 0.26283404753E+01 0.23957117232E+01 0.22327335698E+01 0.21359749478E+01 0.21038653245E+01
 0.21359920925E+01 0.22327578154E+01 0.23956597209E+01 0.26281338913E+01 0.29363511569E+01
 0.33290233089E+01 0.38153985559E+01 0.44011292977E+01 0.50826103009E+01 0.58415196975E+01
 0.66418410728E+01 0.74309412548E+01 0.81448354788E+01 0.87167156786E+01 0.90873990216E+01
 0.92158770325E+01 0.90874300475E+01 0.87167401849E+01 0.81448438202E+01 0.74309769297E+01
 0.66419175672E+01 0.58415371580E+01 0.54182521229E+01 0.46045879153E+01 0.39235114289E+01
 0.33715962440E+01 0.29366062856E+01 0.26044895947E+01 0.23636996360E+01 0.22065923652E+01
 0.21289568782E+01 0.21289930512E+01 0.22066363151E+01 0.23636232253E+01 0.26042524931E+01
 0.29363511569E+01 0.33715459341E+01 0.39237358546E+01 0.46049108513E+01 0.54184322149E+01
 0.63514361194E+01 0.73691595433E+01 0.84136314811E+01 0.94075594622E+01 0.10262879556E+02
 0.10893086168E+02 0.11228006376E+02 0.11228024273E+02 0.10893110663E+02 0.10262870927E+02
 0.94075428072E+01 0.84136769852E+01 0.73692629247E+01 0.63514628903E+01 0.55971202894E+01
 0.46754012252E+01 0.39235105494E+01 0.33290763272E+01 0.28727954308E+01 0.25358654884E+01
 0.23039344637E+01 0.21679163455E+01 0.21230876908E+01 0.21679608764E+01 0.23038951126E+01
 0.25356671307E+01 0.28725571016E+01 0.33290233089E+01 0.39237358546E+01 0.46757475458E+01
 0.55973282039E+01 0.66846723849E+01 0.79094329824E+01 0.92142726769E+01 0.10514025238E+02
 0.11702403423E+02 0.12664135045E+02 0.13292688636E+02 0.13511554697E+02 0.13292718030E+02
 0.12664142714E+02 0.11702377085E+02 0.10514038237E+02 0.92143963108E+01 0.79096060521E+01
 0.66847128684E+01 0.55971285408E+01 0.46045929670E+01 0.38152026624E+01 0.32066615083E+01
 0.27527634722E+01 0.24306617285E+01 0.22239896766E+01 0.21229036542E+01 0.21229074521E+01
 0.22239579692E+01 0.24305371818E+01 0.27526001007E+01 0.32066253244E+01 0.38153985559E+01
 0.46049108513E+01 0.55973282039E+01 0.68006673830E+01 0.81979506823E+01 0.97394953418E+01
 0.11340553993E+02 0.12884443688E+02 0.14231543761E+02 0.15236572561E+02 0.15775378981E+02
 0.15775396215E+02 0.15236614408E+02 0.14231584202E+02 0.12884472524E+02 0.11340616608E+02
 0.97396454404E+01 0.81981317135E+01 0.68007083951E+01 0.54182524150E+01 0.44008029051E+01
 0.36114593404E+01 0.30184440383E+01 0.25899410236E+01 0.23005484887E+01 0.21331992899E+01
 0.20784304737E+01 0.21332016980E+01 0.23004806615E+01 0.25898075415E+01 0.30184012643E+01
 0.36116502651E+01 0.44011292977E+01 0.54184322149E+01 0.66846723849E+01 0.81979506823E+01
 0.99226840037E+01 0.11783661807E+02 0.13664976790E+02 0.15413676255E+02 0.16851974865E+02
 0.17804310207E+02 0.18138267646E+02 0.17804303580E+02 0.16852038890E+02 0.15413787850E+02
 0.13665024495E+02 0.11783659999E+02 0.99227815701E+01 0.81981606066E+01 0.66847730458E+01
 0.50824013776E+01 0.40880514359E+01 0.33351352217E+01 0.27844091087E+01 0.24008044822E+01
 0.21583985177E+01 0.20410268331E+01 0.20410483663E+01 0.21584017849E+01 0.24007258058E+01
 0.27843479716E+01 0.33352659372E+01 0.40883531369E+01 0.50826103009E+01 0.63514361194E+01
 0.79094329824E+01 0.97394953418E+01 0.11783661807E+02 0.13938213460E+02 0.16051757246E+02
 0.17929338048E+02 0.19351204306E+02 0.20119031362E+02 0.20118991822E+02 0.19351186370E+02
 0.17929452407E+02 0.16051900560E+02 0.13938232532E+02 0.11783632312E+02 0.97396119281E+01