   2   2   0   0
  0.2001288E+02  0.3839590E-09  0.3839590E-09  0.3839590E-09  0.5000000E-15
  1.000000000000000E-004
  CAR 
 unknown system                          
     17.21532611     -8.16444549  301      5.94206474      1.00000000
     -8.164  0.0000E+00  0.0000E+00
     -8.080  0.0000E+00  0.0000E+00
     -7.995  0.0000E+00  0.0000E+00
     -7.911  0.0000E+00  0.0000E+00
     -7.826  0.0000E+00  0.0000E+00
     -7.741  0.0000E+00  0.0000E+00
     -7.657  0.0000E+00  0.0000E+00
     -7.572  0.0000E+00  0.0000E+00
     -7.488  0.0000E+00  0.0000E+00
     -7.403  0.0000E+00  0.0000E+00
     -7.318  0.5249E-18  0.4441E-19
     -7.234  0.6369E-16  0.5433E-17
     -7.149  0.5338E-14  0.4571E-15
     -7.065  0.3164E-12  0.2722E-13
     -6.980  0.1326E-10  0.1149E-11
     -6.895  0.3942E-09  0.3450E-10
     -6.811  0.8345E-08  0.7405E-09
     -6.726  0.1264E-06  0.1143E-07
     -6.642  0.1377E-05  0.1279E-06
     -6.557  0.1089E-04  0.1049E-05
     -6.472  0.6301E-04  0.6379E-05
     -6.388  0.2702E-03  0.2924E-04
     -6.303  0.8720E-03  0.1030E-03
     -6.219  0.2162E-02  0.2860E-03
     -6.134  0.4244E-02  0.6450E-03
     -6.049  0.6858E-02  0.1225E-02
     -5.965  0.9545E-02  0.2033E-02
     -5.880  0.1195E-01  0.3043E-02
     -5.796  0.1397E-01  0.4225E-02
     -5.711  0.1579E-01  0.5561E-02
     -5.626  0.1753E-01  0.7044E-02
     -5.542  0.1900E-01  0.8651E-02
     -5.457  0.2021E-01  0.1036E-01
     -5.373  0.2156E-01  0.1219E-01
     -5.288  0.2321E-01  0.1415E-01
     -5.203  0.2476E-01  0.1624E-01
     -5.119  0.2578E-01  0.1843E-01
     -5.034  0.2644E-01  0.2066E-01
     -4.950  0.2758E-01  0.2300E-01
     -4.865  0.2969E-01  0.2551E-01
     -4.780  0.3183E-01  0.2820E-01
     -4.696  0.3281E-01  0.3098E-01
     -4.611  0.3297E-01  0.3376E-01
     -4.527  0.3381E-01  0.3662E-01
     -4.442  0.3600E-01  0.3967E-01
     -4.357  0.3878E-01  0.4295E-01
     -4.273  0.4136E-01  0.4645E-01
     -4.188  0.4372E-01  0.5015E-01
     -4.104  0.4577E-01  0.5402E-01
     -4.019  0.4755E-01  0.5804E-01
     -3.934  0.5001E-01  0.6227E-01
     -3.850  0.5385E-01  0.6683E-01
     -3.765  0.5755E-01  0.7170E-01
     -3.681  0.5846E-01  0.7664E-01
     -3.596  0.5649E-01  0.8142E-01
     -3.511  0.5371E-01  0.8597E-01
     -3.427  0.5045E-01  0.9023E-01
     -3.342  0.4619E-01  0.9414E-01
     -3.258  0.4301E-01  0.9778E-01
     -3.173  0.4361E-01  0.1015E+00
     -3.088  0.4658E-01  0.1054E+00
     -3.004  0.4731E-01  0.1094E+00
     -2.919  0.4302E-01  0.1131E+00
     -2.835  0.3538E-01  0.1160E+00
     -2.750  0.2840E-01  0.1184E+00
     -2.665  0.2523E-01  0.1206E+00
     -2.581  0.2652E-01  0.1228E+00
     -2.496  0.2982E-01  0.1253E+00
     -2.412  0.3089E-01  0.1280E+00
     -2.327  0.2699E-01  0.1302E+00
     -2.242  0.1913E-01  0.1319E+00
     -2.158  0.1078E-01  0.1328E+00
     -2.073  0.4987E-02  0.1332E+00
     -1.989  0.3064E-02  0.1335E+00
     -1.904  0.5506E-02  0.1339E+00
     -1.820  0.1250E-01  0.1350E+00
     -1.735  0.2201E-01  0.1368E+00
     -1.650  0.2903E-01  0.1393E+00
     -1.566  0.2991E-01  0.1418E+00
     -1.481  0.2685E-01  0.1441E+00
     -1.397  0.2612E-01  0.1463E+00
     -1.312  0.3314E-01  0.1491E+00
     -1.227  0.4924E-01  0.1533E+00
     -1.143  0.6985E-01  0.1592E+00
     -1.058  0.8536E-01  0.1664E+00
     -0.974  0.8761E-01  0.1738E+00
     -0.889  0.7719E-01  0.1804E+00
     -0.804  0.6294E-01  0.1857E+00
     -0.720  0.5275E-01  0.1901E+00
     -0.635  0.4682E-01  0.1941E+00
     -0.551  0.4186E-01  0.1976E+00
     -0.466  0.3850E-01  0.2009E+00
     -0.381  0.3929E-01  0.2042E+00
     -0.297  0.4190E-01  0.2078E+00
     -0.212  0.4053E-01  0.2112E+00
     -0.128  0.3421E-01  0.2141E+00
     -0.043  0.2845E-01  0.2165E+00
      0.042  0.2751E-01  0.2188E+00
      0.126  0.2903E-01  0.2213E+00
      0.211  0.2804E-01  0.2237E+00
      0.295  0.2370E-01  0.2257E+00
      0.380  0.1989E-01  0.2273E+00
      0.465  0.2023E-01  0.2291E+00
      0.549  0.2415E-01  0.2311E+00
      0.634  0.2703E-01  0.2334E+00
      0.718  0.2474E-01  0.2355E+00
      0.803  0.1859E-01  0.2370E+00
      0.888  0.1381E-01  0.2382E+00
      0.972  0.1366E-01  0.2394E+00
      1.057  0.1684E-01  0.2408E+00
      1.141  0.2028E-01  0.2425E+00
      1.226  0.2290E-01  0.2444E+00
      1.311  0.2673E-01  0.2467E+00
      1.395  0.3431E-01  0.2496E+00
      1.480  0.4615E-01  0.2535E+00
      1.564  0.6060E-01  0.2586E+00
      1.649  0.7365E-01  0.2649E+00
      1.734  0.7971E-01  0.2716E+00
      1.818  0.7658E-01  0.2781E+00
      1.903  0.6906E-01  0.2839E+00
      1.987  0.6495E-01  0.2894E+00
      2.072  0.6759E-01  0.2952E+00
      2.157  0.7322E-01  0.3013E+00
      2.241  0.7598E-01  0.3078E+00
      2.326  0.7472E-01  0.3141E+00
      2.410  0.7314E-01  0.3203E+00
      2.495  0.7374E-01  0.3265E+00
      2.580  0.7617E-01  0.3330E+00
      2.664  0.8091E-01  0.3398E+00
      2.749  0.8899E-01  0.3473E+00
      2.833  0.9749E-01  0.3556E+00
      2.918  0.1008E+00  0.3641E+00
      3.003  0.9789E-01  0.3724E+00
      3.087  0.9472E-01  0.3804E+00
      3.172  0.9626E-01  0.3885E+00
      3.256  0.9981E-01  0.3970E+00
      3.341  0.9922E-01  0.4054E+00
      3.426  0.9423E-01  0.4134E+00
      3.510  0.9014E-01  0.4210E+00
      3.595  0.8998E-01  0.4286E+00
      3.679  0.9125E-01  0.4363E+00
      3.764  0.8987E-01  0.4439E+00
      3.849  0.8511E-01  0.4511E+00
      3.933  0.8059E-01  0.4579E+00
      4.018  0.8046E-01  0.4647E+00
      4.102  0.8427E-01  0.4719E+00
      4.187  0.8604E-01  0.4792E+00
      4.272  0.8098E-01  0.4860E+00
      4.356  0.7186E-01  0.4921E+00
      4.441  0.6498E-01  0.4976E+00
      4.525  0.6176E-01  0.5028E+00
      4.610  0.5807E-01  0.5077E+00
      4.695  0.5102E-01  0.5120E+00
      4.779  0.4270E-01  0.5156E+00
      4.864  0.3642E-01  0.5187E+00
      4.948  0.3231E-01  0.5215E+00
      5.033  0.2852E-01  0.5239E+00
      5.118  0.2461E-01  0.5260E+00
      5.202  0.2144E-01  0.5278E+00
      5.287  0.1892E-01  0.5294E+00
      5.371  0.1594E-01  0.5307E+00
      5.456  0.1224E-01  0.5318E+00
      5.541  0.8537E-02  0.5325E+00
      5.625  0.5380E-02  0.5329E+00
      5.710  0.2920E-02  0.5332E+00
      5.794  0.1280E-02  0.5333E+00
      5.879  0.4367E-03  0.5333E+00
      5.964  0.1585E-03  0.5333E+00
      6.048  0.2876E-03  0.5334E+00
      6.133  0.1012E-02  0.5334E+00
      6.217  0.2761E-02  0.5337E+00
      6.302  0.5641E-02  0.5342E+00
      6.387  0.9126E-02  0.5349E+00
      6.471  0.1287E-01  0.5360E+00
      6.556  0.1737E-01  0.5375E+00
      6.640  0.2275E-01  0.5394E+00
      6.725  0.2779E-01  0.5418E+00
      6.810  0.3137E-01  0.5444E+00
      6.894  0.3353E-01  0.5473E+00
      6.979  0.3489E-01  0.5502E+00
      7.063  0.3664E-01  0.5533E+00
      7.148  0.4094E-01  0.5568E+00
      7.233  0.4904E-01  0.5609E+00
      7.317  0.5876E-01  0.5659E+00
      7.402  0.6559E-01  0.5714E+00
      7.486  0.6769E-01  0.5772E+00
      7.571  0.6923E-01  0.5830E+00
      7.656  0.7585E-01  0.5894E+00
      7.740  0.8717E-01  0.5968E+00
      7.825  0.9723E-01  0.6050E+00
      7.909  0.1018E+00  0.6136E+00
      7.994  0.1020E+00  0.6223E+00
      8.079  0.1009E+00  0.6308E+00
      8.163  0.9938E-01  0.6392E+00
      8.248  0.9570E-01  0.6473E+00
      8.332  0.8884E-01  0.6548E+00
      8.417  0.8066E-01  0.6617E+00
      8.502  0.7468E-01  0.6680E+00
      8.586  0.7303E-01  0.6742E+00
      8.671  0.7641E-01  0.6806E+00
      8.755  0.8575E-01  0.6879E+00
      8.840  0.1008E+00  0.6964E+00
      8.925  0.1173E+00  0.7063E+00
      9.009  0.1290E+00  0.7172E+00
      9.094  0.1325E+00  0.7284E+00
      9.178  0.1286E+00  0.7393E+00
      9.263  0.1204E+00  0.7495E+00
      9.348  0.1108E+00  0.7589E+00
      9.432  0.1027E+00  0.7676E+00
      9.517  0.9698E-01  0.7758E+00
      9.601  0.9219E-01  0.7836E+00
      9.686  0.8797E-01  0.7910E+00
      9.771  0.8672E-01  0.7984E+00
      9.855  0.8856E-01  0.8058E+00
      9.940  0.8962E-01  0.8134E+00
     10.024  0.8780E-01  0.8209E+00
     10.109  0.8519E-01  0.8281E+00
     10.194  0.8346E-01  0.8351E+00
     10.278  0.8165E-01  0.8420E+00
     10.363  0.7985E-01  0.8488E+00
     10.447  0.8077E-01  0.8556E+00
     10.532  0.8564E-01  0.8629E+00
     10.617  0.9119E-01  0.8706E+00
     10.701  0.9271E-01  0.8784E+00
     10.786  0.8886E-01  0.8859E+00
     10.870  0.8168E-01  0.8928E+00
     10.955  0.7378E-01  0.8991E+00
     11.040  0.6745E-01  0.9048E+00
     11.124  0.6510E-01  0.9103E+00
     11.209  0.6826E-01  0.9161E+00
     11.293  0.7542E-01  0.9225E+00
     11.378  0.8201E-01  0.9294E+00
     11.463  0.8443E-01  0.9365E+00
     11.547  0.8271E-01  0.9435E+00
     11.632  0.7774E-01  0.9501E+00
     11.716  0.6920E-01  0.9560E+00
     11.801  0.5812E-01  0.9609E+00
     11.886  0.4886E-01  0.9650E+00
     11.970  0.4633E-01  0.9689E+00
     12.055  0.5148E-01  0.9733E+00
     12.139  0.6076E-01  0.9784E+00
     12.224  0.6949E-01  0.9843E+00
     12.309  0.7468E-01  0.9906E+00
     12.393  0.7525E-01  0.9970E+00
     12.478  0.7065E-01  0.1003E+01
     12.562  0.6096E-01  0.1008E+01
     12.647  0.4898E-01  0.1012E+01
     12.732  0.3918E-01  0.1016E+01
     12.816  0.3332E-01  0.1018E+01
     12.901  0.2988E-01  0.1021E+01
     12.985  0.2761E-01  0.1023E+01
     13.070  0.2768E-01  0.1026E+01
     13.155  0.3246E-01  0.1028E+01
     13.239  0.4254E-01  0.1032E+01
     13.324  0.5383E-01  0.1037E+01
     13.408  0.5832E-01  0.1041E+01
     13.493  0.5093E-01  0.1046E+01
     13.578  0.3574E-01  0.1049E+01
     13.662  0.2219E-01  0.1051E+01
     13.747  0.1567E-01  0.1052E+01
     13.831  0.1424E-01  0.1053E+01
     13.916  0.1346E-01  0.1054E+01
     14.001  0.1195E-01  0.1055E+01
     14.085  0.1178E-01  0.1056E+01
     14.170  0.1457E-01  0.1058E+01
     14.254  0.1856E-01  0.1059E+01
     14.339  0.1975E-01  0.1061E+01
     14.424  0.1604E-01  0.1062E+01
     14.508  0.9634E-02  0.1063E+01
     14.593  0.4309E-02  0.1063E+01
     14.677  0.1835E-02  0.1063E+01
     14.762  0.1813E-02  0.1064E+01
     14.847  0.3192E-02  0.1064E+01
     14.931  0.4818E-02  0.1064E+01
     15.016  0.5788E-02  0.1065E+01
     15.100  0.5997E-02  0.1065E+01
     15.185  0.5679E-02  0.1066E+01
     15.270  0.4718E-02  0.1066E+01
     15.354  0.3144E-02  0.1066E+01
     15.439  0.1576E-02  0.1067E+01
     15.523  0.5758E-03  0.1067E+01
     15.608  0.1514E-03  0.1067E+01
     15.693  0.2847E-04  0.1067E+01
     15.777  0.3817E-05  0.1067E+01
     15.862  0.3640E-06  0.1067E+01
     15.946  0.2464E-07  0.1067E+01
     16.031  0.1182E-08  0.1067E+01
     16.116  0.4008E-10  0.1067E+01
     16.200  0.9602E-12  0.1067E+01
     16.285  0.1623E-13  0.1067E+01
     16.369  0.1921E-15  0.1067E+01
     16.454  0.2100E-17  0.1067E+01
     16.539  0.0000E+00  0.1067E+01
     16.623  0.0000E+00  0.1067E+01
     16.708  0.0000E+00  0.1067E+01
     16.792  0.0000E+00  0.1067E+01
     16.877  0.0000E+00  0.1067E+01
     16.962  0.0000E+00  0.1067E+01
     17.046  0.0000E+00  0.1067E+01
     17.131  0.0000E+00  0.1067E+01
     17.215  0.0000E+00  0.1067E+01
