    2    2   15    1
  0.2001288E+02  0.3839590E-09  0.3839590E-09  0.3839590E-09  0.5000000E-15
  1.000000000000000E-004
  CAR 
 unknown system                          
      8    110      8
 
  0.5000000E-01  0.5000000E-01  0.5000000E-01  0.2000000E-02
    1       -6.164445   1.000000
    2        5.266388   0.999999
    3        5.571513   0.995606
    4        5.571513   0.995606
    5        8.230318   0.000000
    6        8.264295   0.000000
    7        8.264295   0.000000
    8        9.024557   0.000000
 
  0.1500000E+00  0.5000000E-01  0.5000000E-01  0.6000000E-02
    1       -5.993216   1.000000
    2        4.131513   1.000000
    3        5.009817   1.000000
    4        5.496781   0.999180
    5        8.283419   0.000000
    6        8.427882   0.000000
    7        8.658043   0.000000
    8       10.142869   0.000000
 
  0.2500000E+00  0.5000000E-01  0.5000000E-01  0.6000000E-02
    1       -5.573645   1.000000
    2        2.331190   1.000000
    3        4.581416   1.000000
    4        5.152814   1.000000
    5        7.925356   0.000000
    6        8.884930   0.000000
    7        9.205643   0.000000
    8       11.631974   0.000000
 
  0.3500000E+00  0.5000000E-01  0.5000000E-01  0.6000000E-02
    1       -4.938634   1.000000
    2        0.622000   1.000000
    3        4.294153   1.000000
    4        4.791302   1.000000
    5        7.590645   0.000000
    6        9.081173   0.000000
    7        9.271763   0.000000
    8       12.828556   0.000000
 
  0.4500000E+00  0.5000000E-01  0.5000000E-01  0.6000000E-02
    1       -4.211592   1.000000
    2       -0.741543   1.000000
    3        4.169778   1.000000
    4        4.520977   1.000000
    5        7.383252   0.000000
    6        9.061878   0.000000
    7        9.068175   0.000000
    8       13.461993   0.000000
 
 -0.4500000E+00  0.5000000E-01  0.5000000E-01  0.6000000E-02
    1       -3.902400   1.000000
    2       -1.211926   1.000000
    3        4.206539   1.000000
    4        4.380125   1.000000
    5        7.332322   0.000000
    6        8.928615   0.000000
    7        9.109683   0.000000
    8       13.446044   0.000000
 
 -0.3500000E+00  0.5000000E-01  0.5000000E-01  0.6000000E-02
    1       -4.446121   1.000000
    2       -0.347045   1.000000
    3        4.388350   1.000000
    4        4.391806   1.000000
    5        7.441599   0.000000
    6        8.934511   0.000000
    7        9.288244   0.000000
    8       13.103378   0.000000
 
 -0.2500000E+00  0.5000000E-01  0.5000000E-01  0.6000000E-02
    1       -5.169882   1.000000
    2        1.165712   1.000000
    3        4.555105   1.000000
    4        4.703907   1.000000
    5        7.697378   0.000000
    6        8.939219   0.000000
    7        9.443511   0.000000
    8       12.010414   0.000000
 
 -0.1500000E+00  0.5000000E-01  0.5000000E-01  0.6000000E-02
    1       -5.739709   1.000000
    2        2.939705   1.000000
    3        4.870160   1.000000
    4        5.092262   1.000000
    5        8.033465   0.000000
    6        8.641193   0.000000
    7        9.231434   0.000000
    8       11.078510   0.000000
 
 -0.5000000E-01  0.5000000E-01  0.5000000E-01  0.6000000E-02
    1       -6.078568   1.000000
    2        4.713905   1.000000
    3        5.272481   0.999999
    4        5.398587   0.999939
    5        8.072803   0.000000
    6        8.487955   0.000000
    7        8.664659   0.000000
    8        9.565854   0.000000
 
  0.1500000E+00  0.1500000E+00  0.5000000E-01  0.6000000E-02
    1       -5.907293   1.000000
    2        4.022292   1.000000
    3        4.842582   1.000000
    4        4.944489   1.000000
    5        7.762404   0.000000
    6        9.045914   0.000000
    7        9.295475   0.000000
    8       10.112811   0.000000
 
  0.2500000E+00  0.1500000E+00  0.5000000E-01  0.1200000E-01
    1       -5.569337   1.000000
    2        2.789746   1.000000
    3        4.106260   1.000000
    4        4.757234   1.000000
    5        7.823688   0.000000
    6        9.216943   0.000000
    7        9.913196   0.000000
    8       10.400073   0.000000
 
  0.3500000E+00  0.1500000E+00  0.5000000E-01  0.1200000E-01
    1       -5.000920   1.000000
    2        1.168961   1.000000
    3        3.678326   1.000000
    4        4.397438   1.000000
    5        8.032464   0.000000
    6        9.180079   0.000000
    7       10.176587   0.000000
    8       10.635147   0.000000
 
  0.4500000E+00  0.1500000E+00  0.5000000E-01  0.1200000E-01
    1       -4.277344   1.000000
    2       -0.289145   1.000000
    3        3.407083   1.000000
    4        4.121895   1.000000
    5        7.976095   0.000000
    6        9.040467   0.000000
    7       10.044424   0.000000
    8       11.777316   0.000000
 
 -0.4500000E+00  0.1500000E+00  0.5000000E-01  0.1200000E-01
    1       -3.730902   1.000000
    2       -1.138642   1.000000
    3        3.229605   1.000000
    4        4.077209   1.000000
    5        7.967472   0.000000
    6        8.912042   0.000000
    7        9.879886   0.000000
    8       13.374266   0.000000
 
 -0.3500000E+00  0.1500000E+00  0.5000000E-01  0.1200000E-01
    1       -4.044720   1.000000
    2       -0.669987   1.000000
    3        3.169867   1.000000
    4        4.264438   1.000000
    5        8.090557   0.000000
    6        8.926149   0.000000
    7        9.850196   0.000000
    8       12.832323   0.000000
 
 -0.2500000E+00  0.1500000E+00  0.5000000E-01  0.1200000E-01
    1       -4.772615   1.000000
    2        0.654267   1.000000
    3        3.287920   1.000000
    4        4.614941   1.000000
    5        8.314556   0.000000
    6        8.992642   0.000000
    7        9.900518   0.000000
    8       11.458156   0.000000
 
 -0.1500000E+00  0.1500000E+00  0.5000000E-01  0.1200000E-01
    1       -5.405572   1.000000
    2        2.221520   1.000000
    3        3.667084   1.000000
    4        5.016737   1.000000
    5        8.457826   0.000000
    6        8.826100   0.000000
    7        9.688409   0.000000
    8       10.849882   0.000000
 
 -0.5000000E-01  0.1500000E+00  0.5000000E-01  0.1200000E-01
    1       -5.823116   1.000000
    2        3.472441   1.000000
    3        4.571470   1.000000
    4        5.244208   1.000000
    5        8.148266   0.000000
    6        8.672768   0.000000
    7        9.177213   0.000000
    8       10.644280   0.000000
 
  0.2500000E+00  0.2500000E+00  0.5000000E-01  0.6000000E-02
    1       -5.313301   1.000000
    2        2.440346   1.000000
    3        3.948064   1.000000
    4        3.976958   1.000000
    5        7.061050   0.000000
    6        9.195351   0.000000
    7       10.727414   0.000000
    8       10.841827   0.000000
 
  0.3500000E+00  0.2500000E+00  0.5000000E-01  0.1200000E-01
    1       -4.818707   1.000000
    2        1.356800   1.000000
    3        3.268420   1.000000
    4        3.736350   1.000000
    5        7.193706   0.000000
    6        8.808202   0.000000
    7       10.875279   0.000000
    8       11.585388   0.000000
 
  0.4500000E+00  0.2500000E+00  0.5000000E-01  0.1200000E-01
    1       -4.131700   1.000000
    2        0.085504   1.000000
    3        2.660779   1.000000
    4        3.514166   1.000000
    5        7.440029   0.000000
    6        9.510092   0.000000
    7       10.579964   0.000000
    8       11.654130   0.000000
 
 -0.4500000E+00  0.2500000E+00  0.5000000E-01  0.1200000E-01
    1       -3.449164   1.000000
    2       -0.927850   1.000000
    3        2.187385   1.000000
    4        3.534516   1.000000
    5        7.555108   0.000000
    6       10.234845   0.000000
    7       11.133676   0.000000
    8       11.459289   0.000000
 
 -0.3500000E+00  0.2500000E+00  0.5000000E-01  0.1200000E-01
    1       -3.473189   1.000000
    2       -0.888615   1.000000
    3        1.942538   1.000000
    4        3.780796   1.000000
    5        7.829549   0.000000
    6       10.017409   0.000000
    7       11.273109   0.000000
    8       12.720507   0.000000
 
 -0.2500000E+00  0.2500000E+00  0.5000000E-01  0.1200000E-01
    1       -4.163445   1.000000
    2        0.111939   1.000000
    3        2.044192   1.000000
    4        4.193816   1.000000
    5        8.267984   0.000000
    6        9.780723   0.000000
    7       11.015300   0.000000
    8       11.283425   0.000000
 
 -0.1500000E+00  0.2500000E+00  0.5000000E-01  0.1200000E-01
    1       -4.841621   1.000000
    2        1.088248   1.000000
    3        2.787598   1.000000
    4        4.652079   1.000000
    5        8.638721   0.000000
    6        9.084663   0.000000
    7       10.294181   0.000000
    8       10.856527   0.000000
 
 -0.5000000E-01  0.2500000E+00  0.5000000E-01  0.1200000E-01
    1       -5.326550   1.000000
    2        1.735930   1.000000
    3        4.146553   1.000000
    4        4.885527   1.000000
    5        8.089928   0.000000
    6        8.854987   0.000000
    7        9.604417   0.000000
    8       11.298700   0.000000
 
  0.3500000E+00  0.3500000E+00  0.5000000E-01  0.6000000E-02
    1       -4.397948   1.000000
    2        0.742810   1.000000
    3        3.203805   1.000000
    4        3.314006   1.000000
    5        6.538726   0.000012
    6        7.841821   0.000000
    7       12.475238   0.000000
    8       12.542149   0.000000
 
  0.4500000E+00  0.3500000E+00  0.5000000E-01  0.1200000E-01
    1       -3.765755   1.000000
    2       -0.178925   1.000000
    3        2.666414   1.000000
    4        3.052495   1.000000
    5        6.791928   0.000000
    6        7.722321   0.000000
    7       12.479022   0.000000
    8       13.399225   0.000000
 
 -0.4500000E+00  0.3500000E+00  0.5000000E-01  0.1200000E-01
    1       -3.031975   1.000000
    2       -1.054549   1.000000
    3        1.864374   1.000000
    4        3.060991   1.000000
    5        7.003840   0.000000
    6        8.925521   0.000000
    7       12.146358   0.000000
    8       13.366670   0.000000
 
 -0.3500000E+00  0.3500000E+00  0.5000000E-01  0.1200000E-01
    1       -2.807942   1.000000
    2       -1.278297   1.000000
    3        1.371095   1.000000
    4        3.299074   1.000000
    5        7.281624   0.000000
    6       10.766158   0.000000
    7       11.815252   0.000000
    8       12.786661   0.000000
 
 -0.2500000E+00  0.3500000E+00  0.5000000E-01  0.1200000E-01
    1       -3.438989   1.000000
    2       -0.685511   1.000000
    3        1.530645   1.000000
    4        3.720334   1.000000
    5        7.758064   0.000000
    6       10.669262   0.000000
    7       11.831738   0.000000
    8       12.072602   0.000000
 
 -0.1500000E+00  0.3500000E+00  0.5000000E-01  0.1200000E-01
    1       -4.120290   1.000000
    2       -0.245007   1.000000
    3        2.520063   1.000000
    4        4.219963   1.000000
    5        8.256413   0.000000
    6        9.288082   0.000000
    7       10.458860   0.000000
    8       11.968980   0.000000
 
 -0.5000000E-01  0.3500000E+00  0.5000000E-01  0.1200000E-01
    1       -4.638106   1.000000
    2        0.133533   1.000000
    3        3.902057   1.000000
    4        4.531630   1.000000
    5        7.834222   0.000000
    6        8.938162   0.000000
    7        9.542969   0.000000
    8       12.272243   0.000000
 
  0.4500000E+00  0.4500000E+00  0.5000000E-01  0.6000000E-02
    1       -3.189603   1.000000
    2       -0.936853   1.000000
    3        2.784787   1.000000
    4        2.931927   1.000000
    5        6.345544   0.002165
    6        6.902586   0.000000
    7       14.321297   0.000000
    8       14.331404   0.000000
 
 -0.4500000E+00  0.4500000E+00  0.5000000E-01  0.1200000E-01
    1       -2.456958   1.000000
    2       -1.719030   1.000000
    3        2.391312   1.000000
    4        2.770867   1.000000
    5        6.670326   0.000000
    6        7.183125   0.000000
    7       14.201020   0.000000
    8       14.931658   0.000000
 
 -0.3500000E+00  0.4500000E+00  0.5000000E-01  0.1200000E-01
    1       -2.474861   1.000000
    2       -1.618009   1.000000
    3        1.691526   1.000000
    4        2.974036   1.000000
    5        6.910843   0.000000
    6        8.811253   0.000000
    7       12.966090   0.000000
    8       13.865547   0.000000
 
 -0.2500000E+00  0.4500000E+00  0.5000000E-01  0.1200000E-01
    1       -3.062066   1.000000
    2       -1.145423   1.000000
    3        1.672010   1.000000
    4        3.377032   1.000000
    5        7.375929   0.000000
    6       10.758582   0.000000
    7       11.165939   0.000000
    8       12.281491   0.000000
 
 -0.1500000E+00  0.4500000E+00  0.5000000E-01  0.1200000E-01
    1       -3.563951   1.000000
    2       -1.084945   1.000000
    3        2.561974   1.000000
    4        3.899818   1.000000
    5        7.942583   0.000000
    6        9.369786   0.000000
    7       10.533576   0.000000
    8       13.226430   0.000000
 
 -0.5000000E-01  0.4500000E+00  0.5000000E-01  0.1200000E-01
    1       -3.960265   1.000000
    2       -1.016829   1.000000
    3        3.802993   1.000000
    4        4.315775   1.000000
    5        7.684084   0.000000
    6        8.874258   0.000000
    7        9.378478   0.000000
    8       13.465618   0.000000
 
 -0.4500000E+00 -0.4500000E+00  0.5000000E-01  0.6000000E-02
    1       -2.489549   1.000000
    2       -1.734685   1.000000
    3        2.700630   1.000000
    4        2.854506   1.000000
    5        6.380239   0.000973
    6        6.637524   0.000000
    7       15.156388   0.000000
    8       15.215326   0.000000
 
 -0.3500000E+00 -0.4500000E+00  0.5000000E-01  0.1200000E-01
    1       -3.138860   1.000000
    2       -0.958041   1.000000
    3        2.484010   1.000000
    4        2.863763   1.000000
    5        6.700809   0.000000
    6        7.373647   0.000000
    7       13.330849   0.000000
    8       14.323830   0.000000
 
 -0.2500000E+00 -0.4500000E+00  0.5000000E-01  0.1200000E-01
    1       -3.603256   1.000000
    2       -0.471097   1.000000
    3        2.199549   1.000000
    4        3.238033   1.000000
    5        7.184830   0.000000
    6        9.157508   0.000000
    7       11.345475   0.000000
    8       12.492993   0.000000
 
 -0.1500000E+00 -0.4500000E+00  0.5000000E-01  0.1200000E-01
    1       -3.871808   1.000000
    2       -0.642618   1.000000
    3        2.804686   1.000000
    4        3.778194   1.000000
    5        7.790973   0.000000
    6        9.571959   0.000000
    7       10.694774   0.000000
    8       11.396720   0.000000
 
 -0.3500000E+00 -0.3500000E+00  0.5000000E-01  0.6000000E-02
    1       -3.827981   1.000000
    2       -0.106606   1.000000
    3        2.952708   1.000000
    4        3.085748   1.000000
    5        6.396197   0.000661
    6        7.308872   0.000000
    7       13.396090   0.000000
    8       13.425305   0.000000
 
 -0.2500000E+00 -0.3500000E+00  0.5000000E-01  0.1200000E-01
    1       -4.327806   1.000000
    2        0.598283   1.000000
    3        2.931628   1.000000
    4        3.342325   1.000000
    5        6.957054   0.000000
    6        8.207628   0.000000
    7       11.659693   0.000000
    8       12.479974   0.000000
 
 -0.1500000E+00 -0.3500000E+00  0.5000000E-01  0.1200000E-01
    1       -4.600662   1.000000
    2        0.624690   1.000000
    3        3.177408   1.000000
    4        3.904493   1.000000
    5        7.743800   0.000000
    6        9.805346   0.000000
    7       10.029918   0.000000
    8       10.887542   0.000000
 
 -0.2500000E+00 -0.2500000E+00  0.5000000E-01  0.6000000E-02
    1       -4.894380   1.000000
    2        1.597116   1.000000
    3        3.536721   1.000000
    4        3.613194   1.000000
    5        6.765022   0.000000
    6        8.488427   0.000000
    7       11.578929   0.000000
    8       11.680003   0.000000
 
 -0.1500000E+00 -0.2500000E+00  0.5000000E-01  0.1200000E-01
    1       -5.233733   1.000000
    2        2.086660   1.000000
    3        3.664366   1.000000
    4        4.222120   1.000000
    5        7.490007   0.000000
    6        9.410567   0.000000
    7       10.212485   0.000000
    8       10.725647   0.000000
 
 -0.1500000E+00 -0.1500000E+00  0.5000000E-01  0.6000000E-02
    1       -5.651669   1.000000
    2        3.255360   1.000000
    3        4.394194   1.000000
    4        4.428081   1.000000
    5        7.405632   0.000000
    6        9.620368   0.000000
    7       10.038943   0.000000
    8       10.146002   0.000000
 
  0.1500000E+00  0.1500000E+00  0.1500000E+00  0.2000000E-02
    1       -5.908534   1.000000
    2        3.571703   1.000000
    3        5.248167   1.000000
    4        5.248167   1.000000
    5        7.981074   0.000000
    6        8.735208   0.000000
    7        8.735208   0.000000
    8       10.611062   0.000000
 
  0.2500000E+00  0.1500000E+00  0.1500000E+00  0.6000000E-02
    1       -5.655428   1.000000
    2        2.848609   1.000000
    3        4.130617   1.000000
    4        5.313904   0.999996
    5        8.452326   0.000000
    6        8.755565   0.000000
    7        9.054353   0.000000
    8       11.131864   0.000000
 
  0.3500000E+00  0.1500000E+00  0.1500000E+00  0.6000000E-02
    1       -5.162050   1.000000
    2        1.647009   1.000000
    3        3.209364   1.000000
    4        4.995393   1.000000
    5        8.532594   0.000000
    6        9.250416   0.000000
    7        9.520180   0.000000
    8       11.329532   0.000000
 
  0.4500000E+00  0.1500000E+00  0.1500000E+00  0.6000000E-02
    1       -4.476130   1.000000
    2        0.178382   1.000000
    3        2.891846   1.000000
    4        4.561776   1.000000
    5        8.192191   0.000000
    6        9.580536   0.000000
    7        9.611420   0.000000
    8       12.377218   0.000000
 
 -0.4500000E+00  0.1500000E+00  0.1500000E+00  0.6000000E-02
    1       -3.794425   1.000000
    2       -0.946208   1.000000
    3        2.876859   1.000000
    4        4.192797   1.000000
    5        7.895631   0.000000
    6        9.439510   0.000000
    7        9.786080   0.000000
    8       13.791645   0.000000
 
 -0.3500000E+00  0.1500000E+00  0.1500000E+00  0.6000000E-02
    1       -3.788195   1.000000
    2       -0.957709   1.000000
    3        3.082004   1.000000
    4        3.968095   1.000000
    5        7.743423   0.000000
    6        9.434878   0.000000
    7       10.022375   0.000000
    8       12.388880   0.000000
 
 -0.2500000E+00  0.1500000E+00  0.1500000E+00  0.6000000E-02
    1       -4.467458   1.000000
    2        0.160531   1.000000
    3        3.465166   1.000000
    4        3.922969   1.000000
    5        7.739288   0.000000
    6        9.566135   0.000000
    7       10.325307   0.000000
    8       10.815580   0.000000
 
 -0.1500000E+00  0.1500000E+00  0.1500000E+00  0.6000000E-02
    1       -5.155656   1.000000
    2        1.685348   1.000000
    3        3.965983   1.000000
    4        4.068681   1.000000
    5        7.675209   0.000000
    6        9.530224   0.000000
    7       10.147547   0.000000
    8       10.450336   0.000000
 
  0.2500000E+00  0.2500000E+00  0.1500000E+00  0.6000000E-02
    1       -5.488093   1.000000
    2        2.308756   1.000000
    3        4.459970   1.000000
    4        4.589288   1.000000
    5        7.976475   0.000000
    6        8.939325   0.000000
    7        9.818429   0.000000
    8       10.722951   0.000000
 
  0.3500000E+00  0.2500000E+00  0.1500000E+00  0.1200000E-01
    1       -5.075691   1.000000
    2        1.600192   1.000000
    3        3.234253   1.000000
    4        4.501047   1.000000
    5        8.186290   0.000000
    6        9.264060   0.000000
    7       10.149822   0.000000
    8       10.551137   0.000000
 
  0.4500000E+00  0.2500000E+00  0.1500000E+00  0.1200000E-01
    1       -4.448620   1.000000
    2        0.545942   1.000000
    3        2.427932   1.000000
    4        4.107600   1.000000
    5        8.769730   0.000000
    6        9.039507   0.000000
    7       10.230736   0.000000
    8       11.288798   0.000000
 
 -0.4500000E+00  0.2500000E+00  0.1500000E+00  0.1200000E-01
    1       -3.719568   1.000000
    2       -0.612662   1.000000
    3        2.185224   1.000000
    4        3.714230   1.000000
    5        8.577845   0.000000
    6        9.011863   0.000000
    7       11.364672   0.000000
    8       11.638613   0.000000
 
 -0.3500000E+00  0.2500000E+00  0.1500000E+00  0.1200000E-01
    1       -3.393492   1.000000
    2       -1.067388   1.000000
    3        2.227967   1.000000
    4        3.517613   1.000000
    5        8.268477   0.000000
    6        9.203137   0.000000
    7       11.480400   0.000000
    8       12.231254   0.000000
 
 -0.2500000E+00  0.2500000E+00  0.1500000E+00  0.1200000E-01
    1       -3.946619   1.000000
    2       -0.273931   1.000000
    3        2.441710   1.000000
    4        3.603602   1.000000
    5        8.112055   0.000000
    6        9.542436   0.000000
    7       10.477333   0.000000
    8       11.567013   0.000000
 
 -0.1500000E+00  0.2500000E+00  0.1500000E+00  0.1200000E-01
    1       -4.668967   1.000000
    2        0.977103   1.000000
    3        2.855965   1.000000
    4        3.929472   1.000000
    5        7.904504   0.000000
    6        9.395589   0.000000
    7        9.956985   0.000000
    8       11.456643   0.000000
 
  0.3500000E+00  0.3500000E+00  0.1500000E+00  0.6000000E-02
    1       -4.745320   1.000000
    2        1.056656   1.000000
    3        3.352295   1.000000
    4        3.722714   1.000000
    5        7.349777   0.000000
    6        9.237440   0.000000
    7       10.622245   0.000000
    8       11.114799   0.000000
 
  0.4500000E+00  0.3500000E+00  0.1500000E+00  0.1200000E-01
    1       -4.189901   1.000000
    2        0.338524   1.000000
    3        2.544431   1.000000
    4        3.401687   1.000000
    5        7.666237   0.000000
    6        8.868581   0.000000
    7       10.595958   0.000000
    8       12.403917   0.000000
 
 -0.4500000E+00  0.3500000E+00  0.1500000E+00  0.1200000E-01
    1       -3.472831   1.000000
    2       -0.535175   1.000000
    3        1.948931   1.000000
    4        2.965030   1.000000
    5        8.380445   0.000000
    6        9.333216   0.000000
    7       10.180918   0.000000
    8       13.324917   0.000000
 
 -0.3500000E+00  0.3500000E+00  0.1500000E+00  0.1200000E-01
    1       -2.904512   1.000000
    2       -1.192481   1.000000
    3        1.646285   1.000000
    4        2.821531   1.000000
    5        8.631477   0.000000
    6        9.707006   0.000000
    7       11.098904   0.000000
    8       12.340941   0.000000
 
 -0.2500000E+00  0.3500000E+00  0.1500000E+00  0.1200000E-01
    1       -3.262478   1.000000
    2       -0.784791   1.000000
    3        1.647886   1.000000
    4        3.046343   1.000000
    5        9.001518   0.000000
    6        9.416967   0.000000
    7       10.453225   0.000000
    8       13.190055   0.000000
 
 -0.1500000E+00  0.3500000E+00  0.1500000E+00  0.1200000E-01
    1       -3.989336   1.000000
    2        0.009923   1.000000
    3        2.145186   1.000000
    4        3.510119   1.000000
    5        8.558573   0.000000
    6        9.502610   0.000000
    7        9.764722   0.000000
    8       12.294853   0.000000
 
  0.4500000E+00  0.4500000E+00  0.1500000E+00  0.6000000E-02
    1       -3.709707   1.000000
    2       -0.281887   1.000000
    3        2.408741   1.000000
    4        3.215091   1.000000
    5        6.819707   0.000000
    6        8.313274   0.000000
    7       12.413123   0.000000
    8       12.556827   0.000000
 
 -0.4500000E+00  0.4500000E+00  0.1500000E+00  0.1200000E-01
    1       -3.042800   1.000000
    2       -1.009388   1.000000
    3        2.145874   1.000000
    4        2.684650   1.000000
    5        7.371427   0.000000
    6        8.141766   0.000000
    7       12.112112   0.000000
    8       14.287236   0.000000
 
 -0.3500000E+00  0.4500000E+00  0.1500000E+00  0.1200000E-01
    1       -2.339401   1.000000
    2       -1.673040   1.000000
    3        1.813499   1.000000
    4        2.297942   1.000000
    5        8.197884   0.000000
    6        8.953939   0.000000
    7       11.692431   0.000000
    8       12.572411   0.000000
 
 -0.2500000E+00  0.4500000E+00  0.1500000E+00  0.1200000E-01
    1       -2.631769   1.000000
    2       -1.374806   1.000000
    3        1.495940   1.000000
    4        2.622594   1.000000
    5        8.551722   0.000000
    6       10.354889   0.000000
    7       11.046376   0.000000
    8       11.489327   0.000000
 
 -0.1500000E+00  0.4500000E+00  0.1500000E+00  0.1200000E-01
    1       -3.298871   1.000000
    2       -0.927883   1.000000
    3        1.890493   1.000000
    4        3.206633   1.000000
    5        8.787126   0.000000
    6        9.081989   0.000000
    7       11.276733   0.000000
    8       12.443040   0.000000
 
 -0.4500000E+00 -0.4500000E+00  0.1500000E+00  0.6000000E-02
    1       -2.457605   1.000000
    2       -1.686387   1.000000
    3        2.000535   1.000000
    4        2.990838   1.000000
    5        6.567912   0.000005
    6        7.912278   0.000000
    7       14.081524   0.000000
    8       14.305088   0.000000
 
 -0.3500000E+00 -0.4500000E+00  0.1500000E+00  0.1200000E-01
    1       -2.400817   1.000000
    2       -1.694905   1.000000
    3        2.065056   1.000000
    4        2.537596   1.000000
    5        7.316889   0.000000
    6        7.989573   0.000000
    7       12.954199   0.000000
    8       13.847379   0.000000
 
 -0.2500000E+00 -0.4500000E+00  0.1500000E+00  0.1200000E-01
    1       -2.912906   1.000000
    2       -1.100461   1.000000
    3        1.842908   1.000000
    4        2.542103   1.000000
    5        8.258691   0.000000
    6        9.081507   0.000000
    7       10.894964   0.000000
    8       13.494655   0.000000
 
 -0.3500000E+00 -0.3500000E+00  0.1500000E+00  0.6000000E-02
    1       -3.099910   1.000000
    2       -0.990586   1.000000
    3        2.135626   1.000000
    4        3.066021   1.000000
    5        6.653416   0.000000
    6        8.045373   0.000000
    7       13.336254   0.000000
    8       13.354288   0.000000
 
 -0.2500000E+00 -0.3500000E+00  0.1500000E+00  0.1200000E-01
    1       -3.644835   1.000000
    2       -0.324819   1.000000
    3        2.306399   1.000000
    4        2.976481   1.000000
    5        7.486855   0.000000
    6        8.438198   0.000000
    7       11.324531   0.000000
    8       13.370980   0.000000
 
 -0.2500000E+00 -0.2500000E+00  0.1500000E+00  0.6000000E-02
    1       -4.261293   1.000000
    2        0.403736   1.000000
    3        2.819430   1.000000
    4        3.435557   1.000000
    5        7.056516   0.000000
    6        8.716215   0.000000
    7       11.494301   0.000000
    8       11.815695   0.000000
 
  0.2500000E+00  0.2500000E+00  0.2500000E+00  0.2000000E-02
    1       -5.411136   1.000000
    2        1.736641   1.000000
    3        4.879459   1.000000
    4        4.879459   1.000000
    5        7.589947   0.000000
    6        9.120801   0.000000
    7        9.120801   0.000000
    8       12.384251   0.000000
 
  0.3500000E+00  0.2500000E+00  0.2500000E+00  0.6000000E-02
    1       -5.086864   1.000000
    2        1.176171   1.000000
    3        3.722529   1.000000
    4        4.926088   1.000000
    5        8.126493   0.000000
    6        9.154406   0.000000
    7        9.388916   0.000000
    8       11.971214   0.000000
 
  0.4500000E+00  0.2500000E+00  0.2500000E+00  0.6000000E-02
    1       -4.535514   1.000000
    2        0.588258   1.000000
    3        2.381249   1.000000
    4        4.562997   1.000000
    5        8.292232   0.000000
    6        9.914829   0.000000
    7       10.153693   0.000000
    8       11.599647   0.000000
 
 -0.4500000E+00  0.2500000E+00  0.2500000E+00  0.6000000E-02
    1       -3.822424   1.000000
    2       -0.301353   1.000000
    3        1.737438   1.000000
    4        4.084160   1.000000
    5        7.817296   0.000000
    6       10.747516   0.000000
    7       10.969661   0.000000
    8       12.203701   0.000000
 
 -0.3500000E+00  0.2500000E+00  0.2500000E+00  0.6000000E-02
    1       -3.241275   1.000000
    2       -1.071100   1.000000
    3        1.759329   1.000000
    4        3.689798   1.000000
    5        7.397418   0.000000
    6       11.047224   0.000000
    7       11.165727   0.000000
    8       12.032167   0.000000
 
 -0.2500000E+00  0.2500000E+00  0.2500000E+00  0.6000000E-02
    1       -3.530505   1.000000
    2       -0.701728   1.000000
    3        2.159361   1.000000
    4        3.462895   1.000000
    5        7.170807   0.000000
    6       10.064956   0.000000
    7       11.281406   0.000000
    8       11.514968   0.000000
 
  0.3500000E+00  0.3500000E+00  0.2500000E+00  0.6000000E-02
    1       -4.853449   1.000000
    2        0.639648   1.000000
    3        4.152818   1.000000
    4        4.226079   1.000000
    5        7.905602   0.000000
    6        8.985027   0.000000
    7        9.845888   0.000000
    8       11.365136   0.000000
 
  0.4500000E+00  0.3500000E+00  0.2500000E+00  0.1200000E-01
    1       -4.389522   1.000000
    2        0.173562   1.000000
    3        2.860830   1.000000
    4        4.114636   1.000000
    5        8.349941   0.000000
    6        9.061107   0.000000
    7       10.626955   0.000000
    8       10.966051   0.000000
 
 -0.4500000E+00  0.3500000E+00  0.2500000E+00  0.1200000E-01
    1       -3.734595   1.000000
    2       -0.342258   1.000000
    3        1.794847   1.000000
    4        3.640947   1.000000
    5        8.540336   0.000000
    6        9.574215   0.000000
    7       10.772156   0.000000
    8       12.163297   0.000000
 