unknown system                          
   1.00000000000000     
     0.000000    2.715000    2.715000
     2.715000    0.000000    2.715000
     2.715000    2.715000    0.000000
   Si
     2
Direct
  0.500000  0.500000  0.500000
  0.750000  0.750000  0.750000
 
   32   32   32
 0.79871979922E+00 0.82069806799E+00 0.88787944501E+00 0.10041011290E+01 0.11754982204E+01
 0.14101758214E+01 0.17175849767E+01 0.21070692446E+01 0.25850162925E+01 0.31505545362E+01
 0.37906724884E+01 0.44765072881E+01 0.51627486496E+01 0.57913951502E+01 0.62997723626E+01
 0.66313113588E+01 0.67465265139E+01 0.66312403132E+01 0.62996417716E+01 0.57912328451E+01
 0.51625963412E+01 0.44764057464E+01 0.37906453046E+01 0.31506045087E+01 0.25851319487E+01
 0.21072270838E+01 0.17177458414E+01 0.14102913347E+01 0.11755347423E+01 0.10040629125E+01
 0.88780759515E+00 0.82064495290E+00 0.82069806799E+00 0.85873664078E+00 0.93693451095E+00
 0.10593050340E+01 0.12312981915E+01 0.14593449681E+01 0.17501816603E+01 0.21094484564E+01
 0.25391012862E+01 0.30337473918E+01 0.35769033482E+01 0.41388365466E+01 0.46775619238E+01
 0.51436339980E+01 0.54880255257E+01 0.56712307620E+01 0.56712009500E+01 0.54879467814E+01
 0.51435338768E+01 0.46774761668E+01 0.41388019445E+01 0.35769477832E+01 0.30338741784E+01
 0.25392795835E+01 0.21096257325E+01 0.17503128731E+01 0.14594124384E+01 0.12313070300E+01
 0.10592687295E+01 0.93687194542E+00 0.85867684108E+00 0.82067324484E+00 0.88787944501E+00
 0.93693451095E+00 0.10214742922E+01 0.11452187448E+01 0.13126670870E+01 0.15286224963E+01
 0.17974619438E+01 0.21217352495E+01 0.24998296220E+01 0.29230112644E+01 0.33728855790E+01
 0.38206908099E+01 0.42294820137E+01 0.45592619967E+01 0.47739735070E+01 0.48485244730E+01
 0.47739350765E+01 0.45592136611E+01 0.42294623889E+01 0.38207260949E+01 0.33729785144E+01
 0.29231451183E+01 0.24999778490E+01 0.21218683279E+01 0.17975528681E+01 0.15286555069E+01
 0.13126460803E+01 0.11451660724E+01 0.10214179094E+01 0.93689345158E+00 0.88785945114E+00
 0.87181584880E+00 0.10041011290E+01 0.10593050340E+01 0.11452187448E+01 0.12650699109E+01
 0.14224756629E+01 0.16209227132E+01 0.18629159642E+01 0.21485463767E+01 0.24734602616E+01
 0.28267013670E+01 0.31893721285E+01 0.35351411180E+01 0.38331194105E+01 0.40527311439E+01
 0.41693795225E+01 0.41693609546E+01 0.40526915201E+01 0.38330987827E+01 0.35351795748E+01
 0.31894797770E+01 0.28268455383E+01 0.24735849352E+01 0.21486089816E+01 0.18629090938E+01
 0.16208670546E+01 0.14224004974E+01 0.12650011487E+01 0.11451747610E+01 0.10592912923E+01
 0.10041064835E+01 0.97717045725E+00 0.97716544259E+00 0.11754982204E+01 0.12312981915E+01
 0.13126670870E+01 0.14224756629E+01 0.15637716498E+01 0.17391191876E+01 0.19495936754E+01
 0.21933835018E+01 0.24641825840E+01 0.27498935693E+01 0.30323728901E+01 0.32888103779E+01
 0.34948089627E+01 0.36285441248E+01 0.36749079771E+01 0.36285117036E+01 0.34947693088E+01
 0.32887984973E+01 0.30324116523E+01 0.27499772848E+01 0.24642752538E+01 0.21934348759E+01
 0.19495668458E+01 0.17390143718E+01 0.15636293135E+01 0.14223539744E+01 0.13126079550E+01
 0.12313054133E+01 0.11755410471E+01 0.11430269210E+01 0.11323342972E+01 0.11429910621E+01
 0.14101758214E+01 0.14593449681E+01 0.15286224963E+01 0.16209227132E+01 0.17391191876E+01
 0.18851880155E+01 0.20591171946E+01 0.22576966379E+01 0.24734606309E+01 0.26942287408E+01
 0.29037060069E+01 0.30833413777E+01 0.32151774908E+01 0.32850034631E+01 0.32849865991E+01
 0.32151395780E+01 0.30833092689E+01 0.29036987521E+01 0.26942453146E+01 0.24734836232E+01
 0.22577028089E+01 0.20590862962E+01 0.18851111311E+01 0.17390078503E+01 0.16208113325E+01
 0.15285549940E+01 0.14593484285E+01 0.14102388353E+01 0.13788050875E+01 0.13634471291E+01
 0.13634142432E+01 0.13787300684E+01 0.17175849767E+01 0.17501816603E+01 0.17974619438E+01
 0.18629159642E+01 0.19495936754E+01 0.20591171946E+01 0.21906769729E+01 0.23401846135E+01
 0.24998296220E+01 0.26583428213E+01 0.28021563367E+01 0.29173418196E+01 0.29918767149E+01
 0.30176622400E+01 0.29918551117E+01 0.29173169770E+01 0.28021476805E+01 0.26583535704E+01
 0.24998445471E+01 0.23401817332E+01 0.21906418939E+01 0.20590519952E+01 0.19495178306E+01
 0.18628593121E+01 0.17974515957E+01 0.17502279282E+01 0.17176735677E+01 0.16966464251E+01
 0.16848694691E+01 0.16810548021E+01 0.16848078545E+01 0.16965507362E+01 0.21070692446E+01
 0.21094484564E+01 0.21217352495E+01 0.21485463767E+01 0.21933835018E+01 0.22576966379E+01
 0.23401846135E+01 0.24364405268E+01 0.25391009169E+01 0.26386455916E+01 0.27247943064E+01
 0.27881613624E+01 0.28217103840E+01 0.28217102448E+01 0.27881640921E+01 0.27248055428E+01
 0.26386675208E+01 0.25391312794E+01 0.24364739335E+01 0.23402112533E+01 0.22577041349E+01
 0.21933690141E+01 0.21485294024E+01 0.21217506064E+01 0.21095180209E+01 0.21071800490E+01
 0.21100039748E+01 0.21140643519E+01 0.21167207337E+01 0.21166932333E+01 0.21139853795E+01
 0.21098908825E+01 0.25850162925E+01 0.25391012862E+01 0.24998296220E+01 0.24734602616E+01
 0.24641825840E+01 0.24734606309E+01 0.24998296220E+01 0.25391009169E+01 0.25850162925E+01
 0.26303503008E+01 0.26682222116E+01 0.26932006434E+01 0.27019148002E+01 0.26932320526E+01
 0.26682726507E+01 0.26304052071E+01 0.25850694741E+01 0.25391566648E+01 0.24998962440E+01
 0.24735412824E+01 0.24642702238E+01 0.24735416517E+01 0.24998962440E+01 0.25391562955E+01
 0.25850694741E+01 0.26304055764E+01 0.26682726507E+01 0.26932316833E+01 0.27019148002E+01
 0.26932010127E+01 0.26682222116E+01 0.26303499315E+01 0.31505545362E+01 0.30337473918E+01
 0.29230112644E+01 0.28267013670E+01 0.27498935693E+01 0.26942287408E+01 0.26583428213E+01
 0.26386455916E+01 0.26303503008E+01 0.26286258242E+01 0.26295623631E+01 0.26306352576E+01
 0.26306679162E+01 0.26296456482E+01 0.26287296980E+01 0.26304536385E+01 0.26387440522E+01
 0.26584405238E+01 0.26943313362E+01 0.27500056527E+01 0.28268199462E+01 0.29231182370E+01
 0.30338158434E+01 0.31505688197E+01 0.32627373048E+01 0.33590438894E+01 0.34294330814E+01
 0.34665497921E+01 0.34665651068E+01 0.34294739450E+01 0.33590935597E+01 0.32627683807E+01
 0.37906724884E+01 0.35769033482E+01 0.33728855790E+01 0.31893721285E+01 0.30323728901E+01
 0.29037060069E+01 0.28021563367E+01 0.27247943064E+01 0.26682222116E+01 0.26295623631E+01
 0.26069617218E+01 0.25995395059E+01 0.26070489085E+01 0.26297037146E+01 0.26683789284E+01
 0.27249457914E+01 0.28022997176E+01 0.29038403744E+01 0.30324890638E+01 0.31894557216E+01
 0.33729261356E+01 0.35768993992E+01 0.37906278959E+01 0.39991944312E+01 0.41853966367E+01
 0.43324523027E+01 0.44266241253E+01 0.44590569380E+01 0.44266988025E+01 0.43325660889E+01
 0.41855068464E+01 0.39992758675E+01 0.44765072881E+01 0.41388365466E+01 0.38206908099E+01
 0.35351411180E+01 0.32888103779E+01 0.30833413777E+01 0.29173418196E+01 0.27881613624E+01
 0.26932006434E+01 0.26306352576E+01 0.25995395059E+01 0.25995949428E+01 0.26307813311E+01
 0.26933921789E+01 0.27883580095E+01 0.29175226517E+01 0.30834966314E+01 0.32889269136E+01
 0.35351992455E+01 0.38206739346E+01 0.41387445591E+01 0.44763603727E+01 0.48138879583E+01
 0.51268999293E+01 0.53896410929E+01 0.55790789840E+01 0.56782572375E+01 0.56782933453E+01
 0.55791786849E+01 0.53897851111E+01 0.51270681864E+01 0.48140593553E+01 0.51627486496E+01
 0.46775619238E+01 0.42294820137E+01 0.38331194105E+01 0.34948089627E+01 0.32151774908E+01
 0.29918767149E+01 0.28217103840E+01 0.27019148002E+01 0.26306679162E+01 0.26070489085E+01
 0.26307813311E+01 0.27021072141E+01 0.28219349457E+01 0.29920929811E+01 0.32153519910E+01
 0.34949117866E+01 0.38331326234E+01 0.42294106647E+01 0.46774296459E+01 0.51625807089E+01
 0.56607764110E+01 0.61397206887E+01 0.65627995792E+01 0.68945653201E+01 0.71060833376E+01
 0.71787353135E+01 0.71061410940E+01 0.68946802271E+01 0.65629610631E+01 0.61399062225E+01
 0.56609620296E+01 0.57913951502E+01 0.51436339980E+01 0.45592619967E+01 0.40527311439E+01
 0.36285441248E+01 0.32850034631E+01 0.30176622400E+01 0.28217102448E+01 0.26932320526E+01
 0.26296456482E+01 0.26297037146E+01 0.26933921789E+01 0.28219349457E+01 0.30179016984E+01
 0.32852048303E+01 0.36286582294E+01 0.40527253470E+01 0.45591402641E+01 0.51434451635E+01
 0.57912080496E+01 0.64754014383E+01 0.71565198975E+01 0.77862150910E+01 0.83138228445E+01
 0.86939300848E+01 0.88928662657E+01 0.88928741943E+01 0.86939533967E+01 0.83138601143E+01
 0.77862694218E+01 0.71566066071E+01 0.64755403509E+01 0.62997723626E+01 0.54880255257E+01
 0.47739735070E+01 0.41693795225E+01 0.36749079771E+01 0.32849865991E+01 0.29918551117E+01
 0.27881640921E+01 0.26682726507E+01 0.26287296980E+01 0.26683789284E+01 0.27883580095E+01
 0.29920929811E+01 0.32852048303E+01 0.36750432324E+01 0.41693904300E+01 0.47738565382E+01
 0.54878245139E+01 0.62995663531E+01 0.71820360604E+01 0.80912215144E+01 0.89684335484E+01
 0.97466709943E+01 0.10359785109E+02 0.10752246075E+02 0.10887304286E+02 0.10752153494E+02
 0.10359645477E+02 0.97465438944E+01 0.89683681240E+01 0.80912517658E+01 0.71821715546E+01
 0.66313113588E+01 0.56712307620E+01 0.48485244730E+01 0.41693609546E+01 0.36285117036E+01
 0.32151395780E+01 0.29173169770E+01 0.27248055428E+01 0.26304052071E+01 0.26304536385E+01
 0.27249457914E+01 0.29175226517E+01 0.32153519910E+01 0.36286582294E+01 0.41693904300E+01
 0.48484302147E+01 0.56710547982E+01 0.66311293177E+01 0.77054281130E+01 0.88499923346E+01
 0.10000154614E+02 0.11075006687E+02 0.11986145372E+02 0.12649694900E+02 0.12999643795E+02
 0.12999562266E+02 0.12649495371E+02 0.11985921347E+02 0.11074831203E+02 0.10000062744E+02
 0.88500025150E+01 0.77055425455E+01 0.67465265139E+01 0.56712009500E+01 0.47739350765E+01
 0.40526915201E+01 0.34947693088E+01 0.30833092689E+01 0.28021476805E+01 0.26386675208E+01
 0.25850694741E+01 0.26387440522E+01 0.28022997176E+01 0.30834966314E+01 0.34949117866E+01
 0.40527253470E+01 0.47738565382E+01 0.56710547982E+01 0.67463735042E+01 0.79843375551E+01
 0.93465374949E+01 0.10769093260E+02 0.12163827899E+02 0.13423870980E+02 0.14434783152E+02
 0.15091128142E+02 0.15318382104E+02 0.15091048542E+02 0.14434644823E+02 0.13423705482E+02
 0.12163675717E+02 0.10769002683E+02 0.93465442963E+01 0.79844384161E+01 0.66312403132E+01
 0.54879467814E+01 0.45592136611E+01 0.38330987827E+01 0.32887984973E+01 0.29036987521E+01
 0.26583535704E+01 0.25391312794E+01 0.25391566648E+01 0.26584405238E+01 0.29038403744E+01
 0.32889269136E+01 0.38331326234E+01 0.45591402641E+01 0.54878245139E+01 0.66311293177E+01
 0.79843375551E+01 0.95194618165E+01 0.11180749960E+02 0.12882376808E+02 0.14508830701E+02
 0.15918271467E+02 0.16955225403E+02 0.17503185248E+02 0.17503193745E+02 0.16955231497E+02
 0.15918241390E+02 0.14508761242E+02 0.12882307017E+02 0.11180723862E+02 0.95194917976E+01
 0.79844132323E+01 0.62996417716E+01 0.51435338768E+01 0.42294623889E+01 0.35351795748E+01
 0.30324116523E+01 0.26942453146E+01 0.24998445471E+01 0.24364739335E+01 0.24998962440E+01
 0.26943313362E+01 0.30324890638E+01 0.35351992455E+01 0.42294106647E+01 0.51434451635E+01
 0.62995663531E+01 0.77054281130E+01 0.93465374949E+01 0.11180749960E+02 0.13133834328E+02
 0.15094865838E+02 0.16902857851E+02 0.18358299172E+02 0.19299585127E+02 0.19624960155E+02
 0.19299650805E+02 0.18358413023E+02 0.16902979623E+02 0.15094948793E+02 0.13133860023E+02
 0.11180741110E+02 0.93465345753E+01 0.77054620017E+01 0.57912328451E+01 0.46774761668E+01
 0.38207260949E+01 0.31894797770E+01 0.27499772848E+01 0.24734836232E+01 0.23401817332E+01
 0.23402112533E+01 0.24735412824E+01 0.27500056527E+01 0.31894557216E+01 0.38206739346E+01
 0.46774296459E+01 0.57912080496E+01 0.71820360604E+01 0.88499923346E+01 0.10769093260E+02
 0.12882376808E+02 0.15094865838E+02 0.17247852583E+02 0.19112492464E+02 0.20483149457E+02
 0.21208905990E+02 0.21208977976E+02 0.20483353368E+02 0.19112771945E+02 0.17248100135E+02
 0.15094984875E+02 0.12882361158E+02 0.10769020958E+02 0.88499406236E+01 0.71820281116E+01
 0.51625963412E+01 0.41388019445E+01 0.33729785144E+01 0.28268455383E+01 0.24642752538E+01
 0.22577028089E+01 0.21906418939E+01 0.22577041349E+01 0.24642702238E+01 0.28268199462E+01
 0.33729261356E+01 0.41387445591E+01 0.51625807089E+01 0.64754014383E+01 0.80912215144E+01
 0.10000154614E+02 0.12163827899E+02 0.14508830701E+02 0.16902857851E+02 0.19112492464E+02
 0.20896665411E+02 0.22057059318E+02 0.22459870215E+02 0.22057247004E+02 0.20896949288E+02
 0.19112752485E+02 0.16903011933E+02 0.14508854078E+02 0.12163742070E+02 0.10000012736E+02
 0.80910916959E+01 0.64753393969E+01 0.44764057464E+01 0.35769477832E+01 0.29231451183E+01
 0.24735849352E+01 0.21934348759E+01 0.20590862962E+01 0.20590519952E+01 0.21933690141E+01
 0.24735416517E+01 0.29231182370E+01 0.35768993992E+01 0.44763603727E+01 0.56607764110E+01
 0.71565198975E+01 0.89684335484E+01 0.11075006687E+02 0.13423870980E+02 0.15918271467E+02
 0.18358299172E+02 0.20483149457E+02 0.22057059318E+02 0.22895823284E+02 0.22895886644E+02
 0.22057191781E+02 0.20483251248E+02 0.18358335674E+02 0.15918260730E+02 0.13423799816E+02
 0.11074841243E+02 0.89682074329E+01 0.71563452993E+01 0.56607312440E+01 0.37906453046E+01
 0.30338741784E+01 0.24999778490E+01 0.21486089816E+01 0.19495668458E+01 0.18851111311E+01
 0.19495178306E+01 0.21485294024E+01 0.24998962440E+01 0.30338158434E+01 0.37906278959E+01
 0.48138879583E+01 0.61397206887E+01 0.77862150910E+01 0.97466709943E+01 0.11986145372E+02
 0.14434783152E+02 0.16955225403E+02 0.19299585127E+02 0.21208905990E+02 0.22459870215E+02
 0.22895886644E+02 0.22459846460E+02 0.21208843018E+02 0.19299477127E+02 0.16955081597E+02
 0.14434605495E+02 0.11985930538E+02 0.97464406796E+01 0.77860179617E+01 0.61395984513E+01
 0.48138450962E+01 0.31506045087E+01 0.25392795835E+01 0.21218683279E+01 0.18629090938E+01
 0.17390143718E+01 0.17390078503E+01 0.18628593121E+01 0.21217506064E+01 0.25391562955E+01
 0.31505688197E+01 0.39991944312E+01 0.51268999293E+01 0.65627995792E+01 0.83138228445E+01
 0.10359785109E+02 0.12649694900E+02 0.15091128142E+02 0.17503185248E+02 0.19624960155E+02
 0.21208977976E+02 0.22057247004E+02 0.22057191781E+02 0.21208843018E+02 0.19624792396E+02
 0.17502984143E+02 0.15090863664E+02 0.12649385547E+02 0.10359513518E+02 0.83136447257E+01
 0.65626848373E+01 0.51267993260E+01 0.39991309472E+01 0.25851319487E+01 0.21096257325E+01
 0.17975528681E+01 0.16208670546E+01 0.15636293135E+01 0.16208113325E+01 0.17974515957E+01
 0.21095180209E+01 0.25850694741E+01 0.32627373048E+01 0.41853966367E+01 0.53896410929E+01
 0.68945653201E+01 0.86939300848E+01 0.10752246075E+02 0.12999643795E+02 0.15318382104E+02
 0.17503193745E+02 0.19299650805E+02 0.20483353368E+02 0.20896949288E+02 0.20483251248E+02
 0.19299477127E+02 0.17502984143E+02 0.15318151648E+02 0.12999392493E+02 0.10751993526E+02
 0.86937186861E+01 0.68944225700E+01 0.53895560208E+01 0.41853488368E+01 0.32627357348E+01
 0.21072270838E+01 0.17503128731E+01 0.15286555069E+01 0.14224004974E+01 0.14223539744E+01
 0.15285549940E+01 0.17502279282E+01 0.21071800490E+01 0.26304055764E+01 0.33590438894E+01
 0.43324523027E+01 0.55790789840E+01 0.71060833376E+01 0.88928662657E+01 0.10887304286E+02
 0.12999562266E+02 0.15091048542E+02 0.16955231497E+02 0.18358413023E+02 0.19112771945E+02
 0.19112752485E+02 0.18358335674E+02 0.16955081597E+02 0.15090863664E+02 0.12999392493E+02
 0.10887150361E+02 0.88926987751E+01 0.71059163926E+01 0.55789733003E+01 0.43324354620E+01
 0.33590765263E+01 0.26304419245E+01 0.17177458414E+01 0.14594124384E+01 0.13126460803E+01
 0.12650011487E+01 0.13126079550E+01 0.14593484285E+01 0.17176735677E+01 0.21100039748E+01
 0.26682726507E+01 0.34294330814E+01 0.44266241253E+01 0.56782572375E+01 0.71787353135E+01
 0.88928741943E+01 0.10752153494E+02 0.12649495371E+02 0.14434644823E+02 0.15918241390E+02
 0.16902979623E+02 0.17248100135E+02 0.16903011933E+02 0.15918260730E+02 0.14434605495E+02
 0.12649385547E+02 0.10751993526E+02 0.88926987751E+01 0.71785853403E+01 0.56781682379E+01
 0.44266049842E+01 0.34294644340E+01 0.26683289504E+01 0.21100717090E+01 0.14102913347E+01
 0.12313070300E+01 0.11451660724E+01 0.11451747610E+01 0.12313054133E+01 0.14102388353E+01
 0.16966464251E+01 0.21140643519E+01 0.26932316833E+01 0.34665497921E+01 0.44590569380E+01
 0.56782933453E+01 0.71061410940E+01 0.86939533967E+01 0.10359645477E+02 0.11985921347E+02
 0.13423705482E+02 0.14508761242E+02 0.15094948793E+02 0.15094984875E+02 0.14508854078E+02
 0.13423799816E+02 0.11985930538E+02 0.10359513518E+02 0.86937186861E+01 0.71059163926E+01
 0.56781682379E+01 0.44590342755E+01 0.34665846120E+01 0.26932988151E+01 0.21141592418E+01
 0.16967423145E+01 0.11755347423E+01 0.10592687295E+01 0.10214179094E+01 0.10592912923E+01
 0.11755410471E+01 0.13788050875E+01 0.16848694691E+01 0.21167207337E+01 0.27019148002E+01
 0.34665651068E+01 0.44266988025E+01 0.55791786849E+01 0.68946802271E+01 0.83138601143E+01
 0.97465438944E+01 0.11074831203E+02 0.12163675717E+02 0.12882307017E+02 0.13133860023E+02
 0.12882361158E+02 0.12163742070E+02 0.11074841243E+02 0.97464406796E+01 0.83136447257E+01
 0.68944225700E+01 0.55789733003E+01 0.44266049842E+01 0.34665846120E+01 0.27020109166E+01
 0.21168441229E+01 0.16849716934E+01 0.13788524149E+01 0.10040629125E+01 0.93687194542E+00
 0.93689345158E+00 0.10041064835E+01 0.11430269210E+01 0.13634471291E+01 0.16810548021E+01
 0.21166932333E+01 0.26932010127E+01 0.34294739450E+01 0.43325660889E+01 0.53897851111E+01
 0.65629610631E+01 0.77862694218E+01 0.89683681240E+01 0.10000062744E+02 0.10769002683E+02
 0.11180723862E+02 0.11180741110E+02 0.10769020958E+02 0.10000012736E+02 0.89682074329E+01
 0.77860179617E+01 0.65626848373E+01 0.53895560208E+01 0.43324354620E+01 0.34294644340E+01
 0.26932988151E+01 0.21168441229E+01 0.16811844740E+01 0.13635036964E+01 0.11430112857E+01
 0.88780759515E+00 0.85867684108E+00 0.88785945114E+00 0.97717045725E+00 0.11323342972E+01
 0.13634142432E+01 0.16848078545E+01 0.21139853795E+01 0.26682222116E+01 0.33590935597E+01
 0.41855068464E+01 0.51270681864E+01 0.61399062225E+01 0.71566066071E+01 0.80912517658E+01
 0.88500025150E+01 0.93465442963E+01 0.95194917976E+01 0.93465345753E+01 0.88499406236E+01
 0.80910916959E+01 0.71563452993E+01 0.61395984513E+01 0.51267993260E+01 0.41853488368E+01
 0.33590765263E+01 0.26683289504E+01 0.21141592418E+01 0.16849716934E+01 0.13635036964E+01
 0.11323317396E+01 0.97711218323E+00 0.82064495290E+00 0.82067324484E+00 0.87181584880E+00
 0.97716544259E+00 0.11429910621E+01 0.13787300684E+01 0.16965507362E+01 0.21098908825E+01
 0.26303499315E+01 0.32627683807E+01 0.39992758675E+01 0.48140593553E+01 0.56609620296E+01
 0.64755403509E+01 0.71821715546E+01 0.77055425455E+01 0.79844384161E+01 0.79844132323E+01
 0.77054620017E+01 0.71820281116E+01 0.64753393969E+01 0.56607312440E+01 0.48138450962E+01
 0.39991309472E+01 0.32627357348E+01 0.26304419245E+01 0.21100717090E+01 0.16967423145E+01
 0.13788524149E+01 0.11430112857E+01 0.97711218323E+00 0.87174960554E+00 0.82069846629E+00
 0.85873678003E+00 0.93693459898E+00 0.10593052241E+01 0.12312983504E+01 0.14593449760E+01
 0.17501816470E+01 0.21094485257E+01 0.25391013152E+01 0.30337473378E+01 0.35769034718E+01
 0.41388371123E+01 0.46775629635E+01 0.51436355495E+01 0.54880277467E+01 0.56712335227E+01
 0.56712035807E+01 0.54879484744E+01 0.51435341398E+01 0.46774747955E+01 0.41387989753E+01
 0.35769437614E+01 0.30338701441E+01 0.25392764506E+01 0.21096238138E+01 0.17503120974E+01
 0.14594126658E+01 0.12313079449E+01 0.10592697981E+01 0.93687280645E+00 0.85867752842E+00
 0.82067384705E+00 0.85873678003E+00 0.90653293845E+00 0.98903797994E+00 0.11100160464E+01
 0.12739382724E+01 0.14854877634E+01 0.17488560272E+01 0.20664075339E+01 0.24364410354E+01
 0.28503416899E+01 0.32901243849E+01 0.37277351147E+01 0.41271487381E+01 0.44493441015E+01
 0.46591180785E+01 0.47319549521E+01 0.46590728734E+01 0.44492723807E+01 0.41270860679E+01
 0.37277246625E+01 0.32901973468E+01 0.28504958478E+01 0.24366344080E+01 0.20665784307E+01
 0.17489587108E+01 0.14855157303E+01 0.12739161792E+01 0.11099724974E+01 0.98898896205E+00
 0.90648761531E+00 0.85870796290E+00 0.84309650248E+00 0.93693459898E+00 0.98903797994E+00
 0.10705081643E+01 0.11846657350E+01 0.13350648338E+01 0.15249624218E+01 0.17565584667E+01
 0.20297297168E+01 0.23401847015E+01 0.26774502362E+01 0.30235777276E+01 0.33535600420E+01
 0.36379955379E+01 0.38476933783E+01 0.39591055259E+01 0.39590870213E+01 0.38476514032E+01
 0.36379635259E+01 0.33535735018E+01 0.30236552244E+01 0.26775827243E+01 0.23403379148E+01
 0.20298585888E+01 0.17566275104E+01 0.15249625666E+01 0.13350161172E+01 0.11846028683E+01
 0.10704591836E+01 0.98901207079E+00 0.93692571660E+00 0.91159854715E+00 0.91160010344E+00
 0.10593052241E+01 0.11100160464E+01 0.11846657350E+01 0.12862332531E+01 0.14176586454E+01
 0.15812176448E+01 0.17776806109E+01 0.20051554550E+01 0.22576964587E+01 0.25241028377E+01
 0.27875964782E+01 0.30269921902E+01 0.32194928126E+01 0.33445784223E+01 0.33879694374E+01
 0.33445545525E+01 0.32194655555E+01 0.30269961036E+01 0.27876586680E+01 0.25242158321E+01
 0.22578146173E+01 0.20052259740E+01 0.17776804225E+01 0.15811611796E+01 0.14175773601E+01
 0.12861561993E+01 0.11846150428E+01 0.11100039964E+01 0.10593245182E+01 0.10300357668E+01
 0.10204566781E+01 0.10300128112E+01 0.12312983504E+01 0.12739382724E+01 0.13350648338E+01
 0.14176586454E+01 0.15244400882E+01 0.16571149436E+01 0.18154921925E+01 0.19965173975E+01
 0.21933836607E+01 0.23950756026E+01 0.25867951640E+01 0.27515409824E+01 0.28726842989E+01
 0.29369397812E+01 0.29369307122E+01 0.28726625123E+01 0.27515243005E+01 0.25868092178E+01
 0.23951334403E+01 0.21934648355E+01 0.19965737806E+01 0.18154820992E+01 0.16570343327E+01
 0.15243225480E+01 0.14175505234E+01 0.13350013284E+01 0.12739325375E+01 0.12313381500E+01
 0.12045483609E+01 0.11916342634E+01 0.11916114453E+01 0.12044974420E+01 0.14593449760E+01
 0.14854877634E+01 0.15249624218E+01 0.15812176448E+01 0.16571149436E+01 0.17540889749E+01
 0.18713392726E+01 0.20051556421E+01 0.21485467539E+01 0.22914203309E+01 0.24215182626E+01
 0.25260841927E+01 0.25939394107E+01 0.26174538798E+01 0.25939264824E+01 0.25260714128E+01
 0.24215201508E+01 0.22914410995E+01 0.21485772255E+01 0.20051773669E+01 0.18713317295E+01
 0.17540395478E+01 0.16570294920E+01 0.15811236422E+01 0.15248975350E+01 0.14854784381E+01
 0.14593893748E+01 0.14433250502E+01 0.14347153188E+01 0.14319976150E+01 0.14346667214E+01
 0.14432574701E+01 0.17501816470E+01 0.17488560272E+01 0.17565584667E+01 0.17776806109E+01
 0.18154921925E+01 0.18713392726E+01 0.19440655811E+01 0.20297296155E+01 0.21217352362E+01
 0.22114969128E+01 0.22896204990E+01 0.23473663668E+01 0.23780439429E+01 0.23780448801E+01
 0.23473730332E+01 0.22896402528E+01 0.22115309383E+01 0.21217716554E+01 0.20297474523E+01
 0.19440490840E+01 0.18712909475E+01 0.18154321929E+01 0.17776337408E+01 0.17565416331E+01
 0.17488750592E+01 0.17502327732E+01 0.17560047353E+01 0.17621990879E+01 0.17659946054E+01
 0.17659705177E+01 0.17621389641E+01 0.17559361586E+01 0.21094485257E+01 0.20664075339E+01
 0.20297297168E+01 0.20051554550E+01 0.19965173975E+01 0.20051556421E+01 0.20297296155E+01
 0.20664070947E+01 0.21094481564E+01 0.21521613834E+01 0.21880496840E+01 0.22118399202E+01
 0.22201631618E+01 0.22118688462E+01 0.21881032025E+01 0.21522298166E+01 0.21095152564E+01
 0.20664524281E+01 0.20297379324E+01 0.20051282911E+01 0.19964747600E+01 0.20051260099E+01
 0.20297336351E+01 0.20664472330E+01 0.21095107071E+01 0.21522266495E+01 0.21881012089E+01
 0.22118678403E+01 0.22201631908E+01 0.22118405848E+01 0.21880502478E+01 0.21521616703E+01
 0.25391013152E+01 0.24364410354E+01 0.23401847015E+01 0.22576964587E+01 0.21933836607E+01
 0.21485467539E+01 0.21217352362E+01 0.21094481564E+01 0.21070692736E+01 0.21098911978E+01
 0.21139855031E+01 0.21166934298E+01 0.21167217734E+01 0.21140662728E+01 0.21100061958E+01
 0.21071824404E+01 0.21095206516E+01 0.21217526687E+01 0.21485296653E+01 0.21933672734E+01
 0.22577011658E+01 0.23402076008E+01 0.24364698992E+01 0.25391277772E+01 0.26386656022E+01
 0.27248051364E+01 0.27881643195E+01 0.28217107904E+01 0.28217114526E+01 0.27881625927E+01
 0.27247949937E+01 0.26386458245E+01 0.30337473378E+01 0.28503416899E+01 0.26774502362E+01
 0.25241028377E+01 0.23950756026E+01 0.22914203309E+01 0.22114969128E+01 0.21521613834E+01
 0.21098911978E+01 0.20816692802E+01 0.20654523450E+01 0.20601806717E+01 0.20655394339E+01
 0.20818191576E+01 0.21100549852E+01 0.21522797711E+01 0.22115329657E+01 0.22913869658E+01
 0.23950264596E+01 0.25240878183E+01 0.26774759454E+01 0.28503741332E+01 0.30337485752E+01
 0.32147163579E+01 0.33779787371E+01 0.35080963553E+01 0.35919862875E+01 0.36209718966E+01
 0.35920238394E+01 0.35081596393E+01 0.33780448620E+01 0.32147574344E+01 0.35769034718E+01
 0.32901243849E+01 0.30235777276E+01 0.27875964782E+01 0.25867951640E+01 0.24215182626E+01
 0.22896204990E+01 0.21880496840E+01 0.21139855031E+01 0.20654523450E+01 0.20414082484E+01
 0.20414692715E+01 0.20656141897E+01 0.21141887530E+01 0.21882160840E+01 0.22896910466E+01
 0.24214876652E+01 0.25867105173E+01 0.27875168339E+01 0.30235307195E+01 0.32900968088E+01
 0.35768647263E+01 0.38673935029E+01 0.41403322699E+01 0.43721900942E+01 0.45410214993E+01
 0.46299984373E+01 0.46300342897E+01 0.45411142080E+01 0.43723051418E+01 0.41404352424E+01
 0.38674642906E+01 0.41388371123E+01 0.37277351147E+01 0.33535600420E+01 0.30269921902E+01
 0.27515409824E+01 0.25260841927E+01 0.23473663668E+01 0.22118399202E+01 0.21166934298E+01
 0.20601806717E+01 0.20414692715E+01 0.20603158871E+01 0.21169082791E+01 0.22120417158E+01
 0.23474703574E+01 0.25260636765E+01 0.27514366145E+01 0.30268672264E+01 0.33534476068E+01
 0.37276290601E+01 0.41387212137E+01 0.45673230329E+01 0.49857186533E+01 0.53607291157E+01
 0.56585444885E+01 0.58502239011E+01 0.59164027133E+01 0.58502842801E+01 0.56586471036E+01
 0.53608529738E+01 0.49858498644E+01 0.45674511402E+01 0.46775629635E+01 0.41271487381E+01
 0.36379955379E+01 0.32194928126E+01 0.28726842989E+01 0.25939394107E+01 0.23780439429E+01
 0.22201631618E+01 0.21167217734E+01 0.20655394339E+01 0.20656141897E+01 0.21169082791E+01
 0.22203676094E+01 0.23781681466E+01 0.25939357758E+01 0.28725737749E+01 0.32193323761E+01
 0.36378305793E+01 0.41269936548E+01 0.46774136043E+01 0.52682948348E+01 0.58664681883E+01
 0.64285828534E+01 0.69065377969E+01 0.72549531112E+01 0.74387065814E+01 0.74387219904E+01
 0.72550028996E+01 0.69066260653E+01 0.64287044102E+01 0.58666093691E+01 0.52684425288E+01
 0.51436355495E+01 0.44493441015E+01 0.38476933783E+01 0.33445784223E+01 0.29369397812E+01
 0.26174538798E+01 0.23780448801E+01 0.22118688462E+01 0.21140662728E+01 0.20818191576E+01
 0.21141887530E+01 0.22120417158E+01 0.23781681466E+01 0.26174623003E+01 0.29368361784E+01
 0.33444094011E+01 0.38475005261E+01 0.44491474194E+01 0.51434520465E+01 0.59108854768E+01
 0.67153412528E+01 0.75047000015E+01 0.82157816830E+01 0.87831182460E+01 0.91495935120E+01
 0.92763397010E+01 0.91495933140E+01 0.87831223641E+01 0.82157988140E+01 0.75047455947E+01
 0.67154338830E+01 0.59110313431E+01 0.54880277467E+01 0.46591180785E+01 0.39591055259E+01
 0.33879694374E+01 0.29369307122E+01 0.25939264824E+01 0.23473730332E+01 0.21881032025E+01
 0.21100061958E+01 0.21100549852E+01 0.21882160840E+01 0.23474703574E+01 0.25939357758E+01
 0.29368361784E+01 0.33878090984E+01 0.39589204393E+01 0.46589206638E+01 0.54878258580E+01
 0.64307607058E+01 0.74528190802E+01 0.84970636346E+01 0.94874037248E+01 0.10336977330E+02
 0.10961068334E+02 0.11291943334E+02 0.11291913106E+02 0.10960986862E+02 0.10336871983E+02
 0.94873188874E+01 0.84970503878E+01 0.74529063355E+01 0.64309302903E+01 0.56712335227E+01
 0.47319549521E+01 0.39590870213E+01 0.33445545525E+01 0.28726625123E+01 0.25260714128E+01
 0.22896402528E+01 0.21522298166E+01 0.21071824404E+01 0.21522797711E+01 0.22896910466E+01
 0.25260636765E+01 0.28725737749E+01 0.33444094011E+01 0.39589204393E+01 0.47317788112E+01
 0.56710499027E+01 0.67699184306E+01 0.79996017366E+01 0.93044596327E+01 0.10601390891E+02
 0.11785327696E+02 0.12741820786E+02 0.13365820658E+02 0.13582794699E+02 0.13365730993E+02
 0.12741681580E+02 0.11785192753E+02 0.10601307902E+02 0.93044634857E+01 0.79997008637E+01
 0.67700833294E+01 0.56712035807E+01 0.46590728734E+01 0.38476514032E+01 0.32194655555E+01
 0.27515243005E+01 0.24215201508E+01 0.22115309383E+01 0.21095152564E+01 0.21095206516E+01
 0.22115329657E+01 0.24214876652E+01 0.27514366145E+01 0.32193323761E+01 0.38475005261E+01
 0.46589206638E+01 0.56710499027E+01 0.68878235535E+01 0.82911627470E+01 0.98335965280E+01
 0.11433725032E+02 0.12976723581E+02 0.14322847669E+02 0.15326403539E+02 0.15863916090E+02
 0.15863903107E+02 0.15326365501E+02 0.14322788705E+02 0.12976659057E+02 0.11433688557E+02
 0.98336249016E+01 0.82912637987E+01 0.68879681042E+01 0.54879484744E+01 0.44492723807E+01
 0.36379635259E+01 0.30269961036E+01 0.25868092178E+01 0.22914410995E+01 0.21217716554E+01
 0.20664524281E+01 0.21217526687E+01 0.22913869658E+01 0.25867105173E+01 0.30268672264E+01
 0.36378305793E+01 0.44491474194E+01 0.54878258580E+01 0.67699184306E+01 0.82911627470E+01
 0.10018016452E+02 0.11879982322E+02 0.13764582930E+02 0.15518634872E+02 0.16961874259E+02
 0.17917044225E+02 0.18251749316E+02 0.17917095020E+02 0.16961945173E+02 0.15518687042E+02
 0.13764603075E+02 0.11879996318E+02 0.10018063559E+02 0.82912561281E+01 0.67700376251E+01
 0.51435341398E+01 0.41270860679E+01 0.33535735018E+01 0.27876586680E+01 0.23951334403E+01
 0.21485772255E+01 0.20297474523E+01 0.20297379324E+01 0.21485296653E+01 0.23950264596E+01
 0.27875168339E+01 0.33534476068E+01 0.41269936548E+01 0.51434520465E+01 0.64307607058E+01
 0.79996017366E+01 0.98335965280E+01 0.11879982322E+02 0.14040566779E+02 0.16165210532E+02
 0.18055438627E+02 0.19485990641E+02 0.20257551947E+02 0.20257591718E+02 0.19486106325E+02
 0.18055603338E+02 0.16165363439E+02 0.14040655020E+02 0.11880012735E+02 0.98336243998E+01