   2   2   0   0
  0.2001288E+02  0.3839590E-09  0.3839590E-09  0.3839590E-09  0.5000000E-15
  1.000000000000000E-004
  CAR 
 unknown system                          
     16.20380841     -8.18838842  301      5.91241529      1.00000000
     -8.188  0.0000E+00  0.0000E+00
     -8.107  0.0000E+00  0.0000E+00
     -8.026  0.0000E+00  0.0000E+00
     -7.944  0.0000E+00  0.0000E+00
     -7.863  0.0000E+00  0.0000E+00
     -7.782  0.0000E+00  0.0000E+00
     -7.701  0.0000E+00  0.0000E+00
     -7.619  0.0000E+00  0.0000E+00
     -7.538  0.0000E+00  0.0000E+00
     -7.457  0.0000E+00  0.0000E+00
     -7.375  0.0000E+00  0.0000E+00
     -7.294  0.3496E-16  0.2842E-17
     -7.213  0.2845E-14  0.2341E-15
     -7.131  0.1672E-12  0.1383E-13
     -7.050  0.7093E-11  0.5906E-12
     -6.969  0.2174E-09  0.1827E-10
     -6.887  0.4815E-08  0.4097E-09
     -6.806  0.7708E-07  0.6677E-08
     -6.725  0.8926E-06  0.7925E-07
     -6.644  0.7479E-05  0.6873E-06
     -6.562  0.4536E-04  0.4376E-05
     -6.481  0.1993E-03  0.2058E-04
     -6.400  0.6342E-03  0.7214E-04
     -6.318  0.1463E-02  0.1911E-03
     -6.237  0.2449E-02  0.3902E-03
     -6.156  0.3000E-02  0.6342E-03
     -6.074  0.2848E-02  0.8657E-03
     -5.993  0.2825E-02  0.1095E-02
     -5.912  0.4850E-02  0.1490E-02
     -5.830  0.1079E-01  0.2367E-02
     -5.749  0.2035E-01  0.4021E-02
     -5.668  0.2988E-01  0.6451E-02
     -5.587  0.3459E-01  0.9263E-02
     -5.505  0.3238E-01  0.1190E-01
     -5.424  0.2471E-01  0.1391E-01
     -5.343  0.1517E-01  0.1514E-01
     -5.261  0.7549E-02  0.1575E-01
     -5.180  0.4264E-02  0.1610E-01
     -5.099  0.6471E-02  0.1663E-01
     -5.017  0.1464E-01  0.1782E-01
     -4.936  0.2645E-01  0.1997E-01
     -4.855  0.3502E-01  0.2281E-01
     -4.773  0.3435E-01  0.2561E-01
     -4.692  0.2775E-01  0.2786E-01
     -4.611  0.2732E-01  0.3008E-01
     -4.530  0.4316E-01  0.3359E-01
     -4.448  0.7141E-01  0.3940E-01
     -4.367  0.9260E-01  0.4693E-01
     -4.286  0.8846E-01  0.5412E-01
     -4.204  0.6165E-01  0.5913E-01
     -4.123  0.3131E-01  0.6168E-01
     -4.042  0.1164E-01  0.6263E-01
     -3.960  0.3505E-02  0.6291E-01
     -3.879  0.2727E-02  0.6313E-01
     -3.798  0.8582E-02  0.6383E-01
     -3.716  0.2475E-01  0.6584E-01
     -3.635  0.5223E-01  0.7009E-01
     -3.554  0.8006E-01  0.7660E-01
     -3.473  0.8974E-01  0.8390E-01
     -3.391  0.7624E-01  0.9009E-01
     -3.310  0.5726E-01  0.9475E-01
     -3.229  0.5344E-01  0.9910E-01
     -3.147  0.6474E-01  0.1044E+00
     -3.066  0.7238E-01  0.1102E+00
     -2.985  0.6209E-01  0.1153E+00
     -2.903  0.3905E-01  0.1185E+00
     -2.822  0.1789E-01  0.1199E+00
     -2.741  0.6314E-02  0.1204E+00
     -2.659  0.3318E-02  0.1207E+00
     -2.578  0.6639E-02  0.1212E+00
     -2.497  0.1561E-01  0.1225E+00
     -2.416  0.2750E-01  0.1247E+00
     -2.334  0.3521E-01  0.1276E+00
     -2.253  0.3271E-01  0.1303E+00
     -2.172  0.2219E-01  0.1321E+00
     -2.090  0.1177E-01  0.1330E+00
     -2.009  0.7812E-02  0.1337E+00
     -1.928  0.1216E-01  0.1347E+00
     -1.846  0.2277E-01  0.1365E+00
     -1.765  0.3307E-01  0.1392E+00
     -1.684  0.3505E-01  0.1420E+00
     -1.602  0.2695E-01  0.1442E+00
     -1.521  0.1506E-01  0.1455E+00
     -1.440  0.6340E-02  0.1460E+00
     -1.359  0.3360E-02  0.1463E+00
     -1.277  0.7239E-02  0.1468E+00
     -1.196  0.2207E-01  0.1486E+00
     -1.115  0.5253E-01  0.1529E+00
     -1.033  0.9402E-01  0.1605E+00
     -0.952  0.1272E+00  0.1709E+00
     -0.871  0.1314E+00  0.1816E+00
     -0.789  0.1064E+00  0.1902E+00
     -0.708  0.7397E-01  0.1962E+00
     -0.627  0.5436E-01  0.2007E+00
     -0.546  0.4768E-01  0.2045E+00
     -0.464  0.4151E-01  0.2079E+00
     -0.383  0.2943E-01  0.2103E+00
     -0.302  0.1573E-01  0.2116E+00
     -0.220  0.6200E-02  0.2121E+00
     -0.139  0.1850E-02  0.2122E+00
     -0.058  0.8217E-03  0.2123E+00
      0.024  0.2365E-02  0.2125E+00
      0.105  0.8687E-02  0.2132E+00
      0.186  0.2367E-01  0.2151E+00
      0.268  0.4677E-01  0.2189E+00
      0.349  0.6699E-01  0.2244E+00
      0.430  0.6958E-01  0.2300E+00
      0.511  0.5239E-01  0.2343E+00
      0.593  0.2860E-01  0.2366E+00
      0.674  0.1135E-01  0.2375E+00
      0.755  0.3451E-02  0.2378E+00
      0.837  0.1759E-02  0.2380E+00
      0.918  0.4237E-02  0.2383E+00
      0.999  0.1144E-01  0.2392E+00
      1.081  0.2289E-01  0.2411E+00
      1.162  0.3326E-01  0.2438E+00
      1.243  0.3529E-01  0.2467E+00
      1.325  0.2851E-01  0.2490E+00
      1.406  0.2220E-01  0.2508E+00
      1.487  0.2832E-01  0.2531E+00
      1.568  0.5178E-01  0.2573E+00
      1.650  0.8352E-01  0.2641E+00
      1.731  0.1027E+00  0.2725E+00
      1.812  0.9412E-01  0.2801E+00
      1.894  0.6496E-01  0.2854E+00
      1.975  0.3778E-01  0.2885E+00
      2.056  0.2992E-01  0.2909E+00
      2.138  0.4287E-01  0.2944E+00
      2.219  0.6334E-01  0.2995E+00
      2.300  0.7299E-01  0.3055E+00
      2.382  0.6653E-01  0.3109E+00
      2.463  0.6017E-01  0.3158E+00
      2.544  0.7431E-01  0.3218E+00
      2.625  0.1078E+00  0.3306E+00
      2.707  0.1362E+00  0.3416E+00
      2.788  0.1420E+00  0.3532E+00
      2.869  0.1383E+00  0.3644E+00
      2.951  0.1469E+00  0.3764E+00
      3.032  0.1608E+00  0.3894E+00
      3.113  0.1526E+00  0.4019E+00
      3.195  0.1133E+00  0.4111E+00
      3.276  0.6410E-01  0.4163E+00
      3.357  0.3006E-01  0.4187E+00
      3.439  0.2055E-01  0.4204E+00
      3.520  0.3260E-01  0.4230E+00
      3.601  0.5660E-01  0.4276E+00
      3.682  0.7830E-01  0.4340E+00
      3.764  0.8857E-01  0.4412E+00
      3.845  0.9148E-01  0.4486E+00
      3.926  0.9343E-01  0.4562E+00
      4.008  0.9153E-01  0.4637E+00
      4.089  0.8151E-01  0.4703E+00
      4.170  0.6619E-01  0.4757E+00
      4.252  0.5128E-01  0.4799E+00
      4.333  0.4232E-01  0.4833E+00
      4.414  0.4327E-01  0.4868E+00
      4.496  0.5076E-01  0.4910E+00
      4.577  0.5563E-01  0.4955E+00
      4.658  0.5442E-01  0.4999E+00
      4.739  0.5186E-01  0.5041E+00
      4.821  0.5160E-01  0.5083E+00
      4.902  0.5327E-01  0.5126E+00
      4.983  0.5594E-01  0.5172E+00
      5.065  0.5603E-01  0.5217E+00
      5.146  0.4785E-01  0.5256E+00
      5.227  0.3195E-01  0.5282E+00
      5.309  0.1623E-01  0.5296E+00
      5.390  0.7173E-02  0.5301E+00
      5.471  0.5095E-02  0.5306E+00
      5.553  0.6837E-02  0.5311E+00
      5.634  0.8737E-02  0.5318E+00
      5.715  0.8389E-02  0.5325E+00
      5.796  0.5911E-02  0.5330E+00
      5.878  0.3311E-02  0.5333E+00
      5.959  0.2544E-02  0.5335E+00
      6.040  0.4704E-02  0.5338E+00
      6.122  0.9753E-02  0.5346E+00
      6.203  0.1548E-01  0.5359E+00
      6.284  0.1811E-01  0.5374E+00
      6.366  0.1640E-01  0.5387E+00
      6.447  0.1439E-01  0.5399E+00
      6.528  0.1778E-01  0.5413E+00
      6.610  0.2724E-01  0.5435E+00
      6.691  0.3649E-01  0.5465E+00
      6.772  0.3925E-01  0.5497E+00
      6.853  0.3743E-01  0.5527E+00
      6.935  0.3848E-01  0.5559E+00
      7.016  0.4550E-01  0.5596E+00
      7.097  0.5458E-01  0.5640E+00
      7.179  0.6174E-01  0.5690E+00
      7.260  0.6883E-01  0.5746E+00
      7.341  0.7910E-01  0.5810E+00
      7.423  0.8943E-01  0.5883E+00
      7.504  0.9513E-01  0.5960E+00
      7.585  0.9913E-01  0.6041E+00
      7.667  0.1036E+00  0.6125E+00
      7.748  0.9960E-01  0.6206E+00
      7.829  0.7895E-01  0.6271E+00
      7.910  0.4912E-01  0.6310E+00
      7.992  0.2501E-01  0.6331E+00
      8.073  0.1354E-01  0.6342E+00
      8.154  0.1181E-01  0.6351E+00
      8.236  0.1501E-01  0.6364E+00
      8.317  0.2163E-01  0.6381E+00
      8.398  0.3106E-01  0.6406E+00
      8.480  0.3941E-01  0.6438E+00
      8.561  0.4327E-01  0.6474E+00
      8.642  0.4673E-01  0.6512E+00
      8.724  0.5885E-01  0.6560E+00
      8.805  0.8571E-01  0.6629E+00
      8.886  0.1256E+00  0.6731E+00
      8.967  0.1634E+00  0.6864E+00
      9.049  0.1738E+00  0.7005E+00
      9.130  0.1470E+00  0.7125E+00
      9.211  0.1069E+00  0.7212E+00
      9.293  0.8770E-01  0.7283E+00
      9.374  0.9797E-01  0.7363E+00
      9.455  0.1197E+00  0.7460E+00
      9.537  0.1349E+00  0.7570E+00
      9.618  0.1397E+00  0.7684E+00
      9.699  0.1370E+00  0.7795E+00
      9.781  0.1307E+00  0.7901E+00
      9.862  0.1287E+00  0.8006E+00
      9.943  0.1350E+00  0.8116E+00
     10.024  0.1426E+00  0.8232E+00
     10.106  0.1435E+00  0.8348E+00
     10.187  0.1401E+00  0.8462E+00
     10.268  0.1438E+00  0.8579E+00
     10.350  0.1626E+00  0.8711E+00
     10.431  0.1835E+00  0.8861E+00
     10.512  0.1781E+00  0.9005E+00
     10.594  0.1357E+00  0.9116E+00
     10.675  0.7953E-01  0.9180E+00
     10.756  0.4051E-01  0.9213E+00
     10.838  0.3172E-01  0.9239E+00
     10.919  0.4687E-01  0.9277E+00
     11.000  0.6883E-01  0.9333E+00
     11.081  0.8023E-01  0.9398E+00
     11.163  0.7651E-01  0.9461E+00
     11.244  0.6617E-01  0.9514E+00
     11.325  0.5686E-01  0.9561E+00
     11.407  0.4900E-01  0.9600E+00
     11.488  0.4058E-01  0.9633E+00
     11.569  0.3041E-01  0.9658E+00
     11.651  0.1916E-01  0.9674E+00
     11.732  0.9500E-02  0.9681E+00
     11.813  0.3554E-02  0.9684E+00
     11.895  0.9809E-03  0.9685E+00
     11.976  0.1977E-03  0.9685E+00
     12.057  0.2894E-04  0.9685E+00
     12.138  0.3071E-05  0.9685E+00
     12.220  0.2360E-06  0.9685E+00
     12.301  0.1423E-07  0.9685E+00
     12.382  0.2924E-07  0.9685E+00
     12.464  0.5342E-06  0.9685E+00
     12.545  0.7188E-05  0.9685E+00
     12.626  0.7001E-04  0.9685E+00
     12.708  0.4941E-03  0.9686E+00
     12.789  0.2532E-02  0.9688E+00
     12.870  0.9456E-02  0.9696E+00
     12.952  0.2594E-01  0.9717E+00
     13.033  0.5317E-01  0.9760E+00
     13.114  0.8414E-01  0.9828E+00
     13.195  0.1084E+00  0.9916E+00
     13.277  0.1209E+00  0.1001E+01
     13.358  0.1207E+00  0.1011E+01
     13.439  0.1079E+00  0.1020E+01
     13.521  0.8754E-01  0.1027E+01
     13.602  0.6720E-01  0.1033E+01
     13.683  0.4954E-01  0.1037E+01
     13.765  0.3479E-01  0.1040E+01
     13.846  0.2715E-01  0.1042E+01
     13.927  0.3102E-01  0.1044E+01
     14.009  0.4351E-01  0.1048E+01
     14.090  0.5554E-01  0.1052E+01
     14.171  0.5901E-01  0.1057E+01
     14.252  0.5134E-01  0.1061E+01
     14.334  0.3585E-01  0.1064E+01
     14.415  0.1950E-01  0.1066E+01
     14.496  0.8032E-02  0.1066E+01
     14.578  0.2457E-02  0.1067E+01
     14.659  0.5519E-03  0.1067E+01
     14.740  0.9036E-04  0.1067E+01
     14.822  0.1075E-04  0.1067E+01
     14.903  0.9266E-06  0.1067E+01
     14.984  0.5783E-07  0.1067E+01
     15.066  0.2610E-08  0.1067E+01
     15.147  0.8514E-10  0.1067E+01
     15.228  0.2006E-11  0.1067E+01
     15.309  0.3413E-13  0.1067E+01
     15.391  0.4195E-15  0.1067E+01
     15.472  0.0000E+00  0.1067E+01
     15.553  0.0000E+00  0.1067E+01
     15.635  0.0000E+00  0.1067E+01
     15.716  0.0000E+00  0.1067E+01
     15.797  0.0000E+00  0.1067E+01
     15.879  0.0000E+00  0.1067E+01
     15.960  0.0000E+00  0.1067E+01
     16.041  0.0000E+00  0.1067E+01
     16.123  0.0000E+00  0.1067E+01
     16.204  0.0000E+00  0.1067E+01
