<?xml version="1.0" encoding="ISO-8859-1"?>
<modeling>
 <generator>
  <i name="program" type="string">vasp </i>
  <i name="version" type="string">5.4.4.18Apr17-6-g9f103f2a35  </i>
  <i name="subversion" type="string">(build Dec 09 2018 21:25:21) complex            parallel </i>
  <i name="platform" type="string">IFC18.0.1.163_CrayMPICH7.7.0_MKL18.0.1.163 </i>
  <i name="date" type="string">2019 03 19 </i>
  <i name="time" type="string">14:03:16 </i>
 </generator>
 <incar>
  <i type="string" name="PREC">normal</i>
  <i type="int" name="IBRION">     2</i>
  <i name="EDIFF">      0.00040000</i>
  <i name="EDIFFG">     -0.01000000</i>
  <i type="int" name="NSW">    15</i>
  <i type="int" name="ISIF">     2</i>
  <i name="ENCUT">    350.00000000</i>
  <i type="int" name="NBANDS">     8</i>
  <i type="logical" name="LREAL"> F  </i>
  <i type="int" name="ISMEAR">     0</i>
  <i name="SIGMA">      0.20000000</i>
  <v type="int" name="KPOINT_BSE">    -1     0     0     0</v>
 </incar>
 <structure name="primitive_cell" >
  <crystal>
   <varray name="basis" >
    <v>       0.00000000       2.71500000       2.71500000 </v>
    <v>       2.71500000       0.00000000       2.71500000 </v>
    <v>       2.71500000       2.71500000       0.00000000 </v>
   </varray>
   <i name="volume">     40.02575175 </i>
   <varray name="rec_basis" >
    <v>      -0.18416206       0.18416206       0.18416206 </v>
    <v>       0.18416206      -0.18416206       0.18416206 </v>
    <v>       0.18416206       0.18416206      -0.18416206 </v>
   </varray>
  </crystal>
  <varray name="positions" >
   <v>      -0.50000000      -0.50000000      -0.50000000 </v>
   <v>      -0.25000000      -0.25000000      -0.25000000 </v>
  </varray>
 </structure>
 <varray name="primitive_index" >
  <v type="int" >        1 </v>
  <v type="int" >        2 </v>
 </varray>
 <kpoints>
  <generation param="Monkhorst-Pack">
   <v type="int" name="divisions">       9        9        9 </v>
   <v name="usershift">      0.00000000       0.00000000       0.00000000 </v>
   <v name="genvec1">      0.11111111      -0.00000000       0.00000000 </v>
   <v name="genvec2">     -0.00000000       0.11111111      -0.00000000 </v>
   <v name="genvec3">      0.00000000       0.00000000       0.11111111 </v>
   <v name="shift">      0.00000000       0.00000000       0.00000000 </v>
  </generation>
  <varray name="kpointlist" >
   <v>       0.00000000       0.00000000       0.00000000 </v>
   <v>       0.11111111       0.00000000       0.00000000 </v>
   <v>       0.22222222      -0.00000000       0.00000000 </v>
   <v>       0.33333333       0.00000000       0.00000000 </v>
   <v>       0.44444444      -0.00000000       0.00000000 </v>
   <v>       0.11111111       0.11111111       0.00000000 </v>
   <v>       0.22222222       0.11111111       0.00000000 </v>
   <v>       0.33333333       0.11111111       0.00000000 </v>
   <v>       0.44444444       0.11111111       0.00000000 </v>
   <v>      -0.44444444       0.11111111       0.00000000 </v>
   <v>      -0.33333333       0.11111111      -0.00000000 </v>
   <v>      -0.22222222       0.11111111       0.00000000 </v>
   <v>      -0.11111111       0.11111111      -0.00000000 </v>
   <v>       0.22222222       0.22222222       0.00000000 </v>
   <v>       0.33333333       0.22222222       0.00000000 </v>
   <v>       0.44444444       0.22222222       0.00000000 </v>
   <v>      -0.44444444       0.22222222       0.00000000 </v>
   <v>      -0.33333333       0.22222222       0.00000000 </v>
   <v>      -0.22222222       0.22222222      -0.00000000 </v>
   <v>       0.33333333       0.33333333       0.00000000 </v>
   <v>       0.44444444       0.33333333       0.00000000 </v>
   <v>      -0.44444444       0.33333333      -0.00000000 </v>
   <v>      -0.33333333       0.33333333       0.00000000 </v>
   <v>       0.44444444       0.44444444       0.00000000 </v>
   <v>      -0.44444444       0.44444444      -0.00000000 </v>
   <v>       0.33333333       0.22222222       0.11111111 </v>
   <v>       0.44444444       0.22222222       0.11111111 </v>
   <v>      -0.44444444       0.22222222       0.11111111 </v>
   <v>       0.44444444       0.33333333       0.11111111 </v>
   <v>      -0.44444444       0.33333333       0.11111111 </v>
   <v>      -0.33333333       0.33333333       0.11111111 </v>
   <v>      -0.22222222       0.33333333       0.11111111 </v>
   <v>      -0.44444444       0.44444444       0.11111111 </v>
   <v>      -0.33333333       0.44444444       0.11111111 </v>
   <v>      -0.33333333       0.44444444       0.22222222 </v>
  </varray>
  <varray name="weights" >
   <v>       0.00137174 </v>
   <v>       0.01097394 </v>
   <v>       0.01097394 </v>
   <v>       0.01097394 </v>
   <v>       0.01097394 </v>
   <v>       0.00823045 </v>
   <v>       0.03292181 </v>
   <v>       0.03292181 </v>
   <v>       0.03292181 </v>
   <v>       0.03292181 </v>
   <v>       0.03292181 </v>
   <v>       0.03292181 </v>
   <v>       0.01646091 </v>
   <v>       0.00823045 </v>
   <v>       0.03292181 </v>
   <v>       0.03292181 </v>
   <v>       0.03292181 </v>
   <v>       0.03292181 </v>
   <v>       0.01646091 </v>
   <v>       0.00823045 </v>
   <v>       0.03292181 </v>
   <v>       0.03292181 </v>
   <v>       0.01646091 </v>
   <v>       0.00823045 </v>
   <v>       0.01646091 </v>
   <v>       0.03292181 </v>
   <v>       0.06584362 </v>
   <v>       0.06584362 </v>
   <v>       0.03292181 </v>
   <v>       0.06584362 </v>
   <v>       0.06584362 </v>
   <v>       0.03292181 </v>
   <v>       0.03292181 </v>
   <v>       0.03292181 </v>
   <v>       0.03292181 </v>
  </varray>
 </kpoints>
 <parameters>
  <separator name="general" >
   <i type="string" name="SYSTEM">unknown system</i>
   <i type="logical" name="LCOMPAT"> F  </i>
  </separator>
  <separator name="electronic" >
   <i type="string" name="PREC">normal</i>
   <i name="ENMAX">    350.00000000</i>
   <i name="ENAUG">    322.06900000</i>
   <i name="EDIFF">      0.00040000</i>
   <i type="int" name="IALGO">    38</i>
   <i type="int" name="IWAVPR">    11</i>
   <i type="int" name="NBANDS">     8</i>
   <i name="NELECT">      8.00000000</i>
   <i type="int" name="TURBO">     0</i>
   <i type="int" name="IRESTART">     0</i>
   <i type="int" name="NREBOOT">     0</i>
   <i type="int" name="NMIN">     0</i>
   <i name="EREF">      0.00000000</i>
   <separator name="electronic smearing" >
    <i type="int" name="ISMEAR">     0</i>
    <i name="SIGMA">      0.20000000</i>
    <i name="KSPACING">      0.50000000</i>
    <i type="logical" name="KGAMMA"> T  </i>
   </separator>
   <separator name="electronic projectors" >
    <i type="logical" name="LREAL"> F  </i>
    <v name="ROPT">      0.00000000</v>
    <i type="int" name="LMAXPAW">  -100</i>
    <i type="int" name="LMAXMIX">     2</i>
    <i type="logical" name="NLSPLINE"> F  </i>
   </separator>
   <separator name="electronic startup" >
    <i type="int" name="ISTART">     0</i>
    <i type="int" name="ICHARG">     2</i>
    <i type="int" name="INIWAV">     1</i>
   </separator>
   <separator name="electronic spin" >
    <i type="int" name="ISPIN">     1</i>
    <i type="logical" name="LNONCOLLINEAR"> F  </i>
    <v name="MAGMOM">      1.00000000      1.00000000</v>
    <i name="NUPDOWN">     -1.00000000</i>
    <i type="logical" name="LSORBIT"> F  </i>
    <v name="SAXIS">      0.00000000      0.00000000      1.00000000</v>
    <i type="logical" name="LSPIRAL"> F  </i>
    <v name="QSPIRAL">      0.00000000      0.00000000      0.00000000</v>
    <i type="logical" name="LZEROZ"> F  </i>
   </separator>
   <separator name="electronic exchange-correlation" >
    <i type="logical" name="LASPH"> F  </i>
    <i type="logical" name="LMETAGGA"> F  </i>
   </separator>
   <separator name="electronic convergence" >
    <i type="int" name="NELM">    60</i>
    <i type="int" name="NELMDL">    -5</i>
    <i type="int" name="NELMIN">     2</i>
    <i name="ENINI">    350.00000000</i>
    <separator name="electronic convergence detail" >
     <i type="logical" name="LDIAG"> T  </i>
     <i type="logical" name="LSUBROT"> F  </i>
     <i name="WEIMIN">      0.00100000</i>
     <i name="EBREAK">      0.00001250</i>
     <i name="DEPER">      0.30000000</i>
     <i type="int" name="NRMM">     4</i>
     <i name="TIME">      0.40000000</i>
    </separator>
   </separator>
   <separator name="electronic mixer" >
    <i name="AMIX">      0.40000000</i>
    <i name="BMIX">      1.00000000</i>
    <i name="AMIN">      0.10000000</i>
    <i name="AMIX_MAG">      1.60000000</i>
    <i name="BMIX_MAG">      1.00000000</i>
    <separator name="electronic mixer details" >
     <i type="int" name="IMIX">     4</i>
     <i type="logical" name="MIXFIRST"> F  </i>
     <i type="int" name="MAXMIX">   -45</i>
     <i name="WC">    100.00000000</i>
     <i type="int" name="INIMIX">     1</i>
     <i type="int" name="MIXPRE">     1</i>
     <i type="int" name="MREMOVE">     5</i>
    </separator>
   </separator>
   <separator name="electronic dipolcorrection" >
    <i type="logical" name="LDIPOL"> F  </i>
    <i type="logical" name="LMONO"> F  </i>
    <i type="int" name="IDIPOL">     0</i>
    <i name="EPSILON">      1.00000000</i>
    <v name="DIPOL">   -100.00000000   -100.00000000   -100.00000000</v>
    <i name="EFIELD">      0.00000000</i>
   </separator>
  </separator>
  <separator name="grids" >
   <i type="int" name="NGX">    18</i>
   <i type="int" name="NGY">    18</i>
   <i type="int" name="NGZ">    18</i>
   <i type="int" name="NGXF">    36</i>
   <i type="int" name="NGYF">    36</i>
   <i type="int" name="NGZF">    36</i>
   <i type="logical" name="ADDGRID"> F  </i>
  </separator>
  <separator name="ionic" >
   <i type="int" name="NSW">    15</i>
   <i type="int" name="IBRION">     2</i>
   <i type="int" name="MDALGO">     0</i>
   <i type="int" name="ISIF">     2</i>
   <i name="PSTRESS">      0.00000000</i>
   <i name="EDIFFG">     -0.01000000</i>
   <i type="int" name="NFREE">     1</i>
   <i name="POTIM">      0.50000000</i>
   <i name="SMASS">     -3.00000000</i>
   <i name="SCALEE">      1.00000000</i>
  </separator>
  <separator name="ionic md" >
   <i name="TEBEG">      0.00010000</i>
   <i name="TEEND">      0.00010000</i>
   <i type="int" name="NBLOCK">     1</i>
   <i type="int" name="KBLOCK">    15</i>
   <i type="int" name="NPACO">   256</i>
   <i name="APACO">     16.00000000</i>
  </separator>
  <separator name="symmetry" >
   <i type="int" name="ISYM">     2</i>
   <i name="SYMPREC">      0.00001000</i>
  </separator>
  <separator name="dos" >
   <i type="int" name="LORBIT">     0</i>
   <v name="RWIGS">     -1.00000000</v>
   <i type="int" name="NEDOS">   301</i>
   <i name="EMIN">     10.00000000</i>
   <i name="EMAX">    -10.00000000</i>
   <i name="EFERMI">      0.00000000</i>
  </separator>
  <separator name="writing" >
   <i type="int" name="NWRITE">     2</i>
   <i type="logical" name="LWAVE"> T  </i>
   <i type="logical" name="LDOWNSAMPLE"> F  </i>
   <i type="logical" name="LCHARG"> T  </i>
   <i type="logical" name="LPARD"> F  </i>
   <i type="logical" name="LVTOT"> F  </i>
   <i type="logical" name="LVHAR"> F  </i>
   <i type="logical" name="LELF"> F  </i>
   <i type="logical" name="LOPTICS"> F  </i>
   <v name="STM">      0.00000000      0.00000000      0.00000000      0.00000000      0.00000000      0.00000000      0.00000000</v>
  </separator>
  <separator name="performance" >
   <i type="int" name="NPAR">     8</i>
   <i type="int" name="NSIM">     4</i>
   <i type="int" name="NBLK">    -1</i>
   <i type="logical" name="LPLANE"> T  </i>
   <i type="logical" name="LSCALAPACK"> T  </i>
   <i type="logical" name="LSCAAWARE"> F  </i>
   <i type="logical" name="LSCALU"> F  </i>
   <i type="logical" name="LASYNC"> F  </i>
   <i type="logical" name="LORBITALREAL"> F  </i>
  </separator>
  <separator name="miscellaneous" >
   <i type="int" name="IDIOT">     3</i>
   <i type="int" name="ISPECIAL">     0</i>
   <i type="logical" name="LMUSIC"> F  </i>
   <v name="POMASS">     28.08500000</v>
   <v name="DARWINR">      0.00000000</v>
   <v name="DARWINV">      1.00000000</v>
   <i type="logical" name="LCORR"> T  </i>
  </separator>
  <i type="logical" name="GGA_COMPAT"> T  </i>
  <i type="logical" name="LBERRY"> F  </i>
  <i type="int" name="ICORELEVEL">     0</i>
  <i type="logical" name="LDAU"> F  </i>
  <i type="int" name="I_CONSTRAINED_M">     0</i>
  <separator name="electronic exchange-correlation" >
   <i type="string" name="GGA">--</i>
   <i type="int" name="VOSKOWN">     0</i>
   <i type="logical" name="LHFCALC"> F  </i>
   <i type="string" name="PRECFOCK"></i>
   <i type="logical" name="LSYMGRAD"> F  </i>
   <i type="logical" name="LHFONE"> F  </i>
   <i type="logical" name="LRHFCALC"> F  </i>
   <i type="logical" name="LTHOMAS"> F  </i>
   <i type="logical" name="LMODELHF"> F  </i>
   <i name="ENCUT4O">     -1.00000000</i>
   <i type="int" name="EXXOEP">     0</i>
   <i type="int" name="FOURORBIT">     0</i>
   <i name="AEXX">      0.00000000</i>
   <i name="HFALPHA">      0.00000000</i>
   <i name="MCALPHA">      0.00000000</i>
   <i name="ALDAX">      1.00000000</i>
   <i name="AGGAX">      1.00000000</i>
   <i name="ALDAC">      1.00000000</i>
   <i name="AGGAC">      1.00000000</i>
   <i type="int" name="NKREDX">     1</i>
   <i type="int" name="NKREDY">     1</i>
   <i type="int" name="NKREDZ">     1</i>
   <i type="logical" name="SHIFTRED"> F  </i>
   <i type="logical" name="ODDONLY"> F  </i>
   <i type="logical" name="EVENONLY"> F  </i>
   <i type="int" name="LMAXFOCK">     0</i>
   <i type="int" name="NMAXFOCKAE">     0</i>
   <i type="logical" name="LFOCKAEDFT"> F  </i>
   <i name="HFSCREEN">      0.00000000</i>
   <i name="HFSCREENC">      0.00000000</i>
   <i type="int" name="NBANDSGWLOW">     0</i>
  </separator>
  <separator name="vdW DFT" >
   <i type="logical" name="LUSE_VDW"> F  </i>
   <i name="Zab_VDW">     -0.84910000</i>
   <i name="PARAM1">      0.12340000</i>
   <i name="PARAM2">      1.00000000</i>
   <i name="PARAM3">      0.00000000</i>
  </separator>
  <separator name="model GW" >
   <i type="int" name="MODEL_GW">     0</i>
   <i name="MODEL_EPS0">     12.00772552</i>
   <i name="MODEL_ALPHA">      1.00000000</i>
  </separator>
  <separator name="linear response parameters" >
   <i type="logical" name="LEPSILON"> F  </i>
   <i type="logical" name="LRPA"> F  </i>
   <i type="logical" name="LNABLA"> F  </i>
   <i type="logical" name="LVEL"> F  </i>
   <i type="int" name="KINTER">     0</i>
   <i name="CSHIFT">      0.10000000</i>
   <i name="OMEGAMAX">     -1.00000000</i>
   <i name="DEG_THRESHOLD">      0.00200000</i>
   <i name="RTIME">     -0.10000000</i>
   <i name="WPLASMAI">      0.00000000</i>
   <v name="DFIELD">      0.00000000      0.00000000      0.00000000</v>
   <v name="WPLASMA">      0.00000000      0.00000000      0.00000000      0.00000000      0.00000000      0.00000000      0.00000000      0.00000000      0.00000000</v>
  </separator>
  <separator name="orbital magnetization" >
   <i type="logical" name="NUCIND"> F  </i>
   <v name="MAGPOS">      0.00000000      0.00000000      0.00000000</v>
   <i type="logical" name="LNICSALL"> T  </i>
   <i type="logical" name="ORBITALMAG"> F  </i>
   <i type="logical" name="LMAGBLOCH"> F  </i>
   <i type="logical" name="LCHIMAG"> F  </i>
   <i type="logical" name="LGAUGE"> T  </i>
   <i type="int" name="MAGATOM">     0</i>
   <v name="MAGDIPOL">      0.00000000      0.00000000      0.00000000</v>
   <v name="AVECCONST">      0.00000000      0.00000000      0.00000000</v>
  </separator>
  <separator name="response functions" >
   <i type="logical" name="LADDER"> F  </i>
   <i type="logical" name="LRPAFORCE"> F  </i>
   <i type="logical" name="LFXC"> F  </i>
   <i type="logical" name="LHARTREE"> T  </i>
   <i type="int" name="IBSE">     0</i>
   <v type="int" name="KPOINT">    -1     0     0     0</v>
   <i type="logical" name="LTCTE"> F  </i>
   <i type="logical" name="LTETE"> F  </i>
   <i type="logical" name="LTRIPLET"> F  </i>
   <i type="logical" name="LFXCEPS"> F  </i>
   <i type="logical" name="LFXHEG"> F  </i>
   <i type="int" name="NATURALO">     2</i>
   <i type="logical" name="L2ORDER"> F  </i>
   <i type="logical" name="LMP2LT"> F  </i>
   <i type="logical" name="LUSEW"> F  </i>
   <i name="ENCUTGW">     -2.00000000</i>
   <i name="ENCUTGWSOFT">     -2.00000000</i>
   <i name="ENCUTLF">     -1.00000000</i>
   <i type="int" name="LMAXMP2">    -1</i>
   <i name="SCISSOR">      0.00000000</i>
   <i type="int" name="NOMEGA">     0</i>
   <i type="int" name="NOMEGAR">     0</i>
   <i type="int" name="NBANDSGW">    -1</i>
   <i type="int" name="NBANDSO">    -1</i>
   <i type="int" name="NBANDSV">    -1</i>
   <i type="int" name="NELM">     1</i>
   <i type="int" name="NELMHF">     1</i>
   <i type="int" name="DIM">     3</i>
   <i type="int" name="ANTIRES">     0</i>
   <i name="OMEGAMAX">    -30.00000000</i>
   <i name="OMEGAMIN">    -30.00000000</i>
   <i name="OMEGATL">   -200.00000000</i>
   <i type="int" name="OMEGAGRID">   140</i>
   <i name="CSHIFT">     -0.10000000</i>
   <i type="logical" name="SELFENERGY"> F  </i>
   <i type="logical" name="LSPECTRAL"> F  </i>
   <i type="logical" name="LSPECTRALGW"> F  </i>
   <i type="logical" name="LSINGLES"> F  </i>
   <i type="logical" name="LFERMIGW"> F  </i>
   <i type="logical" name="ODDONLYGW"> F  </i>
   <i type="logical" name="EVENONLYGW"> F  </i>
   <i type="int" name="NKREDLFX">     1</i>
   <i type="int" name="NKREDLFY">     1</i>
   <i type="int" name="NKREDLFZ">     1</i>
   <i type="int" name="MAXMEM">  2800</i>
   <i type="int" name="TELESCOPE">     0</i>
   <i type="int" name="TAUPAR">     1</i>
   <i type="int" name="OMEGAPAR">    -1</i>
   <i name="LAMBDA">      1.00000000</i>
  </separator>
  <separator name="External order field" >
   <i name="OFIELD_KAPPA">      0.00000000</i>
   <v name="OFIELD_K">      0.00000000      0.00000000      0.00000000</v>
   <i name="OFIELD_Q6_NEAR">      0.00000000</i>
   <i name="OFIELD_Q6_FAR">      0.00000000</i>
   <i name="OFIELD_A">      0.00000000</i>
  </separator>
 </parameters>
 <atominfo>
  <atoms>       2 </atoms>
  <types>       1 </types>
  <array name="atoms" >
   <dimension dim="1">ion</dimension>
   <field type="string">element</field>
   <field type="int">atomtype</field>
   <set>
    <rc><c>Si</c><c>   1</c></rc>
    <rc><c>Si</c><c>   1</c></rc>
   </set>
  </array>
  <array name="atomtypes" >
   <dimension dim="1">type</dimension>
   <field type="int">atomspertype</field>
   <field type="string">element</field>
   <field>mass</field>
   <field>valence</field>
   <field type="string">pseudopotential</field>
   <set>
    <rc><c>   2</c><c>Si</c><c>     28.08500000</c><c>      4.00000000</c><c> PAW_PBE Si 05Jan2001                   </c></rc>
   </set>
  </array>
 </atominfo>
 <structure name="initialpos" >
  <crystal>
   <varray name="basis" >
    <v>       0.00000000       2.71500000       2.71500000 </v>
    <v>       2.71500000       0.00000000       2.71500000 </v>
    <v>       2.71500000       2.71500000       0.00000000 </v>
   </varray>
   <i name="volume">     40.02575175 </i>
   <varray name="rec_basis" >
    <v>      -0.18416206       0.18416206       0.18416206 </v>
    <v>       0.18416206      -0.18416206       0.18416206 </v>
    <v>       0.18416206       0.18416206      -0.18416206 </v>
   </varray>
  </crystal>
  <varray name="positions" >
   <v>       0.50000000       0.50000000       0.50000000 </v>
   <v>       0.75000000       0.75000000       0.75000000 </v>
  </varray>
 </structure>
 <calculation>
  <scstep>
   <time name="dav">    0.31    0.31</time>
   <time name="total">    0.34    0.36</time>
   <energy>
    <i name="alphaZ">      3.36414203 </i>
    <i name="ewald">   -228.56352493 </i>
    <i name="hartreedc">    -11.00108243 </i>
    <i name="XCdc">    -18.60185131 </i>
    <i name="pawpsdc">     65.95520812 </i>
    <i name="pawaedc">    -30.76852678 </i>
    <i name="eentropy">     -0.00835111 </i>
    <i name="bandstr">     18.94652945 </i>
    <i name="atom">    206.13125414 </i>
    <i name="e_fr_energy">      5.45379718 </i>
    <i name="e_wo_entrp">      5.46214829 </i>
    <i name="e_0_energy">      5.45797273 </i>
   </energy>
  </scstep>
  <scstep>
   <time name="dav">    0.45    0.46</time>
   <time name="total">    0.46    0.46</time>
   <energy>
    <i name="e_fr_energy">    -10.82530398 </i>
    <i name="e_wo_entrp">    -10.82529206 </i>
    <i name="e_0_energy">    -10.82529802 </i>
   </energy>
  </scstep>
  <scstep>
   <time name="dav">    0.33    0.34</time>
   <time name="total">    0.33    0.34</time>
   <energy>
    <i name="e_fr_energy">    -11.02038388 </i>
    <i name="e_wo_entrp">    -11.02037512 </i>
    <i name="e_0_energy">    -11.02037950 </i>
   </energy>
  </scstep>
  <scstep>
   <time name="dav">    0.51    0.52</time>
   <time name="total">    0.51    0.52</time>
   <energy>
    <i name="e_fr_energy">    -11.02147987 </i>
    <i name="e_wo_entrp">    -11.02147113 </i>
    <i name="e_0_energy">    -11.02147550 </i>
   </energy>
  </scstep>
  <scstep>
   <time name="dav">    0.33    0.34</time>
   <time name="total">    0.36    0.36</time>
   <energy>
    <i name="e_fr_energy">    -11.02148021 </i>
    <i name="e_wo_entrp">    -11.02147147 </i>
    <i name="e_0_energy">    -11.02147584 </i>
   </energy>
  </scstep>
  <scstep>
   <time name="dav">    0.35    0.35</time>
   <time name="total">    0.39    0.40</time>
   <energy>
    <i name="e_fr_energy">    -10.89649738 </i>
    <i name="e_wo_entrp">    -10.89645625 </i>
    <i name="e_0_energy">    -10.89647682 </i>
   </energy>
  </scstep>
  <scstep>
   <time name="dav">    0.37    0.37</time>
   <time name="total">    0.42    0.43</time>
   <energy>
    <i name="e_fr_energy">    -10.83949902 </i>
    <i name="e_wo_entrp">    -10.83929385 </i>
    <i name="e_0_energy">    -10.83939643 </i>
   </energy>
  </scstep>
  <scstep>
   <time name="dav">    0.32    0.32</time>
   <time name="total">    0.37    0.37</time>
   <energy>
    <i name="e_fr_energy">    -10.84082918 </i>
    <i name="e_wo_entrp">    -10.84065860 </i>
    <i name="e_0_energy">    -10.84074389 </i>
   </energy>
  </scstep>
  <scstep>
   <time name="dav">    0.26    0.25</time>
   <time name="total">    0.28    0.28</time>
   <energy>
    <i name="alphaZ">      3.36414203 </i>
    <i name="ewald">   -228.56352493 </i>
    <i name="hartreedc">    -14.91224126 </i>
    <i name="XCdc">    -17.96021532 </i>
    <i name="pawpsdc">     74.37182524 </i>
    <i name="pawaedc">    -39.40977761 </i>
    <i name="eentropy">     -0.00016985 </i>
    <i name="bandstr">      6.13778712 </i>
    <i name="atom">    206.13125414 </i>
    <i name="e_fr_energy">    -10.84092045 </i>
    <i name="e_wo_entrp">    -10.84075059 </i>
    <i name="e_0_energy">    -10.84083552 </i>
   </energy>
  </scstep>
  <structure>
   <crystal>
    <varray name="basis" >
     <v>       0.00000000       2.71500000       2.71500000 </v>
     <v>       2.71500000       0.00000000       2.71500000 </v>
     <v>       2.71500000       2.71500000       0.00000000 </v>
    </varray>
    <i name="volume">     40.02575175 </i>
    <varray name="rec_basis" >
     <v>      -0.18416206       0.18416206       0.18416206 </v>
     <v>       0.18416206      -0.18416206       0.18416206 </v>
     <v>       0.18416206       0.18416206      -0.18416206 </v>
    </varray>
   </crystal>
   <varray name="positions" >
    <v>       0.50000000       0.50000000       0.50000000 </v>
    <v>       0.75000000       0.75000000       0.75000000 </v>
   </varray>
  </structure>
  <varray name="forces" >
   <v>      -0.00000000      -0.00000000      -0.00000000 </v>
   <v>       0.00000000       0.00000000       0.00000000 </v>
  </varray>
  <varray name="stress" >
   <v>      19.54700809      -0.00000000       0.00000000 </v>
   <v>      -0.00000000      19.54700809       0.00000000 </v>
   <v>       0.00000000      -0.00000000      19.54700809 </v>
  </varray>
  <energy>
   <i name="e_fr_energy">    -10.84092045 </i>
   <i name="e_wo_entrp">    -10.84083552 </i>
   <i name="e_0_energy">     -0.00016985 </i>
  </energy>
  <time name="totalsc">    4.21    5.02</time>
  <eigenvalues>
   <array>
    <dimension dim="1">band</dimension>
    <dimension dim="2">kpoint</dimension>
    <dimension dim="3">spin</dimension>
    <field>eigene</field>
    <field>occ</field>
    <set>
     <set comment="spin 1">
      <set comment="kpoint 1">
       <r>   -6.1312    1.0000 </r>
       <r>    5.8297    0.9726 </r>
       <r>    5.8297    0.9726 </r>
       <r>    5.8297    0.9726 </r>
       <r>    8.3969    0.0000 </r>
       <r>    8.3969    0.0000 </r>
       <r>    8.3969    0.0000 </r>
       <r>    9.2064    0.0000 </r>
      </set>
      <set comment="kpoint 2">
       <r>   -5.9697    1.0000 </r>
       <r>    4.4871    1.0000 </r>
       <r>    5.5924    0.9998 </r>
       <r>    5.5924    0.9998 </r>
       <r>    8.3791    0.0000 </r>
       <r>    8.7471    0.0000 </r>
       <r>    8.7471    0.0000 </r>
       <r>   10.3113    0.0000 </r>
      </set>
      <set comment="kpoint 3">
       <r>   -5.4949    1.0000 </r>
       <r>    2.4101    1.0000 </r>
       <r>    5.1684    1.0000 </r>
       <r>    5.1684    1.0000 </r>
       <r>    7.9676    0.0000 </r>
       <r>    9.2753    0.0000 </r>
       <r>    9.2753    0.0000 </r>
       <r>   12.2816    0.0000 </r>
      </set>
      <set comment="kpoint 4">
       <r>   -4.7538    1.0000 </r>
       <r>    0.4971    1.0000 </r>
       <r>    4.8304    1.0000 </r>
       <r>    4.8304    1.0000 </r>
       <r>    7.5965    0.0000 </r>
       <r>    9.3402    0.0000 </r>
       <r>    9.3402    0.0000 </r>
       <r>   13.6993    0.0000 </r>
      </set>
      <set comment="kpoint 5">
       <r>   -3.9618    1.0000 </r>
       <r>   -0.8993    1.0000 </r>
       <r>    4.6545    1.0000 </r>
       <r>    4.6545    1.0000 </r>
       <r>    7.3966    0.0000 </r>
       <r>    9.1980    0.0000 </r>
       <r>    9.1980    0.0000 </r>
       <r>   13.5943    0.0000 </r>
      </set>
      <set comment="kpoint 6">
       <r>   -5.9154    1.0000 </r>
       <r>    4.7210    1.0000 </r>
       <r>    5.1526    1.0000 </r>
       <r>    5.1526    1.0000 </r>
       <r>    7.9424    0.0000 </r>
       <r>    9.3393    0.0000 </r>
       <r>    9.3393    0.0000 </r>
       <r>   10.1386    0.0000 </r>
      </set>
      <set comment="kpoint 7">
       <r>   -5.5430    1.0000 </r>
       <r>    3.0343    1.0000 </r>
       <r>    4.6790    1.0000 </r>
       <r>    4.8179    1.0000 </r>
       <r>    8.0332    0.0000 </r>
       <r>    9.3766    0.0000 </r>
       <r>   10.0533    0.0000 </r>
       <r>   10.7431    0.0000 </r>
      </set>
      <set comment="kpoint 8">
       <r>   -4.8818    1.0000 </r>
       <r>    1.1252    1.0000 </r>
       <r>    4.3123    1.0000 </r>
       <r>    4.3740    1.0000 </r>
       <r>    8.1573    0.0000 </r>
       <r>    9.3378    0.0000 </r>
       <r>   10.2183    0.0000 </r>
       <r>   11.1731    0.0000 </r>
      </set>
      <set comment="kpoint 9">
       <r>   -4.0547    1.0000 </r>
       <r>   -0.4663    1.0000 </r>
       <r>    3.8762    1.0000 </r>
       <r>    4.2920    1.0000 </r>
       <r>    8.0386    0.0000 </r>
       <r>    9.2345    0.0000 </r>
       <r>    9.9344    0.0000 </r>
       <r>   12.6211    0.0000 </r>
      </set>
      <set comment="kpoint 10">
       <r>   -3.6753    1.0000 </r>
       <r>   -1.0393    1.0000 </r>
       <r>    3.6169    1.0000 </r>
       <r>    4.4321    1.0000 </r>
       <r>    8.0472    0.0000 </r>
       <r>    9.2522    0.0000 </r>
       <r>    9.6695    0.0000 </r>
       <r>   14.0100    0.0000 </r>
      </set>
      <set comment="kpoint 11">
       <r>   -4.3334    1.0000 </r>
       <r>    0.0105    1.0000 </r>
       <r>    3.5824    1.0000 </r>
       <r>    4.7627    1.0000 </r>
       <r>    8.2380    0.0000 </r>
       <r>    9.4757    0.0000 </r>
       <r>    9.5490    0.0000 </r>
       <r>   13.2424    0.0000 </r>
      </set>
      <set comment="kpoint 12">
       <r>   -5.1329    1.0000 </r>
       <r>    1.7415    1.0000 </r>
       <r>    3.8141    1.0000 </r>
       <r>    5.2126    1.0000 </r>
       <r>    8.5658    0.0000 </r>
       <r>    9.3424    0.0000 </r>
       <r>    9.6227    0.0000 </r>
       <r>   11.9301    0.0000 </r>
      </set>
      <set comment="kpoint 13">
       <r>   -5.7028    1.0000 </r>
       <r>    3.5090    1.0000 </r>
       <r>    4.4645    1.0000 </r>
       <r>    5.6063    0.9998 </r>
       <r>    8.8408    0.0000 </r>
       <r>    8.8496    0.0000 </r>
       <r>    9.0503    0.0000 </r>
       <r>   11.2295    0.0000 </r>
      </set>
      <set comment="kpoint 14">
       <r>   -5.2738    1.0000 </r>
       <r>    2.8135    1.0000 </r>
       <r>    4.1575    1.0000 </r>
       <r>    4.1575    1.0000 </r>
       <r>    7.1394    0.0000 </r>
       <r>    9.3895    0.0000 </r>
       <r>   11.1073    0.0000 </r>
       <r>   11.1073    0.0000 </r>
      </set>
      <set comment="kpoint 15">
       <r>   -4.7040    1.0000 </r>
       <r>    1.4785    1.0000 </r>
       <r>    3.5319    1.0000 </r>
       <r>    3.8152    1.0000 </r>
       <r>    7.2940    0.0000 </r>
       <r>    9.0020    0.0000 </r>
       <r>   11.3568    0.0000 </r>
       <r>   11.6802    0.0000 </r>
      </set>
      <set comment="kpoint 16">
       <r>   -3.9042    1.0000 </r>
       <r>    0.0046    1.0000 </r>
       <r>    2.7907    1.0000 </r>
       <r>    3.7173    1.0000 </r>
       <r>    7.4773    0.0000 </r>
       <r>   10.0232    0.0000 </r>
       <r>   11.1180    0.0000 </r>
       <r>   11.4849    0.0000 </r>
      </set>
      <set comment="kpoint 17">
       <r>   -3.2480    1.0000 </r>
       <r>   -0.9392    1.0000 </r>
       <r>    2.2703    1.0000 </r>
       <r>    3.8727    1.0000 </r>
       <r>    7.6284    0.0000 </r>
       <r>   10.8580    0.0000 </r>
       <r>   11.0992    0.0000 </r>
       <r>   12.0261    0.0000 </r>
      </set>
      <set comment="kpoint 18">
       <r>   -3.6611    1.0000 </r>
       <r>   -0.3600    1.0000 </r>
       <r>    2.0883    1.0000 </r>
       <r>    4.2540    1.0000 </r>
       <r>    8.0180    0.0000 </r>
       <r>   10.7627    0.0000 </r>
       <r>   10.8001    0.0000 </r>
       <r>   13.0516    0.0000 </r>
      </set>
      <set comment="kpoint 19">
       <r>   -4.4847    1.0000 </r>
       <r>    0.8896    1.0000 </r>
       <r>    2.4728    1.0000 </r>
       <r>    4.7766    1.0000 </r>
       <r>    8.5547    0.0000 </r>
       <r>   10.1612    0.0000 </r>
       <r>   10.4888    0.0000 </r>
       <r>   11.7123    0.0000 </r>
      </set>
      <set comment="kpoint 20">
       <r>   -4.2261    1.0000 </r>
       <r>    0.8215    1.0000 </r>
       <r>    3.4140    1.0000 </r>
       <r>    3.4140    1.0000 </r>
       <r>    6.5574    0.0006 </r>
       <r>    7.8222    0.0000 </r>
       <r>   13.0992    0.0000 </r>
       <r>   13.0992    0.0000 </r>
      </set>
      <set comment="kpoint 21">
       <r>   -3.4867    1.0000 </r>
       <r>   -0.2299    1.0000 </r>
       <r>    2.6872    1.0000 </r>
       <r>    3.2567    1.0000 </r>
       <r>    6.7993    0.0000 </r>
       <r>    7.8706    0.0000 </r>
       <r>   13.4096    0.0000 </r>
       <r>   13.4435    0.0000 </r>
      </set>
      <set comment="kpoint 22">
       <r>   -2.6913    1.0000 </r>
       <r>   -1.1288    1.0000 </r>
       <r>    1.7814    1.0000 </r>
       <r>    3.3641    1.0000 </r>
       <r>    6.9961    0.0000 </r>
       <r>    9.4759    0.0000 </r>
       <r>   13.0643    0.0000 </r>
       <r>   13.2037    0.0000 </r>
      </set>
      <set comment="kpoint 23">
       <r>   -2.8655    1.0000 </r>
       <r>   -0.9386    1.0000 </r>
       <r>    1.4179    1.0000 </r>
       <r>    3.7197    1.0000 </r>
       <r>    7.3977    0.0000 </r>
       <r>   11.6305    0.0000 </r>
       <r>   12.3133    0.0000 </r>
       <r>   12.9130    0.0000 </r>
      </set>
      <set comment="kpoint 24">
       <r>   -2.8111    1.0000 </r>
       <r>   -1.0950    1.0000 </r>
       <r>    3.0282    1.0000 </r>
       <r>    3.0282    1.0000 </r>
       <r>    6.4129    0.0138 </r>
       <r>    6.8120    0.0000 </r>
       <r>   15.1857    0.0000 </r>
       <r>   15.1857    0.0000 </r>
      </set>
      <set comment="kpoint 25">
       <r>   -2.0378    1.0000 </r>
       <r>   -1.8683    1.0000 </r>
       <r>    2.4114    1.0000 </r>
       <r>    3.0658    1.0000 </r>
       <r>    6.6390    0.0001 </r>
       <r>    7.4718    0.0000 </r>
       <r>   15.0643    0.0000 </r>
       <r>   15.4055    0.0000 </r>
      </set>
      <set comment="kpoint 26">
       <r>   -5.0730    1.0000 </r>
       <r>    2.0427    1.0000 </r>
       <r>    3.4615    1.0000 </r>
       <r>    4.6651    1.0000 </r>
       <r>    8.2114    0.0000 </r>
       <r>    9.6662    0.0000 </r>
       <r>   10.2244    0.0000 </r>
       <r>   10.8615    0.0000 </r>
      </set>
      <set comment="kpoint 27">
       <r>   -4.3370    1.0000 </r>
       <r>    0.5513    1.0000 </r>
       <r>    2.8548    1.0000 </r>
       <r>    4.2270    1.0000 </r>
       <r>    8.6008    0.0000 </r>
       <r>    9.4426    0.0000 </r>
       <r>   10.6237    0.0000 </r>
       <r>   11.3003    0.0000 </r>
      </set>
      <set comment="kpoint 28">
       <r>   -3.5396    1.0000 </r>
       <r>   -0.7392    1.0000 </r>
       <r>    2.6627    1.0000 </r>
       <r>    3.9032    1.0000 </r>
       <r>    8.7016    0.0000 </r>
       <r>    9.0295    0.0000 </r>
       <r>   11.2469    0.0000 </r>
       <r>   12.3668    0.0000 </r>
      </set>
      <set comment="kpoint 29">
       <r>   -4.0517    1.0000 </r>
       <r>    0.5176    1.0000 </r>
       <r>    2.7495    1.0000 </r>
       <r>    3.4407    1.0000 </r>
       <r>    7.6553    0.0000 </r>
       <r>    8.6602    0.0000 </r>
       <r>   11.2854    0.0000 </r>
       <r>   13.0080    0.0000 </r>
      </set>
      <set comment="kpoint 30">
       <r>   -3.2240    1.0000 </r>
       <r>   -0.5674    1.0000 </r>
       <r>    2.0846    1.0000 </r>
       <r>    3.1342    1.0000 </r>
       <r>    8.0586    0.0000 </r>
       <r>    9.7575    0.0000 </r>
       <r>   10.8462    0.0000 </r>
       <r>   13.4104    0.0000 </r>
      </set>
      <set comment="kpoint 31">
       <r>   -2.8580    1.0000 </r>
       <r>   -0.9940    1.0000 </r>
       <r>    1.6975    1.0000 </r>
       <r>    3.2469    1.0000 </r>
       <r>    8.3507    0.0000 </r>
       <r>   10.3539    0.0000 </r>
       <r>   11.8975    0.0000 </r>
       <r>   12.4602    0.0000 </r>
      </set>
      <set comment="kpoint 32">
       <r>   -3.5600    1.0000 </r>
       <r>   -0.1914    1.0000 </r>
       <r>    1.8447    1.0000 </r>
       <r>    3.6844    1.0000 </r>
       <r>    8.8646    0.0000 </r>
       <r>    9.8574    0.0000 </r>
       <r>   10.7186    0.0000 </r>
       <r>   12.7605    0.0000 </r>
      </set>
      <set comment="kpoint 33">
       <r>   -2.6946    1.0000 </r>
       <r>   -1.1107    1.0000 </r>
       <r>    2.4619    1.0000 </r>
       <r>    2.6716    1.0000 </r>
       <r>    7.4789    0.0000 </r>
       <r>    7.7889    0.0000 </r>
       <r>   13.0620    0.0000 </r>
       <r>   14.9587    0.0000 </r>
      </set>
      <set comment="kpoint 34">
       <r>   -2.1709    1.0000 </r>
       <r>   -1.5723    1.0000 </r>
       <r>    1.7367    1.0000 </r>
       <r>    2.7600    1.0000 </r>
       <r>    7.8499    0.0000 </r>
       <r>    9.4932    0.0000 </r>
       <r>   12.5121    0.0000 </r>
       <r>   12.7687    0.0000 </r>
      </set>
      <set comment="kpoint 35">
       <r>   -2.4174    1.0000 </r>
       <r>   -1.2569    1.0000 </r>
       <r>    1.7756    1.0000 </r>
       <r>    2.4184    1.0000 </r>
       <r>    9.6835    0.0000 </r>
       <r>    9.7706    0.0000 </r>
       <r>   10.4737    0.0000 </r>
       <r>   12.2146    0.0000 </r>
      </set>
     </set>
    </set>
   </array>
  </eigenvalues>
  <separator name="orbital magnetization" >
   <v name="MAGDIPOLOUT">      0.00000000      0.00000000      0.00000000</v>
  </separator>
  <dos>
   <i name="efermi">      6.10135200 </i>
   <total>
    <array>
     <dimension dim="1">gridpoints</dimension>
     <dimension dim="2">spin</dimension>
     <field>energy</field>
     <field>total</field>
     <field>integrated</field>
     <set>
      <set comment="spin 1">
       <r>    -8.1312     0.0000     0.0000 </r>
       <r>    -8.0461     0.0000     0.0000 </r>
       <r>    -7.9610     0.0000     0.0000 </r>
       <r>    -7.8759     0.0000     0.0000 </r>
       <r>    -7.7907     0.0000     0.0000 </r>
       <r>    -7.7056     0.0000     0.0000 </r>
       <r>    -7.6205     0.0000     0.0000 </r>
       <r>    -7.5354     0.0000     0.0000 </r>
       <r>    -7.4502     0.0000     0.0000 </r>
       <r>    -7.3651     0.0000     0.0000 </r>
       <r>    -7.2800     0.0000     0.0000 </r>
       <r>    -7.1949     0.0000     0.0000 </r>
       <r>    -7.1098     0.0000     0.0000 </r>
       <r>    -7.0246     0.0000     0.0000 </r>
       <r>    -6.9395     0.0000     0.0000 </r>
       <r>    -6.8544     0.0000     0.0000 </r>
       <r>    -6.7693     0.0000     0.0000 </r>
       <r>    -6.6841     0.0000     0.0000 </r>
       <r>    -6.5990     0.0000     0.0000 </r>
       <r>    -6.5139     0.0001     0.0000 </r>
       <r>    -6.4288     0.0006     0.0001 </r>
       <r>    -6.3437     0.0027     0.0003 </r>
       <r>    -6.2585     0.0093     0.0011 </r>
       <r>    -6.1734     0.0257     0.0033 </r>
       <r>    -6.0883     0.0560     0.0080 </r>
       <r>    -6.0032     0.0954     0.0162 </r>
       <r>    -5.9180     0.1294     0.0272 </r>
       <r>    -5.8329     0.1535     0.0402 </r>
       <r>    -5.7478     0.1846     0.0559 </r>
       <r>    -5.6627     0.2365     0.0761 </r>
       <r>    -5.5776     0.2895     0.1007 </r>
       <r>    -5.4924     0.3029     0.1265 </r>
       <r>    -5.4073     0.2695     0.1494 </r>
       <r>    -5.3222     0.2418     0.1700 </r>
       <r>    -5.2371     0.2782     0.1937 </r>
       <r>    -5.1519     0.3688     0.2251 </r>
       <r>    -5.0668     0.4434     0.2628 </r>
       <r>    -4.9817     0.4583     0.3018 </r>
       <r>    -4.8966     0.4392     0.3392 </r>
       <r>    -4.8115     0.4231     0.3752 </r>
       <r>    -4.7263     0.4058     0.4098 </r>
       <r>    -4.6412     0.3764     0.4418 </r>
       <r>    -4.5561     0.3723     0.4735 </r>
       <r>    -4.4710     0.4511     0.5119 </r>
       <r>    -4.3858     0.5950     0.5626 </r>
       <r>    -4.3007     0.6972     0.6219 </r>
       <r>    -4.2156     0.6949     0.6811 </r>
       <r>    -4.1305     0.6516     0.7365 </r>
       <r>    -4.0453     0.6375     0.7908 </r>
       <r>    -3.9602     0.6265     0.8441 </r>
       <r>    -3.8751     0.5899     0.8943 </r>
       <r>    -3.7900     0.5929     0.9448 </r>
       <r>    -3.7049     0.7155     1.0057 </r>
       <r>    -3.6197     0.9143     1.0835 </r>
       <r>    -3.5346     1.0322     1.1714 </r>
       <r>    -3.4495     0.9760     1.2545 </r>
       <r>    -3.3644     0.8318     1.3253 </r>
       <r>    -3.2792     0.7298     1.3874 </r>
       <r>    -3.1941     0.6604     1.4436 </r>
       <r>    -3.1090     0.5562     1.4910 </r>
       <r>    -3.0239     0.4710     1.5311 </r>
       <r>    -2.9388     0.5114     1.5746 </r>
       <r>    -2.8536     0.6522     1.6301 </r>
       <r>    -2.7685     0.7506     1.6940 </r>
       <r>    -2.6834     0.7110     1.7545 </r>
       <r>    -2.5983     0.5642     1.8025 </r>
       <r>    -2.5131     0.4101     1.8374 </r>
       <r>    -2.4280     0.3172     1.8644 </r>
       <r>    -2.3429     0.2829     1.8885 </r>
       <r>    -2.2578     0.2803     1.9124 </r>
       <r>    -2.1727     0.2914     1.9372 </r>
       <r>    -2.0875     0.2924     1.9621 </r>
       <r>    -2.0024     0.2660     1.9847 </r>
       <r>    -1.9173     0.2216     2.0036 </r>
       <r>    -1.8322     0.1812     2.0190 </r>
       <r>    -1.7470     0.1630     2.0329 </r>
       <r>    -1.6619     0.1761     2.0479 </r>
       <r>    -1.5768     0.2037     2.0652 </r>
       <r>    -1.4917     0.2183     2.0838 </r>
       <r>    -1.4066     0.2374     2.1040 </r>
       <r>    -1.3214     0.3281     2.1319 </r>
       <r>    -1.2363     0.5372     2.1777 </r>
       <r>    -1.1512     0.8363     2.2488 </r>
       <r>    -1.0661     1.1183     2.3440 </r>
       <r>    -0.9809     1.2483     2.4503 </r>
       <r>    -0.8958     1.1751     2.5503 </r>
       <r>    -0.8107     0.9957     2.6351 </r>
       <r>    -0.7256     0.8543     2.7078 </r>
       <r>    -0.6405     0.8019     2.7761 </r>
       <r>    -0.5553     0.7934     2.8436 </r>
       <r>    -0.4702     0.7716     2.9093 </r>
       <r>    -0.3851     0.7255     2.9710 </r>
       <r>    -0.3000     0.6816     3.0291 </r>
       <r>    -0.2148     0.6530     3.0846 </r>
       <r>    -0.1297     0.6259     3.1379 </r>
       <r>    -0.0446     0.5836     3.1876 </r>
       <r>     0.0405     0.5036     3.2305 </r>
       <r>     0.1256     0.3713     3.2621 </r>
       <r>     0.2108     0.2320     3.2818 </r>
       <r>     0.2959     0.1772     3.2969 </r>
       <r>     0.3810     0.2652     3.3195 </r>
       <r>     0.4661     0.4545     3.3582 </r>
       <r>     0.5513     0.6014     3.4094 </r>
       <r>     0.6364     0.5820     3.4589 </r>
       <r>     0.7215     0.4317     3.4956 </r>
       <r>     0.8066     0.2871     3.5201 </r>
       <r>     0.8918     0.2199     3.5388 </r>
       <r>     0.9769     0.2105     3.5567 </r>
       <r>     1.0620     0.2233     3.5757 </r>
       <r>     1.1471     0.2324     3.5955 </r>
       <r>     1.2322     0.2285     3.6150 </r>
       <r>     1.3174     0.2393     3.6353 </r>
       <r>     1.4025     0.3030     3.6611 </r>
       <r>     1.4876     0.4347     3.6981 </r>
       <r>     1.5727     0.6540     3.7538 </r>
       <r>     1.6579     0.9628     3.8357 </r>
       <r>     1.7430     1.2391     3.9412 </r>
       <r>     1.8281     1.3050     4.0523 </r>
       <r>     1.9132     1.1720     4.1521 </r>
       <r>     1.9983     1.0326     4.2400 </r>
       <r>     2.0835     0.9734     4.3228 </r>
       <r>     2.1686     0.9148     4.4007 </r>
       <r>     2.2537     0.8327     4.4716 </r>
       <r>     2.3388     0.8109     4.5406 </r>
       <r>     2.4240     0.8845     4.6159 </r>
       <r>     2.5091     1.0205     4.7028 </r>
       <r>     2.5942     1.2197     4.8066 </r>
       <r>     2.6793     1.4629     4.9311 </r>
       <r>     2.7644     1.6106     5.0682 </r>
       <r>     2.8496     1.5380     5.1991 </r>
       <r>     2.9347     1.3248     5.3119 </r>
       <r>     3.0198     1.1734     5.4118 </r>
       <r>     3.1049     1.1768     5.5119 </r>
       <r>     3.1901     1.2613     5.6193 </r>
       <r>     3.2752     1.3284     5.7324 </r>
       <r>     3.3603     1.3633     5.8484 </r>
       <r>     3.4454     1.3995     5.9676 </r>
       <r>     3.5305     1.4446     6.0905 </r>
       <r>     3.6157     1.4865     6.2171 </r>
       <r>     3.7008     1.5330     6.3476 </r>
       <r>     3.7859     1.5710     6.4813 </r>
       <r>     3.8710     1.5122     6.6100 </r>
       <r>     3.9562     1.2871     6.7196 </r>
       <r>     4.0413     1.0114     6.8057 </r>
       <r>     4.1264     0.9176     6.8838 </r>
       <r>     4.2115     1.0682     6.9747 </r>
       <r>     4.2966     1.2641     7.0823 </r>
       <r>     4.3818     1.2895     7.1921 </r>
       <r>     4.4669     1.1470     7.2897 </r>
       <r>     4.5520     1.0117     7.3758 </r>
       <r>     4.6371     1.0098     7.4618 </r>
       <r>     4.7223     1.0745     7.5532 </r>
       <r>     4.8074     1.0317     7.6411 </r>
       <r>     4.8925     0.8171     7.7106 </r>
       <r>     4.9776     0.5562     7.7580 </r>
       <r>     5.0627     0.4125     7.7931 </r>
       <r>     5.1479     0.4038     7.8274 </r>
       <r>     5.2330     0.4095     7.8623 </r>
       <r>     5.3181     0.3418     7.8914 </r>
       <r>     5.4032     0.2441     7.9122 </r>
       <r>     5.4884     0.2012     7.9293 </r>
       <r>     5.5735     0.2172     7.9478 </r>
       <r>     5.6586     0.2241     7.9669 </r>
       <r>     5.7437     0.1812     7.9823 </r>
       <r>     5.8288     0.1126     7.9919 </r>
       <r>     5.9140     0.0571     7.9967 </r>
       <r>     5.9991     0.0253     7.9989 </r>
       <r>     6.0842     0.0112     7.9999 </r>
       <r>     6.1693     0.0099     8.0007 </r>
       <r>     6.2545     0.0215     8.0025 </r>
       <r>     6.3396     0.0478     8.0066 </r>
       <r>     6.4247     0.0881     8.0141 </r>
       <r>     6.5098     0.1402     8.0260 </r>
       <r>     6.5950     0.2027     8.0433 </r>
       <r>     6.6801     0.2711     8.0664 </r>
       <r>     6.7652     0.3322     8.0946 </r>
       <r>     6.8503     0.3664     8.1258 </r>
       <r>     6.9354     0.3652     8.1569 </r>
       <r>     7.0206     0.3393     8.1858 </r>
       <r>     7.1057     0.3165     8.2127 </r>
       <r>     7.1908     0.3407     8.2417 </r>
       <r>     7.2759     0.4508     8.2801 </r>
       <r>     7.3611     0.6366     8.3343 </r>
       <r>     7.4462     0.8283     8.4048 </r>
       <r>     7.5313     0.9473     8.4855 </r>
       <r>     7.6164     0.9787     8.5688 </r>
       <r>     7.7015     0.9860     8.6527 </r>
       <r>     7.7867     1.0561     8.7426 </r>
       <r>     7.8718     1.2367     8.8479 </r>
       <r>     7.9569     1.4957     8.9752 </r>
       <r>     8.0420     1.7064     9.1204 </r>
       <r>     8.1272     1.7261     9.2674 </r>
       <r>     8.2123     1.5459     9.3989 </r>
       <r>     8.2974     1.2971     9.5094 </r>
       <r>     8.3825     1.1124     9.6040 </r>
       <r>     8.4676     1.0706     9.6952 </r>
       <r>     8.5528     1.1867     9.7962 </r>
       <r>     8.6379     1.3553     9.9116 </r>
       <r>     8.7230     1.4133    10.0319 </r>
       <r>     8.8081     1.3223    10.1444 </r>
       <r>     8.8933     1.1940    10.2461 </r>
       <r>     8.9784     1.1321    10.3424 </r>
       <r>     9.0635     1.1529    10.4406 </r>
       <r>     9.1486     1.2700    10.5487 </r>
       <r>     9.2337     1.5262    10.6786 </r>
       <r>     9.3189     1.8755    10.8382 </r>
       <r>     9.4040     2.1487    11.0211 </r>
       <r>     9.4891     2.2147    11.2096 </r>
       <r>     9.5742     2.1089    11.3892 </r>
       <r>     9.6594     1.9476    11.5549 </r>
       <r>     9.7445     1.7651    11.7052 </r>
       <r>     9.8296     1.5285    11.8353 </r>
       <r>     9.9147     1.2702    11.9434 </r>
       <r>     9.9998     1.0815    12.0355 </r>
       <r>    10.0850     1.0045    12.1210 </r>
       <r>    10.1701     1.0089    12.2069 </r>
       <r>    10.2552     1.0375    12.2952 </r>
       <r>    10.3403     1.0400    12.3837 </r>
       <r>    10.4255     1.0086    12.4695 </r>
       <r>    10.5106     1.0020    12.5548 </r>
       <r>    10.5957     1.1058    12.6490 </r>
       <r>    10.6808     1.3352    12.7626 </r>
       <r>    10.7659     1.5679    12.8961 </r>
       <r>    10.8511     1.6167    13.0337 </r>
       <r>    10.9362     1.4437    13.1566 </r>
       <r>    11.0213     1.2585    13.2637 </r>
       <r>    11.1064     1.2888    13.3734 </r>
       <r>    11.1916     1.4984    13.5010 </r>
       <r>    11.2767     1.6313    13.6398 </r>
       <r>    11.3618     1.4969    13.7673 </r>
       <r>    11.4469     1.1560    13.8657 </r>
       <r>    11.5321     0.8256    13.9359 </r>
       <r>    11.6172     0.6507    13.9913 </r>
       <r>    11.7023     0.6240    14.0445 </r>
       <r>    11.7874     0.6820    14.1025 </r>
       <r>    11.8725     0.7673    14.1678 </r>
       <r>    11.9577     0.8056    14.2364 </r>
       <r>    12.0428     0.7508    14.3003 </r>
       <r>    12.1279     0.6727    14.3576 </r>
       <r>    12.2130     0.6958    14.4168 </r>
       <r>    12.2982     0.8501    14.4892 </r>
       <r>    12.3833     1.0335    14.5771 </r>
       <r>    12.4684     1.1110    14.6717 </r>
       <r>    12.5535     1.0385    14.7601 </r>
       <r>    12.6386     0.8925    14.8361 </r>
       <r>    12.7238     0.7762    14.9021 </r>
       <r>    12.8089     0.7358    14.9648 </r>
       <r>    12.8940     0.7881    15.0319 </r>
       <r>    12.9791     0.9339    15.1114 </r>
       <r>    13.0643     1.0925    15.2043 </r>
       <r>    13.1494     1.1475    15.3020 </r>
       <r>    13.2345     1.0993    15.3956 </r>
       <r>    13.3196     1.0474    15.4848 </r>
       <r>    13.4047     1.0101    15.5707 </r>
       <r>    13.4899     0.8934    15.6468 </r>
       <r>    13.5750     0.6610    15.7030 </r>
       <r>    13.6601     0.4068    15.7377 </r>
       <r>    13.7452     0.2316    15.7574 </r>
       <r>    13.8304     0.1580    15.7708 </r>
       <r>    13.9155     0.1598    15.7844 </r>
       <r>    14.0006     0.1865    15.8003 </r>
       <r>    14.0857     0.1821    15.8158 </r>
       <r>    14.1708     0.1310    15.8270 </r>
       <r>    14.2560     0.0671    15.8327 </r>
       <r>    14.3411     0.0243    15.8348 </r>
       <r>    14.4262     0.0062    15.8353 </r>
       <r>    14.5113     0.0017    15.8354 </r>
       <r>    14.5965     0.0037    15.8357 </r>
       <r>    14.6816     0.0165    15.8372 </r>
       <r>    14.7667     0.0542    15.8418 </r>
       <r>    14.8518     0.1283    15.8527 </r>
       <r>    14.9369     0.2228    15.8717 </r>
       <r>    15.0221     0.2916    15.8965 </r>
       <r>    15.1072     0.3004    15.9221 </r>
       <r>    15.1923     0.2595    15.9441 </r>
       <r>    15.2774     0.2053    15.9616 </r>
       <r>    15.3626     0.1621    15.9754 </r>
       <r>    15.4477     0.1268    15.9862 </r>
       <r>    15.5328     0.0878    15.9937 </r>
       <r>    15.6179     0.0479    15.9978 </r>
       <r>    15.7030     0.0193    15.9994 </r>
       <r>    15.7882     0.0056    15.9999 </r>
       <r>    15.8733     0.0011    16.0000 </r>
       <r>    15.9584     0.0002    16.0000 </r>
       <r>    16.0435     0.0000    16.0000 </r>
       <r>    16.1287     0.0000    16.0000 </r>
       <r>    16.2138     0.0000    16.0000 </r>
       <r>    16.2989     0.0000    16.0000 </r>
       <r>    16.3840     0.0000    16.0000 </r>
       <r>    16.4692     0.0000    16.0000 </r>
       <r>    16.5543     0.0000    16.0000 </r>
       <r>    16.6394     0.0000    16.0000 </r>
       <r>    16.7245     0.0000    16.0000 </r>
       <r>    16.8096     0.0000    16.0000 </r>
       <r>    16.8948     0.0000    16.0000 </r>
       <r>    16.9799     0.0000    16.0000 </r>
       <r>    17.0650     0.0000    16.0000 </r>
       <r>    17.1501     0.0000    16.0000 </r>
       <r>    17.2353     0.0000    16.0000 </r>
       <r>    17.3204     0.0000    16.0000 </r>
       <r>    17.4055     0.0000    16.0000 </r>
      </set>
     </set>
    </array>
   </total>
  </dos>
 </calculation>
 <structure name="finalpos" >
  <crystal>
   <varray name="basis" >
    <v>       0.00000000       2.71500000       2.71500000 </v>
    <v>       2.71500000       0.00000000       2.71500000 </v>
    <v>       2.71500000       2.71500000       0.00000000 </v>
   </varray>
   <i name="volume">     40.02575175 </i>
   <varray name="rec_basis" >
    <v>      -0.18416206       0.18416206       0.18416206 </v>
    <v>       0.18416206      -0.18416206       0.18416206 </v>
    <v>       0.18416206       0.18416206      -0.18416206 </v>
   </varray>
  </crystal>
  <varray name="positions" >
   <v>       0.50000000       0.50000000       0.50000000 </v>
   <v>       0.75000000       0.75000000       0.75000000 </v>
  </varray>
 </structure>
</modeling>
