   2   2   0   0
  0.2001288E+02  0.3839590E-09  0.3839590E-09  0.3839590E-09  0.5000000E-15
  1.000000000000000E-004
  CAR 
 unknown system                          
     16.53367777     -8.11726271  301      6.11640954      1.00000000
     -8.117  0.0000E+00  0.0000E+00
     -8.035  0.0000E+00  0.0000E+00
     -7.953  0.0000E+00  0.0000E+00
     -7.871  0.0000E+00  0.0000E+00
     -7.789  0.0000E+00  0.0000E+00
     -7.706  0.0000E+00  0.0000E+00
     -7.624  0.0000E+00  0.0000E+00
     -7.542  0.0000E+00  0.0000E+00
     -7.460  0.0000E+00  0.0000E+00
     -7.378  0.0000E+00  0.0000E+00
     -7.296  0.7206E-18  0.5921E-19
     -7.213  0.5837E-16  0.4855E-17
     -7.131  0.4816E-14  0.4006E-15
     -7.049  0.2830E-12  0.2365E-13
     -6.967  0.1192E-10  0.1003E-11
     -6.885  0.3604E-09  0.3061E-10
     -6.803  0.7817E-08  0.6729E-09
     -6.720  0.1218E-06  0.1068E-07
     -6.638  0.1362E-05  0.1226E-06
     -6.556  0.1096E-04  0.1023E-05
     -6.474  0.6338E-04  0.6231E-05
     -6.392  0.2637E-03  0.2790E-04
     -6.310  0.7897E-03  0.9279E-04
     -6.227  0.1703E-02  0.2327E-03
     -6.145  0.2648E-02  0.4503E-03
     -6.063  0.3003E-02  0.6971E-03
     -5.981  0.2691E-02  0.9182E-03
     -5.899  0.2824E-02  0.1150E-02
     -5.817  0.5443E-02  0.1598E-02
     -5.734  0.1219E-01  0.2599E-02
     -5.652  0.2214E-01  0.4419E-02
     -5.570  0.3108E-01  0.6972E-02
     -5.488  0.3447E-01  0.9805E-02
     -5.406  0.3100E-01  0.1235E-01
     -5.323  0.2269E-01  0.1422E-01
     -5.241  0.1327E-01  0.1531E-01
     -5.159  0.6298E-02  0.1582E-01
     -5.077  0.3776E-02  0.1613E-01
     -4.995  0.6649E-02  0.1668E-01
     -4.913  0.1538E-01  0.1794E-01
     -4.830  0.2736E-01  0.2019E-01
     -4.748  0.3532E-01  0.2309E-01
     -4.666  0.3355E-01  0.2585E-01
     -4.584  0.2625E-01  0.2801E-01
     -4.502  0.2595E-01  0.3014E-01
     -4.420  0.4244E-01  0.3363E-01
     -4.337  0.7130E-01  0.3949E-01
     -4.255  0.9255E-01  0.4709E-01
     -4.173  0.8781E-01  0.5431E-01
     -4.091  0.6044E-01  0.5927E-01
     -4.009  0.3016E-01  0.6175E-01
     -3.927  0.1094E-01  0.6265E-01
     -3.844  0.3117E-02  0.6291E-01
     -3.762  0.2101E-02  0.6308E-01
     -3.680  0.6822E-02  0.6364E-01
     -3.598  0.2105E-01  0.6537E-01
     -3.516  0.4725E-01  0.6925E-01
     -3.434  0.7650E-01  0.7554E-01
     -3.351  0.8977E-01  0.8291E-01
     -3.269  0.7843E-01  0.8936E-01
     -3.187  0.5798E-01  0.9412E-01
     -3.105  0.5115E-01  0.9833E-01
     -3.023  0.6173E-01  0.1034E+00
     -2.941  0.7199E-01  0.1093E+00
     -2.858  0.6482E-01  0.1146E+00
     -2.776  0.4259E-01  0.1181E+00
     -2.694  0.2023E-01  0.1198E+00
     -2.612  0.7122E-02  0.1204E+00
     -2.530  0.2871E-02  0.1206E+00
     -2.448  0.4756E-02  0.1210E+00
     -2.365  0.1220E-01  0.1220E+00
     -2.283  0.2391E-01  0.1240E+00
     -2.201  0.3383E-01  0.1268E+00
     -2.119  0.3450E-01  0.1296E+00
     -2.037  0.2543E-01  0.1317E+00
     -1.955  0.1405E-01  0.1328E+00
     -1.872  0.7955E-02  0.1335E+00
     -1.790  0.1019E-01  0.1343E+00
     -1.708  0.1973E-01  0.1360E+00
     -1.626  0.3104E-01  0.1385E+00
     -1.544  0.3557E-01  0.1414E+00
     -1.462  0.2939E-01  0.1438E+00
     -1.379  0.1752E-01  0.1453E+00
     -1.297  0.7746E-02  0.1459E+00
     -1.215  0.3810E-02  0.1462E+00
     -1.133  0.6993E-02  0.1468E+00
     -1.051  0.2064E-01  0.1485E+00
     -0.968  0.4847E-01  0.1525E+00
     -0.886  0.8621E-01  0.1596E+00
     -0.804  0.1179E+00  0.1693E+00
     -0.722  0.1265E+00  0.1797E+00
     -0.640  0.1091E+00  0.1886E+00
     -0.558  0.8071E-01  0.1953E+00
     -0.475  0.5927E-01  0.2001E+00
     -0.393  0.4904E-01  0.2042E+00
     -0.311  0.4150E-01  0.2076E+00
     -0.229  0.3008E-01  0.2100E+00
     -0.147  0.1700E-01  0.2114E+00
     -0.065  0.7245E-02  0.2120E+00
      0.018  0.2327E-02  0.2122E+00
      0.100  0.7936E-03  0.2123E+00
      0.182  0.1584E-02  0.2124E+00
      0.264  0.6245E-02  0.2129E+00
      0.346  0.1874E-01  0.2145E+00
      0.428  0.4056E-01  0.2178E+00
      0.511  0.6322E-01  0.2230E+00
      0.593  0.7096E-01  0.2288E+00
      0.675  0.5736E-01  0.2335E+00
      0.757  0.3339E-01  0.2363E+00
      0.839  0.1401E-01  0.2374E+00
      0.921  0.4321E-02  0.2378E+00
      1.004  0.1508E-02  0.2379E+00
      1.086  0.2733E-02  0.2381E+00
      1.168  0.8180E-02  0.2388E+00
      1.250  0.1854E-01  0.2403E+00
      1.332  0.3040E-01  0.2428E+00
      1.414  0.3647E-01  0.2458E+00
      1.497  0.3422E-01  0.2486E+00
      1.579  0.3246E-01  0.2513E+00
      1.661  0.4414E-01  0.2549E+00
      1.743  0.7112E-01  0.2608E+00
      1.825  0.9722E-01  0.2688E+00
      1.907  0.1009E+00  0.2771E+00
      1.990  0.7786E-01  0.2835E+00
      2.072  0.4585E-01  0.2872E+00
      2.154  0.2617E-01  0.2894E+00
      2.236  0.2809E-01  0.2917E+00
      2.318  0.4696E-01  0.2955E+00
      2.400  0.6712E-01  0.3011E+00
      2.483  0.7216E-01  0.3070E+00
      2.565  0.6291E-01  0.3121E+00
      2.647  0.6033E-01  0.3171E+00
      2.729  0.8194E-01  0.3238E+00
      2.811  0.1178E+00  0.3335E+00
      2.893  0.1388E+00  0.3449E+00
      2.976  0.1340E+00  0.3559E+00
      3.058  0.1271E+00  0.3664E+00
      3.140  0.1401E+00  0.3779E+00
      3.222  0.1582E+00  0.3909E+00
      3.304  0.1494E+00  0.4032E+00
      3.387  0.1076E+00  0.4120E+00
      3.469  0.5823E-01  0.4168E+00
      3.551  0.2672E-01  0.4190E+00
      3.633  0.2058E-01  0.4207E+00
      3.715  0.3531E-01  0.4236E+00
      3.797  0.5995E-01  0.4285E+00
      3.880  0.7967E-01  0.4350E+00
      3.962  0.8720E-01  0.4422E+00
      4.044  0.8918E-01  0.4495E+00
      4.126  0.9173E-01  0.4571E+00
      4.208  0.9009E-01  0.4645E+00
      4.290  0.7965E-01  0.4710E+00
      4.373  0.6380E-01  0.4763E+00
      4.455  0.4840E-01  0.4802E+00
      4.537  0.3934E-01  0.4835E+00
      4.619  0.4095E-01  0.4868E+00
      4.701  0.4943E-01  0.4909E+00
      4.783  0.5483E-01  0.4954E+00
      4.866  0.5356E-01  0.4998E+00
      4.948  0.5092E-01  0.5040E+00
      5.030  0.5080E-01  0.5082E+00
      5.112  0.5259E-01  0.5125E+00
      5.194  0.5541E-01  0.5170E+00
      5.276  0.5587E-01  0.5216E+00
      5.359  0.4803E-01  0.5256E+00
      5.441  0.3212E-01  0.5282E+00
      5.523  0.1619E-01  0.5295E+00
      5.605  0.6930E-02  0.5301E+00
      5.687  0.4728E-02  0.5305E+00
      5.769  0.6491E-02  0.5310E+00
      5.852  0.8610E-02  0.5317E+00
      5.934  0.8538E-02  0.5324E+00
      6.016  0.6227E-02  0.5330E+00
      6.098  0.3817E-02  0.5333E+00
      6.180  0.3653E-02  0.5336E+00
      6.262  0.6894E-02  0.5341E+00
      6.345  0.1261E-01  0.5352E+00
      6.427  0.1731E-01  0.5366E+00
      6.509  0.1764E-01  0.5380E+00
      6.591  0.1491E-01  0.5393E+00
      6.673  0.1494E-01  0.5405E+00
      6.755  0.2182E-01  0.5423E+00
      6.838  0.3238E-01  0.5450E+00
      6.920  0.3876E-01  0.5481E+00
      7.002  0.3777E-01  0.5512E+00
      7.084  0.3446E-01  0.5541E+00
      7.166  0.3454E-01  0.5569E+00
      7.248  0.3849E-01  0.5601E+00
      7.331  0.4523E-01  0.5638E+00
      7.413  0.5636E-01  0.5684E+00
      7.495  0.7292E-01  0.5744E+00
      7.577  0.8946E-01  0.5818E+00
      7.659  0.9693E-01  0.5897E+00
      7.742  0.9484E-01  0.5975E+00
      7.824  0.9285E-01  0.6052E+00
      7.906  0.9430E-01  0.6129E+00
      7.988  0.8984E-01  0.6203E+00
      8.070  0.7281E-01  0.6263E+00
      8.152  0.4898E-01  0.6303E+00
      8.235  0.2856E-01  0.6326E+00
      8.317  0.1688E-01  0.6340E+00
      8.399  0.1294E-01  0.6351E+00
      8.481  0.1349E-01  0.6362E+00
      8.563  0.1780E-01  0.6377E+00
      8.645  0.2675E-01  0.6399E+00
      8.728  0.3782E-01  0.6430E+00
      8.810  0.4617E-01  0.6468E+00
      8.892  0.5245E-01  0.6511E+00
      8.974  0.6463E-01  0.6564E+00
      9.056  0.9142E-01  0.6639E+00
      9.138  0.1329E+00  0.6748E+00
      9.221  0.1706E+00  0.6888E+00
      9.303  0.1757E+00  0.7033E+00
      9.385  0.1436E+00  0.7151E+00
      9.467  0.1054E+00  0.7237E+00
      9.549  0.9166E-01  0.7313E+00
      9.631  0.1010E+00  0.7396E+00
      9.714  0.1151E+00  0.7490E+00
      9.796  0.1253E+00  0.7593E+00
      9.878  0.1310E+00  0.7701E+00
      9.960  0.1284E+00  0.7806E+00
     10.042  0.1176E+00  0.7903E+00
     10.124  0.1107E+00  0.7994E+00
     10.207  0.1173E+00  0.8090E+00
     10.289  0.1317E+00  0.8199E+00
     10.371  0.1424E+00  0.8316E+00
     10.453  0.1465E+00  0.8436E+00
     10.535  0.1512E+00  0.8560E+00
     10.617  0.1634E+00  0.8695E+00
     10.700  0.1770E+00  0.8840E+00
     10.782  0.1727E+00  0.8982E+00
     10.864  0.1388E+00  0.9096E+00
     10.946  0.8849E-01  0.9169E+00
     11.028  0.4865E-01  0.9209E+00
     11.110  0.3631E-01  0.9238E+00
     11.193  0.4875E-01  0.9278E+00
     11.275  0.6819E-01  0.9335E+00
     11.357  0.7565E-01  0.9397E+00
     11.439  0.6777E-01  0.9452E+00
     11.521  0.5592E-01  0.9498E+00
     11.603  0.4780E-01  0.9538E+00
     11.686  0.4110E-01  0.9571E+00
     11.768  0.3439E-01  0.9600E+00
     11.850  0.3023E-01  0.9624E+00
     11.932  0.2769E-01  0.9647E+00
     12.014  0.2252E-01  0.9666E+00
     12.097  0.1427E-01  0.9677E+00
     12.179  0.6674E-02  0.9683E+00
     12.261  0.2263E-02  0.9685E+00
     12.343  0.5534E-03  0.9685E+00
     12.425  0.9741E-04  0.9685E+00
     12.507  0.1233E-04  0.9685E+00
     12.590  0.1123E-05  0.9685E+00
     12.672  0.8822E-07  0.9685E+00
     12.754  0.3079E-06  0.9685E+00
     12.836  0.4487E-05  0.9685E+00
     12.918  0.4753E-04  0.9685E+00
     13.000  0.3622E-03  0.9686E+00
     13.083  0.1989E-02  0.9687E+00
     13.165  0.7893E-02  0.9694E+00
     13.247  0.2281E-01  0.9713E+00
     13.329  0.4876E-01  0.9753E+00
     13.411  0.7971E-01  0.9818E+00
     13.493  0.1055E+00  0.9905E+00
     13.576  0.1207E+00  0.1000E+01
     13.658  0.1227E+00  0.1010E+01
     13.740  0.1087E+00  0.1019E+01
     13.822  0.8445E-01  0.1026E+01
     13.904  0.6279E-01  0.1032E+01
     13.986  0.4836E-01  0.1035E+01
     14.069  0.3662E-01  0.1038E+01
     14.151  0.2734E-01  0.1041E+01
     14.233  0.2683E-01  0.1043E+01
     14.315  0.3750E-01  0.1046E+01
     14.397  0.5252E-01  0.1050E+01
     14.479  0.6113E-01  0.1055E+01
     14.562  0.5700E-01  0.1060E+01
     14.644  0.4200E-01  0.1063E+01
     14.726  0.2397E-01  0.1065E+01
     14.808  0.1035E-01  0.1066E+01
     14.890  0.3320E-02  0.1067E+01
     14.972  0.7805E-03  0.1067E+01
     15.055  0.1333E-03  0.1067E+01
     15.137  0.1647E-04  0.1067E+01
     15.219  0.1467E-05  0.1067E+01
     15.301  0.9400E-07  0.1067E+01
     15.383  0.4329E-08  0.1067E+01
     15.465  0.1432E-09  0.1067E+01
     15.548  0.3397E-11  0.1067E+01
     15.630  0.5778E-13  0.1067E+01
     15.712  0.7091E-15  0.1067E+01
     15.794  0.0000E+00  0.1067E+01
     15.876  0.0000E+00  0.1067E+01
     15.958  0.0000E+00  0.1067E+01
     16.041  0.0000E+00  0.1067E+01
     16.123  0.0000E+00  0.1067E+01
     16.205  0.0000E+00  0.1067E+01
     16.287  0.0000E+00  0.1067E+01
     16.369  0.0000E+00  0.1067E+01
     16.452  0.0000E+00  0.1067E+01
     16.534  0.0000E+00  0.1067E+01
