   2   2   0   0
  0.1529437E+02  0.3691622E-09  0.3691622E-09  0.3691622E-09  0.5000000E-15
  1.000000000000000E-004
  CAR 
 unknown system                          
     21.98126594     -6.24217647  301      9.23596863      1.00000000
     -6.242  0.0000E+00  0.0000E+00
     -6.148  0.0000E+00  0.0000E+00
     -6.054  0.0000E+00  0.0000E+00
     -5.960  0.0000E+00  0.0000E+00
     -5.866  0.0000E+00  0.0000E+00
     -5.772  0.0000E+00  0.0000E+00
     -5.678  0.0000E+00  0.0000E+00
     -5.584  0.0000E+00  0.0000E+00
     -5.490  0.0000E+00  0.0000E+00
     -5.395  0.1475E-16  0.1388E-17
     -5.301  0.3039E-14  0.2873E-15
     -5.207  0.3875E-12  0.3674E-13
     -5.113  0.3196E-10  0.3044E-11
     -5.019  0.1707E-08  0.1636E-09
     -4.925  0.5907E-07  0.5721E-08
     -4.831  0.1326E-05  0.1305E-06
     -4.737  0.1934E-04  0.1950E-05
     -4.643  0.1834E-03  0.1920E-04
     -4.549  0.1132E-02  0.1257E-03
     -4.455  0.4551E-02  0.5538E-03
     -4.361  0.1193E-01  0.1676E-02
     -4.267  0.2041E-01  0.3597E-02
     -4.172  0.2280E-01  0.5742E-02
     -4.078  0.1662E-01  0.7305E-02
     -3.984  0.7907E-02  0.8049E-02
     -3.890  0.2454E-02  0.8280E-02
     -3.796  0.4977E-03  0.8327E-02
     -3.702  0.8093E-04  0.8334E-02
     -3.608  0.1409E-03  0.8348E-02
     -3.514  0.7681E-03  0.8420E-02
     -3.420  0.2840E-02  0.8687E-02
     -3.326  0.6857E-02  0.9332E-02
     -3.232  0.1087E-01  0.1035E-01
     -3.138  0.1176E-01  0.1146E-01
     -3.044  0.1111E-01  0.1251E-01
     -2.949  0.1626E-01  0.1404E-01
     -2.855  0.3125E-01  0.1698E-01
     -2.761  0.4833E-01  0.2152E-01
     -2.667  0.5669E-01  0.2686E-01
     -2.573  0.5785E-01  0.3230E-01
     -2.479  0.5604E-01  0.3757E-01
     -2.385  0.4591E-01  0.4189E-01
     -2.291  0.2739E-01  0.4447E-01
     -2.197  0.1119E-01  0.4552E-01
     -2.103  0.4086E-02  0.4590E-01
     -2.009  0.6012E-02  0.4647E-01
     -1.915  0.1717E-01  0.4809E-01
     -1.821  0.3473E-01  0.5135E-01
     -1.726  0.4619E-01  0.5570E-01
     -1.632  0.4119E-01  0.5957E-01
     -1.538  0.2800E-01  0.6221E-01
     -1.444  0.2185E-01  0.6426E-01
     -1.350  0.2349E-01  0.6647E-01
     -1.256  0.2251E-01  0.6859E-01
     -1.162  0.1499E-01  0.7000E-01
     -1.068  0.6578E-02  0.7062E-01
     -0.974  0.1886E-02  0.7080E-01
     -0.880  0.3560E-03  0.7083E-01
     -0.786  0.9331E-04  0.7084E-01
     -0.692  0.4598E-03  0.7088E-01
     -0.597  0.2688E-02  0.7113E-01
     -0.503  0.1032E-01  0.7211E-01
     -0.409  0.2584E-01  0.7454E-01
     -0.315  0.4236E-01  0.7852E-01
     -0.221  0.4625E-01  0.8287E-01
     -0.127  0.3726E-01  0.8638E-01
     -0.033  0.3268E-01  0.8945E-01
      0.061  0.4316E-01  0.9351E-01
      0.155  0.6138E-01  0.9929E-01
      0.249  0.8015E-01  0.1068E+00
      0.343  0.9767E-01  0.1160E+00
      0.437  0.1001E+00  0.1254E+00
      0.531  0.7613E-01  0.1326E+00
      0.626  0.4340E-01  0.1367E+00
      0.720  0.2619E-01  0.1391E+00
      0.814  0.2462E-01  0.1415E+00
      0.908  0.2517E-01  0.1438E+00
      1.002  0.2492E-01  0.1462E+00
      1.096  0.3163E-01  0.1491E+00
      1.190  0.4352E-01  0.1532E+00
      1.284  0.4567E-01  0.1575E+00
      1.378  0.3236E-01  0.1606E+00
      1.472  0.1567E-01  0.1621E+00
      1.566  0.7724E-02  0.1628E+00
      1.660  0.1029E-01  0.1638E+00
      1.754  0.1822E-01  0.1655E+00
      1.849  0.2292E-01  0.1676E+00
      1.943  0.1914E-01  0.1694E+00
      2.037  0.1123E-01  0.1705E+00
      2.131  0.8079E-02  0.1712E+00
      2.225  0.1557E-01  0.1727E+00
      2.319  0.3288E-01  0.1758E+00
      2.413  0.4946E-01  0.1804E+00
      2.507  0.5372E-01  0.1855E+00
      2.601  0.4734E-01  0.1900E+00
      2.695  0.4068E-01  0.1938E+00
      2.789  0.4128E-01  0.1977E+00
      2.883  0.4943E-01  0.2023E+00
      2.977  0.5793E-01  0.2078E+00
      3.072  0.6602E-01  0.2140E+00
      3.166  0.8181E-01  0.2217E+00
      3.260  0.9608E-01  0.2307E+00
      3.354  0.8740E-01  0.2389E+00
      3.448  0.6122E-01  0.2447E+00
      3.542  0.4335E-01  0.2488E+00
      3.636  0.4115E-01  0.2526E+00
      3.730  0.4218E-01  0.2566E+00
      3.824  0.3877E-01  0.2603E+00
      3.918  0.3708E-01  0.2638E+00
      4.012  0.4323E-01  0.2678E+00
      4.106  0.4832E-01  0.2724E+00
      4.200  0.3988E-01  0.2761E+00
      4.295  0.2217E-01  0.2782E+00
      4.389  0.8452E-02  0.2790E+00
      4.483  0.4055E-02  0.2794E+00
      4.577  0.8317E-02  0.2802E+00
      4.671  0.2114E-01  0.2821E+00
      4.765  0.4043E-01  0.2860E+00
      4.859  0.5824E-01  0.2914E+00
      4.953  0.6514E-01  0.2976E+00
      5.047  0.6167E-01  0.3034E+00
      5.141  0.6010E-01  0.3090E+00
      5.235  0.6643E-01  0.3153E+00
      5.329  0.7192E-01  0.3220E+00
      5.424  0.7019E-01  0.3286E+00
      5.518  0.6487E-01  0.3347E+00
      5.612  0.5538E-01  0.3399E+00
      5.706  0.3857E-01  0.3436E+00
      5.800  0.2384E-01  0.3458E+00
      5.894  0.2696E-01  0.3484E+00
      5.988  0.5333E-01  0.3534E+00
      6.082  0.9035E-01  0.3619E+00
      6.176  0.1179E+00  0.3730E+00
      6.270  0.1285E+00  0.3851E+00
      6.364  0.1218E+00  0.3965E+00
      6.458  0.9300E-01  0.4053E+00
      6.552  0.5161E-01  0.4101E+00
      6.647  0.1954E-01  0.4120E+00
      6.741  0.4907E-02  0.4124E+00
      6.835  0.8096E-03  0.4125E+00
      6.929  0.1130E-03  0.4125E+00
      7.023  0.2891E-03  0.4125E+00
      7.117  0.2017E-02  0.4127E+00
      7.211  0.9507E-02  0.4136E+00
      7.305  0.2973E-01  0.4164E+00
      7.399  0.6192E-01  0.4222E+00
      7.493  0.8632E-01  0.4304E+00
      7.587  0.8119E-01  0.4380E+00
      7.681  0.5248E-01  0.4429E+00
      7.775  0.2620E-01  0.4454E+00
      7.870  0.1940E-01  0.4472E+00
      7.964  0.3220E-01  0.4503E+00
      8.058  0.5340E-01  0.4553E+00
      8.152  0.7006E-01  0.4619E+00
      8.246  0.7879E-01  0.4693E+00
      8.340  0.8207E-01  0.4770E+00
      8.434  0.7903E-01  0.4844E+00
      8.528  0.6954E-01  0.4910E+00
      8.622  0.6407E-01  0.4970E+00
      8.716  0.7546E-01  0.5041E+00
      8.810  0.9248E-01  0.5128E+00
      8.904  0.8691E-01  0.5210E+00
      8.998  0.5656E-01  0.5263E+00
      9.093  0.2881E-01  0.5290E+00
      9.187  0.2522E-01  0.5314E+00
      9.281  0.4697E-01  0.5358E+00
      9.375  0.7954E-01  0.5433E+00
      9.469  0.1017E+00  0.5529E+00
      9.563  0.1033E+00  0.5626E+00
      9.657  0.9154E-01  0.5712E+00
      9.751  0.7499E-01  0.5782E+00
      9.845  0.5362E-01  0.5833E+00
      9.939  0.2964E-01  0.5861E+00
     10.033  0.1158E-01  0.5872E+00
     10.127  0.3218E-02  0.5875E+00
     10.221  0.1818E-02  0.5876E+00
     10.316  0.6063E-02  0.5882E+00
     10.410  0.1829E-01  0.5899E+00
     10.504  0.3699E-01  0.5934E+00
     10.598  0.5186E-01  0.5983E+00
     10.692  0.5668E-01  0.6036E+00
     10.786  0.5864E-01  0.6091E+00
     10.880  0.6452E-01  0.6152E+00
     10.974  0.7910E-01  0.6226E+00
     11.068  0.1127E+00  0.6332E+00
     11.162  0.1556E+00  0.6479E+00
     11.256  0.1693E+00  0.6638E+00
     11.350  0.1347E+00  0.6765E+00
     11.445  0.7975E-01  0.6840E+00
     11.539  0.4358E-01  0.6881E+00
     11.633  0.3880E-01  0.6917E+00
     11.727  0.4912E-01  0.6964E+00
     11.821  0.5244E-01  0.7013E+00
     11.915  0.4469E-01  0.7055E+00
     12.009  0.3797E-01  0.7091E+00
     12.103  0.4243E-01  0.7131E+00
     12.197  0.5760E-01  0.7185E+00
     12.291  0.7218E-01  0.7253E+00
     12.385  0.7320E-01  0.7322E+00
     12.479  0.6192E-01  0.7380E+00
     12.573  0.5390E-01  0.7430E+00
     12.668  0.5876E-01  0.7486E+00
     12.762  0.6612E-01  0.7548E+00
     12.856  0.5975E-01  0.7604E+00
     12.950  0.3960E-01  0.7641E+00
     13.044  0.1880E-01  0.7659E+00
     13.138  0.6292E-02  0.7665E+00
     13.232  0.1461E-02  0.7666E+00
     13.326  0.2920E-03  0.7667E+00
     13.420  0.6160E-03  0.7667E+00
     13.514  0.3677E-02  0.7671E+00
     13.608  0.1534E-01  0.7685E+00
     13.702  0.4362E-01  0.7726E+00
     13.796  0.8595E-01  0.7807E+00
     13.891  0.1195E+00  0.7920E+00
     13.985  0.1200E+00  0.8032E+00
     14.079  0.9277E-01  0.8120E+00
     14.173  0.7250E-01  0.8188E+00
     14.267  0.8553E-01  0.8268E+00
     14.361  0.1188E+00  0.8380E+00
     14.455  0.1338E+00  0.8506E+00
     14.549  0.1159E+00  0.8615E+00
     14.643  0.9317E-01  0.8703E+00
     14.737  0.9197E-01  0.8789E+00
     14.831  0.1023E+00  0.8885E+00
     14.925  0.1025E+00  0.8982E+00
     15.019  0.9012E-01  0.9067E+00
     15.114  0.7322E-01  0.9135E+00
     15.208  0.5722E-01  0.9189E+00
     15.302  0.4941E-01  0.9236E+00
     15.396  0.5046E-01  0.9283E+00
     15.490  0.4707E-01  0.9328E+00
     15.584  0.3286E-01  0.9358E+00
     15.678  0.1943E-01  0.9377E+00
     15.772  0.1728E-01  0.9393E+00
     15.866  0.2202E-01  0.9414E+00
     15.960  0.2252E-01  0.9435E+00
     16.054  0.1550E-01  0.9449E+00
     16.148  0.7238E-02  0.9456E+00
     16.242  0.3656E-02  0.9460E+00
     16.337  0.6718E-02  0.9466E+00
     16.431  0.1729E-01  0.9482E+00
     16.525  0.3415E-01  0.9514E+00
     16.619  0.5131E-01  0.9563E+00
     16.713  0.5896E-01  0.9618E+00
     16.807  0.5027E-01  0.9665E+00
     16.901  0.3123E-01  0.9695E+00
     16.995  0.1638E-01  0.9710E+00
     17.089  0.1198E-01  0.9722E+00
     17.183  0.1259E-01  0.9733E+00
     17.277  0.1342E-01  0.9746E+00
     17.371  0.2019E-01  0.9765E+00
     17.466  0.4401E-01  0.9806E+00
     17.560  0.8245E-01  0.9884E+00
     17.654  0.1095E+00  0.9987E+00
     17.748  0.1011E+00  0.1008E+01
     17.842  0.6915E-01  0.1015E+01
     17.936  0.4463E-01  0.1019E+01
     18.030  0.3903E-01  0.1023E+01
     18.124  0.4462E-01  0.1027E+01
     18.218  0.5560E-01  0.1032E+01
     18.312  0.6856E-01  0.1038E+01
     18.406  0.7442E-01  0.1045E+01
     18.500  0.6460E-01  0.1052E+01
     18.594  0.4252E-01  0.1056E+01
     18.689  0.2055E-01  0.1057E+01
     18.783  0.7105E-02  0.1058E+01
     18.877  0.1710E-02  0.1058E+01
     18.971  0.2801E-03  0.1058E+01
     19.065  0.3067E-04  0.1058E+01
     19.159  0.2220E-05  0.1058E+01
     19.253  0.1165E-06  0.1058E+01
     19.347  0.3156E-06  0.1058E+01
     19.441  0.5607E-05  0.1058E+01
     19.535  0.6542E-04  0.1058E+01
     19.629  0.4965E-03  0.1058E+01
     19.723  0.2454E-02  0.1059E+01
     19.817  0.7907E-02  0.1059E+01
     19.912  0.1662E-01  0.1061E+01
     20.006  0.2280E-01  0.1063E+01
     20.100  0.2041E-01  0.1065E+01
     20.194  0.1193E-01  0.1066E+01
     20.288  0.4551E-02  0.1067E+01
     20.382  0.1132E-02  0.1067E+01
     20.476  0.1834E-03  0.1067E+01
     20.570  0.1934E-04  0.1067E+01
     20.664  0.1326E-05  0.1067E+01
     20.758  0.5907E-07  0.1067E+01
     20.852  0.1707E-08  0.1067E+01
     20.946  0.3196E-10  0.1067E+01
     21.040  0.3875E-12  0.1067E+01
     21.135  0.3029E-14  0.1067E+01
     21.229  0.1967E-16  0.1067E+01
     21.323  0.0000E+00  0.1067E+01
     21.417  0.0000E+00  0.1067E+01
     21.511  0.0000E+00  0.1067E+01
     21.605  0.0000E+00  0.1067E+01
     21.699  0.0000E+00  0.1067E+01
     21.793  0.0000E+00  0.1067E+01
     21.887  0.0000E+00  0.1067E+01
     21.981  0.0000E+00  0.1067E+01
