    2    2   15    1
  0.1529437E+02  0.3691622E-09  0.3691622E-09  0.3691622E-09  0.5000000E-15
  1.000000000000000E-004
  CAR 
 unknown system                          
      8     11      8
 
  0.1250000E+00  0.1250000E+00  0.1250000E+00  0.1250000E+00
    1       -2.488009   1.000000
    2        3.221097   1.000000
    3        8.058525   1.000000
    4        9.541646   0.015330
    5       11.175460   0.000000
    6       11.300319   0.000000
    7       14.312931   0.000000
    8       15.078674   0.000000
 
  0.3750000E+00  0.1250000E+00  0.1250000E+00  0.1250000E+00
    1        2.396835   1.000000
    2        2.920863   1.000000
    3        5.301925   1.000000
    4        5.553092   1.000000
    5       10.559618   0.000000
    6       12.252409   0.000000
    7       13.884274   0.000000
    8       14.420403   0.000000
 
 -0.1250000E+00  0.1250000E+00  0.1250000E+00  0.6250000E-01
    1       -4.242176   1.000000
    2        3.747800   1.000000
    3        5.163776   1.000000
    4        9.337767   0.235816
    5       12.371936   0.000000
    6       12.837782   0.000000
    7       17.675158   0.000000
    8       17.999260   0.000000
 
  0.3750000E+00  0.3750000E+00  0.1250000E+00  0.6250000E-01
    1       -0.301119   1.000000
    2       -0.301119   1.000000
    3        9.402681   0.119232
    4        9.402682   0.119231
    5       11.123032   0.000000
    6       11.123036   0.000000
    7       12.708648   0.000000
    8       12.708654   0.000000
 
 -0.3750000E+00  0.3750000E+00  0.1250000E+00  0.1250000E+00
    1       -2.766551   1.000000
    2        0.117848   1.000000
    3        6.063030   1.000000
    4        8.827315   0.998071
    5       11.723914   0.000000
    6       14.431714   0.000000
    7       17.573996   0.000000
    8       18.360426   0.000000
 
 -0.1250000E+00  0.3750000E+00  0.1250000E+00  0.1250000E+00
    1       -1.758663   1.000000
    2        3.263613   1.000000
    3        4.916087   1.000000
    4        8.784575   0.999293
    5        9.743542   0.000166
    6       13.806213   0.000000
    7       14.874919   0.000000
    8       15.409277   0.000000
 
 -0.3750000E+00 -0.3750000E+00  0.1250000E+00  0.1250000E+00
    1        0.378521   1.000000
    2        0.392251   1.000000
    3        6.344309   1.000000
    4        6.344322   1.000000
    5        8.270065   1.000000
    6       13.975801   0.000000
    7       16.709946   0.000000
    8       17.659056   0.000000
 
 -0.1250000E+00 -0.3750000E+00  0.1250000E+00  0.1250000E+00
    1        1.208879   1.000000
    2        4.072541   1.000000
    3        6.138397   1.000000
    4        7.483207   1.000000
    5        8.457570   1.000000
    6       10.844541   0.000000
    7       11.198634   0.000000
    8       14.765142   0.000000
 
 -0.1250000E+00 -0.1250000E+00  0.1250000E+00  0.3125000E-01
    1       -3.225671   1.000000
    2        7.422366   1.000000
    3        7.452901   1.000000
    4        7.452902   1.000000
    5       11.915301   0.000000
    6       12.068893   0.000000
    7       12.457943   0.000000
    8       14.672214   0.000000
 
 -0.3750000E+00  0.3750000E+00  0.3750000E+00  0.6250000E-01
    1       -1.343176   1.000000
    2        0.822522   1.000000
    3        2.629884   1.000000
    4        4.755575   1.000000
    5       15.878361   0.000000
    6       16.530792   0.000000
    7       18.492136   0.000000
    8       19.981266   0.000000
 
 -0.3750000E+00 -0.3750000E+00  0.3750000E+00  0.3125000E-01
    1        1.790119   1.000000
    2        1.824082   1.000000
    3        3.595545   1.000000
    4        3.595545   1.000000
    5        7.585872   1.000000
    6       17.151356   0.000000
    7       18.196211   0.000000
    8       18.196218   0.000000
