unknown system                          
   1.00000000000000     
     0.000000    2.460869    2.460869
     2.460869    0.000000    2.460869
     2.460869    2.460869    0.000000
   Si
     2
Direct
  0.000000  0.000000  0.000000
  0.250000  0.250000  0.250000
 
   32   32   32
 -6.4021     -5.2050     -1.9373      2.5514      7.1920      11.045      13.546      14.579      14.401      13.481    
  12.292      11.059      9.9150      8.9537      8.2360      7.7953      7.6469      7.7953      8.2360      8.9537    
  9.9150      11.060      12.292      13.481      14.401      14.579      13.546      11.045      7.1919      2.5513    
 -1.9373     -5.2050     -5.2050     -2.7783      1.3993      6.2475      10.676      13.912      15.646      15.997    
  15.364      14.249      12.993      11.744      10.622      9.7130      9.0782      8.7526      8.7525      9.0780    
  9.7130      10.622      11.744      12.993      14.249      15.364      15.997      15.646      13.912      10.676    
  6.2476      1.3992     -2.7787     -5.2052     -1.9373      1.3993      5.9052      10.456      14.124      16.414    
  17.279      17.010      16.067      14.863      13.579      12.343      11.265      10.432      9.9065      9.7272    
  9.9065      10.432      11.265      12.343      13.579      14.863      16.067      17.010      17.278      16.414    
  14.124      10.456      5.9053      1.3994     -1.9373     -3.1708      2.5514      6.2475      10.456      14.195    
  16.820      18.116      18.238      17.562      16.499      15.269      13.996      12.799      11.787      11.054    
  10.670      10.670      11.055      11.787      12.799      13.996      15.269      16.499      17.562      18.238    
  18.116      16.820      14.195      10.455      6.2477      2.5517     0.37952     0.37932      7.1920      10.676    
  14.124      16.820      18.407      18.897      18.549      17.723      16.645      15.431      14.196      13.058    
  12.135      11.531      11.320      11.531      12.135      13.058      14.196      15.431      16.645      17.723    
  18.549      18.897      18.407      16.820      14.124      10.676      7.1920      4.5796      3.6078      4.5796    
  11.045      13.912      16.414      18.116      18.897      18.895      18.380      17.549      16.499      15.327    
  14.145      13.074      12.248      11.795      11.795      12.248      13.074      14.145      15.327      16.499    
  17.549      18.380      18.895      18.897      18.116      16.414      13.912      11.045      8.4983      6.9923    
  6.9923      8.4985      13.546      15.646      17.279      18.238      18.549      18.380      17.865      17.070    
  16.067      14.942      13.795      12.776      12.064      11.808      12.064      12.776      13.795      14.942    
  16.067      17.070      17.865      18.380      18.549      18.238      17.278      15.646      13.546      11.414    
  9.8113      9.2142      9.8114      11.414      14.579      15.997      17.010      17.562      17.723      17.549    
  17.070      16.325      15.364      14.247      13.112      12.165      11.623      11.623      12.165      13.112    
  14.247      15.364      16.325      17.070      17.549      17.723      17.561      17.010      15.997      14.579    
  12.986      11.583      10.757      10.757      11.583      12.986      14.401      15.364      16.067      16.499    
  16.645      16.499      16.067      15.364      14.401      13.271      12.175      11.369      11.071      11.369    
  12.175      13.271      14.401      15.364      16.067      16.499      16.645      16.499      16.067      15.364    
  14.401      13.271      12.175      11.369      11.071      11.369      12.175      13.271      13.481      14.249    
  14.863      15.269      15.431      15.327      14.942      14.247      13.271      12.168      11.193      10.617    
  10.617      11.193      12.168      13.271      14.247      14.942      15.327      15.431      15.269      14.863    
  14.249      13.481      12.627      11.784      11.091      10.696      10.696      11.090      11.784      12.627    
  12.292      12.993      13.579      13.996      14.196      14.145      13.795      13.112      12.175      11.193    
  10.442      10.160      10.442      11.193      12.175      13.112      13.795      14.145      14.196      13.996    
  13.579      12.993      12.292      11.541      10.817      10.208      9.7966      9.6508      9.7966      10.208    
  10.817      11.541      11.059      11.744      12.343      12.799      13.058      13.074      12.776      12.165    
  11.369      10.617      10.160      10.160      10.617      11.369      12.165      12.776      13.074      13.058    
  12.799      12.343      11.744      11.060      10.349      9.6746      9.0961      8.6710      8.4453      8.4454    
  8.6712      9.0963      9.6746      10.349      9.9150      10.622      11.265      11.787      12.135      12.248    
  12.064      11.623      11.071      10.617      10.442      10.617      11.071      11.623      12.064      12.248    
  12.135      11.787      11.265      10.622      9.9150      9.2031      8.5386      7.9676      7.5288      7.2523    
  7.1578      7.2523      7.5289      7.9677      8.5386      9.2031      8.9537      9.7130      10.432      11.054    
  11.531      11.795      11.808      11.623      11.369      11.193      11.193      11.369      11.623      11.808    
  11.795      11.531      11.055      10.432      9.7130      8.9536      8.2078      7.5226      6.9353      6.4732    
  6.1552      5.9932      5.9932      6.1551      6.4731      6.9353      7.5227      8.2080      8.2360      9.0782    
  9.9065      10.670      11.320      11.795      12.064      12.165      12.175      12.168      12.175      12.165    
  12.064      11.795      11.320      10.670      9.9065      9.0782      8.2360      7.4294      6.6993      6.0759    
  5.5785      5.2183      5.0005      4.9277      5.0005      5.2183      5.5785      6.0758      6.6993      7.4294    
  7.7953      8.7526      9.7272      10.670      11.531      12.248      12.776      13.112      13.271      13.271    
  13.112      12.776      12.248      11.531      10.670      9.7272      8.7525      7.7953      6.9005      6.1032    
  5.4266      4.8828      4.4760      4.2060      4.0716      4.0716      4.2061      4.4761      4.8828      5.4265    
  6.1030      6.9003      7.6469      8.7525      9.9065      11.055      12.135      13.074      13.795      14.247    
  14.401      14.247      13.795      13.074      12.135      11.055      9.9065      8.7525      7.6469      6.6340    
  5.7450      4.9967      4.3942      3.9346      3.6121      3.4211      3.3579      3.4211      3.6121      3.9345    
  4.3941      4.9967      5.7450      6.6340      7.7953      9.0780      10.432      11.787      13.058      14.145    
  14.942      15.364      15.364      14.942      14.145      13.058      11.787      10.432      9.0782      7.7953    
  6.6340      5.6257      4.7835      4.1063      3.5845      3.2056      2.9591      2.8376      2.8376      2.9591    
  3.2055      3.5844      4.1063      4.7837      5.6259      6.6342      8.2360      9.7130      11.265      12.799    
  14.196      15.327      16.067      16.325      16.067      15.327      14.196      12.799      11.265      9.7130    
  8.2360      6.9005      5.7450      4.7835      4.0114      3.4132      2.9699      2.6649      2.4864      2.4277    
  2.4864      2.6649      2.9699      3.4132      4.0115      4.7836      5.7450      6.9005      8.9537      10.622    
  12.343      13.996      15.431      16.499      17.070      17.070      16.499      15.431      13.996      12.343    
  10.622      8.9536      7.4294      6.1032      4.9967      4.1063      3.4132      2.8927      2.5221      2.2841    
  2.1677      2.1677      2.2841      2.5222      2.8928      3.4133      4.1063      4.9966      6.1030      7.4293    
  9.9150      11.744      13.579      15.269      16.645      17.549      17.865      17.549      16.645      15.269    
  13.579      11.744      9.9150      8.2078      6.6993      5.4266      4.3942      3.5845      2.9699      2.5221    
  2.2181      2.0417      1.9839      2.0417      2.2181      2.5222      2.9699      3.5845      4.3941      5.4266    
  6.6992      8.2078      11.060      12.993      14.863      16.499      17.723      18.380      18.380      17.723    
  16.499      14.863      12.993      11.060      9.2031      7.5226      6.0759      4.8828      3.9346      3.2056    
  2.6649      2.2841      2.0417      1.9238      1.9238      2.0417      2.2841      2.6649      3.2055      3.9345    
  4.8828      6.0760      7.5227      9.2031      12.292      14.249      16.067      17.562      18.549      18.895    
  18.549      17.561      16.067      14.249      12.292      10.349      8.5386      6.9353      5.5785      4.4760    
  3.6121      2.9591      2.4864      2.1677      1.9839      1.9238      1.9839      2.1677      2.4864      2.9591    
  3.6121      4.4760      5.5786      6.9353      8.5386      10.349      13.481      15.364      17.010      18.238    
  18.897      18.897      18.238      17.010      15.364      13.481      11.541      9.6746      7.9676      6.4732    
  5.2183      4.2060      3.4211      2.8376      2.4277      2.1677      2.0417      2.0417      2.1677      2.4276    
  2.8376      3.4212      4.2061      5.2183      6.4731      7.9675      9.6746      11.541      14.401      15.997    
  17.278      18.116      18.407      18.116      17.278      15.997      14.401      12.627      10.817      9.0961    
  7.5288      6.1552      5.0005      4.0716      3.3579      2.8376      2.4864      2.2841      2.2181      2.2841    
  2.4864      2.8376      3.3579      4.0716      5.0005      6.1552      7.5288      9.0962      10.817      12.627    
  14.579      15.646      16.414      16.820      16.820      16.414      15.646      14.579      13.271      11.784    
  10.208      8.6710      7.2523      5.9932      4.9277      4.0716      3.4211      2.9591      2.6649      2.5222    
  2.5222      2.6649      2.9591      3.4212      4.0716      4.9276      5.9932      7.2524      8.6712      10.208    
  11.784      13.271      13.546      13.912      14.124      14.195      14.124      13.912      13.546      12.986    
  12.175      11.091      9.7966      8.4453      7.1578      5.9932      5.0005      4.2061      3.6121      3.2055    
  2.9699      2.8928      2.9699      3.2055      3.6121      4.2061      5.0005      5.9932      7.1578      8.4453    
  9.7966      11.091      12.175      12.986      11.045      10.676      10.456      10.455      10.676      11.045    
  11.414      11.583      11.369      10.696      9.6508      8.4454      7.2523      6.1551      5.2183      4.4761    
  3.9345      3.5844      3.4132      3.4133      3.5845      3.9345      4.4760      5.2183      6.1552      7.2524    
  8.4453      9.6506      10.696      11.369      11.583      11.414      7.1919      6.2476      5.9053      6.2477    
  7.1920      8.4983      9.8113      10.757      11.071      10.696      9.7966      8.6712      7.5289      6.4731    
  5.5785      4.8828      4.3941      4.1063      4.0115      4.1063      4.3941      4.8828      5.5786      6.4731    
  7.5288      8.6712      9.7966      10.696      11.071      10.757      9.8113      8.4982      2.5513      1.3992    
  1.3994      2.5517      4.5796      6.9923      9.2142      10.757      11.369      11.090      10.208      9.0963    
  7.9677      6.9353      6.0758      5.4265      4.9967      4.7837      4.7836      4.9966      5.4266      6.0760    
  6.9353      7.9675      9.0962      10.208      11.091      11.369      10.757      9.2142      6.9923      4.5794    
 -1.9373     -2.7787     -1.9373     0.37952      3.6078      6.9923      9.8114      11.583      12.175      11.784    
  10.817      9.6746      8.5386      7.5227      6.6993      6.1030      5.7450      5.6259      5.7450      6.1030    
  6.6992      7.5227      8.5386      9.6746      10.817      11.784      12.175      11.583      9.8113      6.9923    
  3.6078     0.37947     -5.2050     -5.2052     -3.1708     0.37932      4.5796      8.4985      11.414      12.986    
  13.271      12.627      11.541      10.349      9.2031      8.2080      7.4294      6.9003      6.6340      6.6342    
  6.9005      7.4293      8.2078      9.2031      10.349      11.541      12.627      13.271      12.986      11.414    
  8.4982      4.5794     0.37947     -3.1703     -5.2050     -2.7783      1.3993      6.2475      10.676      13.912    
  15.646      15.997      15.364      14.249      12.993      11.744      10.622      9.7130      9.0782      8.7526    
  8.7525      9.0780      9.7130      10.622      11.744      12.993      14.249      15.364      15.997      15.646    
  13.912      10.676      6.2476      1.3992     -2.7787     -5.2052     -2.7783     0.72181      5.4506      10.232    
  14.101      16.538      17.493      17.264      16.325      15.107      13.806      12.550      11.451      10.600    
  10.063      9.8793      10.063      10.600      11.451      12.550      13.806      15.107      16.325      17.264    
  17.493      16.538      14.101      10.232      5.4504     0.72129     -2.7787     -4.0722      1.3993      5.4506    
  10.069      14.190      17.110      18.599      18.817      18.159      17.070      15.801      14.483      13.238    
  12.181      11.412      11.008      11.008      11.412      12.181      13.238      14.483      15.802      17.070    
  18.159      18.817      18.599      17.110      14.190      10.069      5.4505      1.3992     -.98064     -.98061    
  6.2475      10.232      14.190      17.309      19.191      19.840      19.538      18.681      17.549      16.266    
  14.952      13.733      12.737      12.080      11.850      12.080      12.737      13.733      14.952      16.266    
  17.549      18.681      19.538      19.840      19.191      17.309      14.190      10.232      6.2477      3.2629    
  2.1528      3.2627      10.676      14.101      17.110      19.191      20.198      20.281      19.746      18.856    
  17.723      16.447      15.143      13.943      13.007      12.490      12.490      13.007      13.943      15.143    
  16.446      17.723      18.856      19.746      20.281      20.198      19.191      17.110      14.101      10.676    
  7.6407      5.8473      5.8473      7.6407      13.912      16.538      18.599      19.840      20.281      20.119    
  19.558      18.681      17.562      16.275      14.933      13.722      12.868      12.560      12.869      13.722    
  14.933      16.275      17.561      18.681      19.558      20.119      20.281      19.840      18.599      16.538    
  13.912      11.258      9.2655      8.5238      9.2657      11.258      15.646      17.493      18.817      19.538    
  19.746      19.558      19.016      18.159      17.010      15.634      14.211      13.014      12.326      12.326    
  13.015      14.211      15.634      17.010      18.159      19.016      19.558      19.746      19.538      18.817    
  17.493      15.646      13.577      11.758      10.687      10.687      11.758      13.577      15.997      17.264    
  18.159      18.681      18.856      18.681      18.159      17.264      15.997      14.489      13.018      11.934    
  11.534      11.934      13.018      14.489      15.997      17.264      18.159      18.681      18.856      18.681    
  18.159      17.264      15.997      14.489      13.018      11.934      11.534      11.934      13.018      14.489    
  15.364      16.325      17.070      17.549      17.723      17.562      17.010      15.997      14.579      12.986    
  11.583      10.757      10.757      11.583      12.986      14.579      15.997      17.010      17.561      17.723    
  17.549      17.070      16.325      15.364      14.247      13.112      12.165      11.623      11.623      12.165    
  13.112      14.247      14.249      15.107      15.801      16.266      16.447      16.275      15.634      14.489    
  12.986      11.444      10.279      9.8436      10.278      11.444      12.986      14.489      15.634      16.275    
  16.446      16.266      15.802      15.107      14.249      13.307      12.378      11.572      11.016      10.817    
  11.016      11.572      12.378      13.307      12.993      13.806      14.483      14.952      15.143      14.933    
  14.211      13.018      11.583      10.279      9.4991      9.4990      10.278      11.583      13.018      14.211    
  14.933      15.143      14.952      14.483      13.806      12.993      12.121      11.271      10.529      9.9759    
  9.6799      9.6799      9.9759      10.529      11.271      12.121      11.744      12.550      13.238      13.733    
  13.943      13.722      13.014      11.934      10.757      9.8436      9.4990      9.8433      10.757      11.934    
  13.014      13.722      13.943      13.733      13.238      12.550      11.744      10.898      10.084      9.3690    
  8.8099      8.4539      8.3316      8.4540      8.8100      9.3690      10.084      10.898      10.622      11.451    
  12.181      12.737      13.007      12.868      12.326      11.534      10.757      10.278      10.278      10.757    
  11.533      12.326      12.869      13.007      12.737      12.181      11.451      10.622      9.7668      8.9541    
  8.2400      7.6681      7.2699      7.0658      7.0658      7.2699      7.6682      8.2400      8.9541      9.7668    
  9.7130      10.600      11.412      12.080      12.490      12.560      12.326      11.934      11.583      11.444    
  11.583      11.934      12.326      12.560      12.490      12.080      11.412      10.600      9.7130      8.8189    
  7.9793      7.2435      6.6460      6.2082      5.9420      5.8527      5.9419      6.2082      6.6460      7.2436    
  7.9795      8.8190      9.0782      10.063      11.008      11.850      12.490      12.869      13.015      13.018    
  12.986      12.986      13.018      13.014      12.869      12.490      11.850      11.008      10.063      9.0782    
  8.1128      7.2205      6.4427      5.8065      5.3255      5.0047      4.8446      4.8446      5.0047      5.3255    
  5.8064      6.4427      7.2205      8.1128      8.7526      9.8793      11.008      12.080      13.007      13.722    
  14.211      14.489      14.579      14.489      14.211      13.722      13.007      12.080      11.008      9.8792    
  8.7525      7.6798      6.7066      5.8663      5.1776      4.6470      4.2730      4.0512      3.9778      4.0513    
  4.2731      4.6470      5.1775      5.8661      6.7064      7.6798      8.7525      10.063      11.412      12.737    
  13.943      14.933      15.634      15.997      15.997      15.634      14.933      13.943      12.737      11.412    
  10.063      8.7525      7.5340      6.4482      5.5210      4.7634      4.1738      3.7439      3.4640      3.3262    
  3.3261      3.4640      3.7439      4.1738      4.7634      5.5210      6.4482      7.5340      9.0780      10.600    
  12.181      13.733      15.143      16.275      17.010      17.264      17.010      16.275      15.143      13.733    
  12.181      10.600      9.0782      7.6798      6.4482      5.4062      4.5586      3.8962      3.4034      3.0642    
  2.8658      2.8005      2.8658      3.0641      3.4033      3.8962      4.5587      5.4065      6.4483      7.6797    
  9.7130      11.451      13.238      14.952      16.446      17.561      18.159      18.159      17.561      16.446    
  14.952      13.238      11.451      9.7130      8.1128      6.7066      5.5210      4.5586      3.8048      3.2372    
  2.8329      2.5734      2.4466      2.4466      2.5734      2.8329      3.2372      3.8048      4.5586      5.5210    
  6.7066      8.1128      10.622      12.550      14.483      16.266      17.723      18.681      19.016      18.681    
  17.723      16.266      14.483      12.550      10.622      8.8189      7.2205      5.8663      4.7634      3.8962    
  3.2372      2.7573      2.4316      2.2429      2.1810      2.2429      2.4317      2.7574      3.2373      3.8961    
  4.7632      5.8661      7.2204      8.8190      11.744      13.806      15.802      17.549      18.856      19.558    
  19.558      18.856      17.549      15.802      13.806      11.744      9.7668      7.9793      6.4427      5.1776    
  4.1738      3.4034      2.8329      2.4316      2.1764      2.0523      2.0523      2.1764      2.4317      2.8329    
  3.4034      4.1738      5.1775      6.4427      7.9793      9.7668      12.993      15.107      17.070      18.681    
  19.746      20.119      19.746      18.681      17.070      15.107      12.993      10.898      8.9541      7.2435    
  5.8065      4.6470      3.7439      3.0642      2.5734      2.2429      2.0523      1.9900      2.0523      2.2429    
  2.5734      3.0641      3.7439      4.6470      5.8066      7.2436      8.9541      10.898      14.249      16.325    
  18.159      19.538      20.281      20.281      19.538      18.159      16.325      14.249      12.121      10.084    
  8.2400      6.6460      5.3255      4.2730      3.4640      2.8658      2.4466      2.1810      2.0523      2.0523    
  2.1810      2.4466      2.8658      3.4640      4.2730      5.3255      6.6460      8.2400      10.085      12.121    
  15.364      17.264      18.817      19.840      20.198      19.840      18.817      17.264      15.364      13.307    
  11.271      9.3690      7.6681      6.2082      5.0047      4.0512      3.3262      2.8005      2.4466      2.2429    
  2.1764      2.2429      2.4466      2.8005      3.3261      4.0513      5.0047      6.2082      7.6680      9.3690    
  11.271      13.308      15.997      17.493      18.599      19.191      19.191      18.599      17.493      15.997    
  14.247      12.378      10.529      8.8099      7.2699      5.9420      4.8446      3.9778      3.3261      2.8658    
  2.5734      2.4317      2.4317      2.5734      2.8658      3.3261      3.9778      4.8446      5.9420      7.2700    
  8.8100      10.529      12.378      14.247      15.646      16.538      17.110      17.309      17.110      16.538    
  15.646      14.489      13.112      11.572      9.9759      8.4539      7.0658      5.8527      4.8446      4.0513    
  3.4640      3.0641      2.8329      2.7574      2.8329      3.0641      3.4640      4.0513      4.8446      5.8527    
  7.0658      8.4540      9.9760      11.572      13.111      14.489      13.912      14.101      14.190      14.190    
  14.101      13.912      13.577      13.018      12.165      11.016      9.6799      8.3316      7.0658      5.9419    
  5.0047      4.2731      3.7439      3.4033      3.2372      3.2373      3.4034      3.7439      4.2730      5.0047    
  5.9420      7.0658      8.3315      9.6798      11.016      12.165      13.018      13.577      10.676      10.232    
  10.069      10.232      10.676      11.258      11.758      11.934      11.623      10.817      9.6799      8.4540    
  7.2699      6.2082      5.3255      4.6470      4.1738      3.8962      3.8048      3.8961      4.1738      4.6470    
  5.3255      6.2082      7.2700      8.4540      9.6798      10.817      11.623      11.934      11.758      11.258    
  6.2476      5.4504      5.4505      6.2477      7.6407      9.2655      10.687      11.534      11.623      11.016    
  9.9759      8.8100      7.6682      6.6460      5.8064      5.1775      4.7634      4.5587      4.5586      4.7632    
  5.1775      5.8066      6.6460      7.6680      8.8100      9.9760      11.016      11.623      11.533      10.687    
  9.2657      7.6408      1.3992     0.72129      1.3992      3.2629      5.8473      8.5238      10.687      11.934    
  12.165      11.572      10.529      9.3690      8.2400      7.2436      6.4427      5.8661      5.5210      5.4065    
  5.5210      5.8661      6.4427      7.2436      8.2400      9.3690      10.529      11.572      12.165      11.934    
  10.687      8.5238      5.8472      3.2628     -2.7787     -2.7787     -.98064      2.1528      5.8473      9.2657    
  11.758      13.018      13.112      12.378      11.271      10.084      8.9541      7.9795      7.2205      6.7064    
  6.4482      6.4483      6.7066      7.2204      7.9793      8.9541      10.085      11.271      12.378      13.111    
  13.018      11.758      9.2657      5.8472      2.1527     -.98059     -5.2052     -4.0722     -.98061      3.2627    
  7.6407      11.258      13.577      14.489      14.247      13.307      12.121      10.898      9.7668      8.8190    
  8.1128      7.6798      7.5340      7.6797      8.1128      8.8190      9.7668      10.898      12.121      13.308    
  14.247      14.489      13.577      11.258      7.6408      3.2628     -.98059     -4.0723     -1.9373      1.3993    
  5.9052      10.456      14.124      16.414      17.279      17.010      16.067      14.863      13.579      12.343    
  11.265      10.432      9.9065      9.7272      9.9065      10.432      11.265      12.343      13.579      14.863    
  16.067      17.010      17.278      16.414      14.124      10.456      5.9053      1.3994     -1.9373     -3.1708    
  1.3993      5.4506      10.069      14.190      17.110      18.599      18.817      18.159      17.070      15.801    
  14.483      13.238      12.181      11.412      11.008      11.008      11.412      12.181      13.238      14.483    
  15.802      17.070      18.159      18.817      18.599      17.110      14.190      10.069      5.4505      1.3992    
 -.98065     -.98062      5.9052      10.069      14.208      17.477      19.463      20.169      19.884      19.016    
  17.865      16.558      15.216      13.969      12.946      12.271      12.034      12.271      12.947      13.969    
  15.216      16.558      17.865      19.016      19.884      20.169      19.463      17.477      14.208      10.069    
  5.9053      2.7867      1.6271      2.7867      10.456      14.190      17.477      19.765      20.896      21.026    
  20.481      19.558      18.380      17.048      15.677      14.405      13.406      12.854      12.854      13.406    
  14.405      15.677      17.048      18.379      19.558      20.481      21.026      20.896      19.765      17.477    
  14.190      10.456      7.1491      5.1954      5.1953      7.1489      14.124      17.110      19.463      20.896    
  21.426      21.271      20.677      19.746      18.549      17.151      15.672      14.327      13.375      13.030    
  13.375      14.327      15.672      17.151      18.549      19.746      20.677      21.271      21.426      20.896    
  19.463      17.110      14.124      11.111      8.8494      8.0074      8.8494      11.111      16.414      18.599    
  20.169      21.026      21.271      21.068      20.481      19.538      18.238      16.655      15.002      13.605    
  12.798      12.798      13.605      15.002      16.655      18.238      19.538      20.481      21.068      21.271    
  21.026      20.169      18.599      16.414      13.967      11.815      10.549      10.549      11.816      13.967    
  17.279      18.817      19.884      20.481      20.677      20.481      19.884      18.817      17.279      15.436    
  13.631      12.297      11.805      12.297      13.631      15.436      17.279      18.817      19.884      20.481    
  20.677      20.481      19.884      18.817      17.279      15.436      13.631      12.297      11.805      12.297    
  13.631      15.436      17.010      18.159      19.016      19.558      19.746      19.538      18.817      17.493    
  15.646      13.577      11.758      10.687      10.687      11.758      13.577      15.646      17.493      18.817    
  19.538      19.746      19.558      19.016      18.159      17.010      15.634      14.211      13.015      12.326    
  12.326      13.014      14.211      15.634      16.067      17.070      17.865      18.380      18.549      18.238    
  17.279      15.646      13.546      11.414      9.8114      9.2142      9.8113      11.414      13.546      15.646    
  17.278      18.238      18.549      18.380      17.865      17.070      16.067      14.942      13.795      12.776    
  12.064      11.808      12.064      12.776      13.795      14.942      14.863      15.801      16.558      17.048    
  17.151      16.655      15.436      13.577      11.414      9.4804      8.3334      8.3334      9.4803      11.414    
  13.577      15.436      16.655      17.151      17.048      16.558      15.802      14.863      13.831      12.806    
  11.895      11.205      10.830      10.830      11.205      11.895      12.806      13.831      13.579      14.483    
  15.216      15.677      15.672      15.002      13.631      11.758      9.8114      8.3334      7.7810      8.3333    
  9.8113      11.758      13.630      15.002      15.672      15.677      15.216      14.483      13.579      12.597    
  11.628      10.759      10.069      9.6256      9.4725      9.6256      10.069      10.759      11.628      12.597    
  12.343      13.238      13.969      14.405      14.327      13.605      12.297      10.687      9.2142      8.3334    
  8.3333      9.2142      10.687      12.297      13.605      14.327      14.405      13.969      13.238      12.343    
  11.379      10.433      9.5826      8.8891      8.4002      8.1478      8.1478      8.4003      8.8891      9.5825    
  10.433      11.379      11.265      12.181      12.946      13.406      13.375      12.798      11.805      10.687    
  9.8113      9.4803      9.8113      10.687      11.805      12.798      13.375      13.406      12.946      12.181    