    2    2   15    1
  0.1490272E+02  0.3480194E-09  0.3480194E-09  0.3480194E-09  0.5000000E-15
  1.000000000000000E-004
  CAR 
 unknown system                          
      8     60      8
 
  0.6250000E-01  0.6250000E-01  0.6250000E-01  0.3906250E-02
    1       -4.955509   1.000000
    2        8.653186   0.999892
    3        9.129751   0.629242
    4        9.129751   0.629242
    5       12.045003   0.000000
    6       12.045003   0.000000
    7       12.095400   0.000000
    8       16.540399   0.000000
 
  0.1875000E+00  0.6250000E-01  0.6250000E-01  0.1171875E-01
    1       -4.608359   1.000000
    2        6.943843   1.000000
    3        8.030414   1.000000
    4        9.028767   0.851738
    5       12.329992   0.000000
    6       12.533825   0.000000
    7       12.935986   0.000000
    8       15.771604   0.000000
 
  0.3125000E+00  0.6250000E-01  0.6250000E-01  0.1171875E-01
    1       -3.759967   1.000000
    2        4.169604   1.000000
    3        7.479775   1.000000
    4        8.453017   1.000000
    5       12.440877   0.000000
    6       12.721375   0.000000
    7       13.106095   0.000000
    8       16.015585   0.000000
 
  0.4375000E+00  0.6250000E-01  0.6250000E-01  0.1171875E-01
    1       -2.517159   1.000000
    2        1.717904   1.000000
    3        7.273029   1.000000
    4        7.939436   1.000000
    5       12.158318   0.000000
    6       12.507683   0.000000
    7       12.591488   0.000000
    8       17.710025   0.000000
 
 -0.4375000E+00  0.6250000E-01  0.6250000E-01  0.1171875E-01
    1       -1.812479   1.000000
    2        0.702869   1.000000
    3        7.386958   1.000000
    4        7.635893   1.000000
    5       11.929883   0.000000
    6       12.409797   0.000000
    7       12.567500   0.000000
    8       17.593087   0.000000
 
 -0.3125000E+00  0.6250000E-01  0.6250000E-01  0.1171875E-01
    1       -2.956784   1.000000
    2        2.463909   1.000000
    3        7.613833   1.000000
    4        7.764425   1.000000
    5       12.000792   0.000000
    6       12.581799   0.000000
    7       13.042074   0.000000
    8       16.766694   0.000000
 
 -0.1875000E+00  0.6250000E-01  0.6250000E-01  0.1171875E-01
    1       -4.095096   1.000000
    2        5.085357   1.000000
    3        7.917770   1.000000
    4        8.331797   1.000000
    5       12.132781   0.000000
    6       12.881586   0.000000
    7       13.465505   0.000000
    8       15.228448   0.000000
 
 -0.6250000E-01  0.6250000E-01  0.6250000E-01  0.1171875E-01
    1       -4.781370   1.000000
    2        7.839678   1.000000
    3        8.518926   0.999998
    4        8.869123   0.985101
    5       11.687290   0.000000
    6       12.739559   0.000000
    7       12.844962   0.000000
    8       15.645235   0.000000
 
  0.1875000E+00  0.1875000E+00  0.6250000E-01  0.1171875E-01
    1       -4.434404   1.000000
    2        6.934016   1.000000
    3        7.771741   1.000000
    4        8.086501   1.000000
    5       11.123055   0.000000
    6       13.822524   0.000000
    7       13.954027   0.000000
    8       14.139803   0.000000
 
  0.3125000E+00  0.1875000E+00  0.6250000E-01  0.2343750E-01
    1       -3.750937   1.000000
    2        5.160224   1.000000
    3        6.541362   1.000000
    4        7.702110   1.000000
    5       11.325577   0.000000
    6       13.266299   0.000000
    7       14.254553   0.000000
    8       14.911855   0.000000
 
  0.4375000E+00  0.1875000E+00  0.6250000E-01  0.2343750E-01
    1       -2.616920   1.000000
    2        2.683043   1.000000
    3        6.082510   1.000000
    4        7.083754   1.000000
    5       11.444958   0.000000
    6       13.457059   0.000000
    7       14.596962   0.000000
    8       15.210902   0.000000
 
 -0.4375000E+00  0.1875000E+00  0.6250000E-01  0.2343750E-01
    1       -1.472082   1.000000
    2        0.956278   1.000000
    3        5.761876   1.000000
    4        6.930704   1.000000
    5       11.570199   0.000000
    6       12.970264   0.000000
    7       14.600193   0.000000
    8       17.540779   0.000000
 
 -0.3125000E+00  0.1875000E+00  0.6250000E-01  0.2343750E-01
    1       -2.183025   1.000000
    2        1.967264   1.000000
    3        5.587352   1.000000
    4        7.349881   1.000000
    5       12.107037   0.000000
    6       12.726071   0.000000
    7       14.571233   0.000000
    8       16.424302   0.000000
 
 -0.1875000E+00  0.1875000E+00  0.6250000E-01  0.2343750E-01
    1       -3.420706   1.000000
    2        4.310635   1.000000
    3        5.804339   1.000000
    4        8.068479   1.000000
    5       12.532279   0.000000
    6       12.976212   0.000000
    7       14.430151   0.000000
    8       14.561285   0.000000
 
 -0.6250000E-01  0.1875000E+00  0.6250000E-01  0.2343750E-01
    1       -4.263836   1.000000
    2        6.032970   1.000000
    3        7.276874   1.000000
    4        8.585809   0.999985
    5       11.906136   0.000000
    6       13.326359   0.000000
    7       13.679319   0.000000
    8       14.598593   0.000000
 
  0.3125000E+00  0.3125000E+00  0.6250000E-01  0.1171875E-01
    1       -3.234897   1.000000
    2        4.862950   1.000000
    3        6.345111   1.000000
    4        6.498398   1.000000
    5       10.010648   0.000000
    6       11.526438   0.000000
    7       16.394047   0.000000
    8       16.436343   0.000000
 
  0.4375000E+00  0.3125000E+00  0.6250000E-01  0.2343750E-01
    1       -2.244368   1.000000
    2        3.322635   1.000000
    3        5.252426   1.000000
    4        6.000394   1.000000
    5       10.325702   0.000000
    6       11.492396   0.000000
    7       16.240270   0.000000
    8       17.674597   0.000000
 
 -0.4375000E+00  0.3125000E+00  0.6250000E-01  0.2343750E-01
    1       -0.974800   1.000000
    2        1.625920   1.000000
    3        4.142561   1.000000
    4        5.970864   1.000000
    5       10.504865   0.000000
    6       13.641369   0.000000
    7       15.645506   0.000000
    8       17.685103   0.000000
 
 -0.3125000E+00  0.3125000E+00  0.6250000E-01  0.2343750E-01
    1       -1.041366   1.000000
    2        1.732345   1.000000
    3        3.608471   1.000000
    4        6.452860   1.000000
    5       11.063396   0.000000
    6       14.766695   0.000000
    7       16.066764   0.000000
    8       16.758614   0.000000
 
 -0.1875000E+00  0.3125000E+00  0.6250000E-01  0.2343750E-01
    1       -2.298469   1.000000
    2        2.846825   1.000000
    3        4.513143   1.000000
    4        7.274149   1.000000
    5       12.013982   0.000000
    6       13.535702   0.000000
    7       15.090546   0.000000
    8       15.675484   0.000000
 
 -0.6250000E-01  0.3125000E+00  0.6250000E-01  0.2343750E-01
    1       -3.263863   1.000000
    2        3.363414   1.000000
    3        6.817633   1.000000
    4        7.957016   1.000000
    5       12.109666   0.000000
    6       12.907492   0.000000
    7       13.729112   0.000000
    8       15.474828   0.000000
 
  0.4375000E+00  0.4375000E+00  0.6250000E-01  0.1171875E-01
    1       -1.403872   1.000000
    2        2.265258   1.000000
    3        5.398663   1.000000
    4        5.750061   1.000000
    5        9.357062   0.100716
    6       10.016431   0.000000
    7       18.914913   0.000000
    8       19.196725   0.000000
 
 -0.4375000E+00  0.4375000E+00  0.6250000E-01  0.2343750E-01
    1       -0.181650   1.000000
    2        1.006232   1.000000
    3        4.554794   1.000000
    4        5.366026   1.000000
    5        9.836184   0.000002
    6       10.785678   0.000000
    7       18.619037   0.000000
    8       19.856930   0.000000
 
 -0.3125000E+00  0.4375000E+00  0.6250000E-01  0.2343750E-01
    1       -0.173735   1.000000
    2        1.133728   1.000000
    3        3.480784   1.000000
    4        5.787995   1.000000
    5       10.311918   0.000000
    6       13.515877   0.000000
    7       16.772753   0.000000
    8       18.052400   0.000000
 
 -0.1875000E+00  0.4375000E+00  0.6250000E-01  0.2343750E-01
    1       -1.144806   1.000000
    2        1.178993   1.000000
    3        4.608674   1.000000
    4        6.605926   1.000000
    5       11.236009   0.000000
    6       13.822721   0.000000
    7       15.639604   0.000000
    8       17.496670   0.000000
 
 -0.6250000E-01  0.4375000E+00  0.6250000E-01  0.2343750E-01
    1       -1.987591   1.000000
    2        1.182644   1.000000
    3        6.690520   1.000000
    4        7.474784   1.000000
    5       12.034050   0.000000
    6       12.367824   0.000000
    7       13.460113   0.000000
    8       17.676351   0.000000
 
 -0.4375000E+00 -0.4375000E+00  0.6250000E-01  0.1171875E-01
    1       -0.280527   1.000000
    2        0.954915   1.000000
    3        5.219855   1.000000
    4        5.598080   1.000000
    5        9.247745   0.306957
    6        9.696708   0.000117
    7       20.233436   0.000000
    8       20.537172   0.000000
 
 -0.3125000E+00 -0.4375000E+00  0.6250000E-01  0.2343750E-01
    1       -1.272190   1.000000
    2        2.202657   1.000000
    3        4.789069   1.000000
    4        5.564168   1.000000
    5       10.003428   0.000000
    6       11.015373   0.000000
    7       17.377379   0.000000
    8       19.074634   0.000000
 
 -0.1875000E+00 -0.4375000E+00  0.6250000E-01  0.2343750E-01
    1       -1.838958   1.000000
    2        2.119794   1.000000
    3        5.143907   1.000000
    4        6.372334   1.000000
    5       10.887571   0.000000
    6       13.782530   0.000000
    7       14.801949   0.000000
    8       16.355756   0.000000
 
 -0.3125000E+00 -0.3125000E+00  0.6250000E-01  0.1171875E-01
    1       -2.393691   1.000000
    2        3.596618   1.000000
    3        5.765625   1.000000
    4        6.051872   1.000000
    5        9.610921   0.001061
    6       10.627062   0.000000
    7       17.638477   0.000000
    8       17.811385   0.000000
 
 -0.1875000E+00 -0.3125000E+00  0.6250000E-01  0.2343750E-01
    1       -3.075010   1.000000
    2        4.289869   1.000000
    3        5.865216   1.000000
    4        6.743330   1.000000
    5       10.778590   0.000000
    6       12.240614   0.000000
    7       15.202041   0.000000
    8       16.270424   0.000000
 
 -0.1875000E+00 -0.1875000E+00  0.6250000E-01  0.1171875E-01
    1       -3.917404   1.000000
    2        5.971171   1.000000
    3        7.079037   1.000000
    4        7.155510   1.000000
    5       10.531630   0.000000
    6       12.713659   0.000000
    7       15.092495   0.000000
    8       15.161529   0.000000
 
  0.1875000E+00  0.1875000E+00  0.1875000E+00  0.3906250E-02
    1       -4.436682   1.000000
    2        6.003568   1.000000
    3        8.559460   0.999994
    4        8.559460   0.999994
    5       12.299714   0.000000
    6       12.799974   0.000000
    7       12.799975   0.000000
    8       16.223550   0.000000
 
  0.3125000E+00  0.1875000E+00  0.1875000E+00  0.1171875E-01
    1       -3.924549   1.000000
    2        5.136510   1.000000
    3        6.526091   1.000000
    4        8.668694   0.999835
    5       12.895494   0.000000
    6       12.928623   0.000000
    7       13.372721   0.000000
    8       15.152535   0.000000
 
  0.4375000E+00  0.1875000E+00  0.1875000E+00  0.1171875E-01
    1       -2.932743   1.000000
    2        3.530716   1.000000
    3        5.103492   1.000000
    4        7.982152   1.000000
    5       12.170614   0.000000
    6       13.758558   0.000000
    7       14.276019   0.000000
    8       15.404978   0.000000
 
 -0.4375000E+00  0.1875000E+00  0.1875000E+00  0.1171875E-01
    1       -1.659649   1.000000
    2        1.435706   1.000000
    3        5.072010   1.000000
    4        7.253894   1.000000
    5       11.294502   0.000000
    6       13.942596   0.000000
    7       14.445799   0.000000
    8       17.760156   0.000000
 
 -0.3125000E+00  0.1875000E+00  0.1875000E+00  0.1171875E-01
    1       -1.645539   1.000000
    2        1.408093   1.000000
    3        5.521944   1.000000
    4        6.806646   1.000000
    5       10.825614   0.000000
    6       14.373652   0.000000
    7       14.423623   0.000000
    8       16.188986   0.000000
 
 -0.1875000E+00  0.1875000E+00  0.1875000E+00  0.1171875E-01
    1       -2.920070   1.000000
    2        3.511700   1.000000
    3        6.311034   1.000000
    4        6.740945   1.000000
    5       10.788495   0.000000
    6       13.203072   0.000000
    7       15.045783   0.000000
    8       15.246908   0.000000
 
  0.3125000E+00  0.3125000E+00  0.1875000E+00  0.1171875E-01
    1       -3.587345   1.000000
    2        4.255078   1.000000
    3        7.286299   1.000000
    4        7.452098   1.000000
    5       11.483925   0.000000
    6       13.678627   0.000000
    7       14.211428   0.000000
    8       14.346757   0.000000
 
  0.4375000E+00  0.3125000E+00  0.1875000E+00  0.2343750E-01
    1       -2.759503   1.000000
    2        3.555905   1.000000
    3        5.175539   1.000000
    4        7.051290   1.000000
    5       12.003069   0.000000
    6       13.083595   0.000000
    7       14.058678   0.000000
    8       15.996374   0.000000
 
 -0.4375000E+00  0.3125000E+00  0.1875000E+00  0.2343750E-01
    1       -1.538882   1.000000
    2        2.249510   1.000000
    3        4.068076   1.000000
    4        6.202581   1.000000
    5       12.349295   0.000000
    6       13.238064   0.000000
    7       14.709134   0.000000
    8       17.171352   0.000000
 
 -0.3125000E+00  0.3125000E+00  0.1875000E+00  0.2343750E-01
    1       -0.807401   1.000000
    2        1.311761   1.000000
    3        4.187574   1.000000
    4        5.734486   1.000000
    5       11.790935   0.000000
    6       13.564052   0.000000
    7       15.551406   0.000000
    8       17.441609   0.000000
 
 -0.1875000E+00  0.3125000E+00  0.1875000E+00  0.2343750E-01
    1       -1.953199   1.000000
    2        2.823049   1.000000
    3        4.653145   1.000000
    4        6.002125   1.000000
    5       11.555894   0.000000
    6       12.720033   0.000000
    7       14.620275   0.000000
    8       17.495066   0.000000
 
  0.4375000E+00  0.4375000E+00  0.1875000E+00  0.1171875E-01
    1       -2.104573   1.000000
    2        2.800876   1.000000
    3        5.175194   1.000000
    4        6.315057   1.000000
    5       10.203542   0.000000
    6       12.629150   0.000000
    7       15.997590   0.000000
    8       16.564682   0.000000
 
 -0.4375000E+00  0.4375000E+00  0.1875000E+00  0.2343750E-01
    1       -1.023453   1.000000
    2        2.012362   1.000000
    3        4.238673   1.000000
    4        5.227632   1.000000
    5       11.239532   0.000000
    6       12.378380   0.000000
    7       15.571203   0.000000
    8       18.784210   0.000000
 
 -0.3125000E+00  0.4375000E+00  0.1875000E+00  0.2343750E-01
    1        0.126600   1.000000
    2        1.092165   1.000000
    3        3.695309   1.000000
    4        4.495656   1.000000
    5       12.545966   0.000000
    6       13.547968   0.000000
    7       15.120357   0.000000
    8       16.192104   0.000000
 
 -0.1875000E+00  0.4375000E+00  0.1875000E+00  0.2343750E-01
    1       -0.695709   1.000000
    2        1.687702   1.000000
    3        3.792170   1.000000
    4        5.168222   1.000000
    5       12.586120   0.000000
    6       13.325033   0.000000
    7       14.598091   0.000000
    8       17.399200   0.000000
 
 -0.4375000E+00 -0.4375000E+00  0.1875000E+00  0.1171875E-01
    1       -0.148523   1.000000
    2        1.042156   1.000000
    3        3.856589   1.000000
    4        5.877787   1.000000
    5        9.590348   0.001711
    6       12.070103   0.000000
    7       18.313151   0.000000
    8       19.162397   0.000000
 
 -0.3125000E+00 -0.4375000E+00  0.1875000E+00  0.2343750E-01
    1       -0.017213   1.000000
    2        1.068197   1.000000
    3        3.988233   1.000000
    4        4.863139   1.000000
    5       11.076816   0.000000
    6       12.201140   0.000000
    7       16.716180   0.000000
    8       17.990304   0.000000
 
 -0.3125000E+00 -0.3125000E+00  0.1875000E+00  0.1171875E-01
    1       -1.161674   1.000000
    2        1.998172   1.000000
    3        4.296888   1.000000
    4        6.024663   1.000000
    5        9.796557   0.000006
    6       12.254184   0.000000
    7       17.085471   0.000000
    8       17.907001   0.000000
 
  0.3125000E+00  0.3125000E+00  0.3125000E+00  0.3906250E-02
    1       -3.434453   1.000000
    2        3.250408   1.000000
    3        8.070280   1.000000
    4        8.070280   1.000000
    5       12.041230   0.000000
    6       12.740513   0.000000
    7       12.740513   0.000000
    8       17.316041   0.000000
 
  0.4375000E+00  0.3125000E+00  0.3125000E+00  0.1171875E-01
    1       -2.789443   1.000000
    2        2.589411   1.000000
    3        6.201816   1.000000
    4        7.978990   1.000000
    5       12.224390   0.000000
    6       13.026015   0.000000
    7       13.394881   0.000000
    8       16.616093   0.000000
 
 -0.4375000E+00  0.3125000E+00  0.3125000E+00  0.1171875E-01
    1       -1.712144   1.000000
    2        2.230822   1.000000
    3        3.971127   1.000000
    4        7.158575   1.000000
    5       11.130417   0.000000
    6       14.955138   0.000000
    7       15.359315   0.000000
    8       16.378442   0.000000
 
 -0.3125000E+00  0.3125000E+00  0.3125000E+00  0.1171875E-01
    1       -0.542204   1.000000
    2        1.346796   1.000000
    3        3.375366   1.000000
    4        6.416254   1.000000
    5       10.228522   0.000000
    6       14.864812   0.000000
    7       16.490884   0.000000
    8       17.794833   0.000000
 
  0.4375000E+00  0.4375000E+00  0.3125000E+00  0.1171875E-01
    1       -2.345969   1.000000
    2        1.839397   1.000000
    3        6.765115   1.000000
    4        7.172792   1.000000
    5       11.390706   0.000000
    6       13.480852   0.000000
    7       13.598162   0.000000
    8       16.303501   0.000000
 
 -0.4375000E+00  0.4375000E+00  0.3125000E+00  0.2343750E-01
    1       -1.487062   1.000000
    2        1.525695   1.000000
    3        4.949768   1.000000
    4        6.433897   1.000000
    5       12.043762   0.000000
    6       12.844945   0.000000
    7       15.576189   0.000000
    8       16.487282   0.000000
 
 -0.3125000E+00  0.4375000E+00  0.3125000E+00  0.2343750E-01
    1       -0.370497   1.000000
    2        1.351880   1.000000
    3        3.492467   1.000000
    4        5.424648   1.000000
    5       11.643190   0.000000
    6       14.318047   0.000000
    7       15.590250   0.000000
    8       16.457314   0.000000
 
 -0.4375000E+00 -0.4375000E+00  0.3125000E+00  0.1171875E-01
    1       -0.967055   1.000000
    2        1.230400   1.000000
    3        4.297259   1.000000
    4        6.548817   1.000000
    5       10.429407   0.000000
    6       14.832250   0.000000
    7       15.345691   0.000000
    8       16.777433   0.000000
 
  0.4375000E+00  0.4375000E+00  0.4375000E+00  0.3906250E-02
    1       -2.157286   1.000000
    2        1.049581   1.000000
    3        7.824489   1.000000
    4        7.824489   1.000000
    5       11.852322   0.000000
    6       12.348571   0.000000
    7       12.348571   0.000000
    8       17.335512   0.000000
 
 -0.4375000E+00  0.4375000E+00  0.4375000E+00  0.1171875E-01
    1       -1.643108   1.000000
    2        0.835925   1.000000
    3        6.311399   1.000000
    4        7.426129   1.000000
    5       11.596067   0.000000
    6       13.120451   0.000000
    7       13.352460   0.000000
    8       18.394619   0.000000
