       N       E                     dE             d eps       ncg     rms          rms(c)
DAV:   1     0.513819078577E+01    0.51382E+01   -0.28207E+03   960   0.577E+02
DAV:   2    -0.969466570301E+01   -0.14833E+02   -0.14264E+02  1512   0.758E+01
DAV:   3    -0.983100842943E+01   -0.13634E+00   -0.13634E+00  1192   0.944E+00
DAV:   4    -0.983139996610E+01   -0.39154E-03   -0.39154E-03  1584   0.509E-01
DAV:   5    -0.983140013053E+01   -0.16443E-06   -0.16416E-06  1192   0.883E-03    0.381E+00
DAV:   6    -0.953418518788E+01    0.29721E+00   -0.22417E-01  1096   0.256E+00    0.215E+00
DAV:   7    -0.941977593321E+01    0.11441E+00   -0.31416E-01  1168   0.315E+00    0.213E-01
DAV:   8    -0.942099203672E+01   -0.12161E-02   -0.70513E-03  1200   0.668E-01    0.410E-02
DAV:   9    -0.942099498922E+01   -0.29525E-05   -0.20661E-04   880   0.107E-01
   1 F= -.94209950E+01 E0= -.94192398E+01  d E =-.942099E+01
