 running on    8 total cores
 distrk:  each k-point on    8 cores,    1 groups
 distr:  one band on    1 cores,    8 groups
 using from now: INCAR     
 vasp.5.4.4.18Apr17-6-g9f103f2a35 (build Dec 09 2018 21:25:21) complex          
  
 POSCAR found type information on POSCAR  Si
 POSCAR found :  1 types and       2 ions
 scaLAPACK will be used

 ----------------------------------------------------------------------------- 
|                                                                             |
|           W    W    AA    RRRRR   N    N  II  N    N   GGGG   !!!           |
|           W    W   A  A   R    R  NN   N  II  NN   N  G    G  !!!           |
|           W    W  A    A  R    R  N N  N  II  N N  N  G       !!!           |
|           W WW W  AAAAAA  RRRRR   N  N N  II  N  N N  G  GGG   !            |
|           WW  WW  A    A  R   R   N   NN  II  N   NN  G    G                |
|           W    W  A    A  R    R  N    N  II  N    N   GGGG   !!!           |
|                                                                             |
|      For optimal performance we recommend to set                            |
|        NCORE= 4 - approx SQRT( number of cores)                             |
|      NCORE specifies how many cores store one orbital (NPAR=cpu/NCORE).     |
|      This setting can  greatly improve the performance of VASP for DFT.     |
|      The default,   NCORE=1            might be grossly inefficient         |
|      on modern multi-core architectures or massively parallel machines.     |
|      Do your own testing !!!!                                               |
|      Unfortunately you need to use the default for GW and RPA calculations. |
|      (for HF NCORE is supported but not extensively tested yet)             |
|                                                                             |
 ----------------------------------------------------------------------------- 

 LDA part: xc-table for Pade appr. of Perdew
 POSCAR, INCAR and KPOINTS ok, starting setup
 FFT: planning ...
 WAVECAR not read
 entering main loop
       N       E                     dE             d eps       ncg     rms          rms(c)
DAV:   1     0.513819078577E+01    0.51382E+01   -0.28207E+03   960   0.577E+02
DAV:   2    -0.969466570301E+01   -0.14833E+02   -0.14264E+02  1512   0.758E+01
DAV:   3    -0.983100842943E+01   -0.13634E+00   -0.13634E+00  1192   0.944E+00
DAV:   4    -0.983139996610E+01   -0.39154E-03   -0.39154E-03  1584   0.509E-01
DAV:   5    -0.983140013053E+01   -0.16443E-06   -0.16416E-06  1192   0.883E-03    0.381E+00
DAV:   6    -0.953418518788E+01    0.29721E+00   -0.22417E-01  1096   0.256E+00    0.215E+00
DAV:   7    -0.941977593321E+01    0.11441E+00   -0.31416E-01  1168   0.315E+00    0.213E-01
DAV:   8    -0.942099203672E+01   -0.12161E-02   -0.70513E-03  1200   0.668E-01    0.410E-02
DAV:   9    -0.942099498922E+01   -0.29525E-05   -0.20661E-04   880   0.107E-01
   1 F= -.94209950E+01 E0= -.94192398E+01  d E =-.942099E+01
 curvature:   0.00 expect dE= 0.000E+00 dE for cont linesearch  0.000E+00
 trial: gam= 0.00000 g(F)=  0.451E-46 g(S)=  0.000E+00 ort = 0.000E+00 (trialstep = 0.100E+01)
 search vector abs. value=  0.100E-09
 reached required accuracy - stopping structural energy minimisation
 writing wavefunctions
