unknown system                          
   1.00000000000000     
     0.000000    2.871014    2.871014
     2.871014    0.000000    2.871014
     2.871014    2.871014    0.000000
   Si
     2
Direct
  0.000000  0.000000  0.000000
  0.250000  0.250000  0.250000
 
   40   40   40
 -8.2137     -6.8040     -2.9200      2.5199      8.3198      13.358      16.862      18.536      18.541      17.364    
  15.633      13.823      12.109      10.589      9.3106      8.2806      7.4818      6.8890      6.4797      6.2388    
  6.1592      6.2388      6.4796      6.8890      7.4818      8.2806      9.3106      10.589      12.109      13.823    
  15.633      17.364      18.541      18.536      16.862      13.358      8.3197      2.5199     -2.9199     -6.8040    
 -6.8040     -4.0050     0.89452      6.7415      12.301      16.599      19.121      19.842      19.132      17.582    
  15.780      14.008      12.384      10.979      9.8163      8.8908      8.1823      7.6683      7.3325      7.1661    
  7.1661      7.3324      7.6683      8.1823      8.8908      9.8163      10.979      12.384      14.008      15.780    
  17.582      19.132      19.842      19.121      16.599      12.301      6.7415     0.89453     -4.0050     -6.8041    
 -2.9200     0.89452      6.1691      11.686      16.348      19.454      20.788      20.570      19.306      17.596    
  15.837      14.175      12.693      11.435      10.407      9.5958      8.9831      8.5524      8.2955      8.2099    
  8.2955      8.5524      8.9831      9.5959      10.407      11.435      12.693      14.174      15.837      17.596    
  19.306      20.570      20.788      19.454      16.348      11.686      6.1691     0.89459     -2.9199     -4.3133    
  2.5199      6.7415      11.686      16.248      19.602      21.362      21.586      20.661      19.132      17.465    
  15.838      14.348      13.048      11.958      11.073      10.379      9.8621      9.5160      9.3417      9.3417    
  9.5160      9.8621      10.379      11.073      11.958      13.048      14.348      15.838      17.465      19.132    
  20.661      21.586      21.362      19.602      16.248      11.686      6.7416      2.5200     0.82345E-01 0.82298E-01
  8.3198      12.301      16.348      19.602      21.555      22.112      21.527      20.253      18.755      17.244    
  15.821      14.547      13.451      12.535      11.790      11.207      10.780      10.518      10.430      10.518    
  10.780      11.207      11.790      12.535      13.451      14.547      15.821      17.244      18.755      20.253    
  21.527      22.112      21.555      19.602      16.348      12.301      8.3198      5.3930      4.3158      5.3931    
  13.358      16.599      19.454      21.362      22.112      21.824      20.845      19.586      18.266      16.986    
  15.811      14.775      13.884      13.134      12.515      12.028      11.686      11.508      11.508      11.686    
  12.028      12.515      13.134      13.884      14.775      15.811      16.986      18.265      19.586      20.845    
  21.824      22.112      21.362      19.454      16.599      13.358      10.518      8.8570      8.8570      10.518    
  16.862      19.121      20.788      21.586      21.527      20.845      19.873      18.804      17.735      16.729    
  15.821      15.018      14.316      13.706      13.190      12.786      12.524      12.432      12.524      12.786    
  13.190      13.706      14.316      15.018      15.821      16.729      17.735      18.804      19.873      20.845    
  21.527      21.586      20.788      19.121      16.862      14.542      12.798      12.150      12.798      14.542    
  18.536      19.842      20.570      20.661      20.253      19.586      18.804      17.994      17.213      16.492    
  15.838      15.244      14.697      14.195      13.758      13.425      13.243      13.243      13.425      13.758    
  14.195      14.697      15.244      15.838      16.492      17.213      17.994      18.804      19.586      20.253    
  20.661      20.570      19.842      18.536      16.935      15.477      14.608      14.608      15.478      16.935    
  18.541      19.132      19.306      19.132      18.755      18.266      17.735      17.213      16.723      16.269    
  15.837      15.408      14.972      14.545      14.170      13.907      13.811      13.907      14.170      14.545    
  14.972      15.408      15.837      16.269      16.723      17.213      17.735      18.266      18.755      19.132    
  19.306      19.132      18.541      17.622      16.615      15.833      15.538      15.833      16.615      17.622    
  17.364      17.582      17.596      17.465      17.244      16.986      16.729      16.492      16.269      16.041    
  15.780      15.465      15.100      14.720      14.392      14.199      14.199      14.392      14.720      15.100    
  15.465      15.780      16.041      16.269      16.492      16.729      16.986      17.244      17.465      17.596    
  17.582      17.364      16.920      16.332      15.774      15.433      15.432      15.773      16.332      16.920    
  15.633      15.780      15.837      15.838      15.821      15.811      15.821      15.838      15.837      15.780    
  15.633      15.386      15.054      14.698      14.420      14.315      14.420      14.698      15.054      15.386    
  15.633      15.780      15.837      15.838      15.821      15.811      15.821      15.838      15.837      15.780    
  15.633      15.386      15.054      14.698      14.420      14.315      14.420      14.698      15.054      15.386    
  13.823      14.008      14.175      14.348      14.547      14.775      15.018      15.244      15.408      15.465    
  15.386      15.166      14.843      14.520      14.319      14.319      14.520      14.843      15.166      15.386    
  15.465      15.408      15.244      15.018      14.775      14.547      14.348      14.175      14.008      13.823    
  13.601      13.344      13.078      12.853      12.723      12.723      12.853      13.078      13.344      13.601    
  12.109      12.384      12.693      13.048      13.451      13.884      14.316      14.697      14.972      15.100    
  15.054      14.843      14.547      14.293      14.193      14.293      14.547      14.843      15.054      15.100    
  14.972      14.696      14.316      13.884      13.451      13.048      12.693      12.384      12.109      11.849    
  11.595      11.351      11.140      10.994      10.942      10.994      11.140      11.351      11.595      11.849    
  10.589      10.979      11.435      11.958      12.535      13.134      13.706      14.195      14.545      14.720    
  14.698      14.520      14.293      14.139      14.139      14.293      14.520      14.698      14.720      14.545    
  14.195      13.706      13.134      12.535      11.958      11.435      10.979      10.589      10.253      9.9590    
  9.7007      9.4830      9.3212      9.2340      9.2340      9.3212      9.4830      9.7007      9.9591      10.253    
  9.3106      9.8163      10.407      11.073      11.790      12.515      13.190      13.758      14.170      14.392    
  14.420      14.319      14.193      14.139      14.193      14.319      14.420      14.392      14.170      13.758    
  13.190      12.515      11.790      11.073      10.407      9.8163      9.3106      8.8849      8.5281      8.2298    
  7.9857      7.7997      7.6815      7.6407      7.6815      7.7997      7.9857      8.2298      8.5281      8.8849    
  8.2806      8.8908      9.5958      10.379      11.207      12.028      12.786      13.425      13.907      14.199    
  14.315      14.319      14.293      14.293      14.319      14.315      14.199      13.907      13.425      12.786    
  12.028      11.207      10.379      9.5958      8.8908      8.2806      7.7667      7.3407      6.9911      6.7091    
  6.4916      6.3412      6.2639      6.2639      6.3413      6.4916      6.7092      6.9911      7.3406      7.7666    
  7.4818      8.1823      8.9831      9.8621      10.780      11.686      12.524      13.243      13.811      14.199    
  14.420      14.520      14.547      14.520      14.420      14.199      13.811      13.243      12.524      11.686    
  10.780      9.8621      8.9831      8.1823      7.4818      6.8881      6.3957      5.9935      5.6700      5.4180    
  5.2351      5.1233      5.0856      5.1233      5.2351      5.4180      5.6700      5.9934      6.3957      6.8881    
  6.8890      7.6683      8.5524      9.5160      10.518      11.508      12.432      13.243      13.907      14.392    
  14.698      14.843      14.843      14.698      14.392      13.907      13.243      12.432      11.508      10.518    
  9.5160      8.5525      7.6683      6.8890      6.2242      5.6708      5.2184      4.8543      4.5682      4.3541    
  4.2105      4.1380      4.1380      4.2104      4.3541      4.5682      4.8543      5.2184      5.6709      6.2242    
  6.4797      7.3325      8.2955      9.3417      10.430      11.508      12.524      13.425      14.170      14.720    
  15.054      15.166      15.054      14.720      14.170      13.425      12.524      11.508      10.430      9.3416    
  8.2955      7.3325      6.4796      5.7486      5.1379      4.6374      4.2339      3.9149      3.6715      3.4989    
  3.3954      3.3608      3.3953      3.4989      3.6715      3.9149      4.2339      4.6374      5.1379      5.7486    
  6.2388      7.1661      8.2099      9.3417      10.518      11.686      12.786      13.758      14.545      15.100    
  15.386      15.386      15.100      14.545      13.758      12.786      11.686      10.518      9.3416      8.2099    
  7.1661      6.2388      5.4411      4.7726      4.2235      3.7799      3.4278      3.1559      2.9564      2.8251    
  2.7597      2.7597      2.8250      2.9564      3.1559      3.4279      3.7799      4.2235      4.7726      5.4411    
  6.1592      7.1661      8.2955      9.5160      10.780      12.028      13.190      14.195      14.972      15.465    
  15.633      15.465      14.972      14.195      13.190      12.028      10.780      9.5160      8.2955      7.1661    
  6.1592      5.2899      4.5589      3.9570      3.4696      3.0817      2.7798      2.5537      2.3965      2.3037    
  2.2730      2.3037      2.3965      2.5538      2.7798      3.0817      3.4697      3.9569      4.5589      5.2899    
  6.2388      7.3324      8.5524      9.8621      11.207      12.515      13.706      14.697      15.408      15.780    
  15.780      15.408      14.696      13.706      12.515      11.207      9.8621      8.5525      7.3325      6.2388    
  5.2899      4.4885      3.8262      3.2885      2.8592      2.5233      2.2685      2.0853      1.9668      1.9088    
  1.9088      1.9669      2.0853      2.2685      2.5233      2.8591      3.2884      3.8262      4.4885      5.2899    
  6.4796      7.6683      8.9831      10.379      11.790      13.134      14.316      15.244      15.837      16.041    
  15.837      15.244      14.316      13.134      11.790      10.379      8.9831      7.6683      6.4796      5.4411    
  4.5589      3.8262      3.2288      2.7501      2.3737      2.0855      1.8740      1.7297      1.6460      1.6186    
  1.6460      1.7297      1.8740      2.0855      2.3737      2.7500      3.2288      3.8261      4.5589      5.4411    
  6.8890      8.1823      9.5959      11.073      12.535      13.884      15.018      15.838      16.269      16.269    
  15.838      15.018      13.884      12.535      11.073      9.5958      8.1823      6.8890      5.7486      4.7726    
  3.9570      3.2885      2.7501      2.3245      1.9961      1.7513      1.5788      1.4692      1.4162      1.4162    
  1.4692      1.5788      1.7513      1.9961      2.3245      2.7500      3.2884      3.9569      4.7726      5.7486    
  7.4818      8.8908      10.407      11.958      13.451      14.775      15.821      16.492      16.723      16.492    
  15.821      14.775      13.451      11.958      10.407      8.8908      7.4818      6.2242      5.1379      4.2235    
  3.4696      2.8592      2.3737      1.9961      1.7111      1.5054      1.3675      1.2887      1.2630      1.2887    
  1.3675      1.5054      1.7111      1.9961      2.3737      2.8592      3.4697      4.2235      5.1379      6.2242    
  8.2806      9.8163      11.435      13.048      14.547      15.811      16.729      17.213      17.213      16.729    
  15.811      14.547      13.048      11.435      9.8163      8.2806      6.8881      5.6708      4.6374      3.7799    
  3.0817      2.5233      2.0855      1.7513      1.5054      1.3344      1.2272      1.1757      1.1757      1.2272    
  1.3344      1.5054      1.7513      2.0855      2.5233      3.0817      3.7799      4.6374      5.6709      6.8881    
  9.3106      10.979      12.693      14.348      15.821      16.986      17.735      17.994      17.735      16.986    
  15.821      14.348      12.693      10.979      9.3106      7.7667      6.3957      5.2184      4.2339      3.4278    
  2.7798      2.2685      1.8740      1.5788      1.3675      1.2272      1.1474      1.1216      1.1474      1.2272    
  1.3675      1.5788      1.8740      2.2685      2.7798      3.4278      4.2339      5.2184      6.3957      7.7666    
  10.589      12.384      14.174      15.838      17.244      18.265      18.804      18.804      18.266      17.244    
  15.838      14.175      12.384      10.589      8.8849      7.3407      5.9935      4.8543      3.9149      3.1559    
  2.5537      2.0853      1.7297      1.4692      1.2887      1.1757      1.1216      1.1216      1.1757      1.2887    
  1.4692      1.7297      2.0853      2.5538      3.1559      3.9149      4.8543      5.9934      7.3406      8.8849    
  12.109      14.008      15.837      17.465      18.755      19.586      19.873      19.586      18.755      17.465    
  15.837      14.008      12.109      10.253      8.5281      6.9911      5.6700      4.5682      3.6715      2.9564    
  2.3965      1.9668      1.6460      1.4162      1.2630      1.1757      1.1474      1.1757      1.2630      1.4162    
  1.6460      1.9669      2.3965      2.9564      3.6715      4.5682      5.6700      6.9911      8.5281      10.253    
  13.823      15.780      17.596      19.132      20.253      20.845      20.845      20.253      19.132      17.596    
  15.780      13.823      11.849      9.9590      8.2298      6.7091      5.4180      4.3541      3.4989      2.8251    
  2.3037      1.9088      1.6186      1.4162      1.2887      1.2272      1.2272      1.2887      1.4162      1.6186    
  1.9088      2.3037      2.8250      3.4989      4.3541      5.4180      6.7092      8.2299      9.9591      11.849    
  15.633      17.582      19.306      20.661      21.527      21.824      21.527      20.661      19.306      17.582    
  15.633      13.601      11.595      9.7007      7.9857      6.4916      5.2351      4.2105      3.3954      2.7597    
  2.2730      1.9088      1.6460      1.4692      1.3675      1.3344      1.3675      1.4692      1.6460      1.9088    
  2.2730      2.7597      3.3953      4.2104      5.2351      6.4916      7.9857      9.7008      11.595      13.601    
  17.364      19.132      20.570      21.586      22.112      22.112      21.586      20.570      19.132      17.364    
  15.386      13.344      11.351      9.4830      7.7997      6.3412      5.1233      4.1380      3.3608      2.7597    
  2.3037      1.9669      1.7297      1.5788      1.5054      1.5054      1.5788      1.7297      1.9669      2.3037    
  2.7597      3.3608      4.1380      5.1233      6.3413      7.7997      9.4830      11.351      13.344      15.386    
  18.541      19.842      20.788      21.362      21.555      21.362      20.788      19.842      18.541      16.920    
  15.054      13.078      11.140      9.3212      7.6815      6.2639      5.0856      4.1380      3.3953      2.8250    
  2.3965      2.0853      1.8740      1.7513      1.7111      1.7513      1.8740      2.0853      2.3965      2.8250    
  3.3953      4.1380      5.0856      6.2639      7.6815      9.3213      11.140      13.078      15.054      16.920    
  18.536      19.121      19.454      19.602      19.602      19.454      19.121      18.536      17.622      16.332    
  14.698      12.853      10.994      9.2340      7.6407      6.2639      5.1233      4.2104      3.4989      2.9564    
  2.5538      2.2685      2.0855      1.9961      1.9961      2.0855      2.2685      2.5538      2.9564      3.4989    
  4.2104      5.1233      6.2639      7.6407      9.2340      10.994      12.853      14.698      16.332      17.622    
  16.862      16.599      16.348      16.248      16.348      16.599      16.862      16.935      16.615      15.774    
  14.420      12.723      10.942      9.2340      7.6815      6.3413      5.2351      4.3541      3.6715      3.1559    
  2.7798      2.5233      2.3737      2.3245      2.3737      2.5233      2.7798      3.1559      3.6715      4.3541    
  5.2351      6.3413      7.6815      9.2340      10.942      12.723      14.420      15.774      16.615      16.935    
  13.358      12.301      11.686      11.686      12.301      13.358      14.542      15.477      15.833      15.433    
  14.315      12.723      10.994      9.3212      7.7997      6.4916      5.4180      4.5682      3.9149      3.4279    
  3.0817      2.8591      2.7500      2.7500      2.8592      3.0817      3.4278      3.9149      4.5682      5.4180    
  6.4916      7.7997      9.3213      10.994      12.723      14.315      15.433      15.833      15.477      14.542    
  8.3197      6.7415      6.1691      6.7416      8.3198      10.518      12.798      14.608      15.538      15.432    
  14.420      12.853      11.140      9.4830      7.9857      6.7092      5.6700      4.8543      4.2339      3.7799    
  3.4697      3.2884      3.2288      3.2884      3.4697      3.7799      4.2339      4.8543      5.6700      6.7092    
  7.9857      9.4830      11.140      12.853      14.420      15.433      15.538      14.608      12.798      10.518    
  2.5199     0.89453     0.89459      2.5200      5.3930      8.8570      12.150      14.608      15.833      15.773    
  14.698      13.078      11.351      9.7007      8.2298      6.9911      5.9934      5.2184      4.6374      4.2235    
  3.9569      3.8262      3.8261      3.9569      4.2235      4.6374      5.2184      5.9934      6.9911      8.2299    
  9.7008      11.351      13.078      14.698      15.774      15.833      14.608      12.150      8.8569      5.3930    
 -2.9199     -4.0050     -2.9199     0.82345E-01  4.3158      8.8570      12.798      15.478      16.615      16.332    
  15.054      13.344      11.595      9.9591      8.5281      7.3406      6.3957      5.6709      5.1379      4.7726    
  4.5589      4.4885      4.5589      4.7726      5.1379      5.6709      6.3957      7.3406      8.5281      9.9591    
  11.595      13.344      15.054      16.332      16.615      15.477      12.798      8.8569      4.3158     0.82296E-01
 -6.8040     -6.8041     -4.3133     0.82298E-01  5.3931      10.518      14.542      16.935      17.622      16.920    
  15.386      13.601      11.849      10.253      8.8849      7.7666      6.8881      6.2242      5.7486      5.4411    
  5.2899      5.2899      5.4411      5.7486      6.2242      6.8881      7.7666      8.8849      10.253      11.849    
  13.601      15.386      16.920      17.622      16.935      14.542      10.518      5.3930     0.82296E-01 -4.3132    
 -6.8040     -4.0050     0.89452      6.7415      12.301      16.599      19.121      19.842      19.132      17.582    
  15.780      14.008      12.384      10.979      9.8163      8.8908      8.1823      7.6683      7.3325      7.1661    
  7.1661      7.3324      7.6683      8.1823      8.8908      9.8163      10.979      12.384      14.008      15.780    
  17.582      19.132      19.842      19.121      16.599      12.301      6.7415     0.89453     -4.0050     -6.8041    
 -4.0050     -.22003E-01  5.4896      11.264      16.164      19.458      20.922      20.776      19.536      17.817    
  16.041      14.360      12.860      11.584      10.542      9.7191      9.0976      8.6609      8.4005      8.3137    
  8.4005      8.6609      9.0976      9.7191      10.542      11.584      12.860      14.360      16.041      17.817    
  19.536      20.776      20.922      19.458      16.164      11.264      5.4896     -.22045E-01 -4.0050     -5.4595    
 0.89452      5.4896      10.884      15.889      19.615      21.645      22.030      21.170      19.635      17.934    
  16.269      14.741      13.404      12.281      11.369      10.653      10.120      9.7637      9.5840      9.5840    
  9.7637      10.120      10.653      11.369      12.281      13.404      14.741      16.269      17.934      19.635    
  21.170      22.030      21.645      19.615      15.889      10.884      5.4896     0.89454     -1.7561     -1.7562    
  6.7415      11.264      15.889      19.660      22.007      22.816      22.346      21.082      19.537      17.971    
  16.492      15.163      14.016      13.055      12.273      11.658      11.210      10.934      10.841      10.934    
  11.210      11.658      12.273      13.055      14.016      15.163      16.492      17.971      19.537      21.082    
  22.347      22.816      22.007      19.660      15.889      11.264      6.7415      3.4259      2.2068      3.4259    
  12.301      16.164      19.615      22.007      23.084      22.963      22.016      20.706      19.321      17.973    
  16.729      15.626      14.674      13.869      13.203      12.678      12.309      12.116      12.116      12.309    
  12.678      13.203      13.869      14.674      15.626      16.729      17.973      19.321      20.706      22.016    
  22.963      23.084      22.007      19.615      16.164      12.301      8.9398      6.9786      6.9787      8.9399    
  16.599      19.458      21.645      22.816      22.963      22.338      21.323      20.191      19.050      17.970    
  16.986      16.110      15.339      14.665      14.093      13.642      13.349      13.247      13.349      13.642    
  14.093      14.665      15.339      16.110      16.986      17.970      19.050      20.191      21.323      22.338    
  22.963      22.816      21.645      19.458      16.599      13.708      11.550      10.751      11.551      13.709    
  19.121      20.922      22.030      22.346      22.016      21.323      20.491      19.618      18.768      17.973    
  17.244      16.573      15.948      15.371      14.865      14.479      14.267      14.267      14.479      14.865    
  15.371      15.948      16.573      17.244      17.973      18.768      19.618      20.491      21.323      22.016    
  22.346      22.030      20.922      19.121      16.990      15.082      13.952      13.952      15.082      16.990    
  19.842      20.776      21.170      21.082      20.706      20.191      19.618      19.043      18.493      17.971    
  17.465      16.953      16.428      15.909      15.444      15.112      14.991      15.112      15.444      15.909    
  16.428      16.953      17.465      17.971      18.493      19.043      19.618      20.191      20.706      21.082    
  21.170      20.776      19.842      18.505      17.090      16.008      15.602      16.008      17.090      18.505    
  19.132      19.536      19.635      19.537      19.321      19.050      18.768      18.493      18.222      17.934    
  17.596      17.186      16.703      16.184      15.730      15.462      15.462      15.730      16.184      16.703    
  17.186      17.596      17.934      18.222      18.493      18.768      19.051      19.321      19.537      19.635    
  19.536      19.132      18.414      17.518      16.689      16.189      16.189      16.689      17.518      18.414    
  17.582      17.817      17.934      17.971      17.973      17.970      17.973      17.971      17.934      17.817    
  17.582      17.197      16.676      16.124      15.698      15.537      15.698      16.124      16.676      17.197    
  17.582      17.817      17.934      17.971      17.973      17.970      17.973      17.971      17.934      17.817    
  17.582      17.197      16.676      16.124      15.698      15.537      15.698      16.124      16.676      17.197    
  15.780      16.041      16.269      16.492      16.729      16.986      17.244      17.465      17.596      17.582    
  17.364      16.920      16.332      15.773      15.432      15.433      15.774      16.332      16.920      17.364    
  17.582      17.596      17.465      17.244      16.986      16.729      16.492      16.269      16.041      15.780    
  15.465      15.100      14.720      14.392      14.199      14.199      14.392      14.720      15.100      15.465    
  14.008      14.360      14.741      15.163      15.626      16.110      16.573      16.953      17.186      17.197    
  16.920      16.396      15.781      15.288      15.100      15.288      15.781      16.396      16.920      17.197    
  17.186      16.953      16.573      16.110      15.626      15.163      14.741      14.360      14.008      13.666    
  13.324      12.992      12.702      12.501      12.428      12.501      12.702      12.992      13.324      13.666    
  12.384      12.860      13.404      14.016      14.674      15.339      15.948      16.428      16.703      16.676    
  16.332      15.781      15.224      14.876      14.876      15.224      15.781      16.332      16.676      16.703    
  16.428      15.948      15.339      14.674      14.016      13.404      12.860      12.384      11.967      11.594    
  11.260      10.975      10.761      10.645      10.645      10.761      10.975      11.260      11.594      11.967    
  10.979      11.584      12.281      13.055      13.869      14.665      15.371      15.909      16.184      16.124    
  15.773      15.288      14.876      14.716      14.876      15.288      15.774      16.124      16.184      15.909    
  15.371      14.665      13.869      13.055      12.281      11.584      10.979      10.463      10.027      9.6575    
  9.3524      9.1176      8.9672      8.9151      8.9672      9.1176      9.3524      9.6576      10.027      10.463    
  9.8163      10.542      11.369      12.273      13.203      14.093      14.865      15.444      15.730      15.698    
  15.432      15.100      14.876      14.876      15.100      15.433      15.698      15.730      15.444      14.865    
  14.093      13.203      12.273      11.369      10.542      9.8163      9.2003      8.6870      8.2642      7.9216    
  7.6559      7.4713      7.3760      7.3760      7.4714      7.6559      7.9216      8.2642      8.6870      9.2003    
  8.8908      9.7191      10.653      11.658      12.678      13.642      14.479      15.112      15.462      15.537    
  15.433      15.288      15.224      15.288      15.433      15.537      15.462      15.112      14.479      13.642    
  12.678      11.659      10.653      9.7191      8.8908      8.1832      7.5941      7.1124      6.7249      6.4225    
  6.2025      6.0675      6.0219      6.0675      6.2025      6.4225      6.7249      7.1124      7.5941      8.1831    
  8.1823      9.0976      10.120      11.210      12.309      13.349      14.267      14.991      15.462      15.698    
  15.774      15.781      15.781      15.774      15.698      15.462      14.991      14.267      13.349      12.309    
  11.210      10.120      9.0976      8.1823      7.3944      6.7360      6.1975      5.7646      5.4246      5.1699    
  4.9984      4.9118      4.9118      4.9984      5.1698      5.4246      5.7646      6.1975      6.7360      7.3944    
  7.6683      8.6609      9.7637      10.934      12.116      13.247      14.267      15.112      15.730      16.124    
  16.332      16.396      16.332      16.124      15.730      15.112      14.267      13.247      12.116      10.934    
  9.7637      8.6609      7.6683      6.8088      6.0874      5.4959      5.0196      4.6434      4.3562      4.1519    
  4.0290      3.9878      4.0289      4.1519      4.3561      4.6434      5.0196      5.4959      6.0875      6.8088    
  7.3325      8.4005      9.5840      10.841      12.116      13.349      14.479      15.444      16.184      16.676    
  16.920      16.920      16.676      16.184      15.444      14.479      13.349      12.116      10.841      9.5840    
  8.4005      7.3325      6.4043      5.6224      4.9795      4.4608      4.0495      3.7317      3.4978      3.3432    
  3.2660      3.2659      3.3431      3.4978      3.7317      4.0495      4.4608      4.9796      5.6224      6.4043    
  7.1661      8.3137      9.5840      10.934      12.309      13.642      14.865      15.909      16.703      17.197    
  17.364      17.197      16.703      15.909      14.865      13.642      12.309      10.934      9.5840      8.3137    
  7.1661      6.1662      5.3214      4.6252      4.0622      3.6145      3.2660      3.0041      2.8211      2.7126    
  2.6766      2.7126      2.8211      3.0042      3.2660      3.6146      4.0622      4.6252      5.3214      6.1662    
  7.1661      8.4005      9.7637      11.210      12.678      14.093      15.371      16.428      17.186      17.582    
  17.582      17.186      16.428      15.371      14.093      12.678      11.210      9.7637      8.4005      7.1661    
  6.0875      5.1733      4.4176      3.8051      3.3168      2.9348      2.6441      2.4340      2.2973      2.2300    
  2.2300      2.2973      2.4340      2.6441      2.9348      3.3169      3.8051      4.4176      5.1733      6.0875    
  7.3324      8.6609      10.120      11.658      13.203      14.665      15.948      16.953      17.596      17.817    