unknown system                          
   1.00000000000000     
     0.000000    2.871014    2.871014
     2.871014    0.000000    2.871014
     2.871014    2.871014    0.000000
   Si
     2
Direct
  0.000000  0.000000  0.000000
  0.250000  0.250000  0.250000
 
   40   40   40
 -.82137146913E+01 -.68040382277E+01 -.29199528243E+01 0.25198938769E+01 0.83198430890E+01
 0.13358020026E+02 0.16861814334E+02 0.18535833898E+02 0.18540757710E+02 0.17364144031E+02
 0.15633431350E+02 0.13822850271E+02 0.12108522253E+02 0.10588777893E+02 0.93105686493E+01
 0.82805904793E+01 0.74818160776E+01 0.68890181987E+01 0.64796519895E+01 0.62388242504E+01
 0.61592173123E+01 0.62388103586E+01 0.64796376233E+01 0.68890169504E+01 0.74818283308E+01
 0.82806027038E+01 0.93105663103E+01 0.10588760687E+02 0.12108507349E+02 0.13822858196E+02
 0.15633464001E+02 0.17364174660E+02 0.18540745351E+02 0.18535753567E+02 0.16861679406E+02
 0.13357878314E+02 0.83197480759E+01 0.25198706150E+01 -.29199233922E+01 -.68040038371E+01
 -.68040382277E+01 -.40049597119E+01 0.89451563522E+00 0.67415030247E+01 0.12301295440E+02
 0.16599302577E+02 0.19120676870E+02 0.19841876690E+02 0.19132136675E+02 0.17581709870E+02
 0.15779910092E+02 0.14007708581E+02 0.12384450225E+02 0.10979001645E+02 0.98162874904E+01
 0.88908282727E+01 0.81822525962E+01 0.76682862508E+01 0.73324892225E+01 0.71661277995E+01
 0.71660990807E+01 0.73324443606E+01 0.76682852094E+01 0.81822851176E+01 0.88908378222E+01
 0.98162612136E+01 0.10978979343E+02 0.12384451631E+02 0.14007709218E+02 0.15779899105E+02
 0.17581713238E+02 0.19132156213E+02 0.19841856925E+02 0.19120579835E+02 0.16599181436E+02
 0.12301237952E+02 0.67415184799E+01 0.89453365172E+00 -.40049782017E+01 -.68040555091E+01
 -.29199528243E+01 0.89451563522E+00 0.61690846386E+01 0.11685683464E+02 0.16348414052E+02
 0.19453853933E+02 0.20787934398E+02 0.20570471161E+02 0.19306320607E+02 0.17595768487E+02
 0.15837074264E+02 0.14174518641E+02 0.12693289231E+02 0.11434832377E+02 0.10406624819E+02
 0.95958473071E+01 0.89830912479E+01 0.85524400456E+01 0.82955188817E+01 0.82099311318E+01
 0.82955027436E+01 0.85524217976E+01 0.89830853222E+01 0.95958549984E+01 0.10406633505E+02
 0.11434827242E+02 0.12693267126E+02 0.14174492490E+02 0.15837063023E+02 0.17595779656E+02
 0.19306340031E+02 0.20570471703E+02 0.20787898710E+02 0.19453792659E+02 0.16348362252E+02
 0.11685676848E+02 0.61691329529E+01 0.89459187033E+00 -.29198963875E+01 -.43133124642E+01
 0.25198938769E+01 0.67415030247E+01 0.11685683464E+02 0.16248492870E+02 0.19602420965E+02
 0.21362313674E+02 0.21586258164E+02 0.20660943900E+02 0.19132473207E+02 0.17464798650E+02
 0.15838201334E+02 0.14348057141E+02 0.13048237901E+02 0.11958020330E+02 0.11073208805E+02
 0.10379118363E+02 0.98621183344E+01 0.95160315037E+01 0.93416509552E+01 0.93416561038E+01
 0.95160323533E+01 0.98621003969E+01 0.10379101409E+02 0.11073219912E+02 0.11958045323E+02
 0.13048236034E+02 0.14348021688E+02 0.15838171384E+02 0.17464801996E+02 0.19132490880E+02
 0.20660946980E+02 0.21586249871E+02 0.21362309380E+02 0.19602413265E+02 0.16248473358E+02
 0.11685682532E+02 0.67415610984E+01 0.25199883022E+01 0.82345251237E-01 0.82297704412E-01
 0.83198430890E+01 0.12301295440E+02 0.16348414052E+02 0.19602420965E+02 0.21555065223E+02
 0.22112372783E+02 0.21526569748E+02 0.20253360728E+02 0.18754772852E+02 0.17243720540E+02
 0.15820560132E+02 0.14546841511E+02 0.13450535542E+02 0.12534957672E+02 0.11790445176E+02
 0.11206512774E+02 0.10780401573E+02 0.10518313983E+02 0.10429513902E+02 0.10518308764E+02
 0.10780394730E+02 0.11206509146E+02 0.11790448195E+02 0.12534966933E+02 0.13450546025E+02
 0.14546845307E+02 0.15820551221E+02 0.17243699809E+02 0.18754748779E+02 0.20253344643E+02
 0.21526569775E+02 0.22112388641E+02 0.21555086864E+02 0.19602432493E+02 0.16348403830E+02
 0.12301264605E+02 0.83198056738E+01 0.53930496879E+01 0.43158246178E+01 0.53930746801E+01
 0.13358020026E+02 0.16599302577E+02 0.19453853933E+02 0.21362313674E+02 0.22112372783E+02
 0.21824372560E+02 0.20845461149E+02 0.19585689603E+02 0.18265506543E+02 0.16985871645E+02
 0.15811410696E+02 0.14774892411E+02 0.13884451282E+02 0.13133883210E+02 0.12514991398E+02
 0.12028204194E+02 0.11686201718E+02 0.11508135272E+02 0.11508130171E+02 0.11686194259E+02
 0.12028204526E+02 0.12514996067E+02 0.13133884763E+02 0.13884456261E+02 0.14774911269E+02
 0.15811432811E+02 0.16985868788E+02 0.18265467987E+02 0.19585639856E+02 0.20845433590E+02
 0.21824375950E+02 0.22112390414E+02 0.21362324401E+02 0.19453839515E+02 0.16599247271E+02
 0.13357925124E+02 0.10518375188E+02 0.88569680849E+01 0.88570100897E+01 0.10518472546E+02
 0.16861814334E+02 0.19120676870E+02 0.20787934398E+02 0.21586258164E+02 0.21526569748E+02
 0.20845461149E+02 0.19872824658E+02 0.18804011891E+02 0.17735095979E+02 0.16729438931E+02
 0.15820559823E+02 0.15017943661E+02 0.14316023817E+02 0.13706392902E+02 0.13190388060E+02
 0.12785950254E+02 0.12523532501E+02 0.12432093824E+02 0.12523533481E+02 0.12785949691E+02
 0.13190384582E+02 0.13706390196E+02 0.14316029604E+02 0.15017962416E+02 0.15820585524E+02
 0.16729455792E+02 0.17735088710E+02 0.18803977359E+02 0.19872776685E+02 0.20845420975E+02
 0.21526551255E+02 0.21586255537E+02 0.20787925922E+02 0.19120640161E+02 0.16861745465E+02
 0.14542132396E+02 0.12798251018E+02 0.12150065985E+02 0.12798304118E+02 0.14542211353E+02
 0.18535833898E+02 0.19841876690E+02 0.20570471161E+02 0.20660943900E+02 0.20253360728E+02
 0.19585689603E+02 0.18804011891E+02 0.17993677509E+02 0.17212721032E+02 0.16491768312E+02
 0.15838201139E+02 0.15243798571E+02 0.14696504952E+02 0.14194648166E+02 0.13757567114E+02
 0.13425110212E+02 0.13243398311E+02 0.13243400886E+02 0.13425114395E+02 0.13757567736E+02
 0.14194646045E+02 0.14696506578E+02 0.15243809462E+02 0.15838221067E+02 0.16491792305E+02
 0.17212741344E+02 0.17993682867E+02 0.18803991129E+02 0.19585644520E+02 0.20253311455E+02
 0.20660917131E+02 0.20570475034E+02 0.19841891403E+02 0.18535829715E+02 0.16935120682E+02
 0.15477472430E+02 0.14608250594E+02 0.14608270775E+02 0.15477516530E+02 0.16935155047E+02
 0.18540757710E+02 0.19132136675E+02 0.19306320607E+02 0.19132473207E+02 0.18754772852E+02
 0.18265506543E+02 0.17735095979E+02 0.17212721032E+02 0.16723229403E+02 0.16269225412E+02
 0.15837074206E+02 0.15407751524E+02 0.14972040525E+02 0.14544877489E+02 0.14169758461E+02
 0.13906519268E+02 0.13811000242E+02 0.13906527770E+02 0.14169770307E+02 0.14544886985E+02
 0.14972046022E+02 0.15407756024E+02 0.15837083950E+02 0.16269244959E+02 0.16723256871E+02
 0.17212748024E+02 0.17735112515E+02 0.18265505873E+02 0.18754757639E+02 0.19132453044E+02
 0.19306308316E+02 0.19132141485E+02 0.18540780227E+02 0.17621979245E+02 0.16615458413E+02
 0.15833245643E+02 0.15538281919E+02 0.15833225217E+02 0.16615425211E+02 0.17621945391E+02
 0.17364144031E+02 0.17581709870E+02 0.17595768487E+02 0.17464798650E+02 0.17243720540E+02
 0.16985871645E+02 0.16729438931E+02 0.16491768312E+02 0.16269225412E+02 0.16041291472E+02
 0.15779909809E+02 0.15464634387E+02 0.15099761045E+02 0.14720267555E+02 0.14392213856E+02
 0.14199284712E+02 0.14199293883E+02 0.14392236558E+02 0.14720293245E+02 0.15099780260E+02
 0.15464644834E+02 0.15779915392E+02 0.16041299453E+02 0.16269241383E+02 0.16491792508E+02
 0.16729468636E+02 0.16985904068E+02 0.17243749491E+02 0.17464813424E+02 0.17595760157E+02
 0.17581685544E+02 0.17364134987E+02 0.16919627605E+02 0.16332345952E+02 0.15773560630E+02
 0.15432531560E+02 0.15432490580E+02 0.15773465766E+02 0.16332257440E+02 0.16919588581E+02
 0.15633431350E+02 0.15779910092E+02 0.15837074264E+02 0.15838201334E+02 0.15820560132E+02
 0.15811410696E+02 0.15820559823E+02 0.15838201139E+02 0.15837074206E+02 0.15779909809E+02
 0.15633430918E+02 0.15386272713E+02 0.15054188533E+02 0.14698035326E+02 0.14420135674E+02
 0.14314829570E+02 0.14420160865E+02 0.14698074967E+02 0.15054227126E+02 0.15386298182E+02
 0.15633440446E+02 0.15779909180E+02 0.15837074346E+02 0.15838211828E+02 0.15820581848E+02
 0.15811437216E+02 0.15820581654E+02 0.15838211855E+02 0.15837074596E+02 0.15779909239E+02
 0.15633440309E+02 0.15386298246E+02 0.15054227353E+02 0.14698074900E+02 0.14420160481E+02
 0.14314829305E+02 0.14420135594E+02 0.14698035107E+02 0.15054188248E+02 0.15386272804E+02
 0.13822850271E+02 0.14007708581E+02 0.14174518641E+02 0.14348057141E+02 0.14546841511E+02
 0.14774892411E+02 0.15017943661E+02 0.15243798571E+02 0.15407751524E+02 0.15464634387E+02
 0.15386272713E+02 0.15165620999E+02 0.14842501851E+02 0.14519892258E+02 0.14318501971E+02
 0.14318519881E+02 0.14519937990E+02 0.14842555804E+02 0.15165663176E+02 0.15386291878E+02
 0.15464633402E+02 0.15407742912E+02 0.15243796604E+02 0.15017951984E+02 0.14774899504E+02
 0.14546834341E+02 0.14348037203E+02 0.14174504848E+02 0.14007718924E+02 0.13822882547E+02
 0.13601342882E+02 0.13343838416E+02 0.13077909822E+02 0.12853026357E+02 0.12722640891E+02
 0.12722663094E+02 0.12853075554E+02 0.13077948561E+02 0.13343840505E+02 0.13601313631E+02
 0.12108522253E+02 0.12384450225E+02 0.12693289231E+02 0.13048237901E+02 0.13450535542E+02
 0.13884451282E+02 0.14316023817E+02 0.14696504952E+02 0.14972040525E+02 0.15099761045E+02
 0.15054188533E+02 0.14842501851E+02 0.14546503357E+02 0.14292569270E+02 0.14193053518E+02
 0.14292609467E+02 0.14546563809E+02 0.14842556004E+02 0.15054218948E+02 0.15099766866E+02
 0.14972033792E+02 0.14696497937E+02 0.14316022023E+02 0.13884449726E+02 0.13450526250E+02
 0.13048219821E+02 0.12693269030E+02 0.12384436104E+02 0.12108514739E+02 0.11848653753E+02
 0.11594571840E+02 0.11351089031E+02 0.11140239641E+02 0.10994269610E+02 0.10941814035E+02
 0.10994294705E+02 0.11140276454E+02 0.11351121270E+02 0.11594590980E+02 0.11848662329E+02
 0.10588777893E+02 0.10979001645E+02 0.11434832377E+02 0.11958020330E+02 0.12534957672E+02
 0.13133883210E+02 0.13706392902E+02 0.14194648166E+02 0.14544877489E+02 0.14720267555E+02
 0.14698035326E+02 0.14519892258E+02 0.14292569270E+02 0.14138639108E+02 0.14138660733E+02
 0.14292622401E+02 0.14519950171E+02 0.14698075472E+02 0.14720283519E+02 0.14544878329E+02
 0.14194645735E+02 0.13706393328E+02 0.13133887806E+02 0.12534963551E+02 0.11958022706E+02
 0.11434824108E+02 0.10978977294E+02 0.10588741622E+02 0.10252971235E+02 0.99590414685E+01
 0.97007331193E+01 0.94830397423E+01 0.93212261646E+01 0.92339786532E+01 0.92339838149E+01
 0.93212366811E+01 0.94830488437E+01 0.97007438335E+01 0.99590632798E+01 0.10253005889E+02
 0.93105686493E+01 0.98162874904E+01 0.10406624819E+02 0.11073208805E+02 0.11790445176E+02
 0.12514991398E+02 0.13190388060E+02 0.13757567114E+02 0.14169758461E+02 0.14392213856E+02
 0.14420135674E+02 0.14318501971E+02 0.14193053518E+02 0.14138660733E+02 0.14193087746E+02
 0.14318552244E+02 0.14420179300E+02 0.14392238217E+02 0.14169766780E+02 0.13757572889E+02
 0.13190400925E+02 0.12515010923E+02 0.11790460941E+02 0.11073210880E+02 0.10406614476E+02
 0.98162768458E+01 0.93105695024E+01 0.88848836115E+01 0.85281324665E+01 0.82298370433E+01
 0.79857163556E+01 0.77997028452E+01 0.76814672272E+01 0.76407213984E+01 0.76814916217E+01
 0.77997355707E+01 0.79857377490E+01 0.82298380273E+01 0.85281191610E+01 0.88848707379E+01
 0.82805904793E+01 0.88908282727E+01 0.95958473071E+01 0.10379118363E+02 0.11206512774E+02
 0.12028204194E+02 0.12785950254E+02 0.13425110212E+02 0.13906519268E+02 0.14199284712E+02
 0.14314829570E+02 0.14318519881E+02 0.14292609467E+02 0.14292622401E+02 0.14318552244E+02
 0.14314865977E+02 0.14199311052E+02 0.13906531880E+02 0.13425119418E+02 0.12785967986E+02
 0.12028230552E+02 0.11206533000E+02 0.10379117674E+02 0.95958321840E+01 0.88908246778E+01
 0.82806195709E+01 0.77666539120E+01 0.73406630720E+01 0.69911490637E+01 0.67091375488E+01
 0.64915561151E+01 0.63412391362E+01 0.62639050826E+01 0.62639133181E+01 0.63412622529E+01
 0.64915853320E+01 0.67091535594E+01 0.69911326225E+01 0.73406146833E+01 0.77665997419E+01
 0.74818160776E+01 0.81822525962E+01 0.89830912479E+01 0.98621183344E+01 0.10780401573E+02
 0.11686201718E+02 0.12523532501E+02 0.13243398311E+02 0.13811000242E+02 0.14199293883E+02
 0.14420160865E+02 0.14519937990E+02 0.14546563809E+02 0.14519950171E+02 0.14420179300E+02
 0.14199311052E+02 0.13811012050E+02 0.13243406648E+02 0.12523541673E+02 0.11686214461E+02
 0.10780417293E+02 0.98621318548E+01 0.89830981733E+01 0.81822535639E+01 0.74818169066E+01
 0.68880925901E+01 0.63957082228E+01 0.59934687168E+01 0.56700426872E+01 0.54179810074E+01
 0.52351165250E+01 0.51233106343E+01 0.50855788862E+01 0.51233045905E+01 0.52351026427E+01
 0.54179589275E+01 0.56700159205E+01 0.59934437573E+01 0.63956910163E+01 0.68880851611E+01
 0.68890181987E+01 0.76682862508E+01 0.85524400456E+01 0.95160315037E+01 0.10518313983E+02
 0.11508135272E+02 0.12432093824E+02 0.13243400886E+02 0.13906527770E+02 0.14392236558E+02
 0.14698074967E+02 0.14842555804E+02 0.14842556004E+02 0.14698075472E+02 0.14392238217E+02
 0.13906531880E+02 0.13243406648E+02 0.12432096471E+02 0.11508132858E+02 0.10518313737E+02
 0.95160420498E+01 0.85524576275E+01 0.76682916167E+01 0.68889950602E+01 0.62241929198E+01
 0.56708334874E+01 0.52183878444E+01 0.48542942345E+01 0.45682037861E+01 0.43541489328E+01
 0.42104589646E+01 0.41380155153E+01 0.41380098701E+01 0.42104381066E+01 0.43541089797E+01
 0.45681543145E+01 0.48542597492E+01 0.52183899341E+01 0.56708701585E+01 0.62242374066E+01
 0.64796519895E+01 0.73324892225E+01 0.82955188817E+01 0.93416509552E+01 0.10429513902E+02
 0.11508130171E+02 0.12523533481E+02 0.13425114395E+02 0.14169770307E+02 0.14720293245E+02
 0.15054227126E+02 0.15165663176E+02 0.15054218948E+02 0.14720283519E+02 0.14169766780E+02
 0.13425119418E+02 0.12523541673E+02 0.11508132858E+02 0.10429506245E+02 0.93416346669E+01
 0.82955006944E+01 0.73324745701E+01 0.64796401640E+01 0.57486048700E+01 0.51378520866E+01
 0.46373770145E+01 0.42338558834E+01 0.39148947230E+01 0.36715446110E+01 0.34989243191E+01
 0.33953507530E+01 0.33607642253E+01 0.33953321591E+01 0.34988990929E+01 0.36715284886E+01
 0.39148970080E+01 0.42338744788E+01 0.46374018829E+01 0.51378733698E+01 0.57486193974E+01
 0.62388242504E+01 0.71661277995E+01 0.82099311318E+01 0.93416561038E+01 0.10518308764E+02
 0.11686194259E+02 0.12785949691E+02 0.13757567736E+02 0.14544886985E+02 0.15099780260E+02
 0.15386298182E+02 0.15386291878E+02 0.15099766866E+02 0.14544878329E+02 0.13757572889E+02
 0.12785967986E+02 0.11686214461E+02 0.10518313737E+02 0.93416346669E+01 0.82098911341E+01
 0.71660952514E+01 0.62388230366E+01 0.54411377749E+01 0.47725912075E+01 0.42234914836E+01
 0.37798870318E+01 0.34278009280E+01 0.31558928143E+01 0.29564446059E+01 0.28250630644E+01
 0.27597147925E+01 0.27597036947E+01 0.28250416637E+01 0.29564391491E+01 0.31559216779E+01
 0.34278554132E+01 0.37799345350E+01 0.42235026411E+01 0.47725675351E+01 0.54411108580E+01
 0.61592173123E+01 0.71660990807E+01 0.82955027436E+01 0.95160323533E+01 0.10780394730E+02
 0.12028204526E+02 0.13190384582E+02 0.14194646045E+02 0.14972046022E+02 0.15464644834E+02
 0.15633440446E+02 0.15464633402E+02 0.14972033792E+02 0.14194645735E+02 0.13190400925E+02
 0.12028230552E+02 0.10780417293E+02 0.95160420498E+01 0.82955006944E+01 0.71660952514E+01
 0.61592212587E+01 0.52898937474E+01 0.45588949130E+01 0.39569503124E+01 0.34696443028E+01
 0.30817042246E+01 0.27797989736E+01 0.25537373509E+01 0.23964993339E+01 0.23037070580E+01
 0.22730187204E+01 0.23037057012E+01 0.23965030882E+01 0.25537525471E+01 0.27798246214E+01
 0.30817309025E+01 0.34696601352E+01 0.39569496920E+01 0.45588826863E+01 0.52898812078E+01
 0.62388103586E+01 0.73324443606E+01 0.85524217976E+01 0.98621003969E+01 0.11206509146E+02
 0.12514996067E+02 0.13706390196E+02 0.14696506578E+02 0.15407756024E+02 0.15779915392E+02
 0.15779909180E+02 0.15407742912E+02 0.14696497937E+02 0.13706393328E+02 0.12515010923E+02
 0.11206533000E+02 0.98621318548E+01 0.85524576275E+01 0.73324745701E+01 0.62388230366E+01
 0.52898937474E+01 0.44884650561E+01 0.38261527280E+01 0.32884545244E+01 0.28591508430E+01
 0.25232646312E+01 0.22684522093E+01 0.20852543698E+01 0.19668442158E+01 0.19087548347E+01
 0.19087606641E+01 0.19668603387E+01 0.20852741704E+01 0.22684626507E+01 0.25232555206E+01
 0.28591268606E+01 0.32884339848E+01 0.38261501052E+01 0.44884760889E+01 0.52899000913E+01
 0.64796376233E+01 0.76682852094E+01 0.89830853222E+01 0.10379101409E+02 0.11790448195E+02
 0.13133884763E+02 0.14316029604E+02 0.15243809462E+02 0.15837083950E+02 0.16041299453E+02
 0.15837074346E+02 0.15243796604E+02 0.14316022023E+02 0.13133887806E+02 0.11790460941E+02
 0.10379117674E+02 0.89830981733E+01 0.76682916167E+01 0.64796401640E+01 0.54411377749E+01
 0.45588949130E+01 0.38261527280E+01 0.32287946509E+01 0.27500561505E+01 0.23736919954E+01
 0.20855412439E+01 0.18739505619E+01 0.17297099857E+01 0.16460102557E+01 0.16185988460E+01
 0.16460188598E+01 0.17297221024E+01 0.18739583264E+01 0.20855378702E+01 0.23736751644E+01
 0.27500293886E+01 0.32287655611E+01 0.38261292877E+01 0.45588814554E+01 0.54411327121E+01
 0.68890169504E+01 0.81822851176E+01 0.95958549984E+01 0.11073219912E+02 0.12534966933E+02
 0.13884456261E+02 0.15017962416E+02 0.15838221067E+02 0.16269244959E+02 0.16269241383E+02
 0.15838211828E+02 0.15017951984E+02 0.13884449726E+02 0.12534963551E+02 0.11073210880E+02
 0.95958321840E+01 0.81822535639E+01 0.68889950602E+01 0.57486048700E+01 0.47725912075E+01
 0.39569503124E+01 0.32884545244E+01 0.27500561505E+01 0.23244997425E+01 0.19961100695E+01
 0.17513295627E+01 0.15787537174E+01 0.14692255611E+01 0.14161916081E+01 0.14161948220E+01
 0.14692302706E+01 0.15787510889E+01 0.17513178772E+01 0.19960968519E+01 0.23244919414E+01
 0.27500499916E+01 0.32884395385E+01 0.39569242280E+01 0.47725676427E+01 0.57486021530E+01
 0.74818283308E+01 0.88908378222E+01 0.10406633505E+02 0.11958045323E+02 0.13450546025E+02
 0.14774911269E+02 0.15820585524E+02 0.16491792305E+02 0.16723256871E+02 0.16491792508E+02
 0.15820581848E+02 0.14774899504E+02 0.13450526250E+02 0.11958022706E+02 0.10406614476E+02
 0.88908246778E+01 0.74818169066E+01 0.62241929198E+01 0.51378520866E+01 0.42234914836E+01
 0.34696443028E+01 0.28591508430E+01 0.23736919954E+01 0.19961100695E+01 0.17111252664E+01
 0.15053771562E+01 0.13675194249E+01 0.12886598373E+01 0.12630426163E+01 0.12886641199E+01
 0.13675212160E+01 0.15053690123E+01 0.17111062076E+01 0.19960880375E+01 0.23736791651E+01
 0.28591555493E+01 0.34696654210E+01 0.42235197816E+01 0.51378770729E+01 0.62242095855E+01
 0.82806027038E+01 0.98162612136E+01 0.11434827242E+02 0.13048236034E+02 0.14546845307E+02
 0.15811432811E+02 0.16729455792E+02 0.17212741344E+02 0.17212748024E+02 0.16729468636E+02
 0.15811437216E+02 0.14546834341E+02 0.13048219821E+02 0.11434824108E+02 0.98162768458E+01
 0.82806195709E+01 0.68880925901E+01 0.56708334874E+01 0.46373770145E+01 0.37798870318E+01
 0.30817042246E+01 0.25232646312E+01 0.20855412439E+01 0.17513295627E+01 0.15053771562E+01
 0.13343500571E+01 0.12271698062E+01 0.11757368141E+01 0.11757383031E+01 0.12271725988E+01
 0.13343506383E+01 0.15053724451E+01 0.17513185518E+01 0.20855274333E+01 0.25232592049E+01
 0.30817222503E+01 0.37799339611E+01 0.46374369686E+01 0.56708768962E+01 0.68881012028E+01
 0.93105663103E+01 0.10978979343E+02 0.12693267126E+02 0.14348021688E+02 0.15820551221E+02
 0.16985868788E+02 0.17735088710E+02 0.17993682867E+02 0.17735112515E+02 0.16985904068E+02
 0.15820581654E+02 0.14348037203E+02 0.12693269030E+02 0.10978977294E+02 0.93105695024E+01
 0.77666539120E+01 0.63957082228E+01 0.52183878444E+01 0.42338558834E+01 0.34278009280E+01
 0.27797989736E+01 0.22684522093E+01 0.18739505619E+01 0.15787537174E+01 0.13675194249E+01
 0.12271698062E+01 0.11474218228E+01 0.11216116484E+01 0.11474219381E+01 0.12271691743E+01
 0.13675183025E+01 0.15787551530E+01 0.18739591976E+01 0.22684705893E+01 0.27798239662E+01
 0.34278241530E+01 0.42338684079E+01 0.52183864060E+01 0.63956978371E+01 0.77666438148E+01
 0.10588760687E+02 0.12384451631E+02 0.14174492490E+02 0.15838171384E+02 0.17243699809E+02
 0.18265467987E+02 0.18803977359E+02 0.18803991129E+02 0.18265505873E+02 0.17243749491E+02
 0.15838211855E+02 0.14174504848E+02 0.12384436104E+02 0.10588741622E+02 0.88848836115E+01
 0.73406630720E+01 0.59934687168E+01 0.48542942345E+01 0.39148947230E+01 0.31558928143E+01
 0.25537373509E+01 0.20852543698E+01 0.17297099857E+01 0.14692255611E+01 0.12886598373E+01
 0.11757368141E+01 0.11216116484E+01 0.11216100100E+01 0.11757333670E+01 0.12886574217E+01
 0.14692269269E+01 0.17297188536E+01 0.20852750108E+01 0.25537675121E+01 0.31559171892E+01
 0.39148912645E+01 0.48542540793E+01 0.59934096677E+01 0.73406187467E+01 0.88848756840E+01
 0.12108507349E+02 0.14007709218E+02 0.15837063023E+02 0.17464801996E+02 0.18754748779E+02
 0.19585639856E+02 0.19872776685E+02 0.19585644520E+02 0.18754757639E+02 0.17464813424E+02
 0.15837074596E+02 0.14007718924E+02 0.12108514739E+02 0.10252971235E+02 0.85281324665E+01
 0.69911490637E+01 0.56700426872E+01 0.45682037861E+01 0.36715446110E+01 0.29564446059E+01
 0.23964993339E+01 0.19668442158E+01 0.16460102557E+01 0.14161916081E+01 0.12630426163E+01
 0.11757383031E+01 0.11474219381E+01 0.11757333670E+01 0.12630374508E+01 0.14161917651E+01
 0.16460173751E+01 0.19668540738E+01 0.23965040243E+01 0.29564376087E+01 0.36715249003E+01
 0.45681765995E+01 0.56700160498E+01 0.69911290739E+01 0.85281204717E+01 0.10252963747E+02
 0.13822858196E+02 0.15779899105E+02 0.17595779656E+02 0.19132490880E+02 0.20253344643E+02
 0.20845433590E+02 0.20845420975E+02 0.20253311455E+02 0.19132453044E+02 0.17595760157E+02
 0.15779909239E+02 0.13822882547E+02 0.11848653753E+02 0.99590414685E+01 0.82298370433E+01
 0.67091375488E+01 0.54179810074E+01 0.43541489328E+01 0.34989243191E+01 0.28250630644E+01
 0.23037070580E+01 0.19087548347E+01 0.16185988460E+01 0.14161948220E+01 0.12886641199E+01
 0.12271725988E+01 0.12271691743E+01 0.12886574217E+01 0.14161917651E+01 0.16186023147E+01
 0.19087602558E+01 0.23037043873E+01 0.28250431283E+01 0.34988874517E+01 0.43541111857E+01
 0.54179666855E+01 0.67091582772E+01 0.82298761434E+01 0.99590656562E+01 0.11848645934E+02
 0.15633464001E+02 0.17581713238E+02 0.19306340031E+02 0.20660946980E+02 0.21526569775E+02
 0.21824375950E+02 0.21526551255E+02 0.20660917131E+02 0.19306308316E+02 0.17581685544E+02
 0.15633440309E+02 0.13601342882E+02 0.11594571840E+02 0.97007331193E+01 0.79857163556E+01
 0.64915561151E+01 0.52351165250E+01 0.42104589646E+01 0.33953507530E+01 0.27597147925E+01
 0.22730187204E+01 0.19087606641E+01 0.16460188598E+01 0.14692302706E+01 0.13675212160E+01
 0.13343506383E+01 0.13675183025E+01 0.14692269269E+01 0.16460173751E+01 0.19087602558E+01
 0.22730154337E+01 0.27597049502E+01 0.33953351458E+01 0.42104440970E+01 0.52351110530E+01
 0.64915654330E+01 0.79857389905E+01 0.97007621130E+01 0.11594600263E+02 0.13601367327E+02
 0.17364174660E+02 0.19132156213E+02 0.20570471703E+02 0.21586249871E+02 0.22112388641E+02
 0.22112390414E+02 0.21586255537E+02 0.20570475034E+02 0.19132141485E+02 0.17364134987E+02
 0.15386298246E+02 0.13343838416E+02 0.11351089031E+02 0.94830397423E+01 0.77997028452E+01
 0.63412391362E+01 0.51233106343E+01 0.41380155153E+01 0.33607642253E+01 0.27597036947E+01
 0.23037057012E+01 0.19668603387E+01 0.17297221024E+01 0.15787510889E+01 0.15053690123E+01
 0.15053724451E+01 0.15787551530E+01 0.17297188536E+01 0.19668540738E+01 0.23037043873E+01
 0.27597049502E+01 0.33607618333E+01 0.41380168607E+01 0.51233294938E+01 0.63412713552E+01
 0.77997242570E+01 0.94830387547E+01 0.11351085711E+02 0.13343859896E+02 0.15386343434E+02
 0.18540745351E+02 0.19841856925E+02 0.20787898710E+02 0.21362309380E+02 0.21555086864E+02
 0.21362324401E+02 0.20787925922E+02 0.19841891403E+02 0.18540780227E+02 0.16919627605E+02
 0.15054227353E+02 0.13077909822E+02 0.11140239641E+02 0.93212261646E+01 0.76814672272E+01
 0.62639050826E+01 0.50855788862E+01 0.41380098701E+01 0.33953321591E+01 0.28250416637E+01
 0.23965030882E+01 0.20852741704E+01 0.18739583264E+01 0.17513178772E+01 0.17111062076E+01
 0.17513185518E+01 0.18739591976E+01 0.20852750108E+01 0.23965040243E+01 0.28250431283E+01
 0.33953351458E+01 0.41380168607E+01 0.50855924971E+01 0.62639262904E+01 0.76814931238E+01
 0.93212513977E+01 0.11140256791E+02 0.13077913134E+02 0.15054213983E+02 0.16919599798E+02
 0.18535753567E+02 0.19120579835E+02 0.19453792659E+02 0.19602413265E+02 0.19602432493E+02
 0.19453839515E+02 0.19120640161E+02 0.18535829715E+02 0.17621979245E+02 0.16332345952E+02
 0.14698074900E+02 0.12853026357E+02 0.10994269610E+02 0.92339786532E+01 0.76407213984E+01
 0.62639133181E+01 0.51233045905E+01 0.42104381066E+01 0.34988990929E+01 0.29564391491E+01
 0.25537525471E+01 0.22684626507E+01 0.20855378702E+01 0.19960968519E+01 0.19960880375E+01
 0.20855274333E+01 0.22684705893E+01 0.25537675121E+01 0.29564376087E+01 0.34988874517E+01
 0.42104440970E+01 0.51233294938E+01 0.62639262904E+01 0.76407099417E+01 0.92339734724E+01
 0.10994297121E+02 0.12853060811E+02 0.14698064525E+02 0.16332278628E+02 0.17621890823E+02
 0.16861679406E+02 0.16599181436E+02 0.16348362252E+02 0.16248473358E+02 0.16348403830E+02
 0.16599247271E+02 0.16861745465E+02 0.16935120682E+02 0.16615458413E+02 0.15773560630E+02
 0.14420160481E+02 0.12722640891E+02 0.10941814035E+02 0.92339838149E+01 0.76814916217E+01
 0.63412622529E+01 0.52351026427E+01 0.43541089797E+01 0.36715284886E+01 0.31559216779E+01
 0.27798246214E+01 0.25232555206E+01 0.23736751644E+01 0.23244919414E+01 0.23736791651E+01
 0.25232592049E+01 0.27798239662E+01 0.31559171892E+01 0.36715249003E+01 0.43541111857E+01
 0.52351110530E+01 0.63412713552E+01 0.76814931238E+01 0.92339734724E+01 0.10941795122E+02
 0.12722621449E+02 0.14420144361E+02 0.15773543463E+02 0.16615429135E+02 0.16935071299E+02
 0.13357878314E+02 0.12301237952E+02 0.11685676848E+02 0.11685682532E+02 0.12301264605E+02
 0.13357925124E+02 0.14542132396E+02 0.15477472430E+02 0.15833245643E+02 0.15432531560E+02
 0.14314829305E+02 0.12722663094E+02 0.10994294705E+02 0.93212366811E+01 0.77997355707E+01
 0.64915853320E+01 0.54179589275E+01 0.45681543145E+01 0.39148970080E+01 0.34278554132E+01
 0.30817309025E+01 0.28591268606E+01 0.27500293886E+01 0.27500499916E+01 0.28591555493E+01
 0.30817222503E+01 0.34278241530E+01 0.39148912645E+01 0.45681765995E+01 0.54179666855E+01
 0.64915654330E+01 0.77997242570E+01 0.93212513977E+01 0.10994297121E+02 0.12722621449E+02
 0.14314779104E+02 0.15432530329E+02 0.15833287228E+02 0.15477495166E+02 0.14542104495E+02
 0.83197480759E+01 0.67415184799E+01 0.61691329529E+01 0.67415610984E+01 0.83198056738E+01
 0.10518375188E+02 0.12798251018E+02 0.14608250594E+02 0.15538281919E+02 0.15432490580E+02
 0.14420135594E+02 0.12853075554E+02 0.11140276454E+02 0.94830488437E+01 0.79857377490E+01
 0.67091535594E+01 0.56700159205E+01 0.48542597492E+01 0.42338744788E+01 0.37799345350E+01
 0.34696601352E+01 0.32884339848E+01 0.32287655611E+01 0.32884395385E+01 0.34696654210E+01
 0.37799339611E+01 0.42338684079E+01 0.48542540793E+01 0.56700160498E+01 0.67091582772E+01
 0.79857389905E+01 0.94830387547E+01 0.11140256791E+02 0.12853060811E+02 0.14420144361E+02
 0.15432530329E+02 0.15538339065E+02 0.14608296166E+02 0.12798258344E+02 0.10518338987E+02
 0.25198706150E+01 0.89453365172E+00 0.89459187033E+00 0.25199883022E+01 0.53930496879E+01
 0.88569680849E+01 0.12150065985E+02 0.14608270775E+02 0.15833225217E+02 0.15773465766E+02
 0.14698035107E+02 0.13077948561E+02 0.11351121270E+02 0.97007438335E+01 0.82298380273E+01
 0.69911326225E+01 0.59934437573E+01 0.52183899341E+01 0.46374018829E+01 0.42235026411E+01
 0.39569496920E+01 0.38261501052E+01 0.38261292877E+01 0.39569242280E+01 0.42235197816E+01
 0.46374369686E+01 0.52183864060E+01 0.59934096677E+01 0.69911290739E+01 0.82298761434E+01
 0.97007621130E+01 0.11351085711E+02 0.13077913134E+02 0.14698064525E+02 0.15773543463E+02
 0.15833287228E+02 0.14608296166E+02 0.12150074434E+02 0.88569493527E+01 0.53929687070E+01
 -.29199233922E+01 -.40049782017E+01 -.29198963875E+01 0.82345251237E-01 0.43158246178E+01
 0.88570100897E+01 0.12798304118E+02 0.15477516530E+02 0.16615425211E+02 0.16332257440E+02
 0.15054188248E+02 0.13343840505E+02 0.11594590980E+02 0.99590632798E+01 0.85281191610E+01
 0.73406146833E+01 0.63956910163E+01 0.56708701585E+01 0.51378733698E+01 0.47725675351E+01
 0.45588826863E+01 0.44884760889E+01 0.45588814554E+01 0.47725676427E+01 0.51378770729E+01
 0.56708768962E+01 0.63956978371E+01 0.73406187467E+01 0.85281204717E+01 0.99590656562E+01
 0.11594600263E+02 0.13343859896E+02 0.15054213983E+02 0.16332278628E+02 0.16615429135E+02
 0.15477495166E+02 0.12798258344E+02 0.88569493527E+01 0.43157626817E+01 0.82295915952E-01
 -.68040038371E+01 -.68040555091E+01 -.43133124642E+01 0.82297704412E-01 0.53930746801E+01
 0.10518472546E+02 0.14542211353E+02 0.16935155047E+02 0.17621945391E+02 0.16919588581E+02
 0.15386272804E+02 0.13601313631E+02 0.11848662329E+02 0.10253005889E+02 0.88848707379E+01
 0.77665997419E+01 0.68880851611E+01 0.62242374066E+01 0.57486193974E+01 0.54411108580E+01
 0.52898812078E+01 0.52899000913E+01 0.54411327121E+01 0.57486021530E+01 0.62242095855E+01
 0.68881012028E+01 0.77666438148E+01 0.88848756840E+01 0.10252963747E+02 0.11848645934E+02
 0.13601367327E+02 0.15386343434E+02 0.16919599798E+02 0.17621890823E+02 0.16935071299E+02
 0.14542104495E+02 0.10518338987E+02 0.53929687070E+01 0.82295915952E-01 -.43132284764E+01
 -.68040382091E+01 -.40049599042E+01 0.89451543249E+00 0.67415029157E+01 0.12301295302E+02
 0.16599302375E+02 0.19120676779E+02 0.19841876781E+02 0.19132136800E+02 0.17581709961E+02
 0.15779910270E+02 0.14007708843E+02 0.12384450356E+02 0.10979001554E+02 0.98162873460E+01
 0.88908281788E+01 0.81822524530E+01 0.76682860461E+01 0.73324891309E+01 0.71661278685E+01
 0.71660991297E+01 0.73324443123E+01 0.76682852116E+01 0.81822852240E+01 0.88908378726E+01
 0.98162611490E+01 0.10978979320E+02 0.12384451706E+02 0.14007709231E+02 0.15779898994E+02