   2   2   0   0
  0.2366497E+02  0.4060227E-09  0.4060227E-09  0.4060227E-09  0.5000000E-15
  1.000000000000000E-004
  CAR 
 unknown system                          
     14.60946827     -8.58916564  301      4.69075383      1.00000000
     -8.589  0.0000E+00  0.0000E+00
     -8.512  0.0000E+00  0.0000E+00
     -8.435  0.0000E+00  0.0000E+00
     -8.357  0.0000E+00  0.0000E+00
     -8.280  0.0000E+00  0.0000E+00
     -8.203  0.0000E+00  0.0000E+00
     -8.125  0.0000E+00  0.0000E+00
     -8.048  0.0000E+00  0.0000E+00
     -7.971  0.0000E+00  0.0000E+00
     -7.893  0.0000E+00  0.0000E+00
     -7.816  0.0000E+00  0.0000E+00
     -7.739  0.1496E-17  0.1156E-18
     -7.661  0.1144E-15  0.8963E-17
     -7.584  0.6691E-14  0.5263E-15
     -7.507  0.2907E-12  0.2300E-13
     -7.429  0.9420E-11  0.7514E-12
     -7.352  0.2280E-09  0.1838E-10
     -7.275  0.4131E-08  0.3378E-09
     -7.197  0.5614E-07  0.4679E-08
     -7.120  0.5746E-06  0.4911E-07
     -7.043  0.4452E-05  0.3934E-06
     -6.965  0.2631E-04  0.2428E-05
     -6.888  0.1197E-03  0.1169E-04
     -6.811  0.4249E-03  0.4455E-04
     -6.733  0.1194E-02  0.1369E-03
     -6.656  0.2704E-02  0.3460E-03
     -6.579  0.5036E-02  0.7354E-03
     -6.501  0.7920E-02  0.1348E-02
     -6.424  0.1090E-01  0.2191E-02
     -6.347  0.1369E-01  0.3249E-02
     -6.269  0.1628E-01  0.4508E-02
     -6.192  0.1857E-01  0.5944E-02
     -6.115  0.2033E-01  0.7517E-02
     -6.037  0.2171E-01  0.9196E-02
     -5.960  0.2344E-01  0.1101E-01
     -5.883  0.2582E-01  0.1301E-01
     -5.805  0.2806E-01  0.1518E-01
     -5.728  0.2924E-01  0.1744E-01
     -5.651  0.2973E-01  0.1974E-01
     -5.573  0.3074E-01  0.2211E-01
     -5.496  0.3276E-01  0.2465E-01
     -5.419  0.3539E-01  0.2738E-01
     -5.341  0.3814E-01  0.3033E-01
     -5.264  0.4051E-01  0.3346E-01
     -5.187  0.4186E-01  0.3670E-01
     -5.109  0.4202E-01  0.3995E-01
     -5.032  0.4225E-01  0.4322E-01
     -4.955  0.4483E-01  0.4668E-01
     -4.877  0.5073E-01  0.5061E-01
     -4.800  0.5787E-01  0.5508E-01
     -4.723  0.6296E-01  0.5995E-01
     -4.645  0.6502E-01  0.6498E-01
     -4.568  0.6519E-01  0.7002E-01
     -4.491  0.6391E-01  0.7496E-01
     -4.413  0.6055E-01  0.7964E-01
     -4.336  0.5606E-01  0.8398E-01
     -4.259  0.5389E-01  0.8815E-01
     -4.181  0.5641E-01  0.9251E-01
     -4.104  0.6105E-01  0.9723E-01
     -4.027  0.6213E-01  0.1020E+00
     -3.949  0.5653E-01  0.1064E+00
     -3.872  0.4651E-01  0.1100E+00
     -3.795  0.3683E-01  0.1128E+00
     -3.717  0.3091E-01  0.1152E+00
     -3.640  0.2987E-01  0.1175E+00
     -3.563  0.3311E-01  0.1201E+00
     -3.485  0.3815E-01  0.1231E+00
     -3.408  0.4068E-01  0.1262E+00
     -3.331  0.3705E-01  0.1291E+00
     -3.253  0.2757E-01  0.1312E+00
     -3.176  0.1633E-01  0.1325E+00
     -3.099  0.7634E-02  0.1331E+00
     -3.021  0.3057E-02  0.1333E+00
     -2.944  0.2235E-02  0.1335E+00
     -2.867  0.5140E-02  0.1339E+00
     -2.790  0.1264E-01  0.1348E+00
     -2.712  0.2423E-01  0.1367E+00
     -2.635  0.3562E-01  0.1395E+00
     -2.558  0.4096E-01  0.1426E+00
     -2.480  0.3853E-01  0.1456E+00
     -2.403  0.3259E-01  0.1481E+00
     -2.326  0.2917E-01  0.1504E+00
     -2.248  0.3195E-01  0.1529E+00
     -2.171  0.4197E-01  0.1561E+00
     -2.094  0.5791E-01  0.1606E+00
     -2.016  0.7527E-01  0.1664E+00
     -1.939  0.8735E-01  0.1732E+00
     -1.862  0.8946E-01  0.1801E+00
     -1.784  0.8180E-01  0.1864E+00
     -1.707  0.6848E-01  0.1917E+00
     -1.630  0.5517E-01  0.1960E+00
     -1.552  0.4648E-01  0.1996E+00
     -1.475  0.4309E-01  0.2029E+00
     -1.398  0.4178E-01  0.2061E+00
     -1.320  0.3923E-01  0.2092E+00
     -1.243  0.3539E-01  0.2119E+00
     -1.166  0.3297E-01  0.2144E+00
     -1.088  0.3413E-01  0.2171E+00
     -1.011  0.3757E-01  0.2200E+00
     -0.934  0.3888E-01  0.2230E+00
     -0.856  0.3481E-01  0.2257E+00
     -0.779  0.2705E-01  0.2278E+00
     -0.702  0.2068E-01  0.2294E+00
     -0.624  0.1911E-01  0.2309E+00
     -0.547  0.2131E-01  0.2325E+00
     -0.470  0.2374E-01  0.2343E+00
     -0.392  0.2389E-01  0.2362E+00
     -0.315  0.2172E-01  0.2379E+00
     -0.238  0.1877E-01  0.2393E+00
     -0.160  0.1651E-01  0.2406E+00
     -0.083  0.1577E-01  0.2418E+00
     -0.006  0.1697E-01  0.2431E+00
      0.072  0.1943E-01  0.2446E+00
      0.149  0.2092E-01  0.2462E+00
      0.226  0.1933E-01  0.2477E+00
      0.304  0.1502E-01  0.2489E+00
      0.381  0.1103E-01  0.2498E+00
      0.458  0.1130E-01  0.2506E+00
      0.536  0.1857E-01  0.2521E+00
      0.613  0.3262E-01  0.2546E+00
      0.690  0.4987E-01  0.2584E+00
      0.768  0.6583E-01  0.2635E+00
      0.845  0.7824E-01  0.2696E+00
      0.922  0.8654E-01  0.2763E+00
      1.000  0.8975E-01  0.2832E+00
      1.077  0.8738E-01  0.2900E+00
      1.154  0.8201E-01  0.2963E+00
      1.232  0.7835E-01  0.3024E+00
      1.309  0.7913E-01  0.3085E+00
      1.386  0.8280E-01  0.3149E+00
      1.464  0.8620E-01  0.3216E+00
      1.541  0.8873E-01  0.3284E+00
      1.618  0.9243E-01  0.3356E+00
      1.696  0.9783E-01  0.3431E+00
      1.773  0.1024E+00  0.3511E+00
      1.850  0.1045E+00  0.3591E+00
      1.928  0.1066E+00  0.3674E+00
      2.005  0.1114E+00  0.3760E+00
      2.082  0.1165E+00  0.3850E+00
      2.160  0.1169E+00  0.3940E+00
      2.237  0.1122E+00  0.4027E+00
      2.314  0.1081E+00  0.4111E+00
      2.392  0.1086E+00  0.4195E+00
      2.469  0.1103E+00  0.4280E+00
      2.546  0.1067E+00  0.4362E+00
      2.624  0.9743E-01  0.4438E+00
      2.701  0.8958E-01  0.4507E+00
      2.778  0.9031E-01  0.4577E+00
      2.855  0.9835E-01  0.4653E+00
      2.933  0.1051E+00  0.4734E+00
      3.010  0.1031E+00  0.4814E+00
      3.087  0.9233E-01  0.4885E+00
      3.165  0.7883E-01  0.4946E+00
      3.242  0.6915E-01  0.5000E+00
      3.319  0.6497E-01  0.5050E+00
      3.397  0.6204E-01  0.5098E+00
      3.474  0.5545E-01  0.5141E+00
      3.551  0.4555E-01  0.5176E+00
      3.629  0.3698E-01  0.5205E+00
      3.706  0.3255E-01  0.5230E+00
      3.783  0.3047E-01  0.5253E+00
      3.861  0.2745E-01  0.5275E+00
      3.938  0.2257E-01  0.5292E+00
      4.015  0.1725E-01  0.5305E+00
      4.093  0.1290E-01  0.5315E+00
      4.170  0.9549E-02  0.5323E+00
      4.247  0.6618E-02  0.5328E+00
      4.325  0.3983E-02  0.5331E+00
      4.402  0.1969E-02  0.5333E+00
      4.479  0.7723E-03  0.5333E+00
      4.557  0.2357E-03  0.5333E+00
      4.634  0.5561E-04  0.5333E+00
      4.711  0.1405E-04  0.5333E+00
      4.789  0.3249E-04  0.5333E+00
      4.866  0.1730E-03  0.5333E+00
      4.943  0.7225E-03  0.5334E+00
      5.021  0.2282E-02  0.5336E+00
      5.098  0.5489E-02  0.5340E+00
      5.175  0.1021E-01  0.5348E+00
      5.253  0.1523E-01  0.5360E+00
      5.330  0.1973E-01  0.5375E+00
      5.407  0.2499E-01  0.5394E+00
      5.485  0.3307E-01  0.5420E+00
      5.562  0.4337E-01  0.5453E+00
      5.639  0.5255E-01  0.5494E+00
      5.717  0.5856E-01  0.5539E+00
      5.794  0.6309E-01  0.5588E+00
      5.871  0.6880E-01  0.5641E+00
      5.949  0.7611E-01  0.5700E+00
      6.026  0.8378E-01  0.5765E+00
      6.103  0.9139E-01  0.5836E+00
      6.181  0.1003E+00  0.5913E+00
      6.258  0.1116E+00  0.6000E+00
      6.335  0.1229E+00  0.6095E+00
      6.413  0.1283E+00  0.6194E+00
      6.490  0.1237E+00  0.6289E+00
      6.567  0.1104E+00  0.6375E+00
      6.645  0.9508E-01  0.6448E+00
      6.722  0.8532E-01  0.6514E+00
      6.799  0.8339E-01  0.6579E+00
      6.877  0.8417E-01  0.6644E+00
      6.954  0.8030E-01  0.6706E+00
      7.031  0.7086E-01  0.6761E+00
      7.109  0.6321E-01  0.6810E+00
      7.186  0.6559E-01  0.6860E+00
      7.263  0.7983E-01  0.6922E+00
      7.341  0.1020E+00  0.7001E+00
      7.418  0.1264E+00  0.7099E+00
      7.495  0.1471E+00  0.7212E+00
      7.573  0.1571E+00  0.7334E+00
      7.650  0.1526E+00  0.7452E+00
      7.727  0.1365E+00  0.7558E+00
      7.805  0.1171E+00  0.7648E+00
      7.882  0.1018E+00  0.7727E+00
      7.959  0.9266E-01  0.7798E+00
      8.037  0.8842E-01  0.7867E+00
      8.114  0.8795E-01  0.7935E+00
      8.191  0.9072E-01  0.8005E+00
      8.269  0.9480E-01  0.8078E+00
      8.346  0.9723E-01  0.8153E+00
      8.423  0.9651E-01  0.8228E+00
      8.500  0.9383E-01  0.8301E+00
      8.578  0.9270E-01  0.8372E+00
      8.655  0.9693E-01  0.8447E+00
      8.732  0.1067E+00  0.8530E+00
      8.810  0.1158E+00  0.8619E+00
      8.887  0.1161E+00  0.8709E+00
      8.964  0.1054E+00  0.8791E+00
      9.042  0.9077E-01  0.8861E+00
      9.119  0.8074E-01  0.8923E+00
      9.196  0.7727E-01  0.8983E+00
      9.274  0.7676E-01  0.9042E+00
      9.351  0.7702E-01  0.9102E+00
      9.428  0.8022E-01  0.9164E+00
      9.506  0.8817E-01  0.9232E+00
      9.583  0.9746E-01  0.9307E+00
      9.660  0.1019E+00  0.9386E+00
      9.738  0.9854E-01  0.9462E+00
      9.815  0.8914E-01  0.9531E+00
      9.892  0.7748E-01  0.9591E+00
      9.970  0.6720E-01  0.9643E+00
     10.047  0.6051E-01  0.9690E+00
     10.124  0.5724E-01  0.9734E+00
     10.202  0.5516E-01  0.9777E+00
     10.279  0.5221E-01  0.9817E+00
     10.356  0.4951E-01  0.9856E+00
     10.434  0.5163E-01  0.9896E+00
     10.511  0.6177E-01  0.9943E+00
     10.588  0.7637E-01  0.1000E+01
     10.666  0.8651E-01  0.1007E+01
     10.743  0.8523E-01  0.1014E+01
     10.820  0.7289E-01  0.1019E+01
     10.898  0.5620E-01  0.1024E+01
     10.975  0.4272E-01  0.1027E+01
     11.052  0.3544E-01  0.1030E+01
     11.130  0.3229E-01  0.1032E+01
     11.207  0.3042E-01  0.1034E+01
     11.284  0.2941E-01  0.1037E+01
     11.362  0.3056E-01  0.1039E+01
     11.439  0.3440E-01  0.1042E+01
     11.516  0.3963E-01  0.1045E+01
     11.594  0.4377E-01  0.1048E+01
     11.671  0.4466E-01  0.1052E+01
     11.748  0.4099E-01  0.1055E+01
     11.826  0.3271E-01  0.1057E+01
     11.903  0.2193E-01  0.1059E+01
     11.980  0.1237E-01  0.1060E+01
     12.058  0.6996E-02  0.1060E+01
     12.135  0.6104E-02  0.1061E+01
     12.212  0.7713E-02  0.1062E+01
     12.290  0.9166E-02  0.1062E+01
     12.367  0.9149E-02  0.1063E+01
     12.444  0.8520E-02  0.1064E+01
     12.522  0.8655E-02  0.1064E+01
     12.599  0.9260E-02  0.1065E+01
     12.676  0.8767E-02  0.1066E+01
     12.754  0.6567E-02  0.1066E+01
     12.831  0.3738E-02  0.1066E+01
     12.908  0.1597E-02  0.1067E+01
     12.986  0.5101E-03  0.1067E+01
     13.063  0.1217E-03  0.1067E+01
     13.140  0.2169E-04  0.1067E+01
     13.218  0.2885E-05  0.1067E+01
     13.295  0.2862E-06  0.1067E+01
     13.372  0.2118E-07  0.1067E+01
     13.450  0.1169E-08  0.1067E+01
     13.527  0.4807E-10  0.1067E+01
     13.604  0.1473E-11  0.1067E+01
     13.682  0.3362E-13  0.1067E+01
     13.759  0.5698E-15  0.1067E+01
     13.836  0.8973E-17  0.1067E+01
     13.914  0.0000E+00  0.1067E+01
     13.991  0.0000E+00  0.1067E+01
     14.068  0.0000E+00  0.1067E+01
     14.145  0.0000E+00  0.1067E+01
     14.223  0.0000E+00  0.1067E+01
     14.300  0.0000E+00  0.1067E+01
     14.377  0.0000E+00  0.1067E+01
     14.455  0.0000E+00  0.1067E+01
     14.532  0.0000E+00  0.1067E+01
     14.609  0.0000E+00  0.1067E+01
