    2    2   15    1
  0.2366497E+02  0.4060227E-09  0.4060227E-09  0.4060227E-09  0.5000000E-15
  1.000000000000000E-004
  CAR 
 unknown system                          
      8     60      8
 
  0.6250000E-01  0.6250000E-01  0.6250000E-01  0.3906250E-02
    1       -6.589166   1.000000
    2        3.668202   1.000000
    3        4.186868   0.999817
    4        4.186868   0.999817
    5        6.112022   0.000000
    6        6.842285   0.000000
    7        6.842285   0.000000
    8        6.958647   0.000000
 
  0.1875000E+00  0.6250000E-01  0.6250000E-01  0.1171875E-01
    1       -6.355514   1.000000
    2        2.211336   1.000000
    3        3.501717   1.000000
    4        4.073033   0.999994
    5        6.326232   0.000000
    6        7.064584   0.000000
    7        7.248285   0.000000
    8        8.325568   0.000000
 
  0.3125000E+00  0.6250000E-01  0.6250000E-01  0.1171875E-01
    1       -5.795583   1.000000
    2        0.241355   1.000000
    3        3.047580   1.000000
    4        3.666504   1.000000
    5        5.934660   0.000000
    6        7.553048   0.000000
    7        7.799855   0.000000
    8       10.009923   0.000000
 
  0.4375000E+00  0.6250000E-01  0.6250000E-01  0.1171875E-01
    1       -5.033025   1.000000
    2       -1.393832   1.000000
    3        2.834840   1.000000
    4        3.308876   1.000000
    5        5.643128   0.000000
    6        7.706600   0.000000
    7        7.724927   0.000000
    8       11.513933   0.000000
 
 -0.4375000E+00  0.6250000E-01  0.6250000E-01  0.1171875E-01
    1       -4.673076   1.000000
    2       -1.977146   1.000000
    3        2.863975   1.000000
    4        3.123277   1.000000
    5        5.573104   0.000000
    6        7.565182   0.000000
    7        7.796774   0.000000
    8       11.768457   0.000000
 
 -0.3125000E+00  0.6250000E-01  0.6250000E-01  0.1171875E-01
    1       -5.290270   1.000000
    2       -0.916005   1.000000
    3        3.113416   1.000000
    4        3.153257   1.000000
    5        5.739183   0.000000
    6        7.511436   0.000000
    7        7.971803   0.000000
    8       10.743546   0.000000
 
 -0.1875000E+00  0.6250000E-01  0.6250000E-01  0.1171875E-01
    1       -6.014200   1.000000
    2        0.884102   1.000000
    3        3.407692   1.000000
    4        3.529476   1.000000
    5        6.102381   0.000000
    6        7.234446   0.000000
    7        7.912805   0.000000
    8        9.364730   0.000000
 
 -0.6250000E-01  0.6250000E-01  0.6250000E-01  0.1171875E-01
    1       -6.471599   1.000000
    2        2.894785   1.000000
    3        3.832164   1.000000
    4        3.931699   1.000000
    5        6.484659   0.000000
    6        6.675451   0.000000
    7        7.334342   0.000000
    8        7.633241   0.000000
 
  0.1875000E+00  0.1875000E+00  0.6250000E-01  0.1171875E-01
    1       -6.237666   1.000000
    2        1.995455   1.000000
    3        3.354869   1.000000
    4        3.388287   1.000000
    5        6.225571   0.000000
    6        7.259131   0.000000
    7        8.081159   0.000000
    8        8.341791   0.000000
 
  0.3125000E+00  0.1875000E+00  0.6250000E-01  0.2343750E-01
    1       -5.782047   1.000000
    2        0.642020   1.000000
    3        2.509377   1.000000
    4        3.164512   1.000000
    5        6.363065   0.000000
    6        7.421028   0.000000
    7        8.664390   0.000000
    8        8.810071   0.000000
 
  0.4375000E+00  0.1875000E+00  0.6250000E-01  0.2343750E-01
    1       -5.058955   1.000000
    2       -0.944639   1.000000
    3        2.021047   1.000000
    4        2.825172   1.000000
    5        6.435365   0.000000
    6        7.675111   0.000000
    7        8.855302   0.000000
    8        9.292443   0.000000
 
 -0.4375000E+00  0.1875000E+00  0.6250000E-01  0.2343750E-01
    1       -4.436012   1.000000
    2       -1.950756   1.000000
    3        1.750314   1.000000
    4        2.749855   1.000000
    5        6.406482   0.000000
    6        7.601506   0.000000
    7        8.769340   0.000000
    8       10.983328   0.000000
 
 -0.3125000E+00  0.1875000E+00  0.6250000E-01  0.2343750E-01
    1       -4.806425   1.000000
    2       -1.381660   1.000000
    3        1.711917   1.000000
    4        2.986372   1.000000
    5        6.556303   0.000000
    6        7.599270   0.000000
    7        8.688437   0.000000
    8       10.331627   0.000000
 
 -0.1875000E+00  0.1875000E+00  0.6250000E-01  0.2343750E-01
    1       -5.569172   1.000000
    2        0.084805   1.000000
    3        2.032564   1.000000
    4        3.413839   1.000000
    5        6.833762   0.000000
    6        7.344333   0.000000
    7        8.543116   0.000000
    8        9.092996   0.000000
 
 -0.6250000E-01  0.1875000E+00  0.6250000E-01  0.2343750E-01
    1       -6.124687   1.000000
    2        1.435738   1.000000
    3        3.003914   1.000000
    4        3.729968   1.000000
    5        6.582298   0.000000
    6        6.958763   0.000000
    7        7.923322   0.000000
    8        8.854062   0.000000
 
  0.3125000E+00  0.3125000E+00  0.6250000E-01  0.1171875E-01
    1       -5.431847   1.000000
    2        0.103592   1.000000
    3        2.387135   1.000000
    4        2.491336   1.000000
    5        5.536078   0.000000
    6        7.034171   0.000000
    7        9.677290   0.000000
    8        9.861130   0.000000
 
  0.4375000E+00  0.3125000E+00  0.6250000E-01  0.2343750E-01
    1       -4.782161   1.000000
    2       -0.990830   1.000000
    3        1.720966   1.000000
    4        2.197571   1.000000
    5        5.823621   0.000000
    6        6.917957   0.000000
    7        9.652168   0.000000
    8       10.732059   0.000000
 
 -0.4375000E+00  0.3125000E+00  0.6250000E-01  0.2343750E-01
    1       -4.029143   1.000000
    2       -2.004366   1.000000
    3        1.004536   1.000000
    4        2.168303   1.000000
    5        6.042581   0.000000
    6        8.389514   0.000000
    7        9.284121   0.000000
    8       10.655390   0.000000
 
 -0.3125000E+00  0.3125000E+00  0.6250000E-01  0.2343750E-01
    1       -4.098332   1.000000
    2       -1.916387   1.000000
    3        0.718291   1.000000
    4        2.458917   1.000000
    5        6.355429   0.000000
    6        8.976551   0.000000
    7        9.993510   0.000000
    8       10.556499   0.000000
 
 -0.1875000E+00  0.3125000E+00  0.6250000E-01  0.2343750E-01
    1       -4.854809   1.000000
    2       -1.046681   1.000000
    3        1.211912   1.000000
    4        2.952296   1.000000
    5        6.767765   0.000000
    6        8.000749   0.000000
    7        9.168729   0.000000
    8        9.582880   0.000000
 
 -0.6250000E-01  0.3125000E+00  0.6250000E-01  0.2343750E-01
    1       -5.474057   1.000000
    2       -0.374078   1.000000
    3        2.560450   1.000000
    4        3.323938   1.000000
    5        6.265040   0.000000
    6        7.450024   0.000000
    7        8.237739   0.000000
    8        9.790479   0.000000
 
  0.4375000E+00  0.4375000E+00  0.6250000E-01  0.1171875E-01
    1       -4.210146   1.000000
    2       -1.763122   1.000000
    3        1.796497   1.000000
    4        1.968661   1.000000
    5        5.227239   0.000074
    6        5.908699   0.000000
    7       11.677747   0.000000
    8       11.771340   0.000000
 
 -0.4375000E+00  0.4375000E+00  0.6250000E-01  0.2343750E-01
    1       -3.428608   1.000000
    2       -2.632705   1.000000
    3        1.343430   1.000000
    4        1.773123   1.000000
    5        5.623107   0.000000
    6        6.261067   0.000000
    7       11.516295   0.000000
    8       12.261286   0.000000
 
 -0.3125000E+00  0.4375000E+00  0.6250000E-01  0.2343750E-01
    1       -3.546282   1.000000
    2       -2.464372   1.000000
    3        0.744960   1.000000
    4        2.043413   1.000000
    5        5.925942   0.000000
    6        8.250403   0.000000
    7       10.186545   0.000000
    8       11.097335   0.000000
 
 -0.1875000E+00  0.4375000E+00  0.6250000E-01  0.2343750E-01
    1       -4.211002   1.000000
    2       -1.980221   1.000000
    3        1.126893   1.000000
    4        2.555520   1.000000
    5        6.417971   0.000000
    6        8.195646   0.000000
    7        9.536911   0.000000
    8       10.762273   0.000000
 
 -0.6250000E-01  0.4375000E+00  0.6250000E-01  0.2343750E-01
    1       -4.731612   1.000000
    2       -1.751226   1.000000
    3        2.375628   1.000000
    4        3.042541   1.000000
    5        6.047502   0.000000
    6        7.506652   0.000000
    7        8.135970   0.000000
    8       11.296768   0.000000
 
 -0.4375000E+00 -0.4375000E+00  0.6250000E-01  0.1171875E-01
    1       -3.464398   1.000000
    2       -2.642174   1.000000
    3        1.676817   1.000000
    4        1.861572   1.000000
    5        5.250609   0.000038
    6        5.573525   0.000000
    7       12.601999   0.000000
    8       12.609468   0.000000
 
 -0.3125000E+00 -0.4375000E+00  0.6250000E-01  0.2343750E-01
    1       -4.141949   1.000000
    2       -1.821076   1.000000
    3        1.472306   1.000000
    4        1.913403   1.000000
    5        5.680806   0.000000
    6        6.497008   0.000000
    7       10.566826   0.000000
    8       11.716101   0.000000
 
 -0.1875000E+00 -0.4375000E+00  0.6250000E-01  0.2343750E-01
    1       -4.566571   1.000000
    2       -1.482092   1.000000
    3        1.466451   1.000000
    4        2.425213   1.000000
    5        6.248629   0.000000
    6        8.348857   0.000000
    7        8.755153   0.000000
    8        9.785003   0.000000
 
 -0.3125000E+00 -0.3125000E+00  0.6250000E-01  0.1171875E-01
    1       -4.869417   1.000000
    2       -0.841796   1.000000
    3        2.034421   1.000000
    4        2.180442   1.000000
    5        5.321177   0.000004
    6        6.418448   0.000000
    7       10.660671   0.000000
    8       10.812956   0.000000
 
 -0.1875000E+00 -0.3125000E+00  0.6250000E-01  0.2343750E-01
    1       -5.332222   1.000000
    2       -0.166364   1.000000
    3        2.073163   1.000000
    4        2.623909   1.000000
    5        6.058583   0.000000
    6        7.408127   0.000000
    7        8.865584   0.000000
    8        9.743886   0.000000
 
 -0.1875000E+00 -0.1875000E+00  0.6250000E-01  0.1171875E-01
    1       -5.889794   1.000000
    2        1.055567   1.000000
    3        2.846314   1.000000
    4        2.890390   1.000000
    5        5.851157   0.000000
    6        7.524288   0.000000
    7        8.848211   0.000000
    8        8.942437   0.000000
 
  0.1875000E+00  0.1875000E+00  0.1875000E+00  0.3906250E-02
    1       -6.241181   1.000000
    2        1.590009   1.000000
    3        3.803964   1.000000
    4        3.803964   1.000000
    5        5.909232   0.000000
    6        7.392275   0.000000
    7        7.392275   0.000000
    8        8.842053   0.000000
 
  0.3125000E+00  0.1875000E+00  0.1875000E+00  0.1171875E-01
    1       -5.900579   1.000000
    2        0.762774   1.000000
    3        2.510464   1.000000
    4        3.800343   1.000000
    5        6.561221   0.000000
    6        7.514533   0.000000
    7        7.734357   0.000000
    8        9.308398   0.000000
 
  0.4375000E+00  0.1875000E+00  0.1875000E+00  0.1171875E-01
    1       -5.256881   1.000000
    2       -0.490060   1.000000
    3        1.578784   1.000000
    4        3.367126   1.000000
    5        6.626188   0.000000
    6        8.198866   0.000000
    7        8.334160   0.000000
    8        9.624461   0.000000
 
 -0.4375000E+00  0.1875000E+00  0.1875000E+00  0.1171875E-01
    1       -4.508580   1.000000
    2       -1.739138   1.000000
    3        1.392993   1.000000
    4        2.913593   1.000000
    5        6.308420   0.000000
    6        8.254626   0.000000
    7        8.639115   0.000000
    8       11.334927   0.000000
 
 -0.3125000E+00  0.1875000E+00  0.1875000E+00  0.1171875E-01
    1       -4.493324   1.000000
    2       -1.765214   1.000000
    3        1.634695   1.000000
    4        2.645487   1.000000
    5        6.139597   0.000000
    6        8.228302   0.000000
    7        8.958136   0.000000
    8        9.805641   0.000000
 
 -0.1875000E+00  0.1875000E+00  0.1875000E+00  0.1171875E-01
    1       -5.239049   1.000000
    2       -0.493927   1.000000
    3        2.178655   1.000000
    4        2.634406   1.000000
    5        6.118223   0.000000
    6        7.865327   0.000000
    7        8.736015   0.000000
    8        9.215348   0.000000
 
  0.3125000E+00  0.3125000E+00  0.1875000E+00  0.1171875E-01
    1       -5.678140   1.000000
    2        0.189015   1.000000
    3        2.870125   1.000000
    4        2.998241   1.000000
    5        6.337742   0.000000
    6        7.384502   0.000000
    7        8.530663   0.000000
    8        9.038869   0.000000
 
  0.4375000E+00  0.3125000E+00  0.1875000E+00  0.2343750E-01
    1       -5.136973   1.000000
    2       -0.584830   1.000000
    3        1.628684   1.000000
    4        2.820890   1.000000
    5        6.879917   0.000000
    6        7.567616   0.000000
    7        8.481137   0.000000
    8        9.605772   0.000000
 
 -0.4375000E+00  0.3125000E+00  0.1875000E+00  0.2343750E-01
    1       -4.378403   1.000000
    2       -1.583222   1.000000
    3        0.965353   1.000000
    4        2.353472   1.000000
    5        7.238563   0.000000
    6        7.785501   0.000000
    7        8.900535   0.000000
    8       10.579064   0.000000
 
 -0.3125000E+00  0.3125000E+00  0.1875000E+00  0.2343750E-01
    1       -3.975715   1.000000
    2       -2.091700   1.000000
    3        0.945413   1.000000
    4        2.095391   1.000000
    5        6.894397   0.000000
    6        8.046865   0.000000
    7        9.590485   0.000000
    8       10.585242   0.000000
 
 -0.1875000E+00  0.3125000E+00  0.1875000E+00  0.2343750E-01
    1       -4.613943   1.000000
    2       -1.256519   1.000000
    3        1.324861   1.000000
    4        2.242267   1.000000
    5        6.673014   0.000000
    6        7.751789   0.000000
    7        8.476050   0.000000
    8       10.663896   0.000000
 
  0.4375000E+00  0.4375000E+00  0.1875000E+00  0.1171875E-01
    1       -4.706592   1.000000
    2       -1.184212   1.000000
    3        1.592249   1.000000
    4        2.345411   1.000000
    5        5.831373   0.000000
    6        7.634284   0.000000
    7        9.435177   0.000000
    8        9.963329   0.000000
 
 -0.4375000E+00  0.4375000E+00  0.1875000E+00  0.2343750E-01
    1       -4.015586   1.000000
    2       -1.940574   1.000000
    3        1.132412   1.000000
    4        1.794754   1.000000
    5        6.516513   0.000000
    6        7.441817   0.000000
    7        9.240413   0.000000
    8       11.612971   0.000000
 
 -0.3125000E+00  0.4375000E+00  0.1875000E+00  0.2343750E-01
    1       -3.332343   1.000000
    2       -2.616809   1.000000
    3        0.884484   1.000000
    4        1.381136   1.000000
    5        7.527216   0.000000
    6        8.437622   0.000000
    7        8.792082   0.000000
    8        9.760101   0.000000
 
 -0.1875000E+00  0.4375000E+00  0.1875000E+00  0.2343750E-01
    1       -3.852170   1.000000
    2       -2.110995   1.000000
    3        0.859418   1.000000
    4        1.779653   1.000000
    5        7.595726   0.000000
    6        7.961796   0.000000
    7        8.598179   0.000000
    8       10.788976   0.000000
 
 -0.4375000E+00 -0.4375000E+00  0.1875000E+00  0.1171875E-01
    1       -3.462569   1.000000
    2       -2.578038   1.000000
    3        0.967638   1.000000
    4        2.045079   1.000000
    5        5.487997   0.000000
    6        7.156162   0.000000
    7       11.487852   0.000000
    8       11.495094   0.000000
 
 -0.3125000E+00 -0.4375000E+00  0.1875000E+00  0.2343750E-01
    1       -3.374156   1.000000
    2       -2.621925   1.000000
    3        1.046964   1.000000
    4        1.547336   1.000000
    5        6.437740   0.000000
    6        7.257373   0.000000
    7       10.147193   0.000000
    8       11.123379   0.000000
 
 -0.3125000E+00 -0.3125000E+00  0.1875000E+00  0.1171875E-01
    1       -4.097593   1.000000
    2       -1.892440   1.000000
    3        1.178440   1.000000
    4        2.146348   1.000000
    5        5.607709   0.000000
    6        7.322072   0.000000
    7       10.442460   0.000000
    8       10.761479   0.000000
 
  0.3125000E+00  0.3125000E+00  0.3125000E+00  0.3906250E-02
    1       -5.589290   1.000000
    2       -0.362166   1.000000
    3        3.433132   1.000000
    4        3.433132   1.000000
    5        5.491341   0.000000
    6        7.691985   0.000000
    7        7.691985   0.000000
    8       10.908705   0.000000
 
  0.4375000E+00  0.3125000E+00  0.3125000E+00  0.1171875E-01
    1       -5.178247   1.000000
    2       -0.910879   1.000000
    3        2.137499   1.000000
    4        3.351190   1.000000
    5        6.266033   0.000000
    6        7.891340   0.000000
    7        7.940658   0.000000
    8       10.582927   0.000000
 
 -0.4375000E+00  0.3125000E+00  0.3125000E+00  0.1171875E-01
    1       -4.500753   1.000000
    2       -1.497486   1.000000
    3        0.894371   1.000000
    4        2.860674   1.000000
    5        6.316822   0.000000
    6        9.114912   0.000000
    7        9.162950   0.000000
    8       10.287662   0.000000
 
 -0.3125000E+00  0.3125000E+00  0.3125000E+00  0.1171875E-01
    1       -3.806841   1.000000
    2       -2.218169   1.000000
    3        0.634152   1.000000
    4        2.393021   1.000000
    5        5.863612   0.000000
    6        9.390786   0.000000
    7       10.238048   0.000000
    8       10.248719   0.000000
 
  0.4375000E+00  0.4375000E+00  0.3125000E+00  0.1171875E-01
    1       -4.914734   1.000000
    2       -1.386875   1.000000
    3        2.391431   1.000000
    4        2.878171   1.000000
    5        6.149772   0.000000
    6        7.576303   0.000000
    7        8.398632   0.000000
    8       10.215223   0.000000
 
 -0.4375000E+00  0.4375000E+00  0.3125000E+00  0.2343750E-01
    1       -4.387315   1.000000
    2       -1.775945   1.000000
    3        1.306221   1.000000
    4        2.490767   1.000000
    5        6.919656   0.000000
    6        7.508838   0.000000
    7        9.524695   0.000000
    8       10.051179   0.000000
 
 -0.3125000E+00  0.4375000E+00  0.3125000E+00  0.2343750E-01
    1       -3.683738   1.000000
    2       -2.299188   1.000000
    3        0.714133   1.000000
    4        1.893552   1.000000
    5        6.809220   0.000000
    6        8.849179   0.000000
    7        9.481376   0.000000
    8        9.884016   0.000000
 
 -0.4375000E+00 -0.4375000E+00  0.3125000E+00  0.1171875E-01
    1       -4.085681   1.000000
    2       -2.048487   1.000000
    3        1.004078   1.000000
    4        2.479223   1.000000
    5        5.973331   0.000000
    6        9.173789   0.000000
    7        9.544271   0.000000
    8        9.616574   0.000000
 
  0.4375000E+00  0.4375000E+00  0.4375000E+00  0.3906250E-02
    1       -4.849068   1.000000
    2       -1.775619   1.000000
    3        3.230949   1.000000
    4        3.230949   1.000000
    5        5.250931   0.000037
    6        7.645390   0.000000
    7        7.645390   0.000000
    8       11.729808   0.000000
 
 -0.4375000E+00  0.4375000E+00  0.4375000E+00  0.1171875E-01
    1       -4.555364   1.000000
    2       -1.954020   1.000000
    3        2.124907   1.000000
    4        3.008261   1.000000
    5        6.100399   0.000000
    6        7.670407   0.000000
    7        8.146224   0.000000
    8       11.805342   0.000000
