       N       E                     dE             d eps       ncg     rms          rms(c)
DAV:   1     0.277463319058E+01    0.27746E+01   -0.25643E+03   960   0.555E+02
DAV:   2    -0.105407562984E+02   -0.13315E+02   -0.12797E+02  1488   0.674E+01
DAV:   3    -0.107307059621E+02   -0.18995E+00   -0.18995E+00  1248   0.998E+00
DAV:   4    -0.107315017280E+02   -0.79577E-03   -0.79577E-03  1496   0.709E-01
DAV:   5    -0.107315032177E+02   -0.14897E-05   -0.14894E-05  1272   0.216E-02    0.261E+00
DAV:   6    -0.106657705933E+02    0.65733E-01   -0.37395E-02  1144   0.102E+00    0.159E+00
DAV:   7    -0.106309214116E+02    0.34849E-01   -0.83115E-02  1184   0.164E+00    0.119E-01
DAV:   8    -0.106322816357E+02   -0.13602E-02   -0.29289E-03  1056   0.384E-01    0.259E-02
DAV:   9    -0.106324240608E+02   -0.14243E-03   -0.14999E-04   776   0.916E-02
   1 F= -.10632424E+02 E0= -.10632422E+02  d E =-.106324E+02
