 vasp.5.4.4.18Apr17-6-g9f103f2a35 (build Dec 09 2018 21:25:21) complex          
  
 executed on IFC18.0.1.163_CrayMP date 2019.04.01  16:01:46
 running on    8 total cores
 distrk:  each k-point on    8 cores,    1 groups
 distr:  one band on NCORES_PER_BAND=   1 cores,    8 groups


--------------------------------------------------------------------------------------------------------


 INCAR:
 POTCAR:   PAW_PBE Si 05Jan2001                   

 ----------------------------------------------------------------------------- 
|                                                                             |
|           W    W    AA    RRRRR   N    N  II  N    N   GGGG   !!!           |
|           W    W   A  A   R    R  NN   N  II  NN   N  G    G  !!!           |
|           W    W  A    A  R    R  N N  N  II  N N  N  G       !!!           |
|           W WW W  AAAAAA  RRRRR   N  N N  II  N  N N  G  GGG   !            |
|           WW  WW  A    A  R   R   N   NN  II  N   NN  G    G                |
|           W    W  A    A  R    R  N    N  II  N    N   GGGG   !!!           |
|                                                                             |
|      For optimal performance we recommend to set                            |
|        NCORE= 4 - approx SQRT( number of cores)                             |
|      NCORE specifies how many cores store one orbital (NPAR=cpu/NCORE).     |
|      This setting can  greatly improve the performance of VASP for DFT.     |
|      The default,   NCORE=1            might be grossly inefficient         |
|      on modern multi-core architectures or massively parallel machines.     |
|      Do your own testing !!!!                                               |
|      Unfortunately you need to use the default for GW and RPA calculations. |
|      (for HF NCORE is supported but not extensively tested yet)             |
|                                                                             |
 ----------------------------------------------------------------------------- 

 POTCAR:   PAW_PBE Si 05Jan2001                   
   VRHFIN =Si: s2p2                                                             
   LEXCH  = PE                                                                  
   EATOM  =   103.0669 eV,    7.5752 Ry                                         
                                                                                
   TITEL  = PAW_PBE Si 05Jan2001                                                
   LULTRA =        F    use ultrasoft PP ?                                      
   IUNSCR =        1    unscreen: 0-lin 1-nonlin 2-no                           
   RPACOR =    1.500    partial core radius                                     
   POMASS =   28.085; ZVAL   =    4.000    mass and valenz                      
   RCORE  =    1.900    outmost cutoff radius                                   
   RWIGS  =    2.480; RWIGS  =    1.312    wigner-seitz radius (au A)           
   ENMAX  =  245.345; ENMIN  =  184.009 eV                                      
   ICORE  =        2    local potential                                         
   LCOR   =        T    correct aug charges                                     
   LPAW   =        T    paw PP                                                  
   EAUG   =  322.069                                                            
   DEXC   =    -.007                                                            
   RMAX   =    2.944    core radius for proj-oper                               
   RAUG   =    1.300    factor for augmentation sphere                          
   RDEP   =    1.993    radius for radial grids                                 
   QCUT   =   -4.246; QGAM   =    8.493    optimization parameters              
                                                                                
   Description                                                                  
     l     E      TYP  RCUT    TYP  RCUT                                        
     0   .000     23  1.900                                                     
     0   .000     23  1.900                                                     
     1   .000     23  1.900                                                     
     1   .000     23  1.900                                                     
     2   .000      7  1.900                                                     
  local pseudopotential read in
  partial core-charges read in
  atomic valenz-charges read in
  non local Contribution for L=           0  read in
    real space projection operators read in
  non local Contribution for L=           0  read in
    real space projection operators read in
  non local Contribution for L=           1  read in
    real space projection operators read in
  non local Contribution for L=           1  read in
    real space projection operators read in
    PAW grid and wavefunctions read in
 
   number of l-projection  operators is LMAX  =           4
   number of lm-projection operators is LMMAX =           8
 
 PAW_PBE Si 05Jan2001                   :
 energy of atom  1       EATOM= -103.0669
 kinetic energy error for atom=    0.0013 (will be added to EATOM!!)
 
 
 POSCAR: Si2                                     
  positions in direct lattice
  No initial velocities read in
 exchange correlation table for  LEXCH =        8
   RHO(1)=    0.500       N(1)  =     2000
   RHO(2)=  100.500       N(2)  =     4000
 


--------------------------------------------------------------------------------------------------------


 ion  position               nearest neighbor table
   1  0.000  0.000  0.000-   2 2.49   2 2.49   2 2.49   2 2.49
   2  0.250  0.250  0.250-   1 2.49   1 2.49   1 2.49   1 2.49
 
  LATTYP: Found a face centered cubic cell.
 ALAT       =     5.7420280000
  
  Lattice vectors:
  
 A1 = (   0.0000000000,   2.8710140000,   2.8710140000)
 A2 = (   2.8710140000,   0.0000000000,   2.8710140000)
 A3 = (   2.8710140000,   2.8710140000,   0.0000000000)


Analysis of symmetry for initial positions (statically):
=====================================================================
 Subroutine PRICEL returns:
 Original cell was already a primitive cell.
 

 Routine SETGRP: Setting up the symmetry group for a 
 face centered cubic supercell.


 Subroutine GETGRP returns: Found 48 space group operations
 (whereof 24 operations were pure point group operations)
 out of a pool of 48 trial point group operations.


The static configuration has the point symmetry T_d .
 The point group associated with its full space group is O_h .


Analysis of symmetry for dynamics (positions and initial velocities):
=====================================================================
 Subroutine PRICEL returns:
 Original cell was already a primitive cell.
 

 Routine SETGRP: Setting up the symmetry group for a 
 face centered cubic supercell.


 Subroutine GETGRP returns: Found 48 space group operations
 (whereof 24 operations were pure point group operations)
 out of a pool of 48 trial point group operations.


The dynamic configuration has the point symmetry T_d .
 The point group associated with its full space group is O_h .


 Subroutine INISYM returns: Found 48 space group operations
 (whereof 24 operations are pure point group operations),
 and found     1 'primitive' translations

 
 
 KPOINTS: Automatic kpoint scheme                 

Automatic generation of k-mesh.
Space group operators:
 irot       det(A)        alpha          n_x          n_y          n_z        tau_x        tau_y        tau_z
    1     1.000000     0.000000     1.000000     0.000000     0.000000     0.000000     0.000000     0.000000
    2     1.000000   120.000000    -0.577350    -0.577350    -0.577350     0.000000     0.000000     0.000000
    3     1.000000   120.000000     0.577350     0.577350     0.577350     0.000000     0.000000     0.000000
    4    -1.000000    90.000000    -0.000000     0.000000    -1.000000     0.000000     0.000000     0.000000
    5    -1.000000   180.000000    -0.000000     0.707107     0.707107     0.000000     0.000000     0.000000
    6    -1.000000    90.000000    -0.000000     1.000000    -0.000000     0.000000     0.000000     0.000000
    7     1.000000   180.000000     0.000000     0.000000    -1.000000     0.000000     0.000000     0.000000
    8     1.000000   120.000000    -0.577350     0.577350     0.577350     0.000000     0.000000     0.000000
    9     1.000000   120.000000    -0.577350     0.577350    -0.577350     0.000000     0.000000     0.000000
   10    -1.000000    90.000000     0.000000     0.000000     1.000000     0.000000     0.000000     0.000000
   11    -1.000000    90.000000    -1.000000     0.000000     0.000000     0.000000     0.000000     0.000000
   12    -1.000000   180.000000     0.707107     0.000000     0.707107     0.000000     0.000000     0.000000
   13     1.000000   120.000000     0.577350    -0.577350     0.577350     0.000000     0.000000     0.000000
   14     1.000000   120.000000    -0.577350    -0.577350     0.577350     0.000000     0.000000     0.000000
   15     1.000000   180.000000     1.000000     0.000000     0.000000     0.000000     0.000000     0.000000
   16    -1.000000    90.000000     0.000000    -1.000000     0.000000     0.000000     0.000000     0.000000
   17    -1.000000   180.000000     0.707107     0.707107    -0.000000     0.000000     0.000000     0.000000
   18    -1.000000    90.000000     1.000000     0.000000     0.000000     0.000000     0.000000     0.000000
   19     1.000000   120.000000     0.577350    -0.577350    -0.577350     0.000000     0.000000     0.000000
   20     1.000000   180.000000    -0.000000    -1.000000     0.000000     0.000000     0.000000     0.000000
   21     1.000000   120.000000     0.577350     0.577350    -0.577350     0.000000     0.000000     0.000000
   22    -1.000000   180.000000    -0.000000    -0.707107     0.707107     0.000000     0.000000     0.000000
   23    -1.000000   180.000000     0.707107    -0.707107     0.000000     0.000000     0.000000     0.000000
   24    -1.000000   180.000000     0.707107     0.000000    -0.707107     0.000000     0.000000     0.000000
   25    -1.000000     0.000000     1.000000     0.000000     0.000000     0.250000     0.250000     0.250000
   26    -1.000000   120.000000    -0.577350    -0.577350    -0.577350     0.250000     0.250000     0.250000
   27    -1.000000   120.000000     0.577350     0.577350     0.577350     0.250000     0.250000     0.250000
   28     1.000000    90.000000    -0.000000     0.000000    -1.000000     0.250000     0.250000     0.250000
   29     1.000000   180.000000    -0.000000     0.707107     0.707107     0.250000     0.250000     0.250000
   30     1.000000    90.000000    -0.000000     1.000000    -0.000000     0.250000     0.250000     0.250000
   31    -1.000000   180.000000     0.000000     0.000000    -1.000000     0.250000     0.250000     0.250000
   32    -1.000000   120.000000    -0.577350     0.577350     0.577350     0.250000     0.250000     0.250000
   33    -1.000000   120.000000    -0.577350     0.577350    -0.577350     0.250000     0.250000     0.250000
   34     1.000000    90.000000     0.000000     0.000000     1.000000     0.250000     0.250000     0.250000
   35     1.000000    90.000000    -1.000000     0.000000     0.000000     0.250000     0.250000     0.250000
   36     1.000000   180.000000     0.707107     0.000000     0.707107     0.250000     0.250000     0.250000
   37    -1.000000   120.000000     0.577350    -0.577350     0.577350     0.250000     0.250000     0.250000
   38    -1.000000   120.000000    -0.577350    -0.577350     0.577350     0.250000     0.250000     0.250000
   39    -1.000000   180.000000     1.000000     0.000000     0.000000     0.250000     0.250000     0.250000
   40     1.000000    90.000000     0.000000    -1.000000     0.000000     0.250000     0.250000     0.250000
   41     1.000000   180.000000     0.707107     0.707107    -0.000000     0.250000     0.250000     0.250000
   42     1.000000    90.000000     1.000000     0.000000     0.000000     0.250000     0.250000     0.250000
   43    -1.000000   120.000000     0.577350    -0.577350    -0.577350     0.250000     0.250000     0.250000
   44    -1.000000   180.000000    -0.000000    -1.000000     0.000000     0.250000     0.250000     0.250000
   45    -1.000000   120.000000     0.577350     0.577350    -0.577350     0.250000     0.250000     0.250000
   46     1.000000   180.000000    -0.000000    -0.707107     0.707107     0.250000     0.250000     0.250000
   47     1.000000   180.000000     0.707107    -0.707107     0.000000     0.250000     0.250000     0.250000
   48     1.000000   180.000000     0.707107     0.000000    -0.707107     0.250000     0.250000     0.250000
 
 Subroutine IBZKPT returns following result:
 ===========================================
 
 Found     60 irreducible k-points:
 
 Following reciprocal coordinates:
            Coordinates               Weight
  0.062500  0.062500  0.062500     96.000000
  0.187500  0.062500  0.062500    288.000000
  0.312500  0.062500  0.062500    288.000000
  0.437500  0.062500  0.062500    288.000000
 -0.437500  0.062500  0.062500    288.000000
 -0.312500  0.062500  0.062500    288.000000
 -0.187500  0.062500  0.062500    288.000000
 -0.062500  0.062500  0.062500    288.000000
  0.187500  0.187500  0.062500    288.000000
  0.312500  0.187500  0.062500    576.000000
  0.437500  0.187500  0.062500    576.000000
 -0.437500  0.187500  0.062500    576.000000
 -0.312500  0.187500  0.062500    576.000000
 -0.187500  0.187500  0.062500    576.000000
 -0.062500  0.187500  0.062500    576.000000
  0.312500  0.312500  0.062500    288.000000
  0.437500  0.312500  0.062500    576.000000
 -0.437500  0.312500  0.062500    576.000000
 -0.312500  0.312500  0.062500    576.000000
 -0.187500  0.312500  0.062500    576.000000
 -0.062500  0.312500  0.062500    576.000000
  0.437500  0.437500  0.062500    288.000000
 -0.437500  0.437500  0.062500    576.000000
 -0.312500  0.437500  0.062500    576.000000
 -0.187500  0.437500  0.062500    576.000000
 -0.062500  0.437500  0.062500    576.000000
 -0.437500 -0.437500  0.062500    288.000000
 -0.312500 -0.437500  0.062500    576.000000
 -0.187500 -0.437500  0.062500    576.000000
 -0.312500 -0.312500  0.062500    288.000000
 -0.187500 -0.312500  0.062500    576.000000
 -0.187500 -0.187500  0.062500    288.000000
  0.187500  0.187500  0.187500     96.000000
  0.312500  0.187500  0.187500    288.000000
  0.437500  0.187500  0.187500    288.000000
 -0.437500  0.187500  0.187500    288.000000
 -0.312500  0.187500  0.187500    288.000000
 -0.187500  0.187500  0.187500    288.000000
  0.312500  0.312500  0.187500    288.000000
  0.437500  0.312500  0.187500    576.000000
 -0.437500  0.312500  0.187500    576.000000
 -0.312500  0.312500  0.187500    576.000000
 -0.187500  0.312500  0.187500    576.000000
  0.437500  0.437500  0.187500    288.000000
 -0.437500  0.437500  0.187500    576.000000
 -0.312500  0.437500  0.187500    576.000000
 -0.187500  0.437500  0.187500    576.000000
 -0.437500 -0.437500  0.187500    288.000000
 -0.312500 -0.437500  0.187500    576.000000
 -0.312500 -0.312500  0.187500    288.000000
  0.312500  0.312500  0.312500     96.000000
  0.437500  0.312500  0.312500    288.000000
 -0.437500  0.312500  0.312500    288.000000
 -0.312500  0.312500  0.312500    288.000000
  0.437500  0.437500  0.312500    288.000000
 -0.437500  0.437500  0.312500    576.000000
 -0.312500  0.437500  0.312500    576.000000
 -0.437500 -0.437500  0.312500    288.000000
  0.437500  0.437500  0.437500     96.000000
 -0.437500  0.437500  0.437500    288.000000
 
 Following cartesian coordinates:
            Coordinates               Weight
  0.010885  0.010885  0.010885     96.000000
 -0.010885  0.032654  0.032654    288.000000
 -0.032654  0.054423  0.054423    288.000000
 -0.054423  0.076193  0.076193    288.000000
  0.097962 -0.076193 -0.076193    288.000000
  0.076193 -0.054423 -0.054423    288.000000
  0.054423 -0.032654 -0.032654    288.000000
  0.032654 -0.010885 -0.010885    288.000000
  0.010885  0.010885  0.054423    288.000000
 -0.010885  0.032654  0.076193    576.000000
 -0.032654  0.054423  0.097962    576.000000
  0.119731 -0.097962 -0.054423    576.000000
  0.097962 -0.076193 -0.032654    576.000000
  0.076193 -0.054423 -0.010885    576.000000
  0.054423 -0.032654  0.010885    576.000000
  0.010885  0.010885  0.097962    288.000000
 -0.010885  0.032654  0.119731    576.000000
  0.141501 -0.119731 -0.032654    576.000000
  0.119731 -0.097962 -0.010885    576.000000
  0.097962 -0.076193  0.010885    576.000000
  0.076193 -0.054423  0.032654    576.000000
  0.010885  0.010885  0.141501    288.000000
  0.163270 -0.141501 -0.010885    576.000000
  0.141501 -0.119731  0.010885    576.000000
  0.119731 -0.097962  0.032654    576.000000
  0.097962 -0.076193  0.054423    576.000000
  0.010885  0.010885 -0.163270    288.000000
 -0.010885  0.032654 -0.141501    576.000000
 -0.032654  0.054423 -0.119731    576.000000
  0.010885  0.010885 -0.119731    288.000000
 -0.010885  0.032654 -0.097962    576.000000
  0.010885  0.010885 -0.076193    288.000000
  0.032654  0.032654  0.032654     96.000000
  0.010885  0.054423  0.054423    288.000000
 -0.010885  0.076193  0.076193    288.000000
  0.141501 -0.076193 -0.076193    288.000000
  0.119731 -0.054423 -0.054423    288.000000
  0.097962 -0.032654 -0.032654    288.000000
  0.032654  0.032654  0.076193    288.000000
  0.010885  0.054423  0.097962    576.000000
  0.163270 -0.097962 -0.054423    576.000000
  0.141501 -0.076193 -0.032654    576.000000
  0.119731 -0.054423 -0.010885    576.000000
  0.032654  0.032654  0.119731    288.000000
  0.185039 -0.119731 -0.032654    576.000000
  0.163270 -0.097962 -0.010885    576.000000
  0.141501 -0.076193  0.010885    576.000000
  0.032654  0.032654 -0.185039    288.000000
  0.010885  0.054423 -0.163270    576.000000
  0.032654  0.032654 -0.141501    288.000000
  0.054423  0.054423  0.054423     96.000000
  0.032654  0.076193  0.076193    288.000000
  0.185039 -0.076193 -0.076193    288.000000
  0.163270 -0.054423 -0.054423    288.000000
  0.054423  0.054423  0.097962    288.000000
  0.206808 -0.097962 -0.054423    576.000000
  0.185039 -0.076193 -0.032654    576.000000
  0.054423  0.054423 -0.206808    288.000000
  0.076193  0.076193  0.076193     96.000000
  0.228578 -0.076193 -0.076193    288.000000
 


--------------------------------------------------------------------------------------------------------




 Dimension of arrays:
   k-points           NKPTS =     60   k-points in BZ     NKDIM =     60   number of bands    NBANDS=      8
   number of dos      NEDOS =    301   number of ions     NIONS =      2
   non local maximal  LDIM  =      4   non local SUM 2l+1 LMDIM =      8
   total plane-waves  NPLWV =   8000
   max r-space proj   IRMAX =      1   max aug-charges    IRDMAX=   5850
   dimension x,y,z NGX =    20 NGY =   20 NGZ =   20
   dimension x,y,z NGXF=    40 NGYF=   40 NGZF=   40
   support grid    NGXF=    40 NGYF=   40 NGZF=   40
   ions per type =               2
   NGX,Y,Z   is equivalent  to a cutoff of   8.19,  8.19,  8.19 a.u.
   NGXF,Y,Z  is equivalent  to a cutoff of  16.38, 16.38, 16.38 a.u.

 SYSTEM =  unknown system                          
 POSCAR =  Si2                                     

 Startparameter for this run:
   NWRITE =      2    write-flag & timer
   PREC   = normal    normal or accurate (medium, high low for compatibility)
   ISTART =      0    job   : 0-new  1-cont  2-samecut
   ICHARG =      2    charge: 1-file 2-atom 10-const
   ISPIN  =      1    spin polarized calculation?
   LNONCOLLINEAR =      F non collinear calculations
   LSORBIT =      F    spin-orbit coupling
   INIWAV =      1    electr: 0-lowe 1-rand  2-diag
   LASPH  =      F    aspherical Exc in radial PAW
   METAGGA=      F    non-selfconsistent MetaGGA calc.

 Electronic Relaxation 1
   ENCUT  =  350.0 eV  25.72 Ry    5.07 a.u.   6.19  6.19  6.19*2*pi/ulx,y,z
   ENINI  =  350.0     initial cutoff
   ENAUG  =  322.1 eV  augmentation charge cutoff
   NELM   =     60;   NELMIN=  2; NELMDL= -5     # of ELM steps 
   EDIFF  = 0.4E-03   stopping-criterion for ELM
   LREAL  =      F    real-space projection
   NLSPLINE    = F    spline interpolate recip. space projectors
   LCOMPAT=      F    compatible to vasp.4.4
   GGA_COMPAT  = T    GGA compatible to vasp.4.4-vasp.4.6
   LMAXPAW     = -100 max onsite density
   LMAXMIX     =    2 max onsite mixed and CHGCAR
   VOSKOWN=      0    Vosko Wilk Nusair interpolation
   ROPT   =    0.00000
 Ionic relaxation
   EDIFFG = -.1E-01   stopping-criterion for IOM
   NSW    =     15    number of steps for IOM
   NBLOCK =      1;   KBLOCK =     15    inner block; outer block 
   IBRION =      2    ionic relax: 0-MD 1-quasi-New 2-CG
   NFREE  =      1    steps in history (QN), initial steepest desc. (CG)
   ISIF   =      2    stress and relaxation
   IWAVPR =     11    prediction:  0-non 1-charg 2-wave 3-comb
   ISYM   =      2    0-nonsym 1-usesym 2-fastsym
   LCORR  =      T    Harris-Foulkes like correction to forces

   POTIM  = 0.5000    time-step for ionic-motion
   TEIN   =    0.0    initial temperature
   TEBEG  =    0.0;   TEEND  =   0.0 temperature during run
   SMASS  =  -3.00    Nose mass-parameter (am)
   estimated Nose-frequenzy (Omega)   =  0.10E-29 period in steps =****** mass=  -0.377E-27a.u.
   SCALEE = 1.0000    scale energy and forces
   NPACO  =    256;   APACO  = 16.0  distance and # of slots for P.C.
   PSTRESS=    0.0 pullay stress

  Mass of Ions in am
   POMASS =  28.09
  Ionic Valenz
   ZVAL   =   4.00
  Atomic Wigner-Seitz radii
   RWIGS  =  -1.00
  virtual crystal weights 
   VCA    =   1.00
   NELECT =       8.0000    total number of electrons
   NUPDOWN=      -1.0000    fix difference up-down

 DOS related values:
   EMIN   =  10.00;   EMAX   =-10.00  energy-range for DOS
   EFERMI =   0.00
   ISMEAR =     0;   SIGMA  =   0.20  broadening in eV -4-tet -1-fermi 0-gaus

 Electronic relaxation 2 (details)
   IALGO  =     38    algorithm
   LDIAG  =      T    sub-space diagonalisation (order eigenvalues)
   LSUBROT=      F    optimize rotation matrix (better conditioning)
   TURBO    =      0    0=normal 1=particle mesh
   IRESTART =      0    0=no restart 2=restart with 2 vectors
   NREBOOT  =      0    no. of reboots
   NMIN     =      0    reboot dimension
   EREF     =   0.00    reference energy to select bands
   IMIX   =      4    mixing-type and parameters
     AMIX     =   0.40;   BMIX     =  1.00
     AMIX_MAG =   1.60;   BMIX_MAG =  1.00
     AMIN     =   0.10
     WC   =   100.;   INIMIX=   1;  MIXPRE=   1;  MAXMIX= -45

 Intra band minimization:
   WEIMIN = 0.0010     energy-eigenvalue tresh-hold
   EBREAK =  0.13E-04  absolut break condition
   DEPER  =   0.30     relativ break condition  

   TIME   =   0.40     timestep for ELM

  volume/ion in A,a.u.               =      23.66       159.70
  Fermi-wavevector in a.u.,A,eV,Ry     =   0.905162  1.710508 11.147495  0.819318
  Thomas-Fermi vector in A             =   2.028696
 
 Write flags
   LWAVE        =      T    write WAVECAR
   LDOWNSAMPLE  =      F    k-point downsampling of WAVECAR
   LCHARG       =      T    write CHGCAR
   LVTOT        =      F    write LOCPOT, total local potential
   LVHAR        =      F    write LOCPOT, Hartree potential only
   LELF         =      F    write electronic localiz. function (ELF)
   LORBIT       =      0    0 simple, 1 ext, 2 COOP (PROOUT), +10 PAW based schemes


 Dipole corrections
   LMONO  =      F    monopole corrections only (constant potential shift)
   LDIPOL =      F    correct potential (dipole corrections)
   IDIPOL =      0    1-x, 2-y, 3-z, 4-all directions 
   EPSILON=  1.0000000 bulk dielectric constant

 Exchange correlation treatment:
   GGA     =    --    GGA type
   LEXCH   =     8    internal setting for exchange type
   VOSKOWN=      0    Vosko Wilk Nusair interpolation
   LHFCALC =     F    Hartree Fock is set to
   LHFONE  =     F    Hartree Fock one center treatment
   AEXX    =    0.0000 exact exchange contribution

 Linear response parameters
   LEPSILON=     F    determine dielectric tensor
   LRPA    =     F    only Hartree local field effects (RPA)
   LNABLA  =     F    use nabla operator in PAW spheres
   LVEL    =     F    velocity operator in full k-point grid
   LINTERFAST=   F  fast interpolation
   KINTER  =     0    interpolate to denser k-point grid
   CSHIFT  =0.1000    complex shift for real part using Kramers Kronig
   OMEGAMAX=  -1.0    maximum frequency
   DEG_THRESHOLD= 0.2000000E-02 threshold for treating states as degnerate
   RTIME   =   -0.100 relaxation time in fs
  (WPLASMAI=    0.000 imaginary part of plasma frequency in eV, 0.658/RTIME)
   DFIELD  = 0.0000000 0.0000000 0.0000000 field for delta impulse in time
 
 Orbital magnetization related:
   ORBITALMAG=     F  switch on orbital magnetization
   LCHIMAG   =     F  perturbation theory with respect to B field
   DQ        =  0.001000  dq finite difference perturbation B field
   LLRAUG    =     F  two centre corrections for induced B field



--------------------------------------------------------------------------------------------------------


 conjugate gradient relaxation of ions
 charge density and potential will be updated during run
 non-spin polarized calculation
 Variant of blocked Davidson
 Davidson routine will perform the subspace rotation
 perform sub-space diagonalisation
    after iterative eigenvector-optimisation
 modified Broyden-mixing scheme, WC =      100.0
 initial mixing is a Kerker type mixing with AMIX =  0.4000 and BMIX =      1.0000
 Hartree-type preconditioning will be used
 using additional bands            4
 reciprocal scheme for non local part
 use partial core corrections
 calculate Harris-corrections to forces 
   (improved forces if not selfconsistent)
 use gradient corrections 
 use of overlap-Matrix (Vanderbilt PP)
 Gauss-broadening in eV      SIGMA  =   0.20


--------------------------------------------------------------------------------------------------------


  energy-cutoff  :      350.00
  volume of cell :       47.33
      direct lattice vectors                 reciprocal lattice vectors
     0.000000000  2.871014000  2.871014000    -0.174154497  0.174154497  0.174154497
     2.871014000  0.000000000  2.871014000     0.174154497 -0.174154497  0.174154497
     2.871014000  2.871014000  0.000000000     0.174154497  0.174154497 -0.174154497

  length of vectors
     4.060226937  4.060226937  4.060226937     0.301644438  0.301644438  0.301644438


 
 k-points in units of 2pi/SCALE and weight: Automatic kpoint scheme                 
   0.01088466  0.01088466  0.01088466       0.004
  -0.01088466  0.03265397  0.03265397       0.012
  -0.03265397  0.05442328  0.05442328       0.012
  -0.05442328  0.07619259  0.07619259       0.012
   0.09796190 -0.07619259 -0.07619259       0.012
   0.07619259 -0.05442328 -0.05442328       0.012
   0.05442328 -0.03265397 -0.03265397       0.012
   0.03265397 -0.01088466 -0.01088466       0.012
   0.01088466  0.01088466  0.05442328       0.012
  -0.01088466  0.03265397  0.07619259       0.023
  -0.03265397  0.05442328  0.09796190       0.023
   0.11973122 -0.09796190 -0.05442328       0.023
   0.09796190 -0.07619259 -0.03265397       0.023
   0.07619259 -0.05442328 -0.01088466       0.023
   0.05442328 -0.03265397  0.01088466       0.023
   0.01088466  0.01088466  0.09796190       0.012
  -0.01088466  0.03265397  0.11973122       0.023
   0.14150053 -0.11973122 -0.03265397       0.023
   0.11973122 -0.09796190 -0.01088466       0.023
   0.09796190 -0.07619259  0.01088466       0.023
   0.07619259 -0.05442328  0.03265397       0.023
   0.01088466  0.01088466  0.14150053       0.012
   0.16326984 -0.14150053 -0.01088466       0.023
   0.14150053 -0.11973122  0.01088466       0.023
   0.11973122 -0.09796190  0.03265397       0.023
   0.09796190 -0.07619259  0.05442328       0.023
   0.01088466  0.01088466 -0.16326984       0.012
  -0.01088466  0.03265397 -0.14150053       0.023
  -0.03265397  0.05442328 -0.11973122       0.023
   0.01088466  0.01088466 -0.11973122       0.012
  -0.01088466  0.03265397 -0.09796190       0.023
   0.01088466  0.01088466 -0.07619259       0.012
   0.03265397  0.03265397  0.03265397       0.004
   0.01088466  0.05442328  0.05442328       0.012
  -0.01088466  0.07619259  0.07619259       0.012
   0.14150053 -0.07619259 -0.07619259       0.012
   0.11973122 -0.05442328 -0.05442328       0.012
   0.09796190 -0.03265397 -0.03265397       0.012
   0.03265397  0.03265397  0.07619259       0.012
   0.01088466  0.05442328  0.09796190       0.023
   0.16326984 -0.09796190 -0.05442328       0.023
   0.14150053 -0.07619259 -0.03265397       0.023
   0.11973122 -0.05442328 -0.01088466       0.023
   0.03265397  0.03265397  0.11973122       0.012
   0.18503915 -0.11973122 -0.03265397       0.023
   0.16326984 -0.09796190 -0.01088466       0.023
   0.14150053 -0.07619259  0.01088466       0.023
   0.03265397  0.03265397 -0.18503915       0.012
   0.01088466  0.05442328 -0.16326984       0.023
   0.03265397  0.03265397 -0.14150053       0.012
   0.05442328  0.05442328  0.05442328       0.004
   0.03265397  0.07619259  0.07619259       0.012
   0.18503915 -0.07619259 -0.07619259       0.012
   0.16326984 -0.05442328 -0.05442328       0.012
   0.05442328  0.05442328  0.09796190       0.012
   0.20680847 -0.09796190 -0.05442328       0.023
   0.18503915 -0.07619259 -0.03265397       0.023
   0.05442328  0.05442328 -0.20680847       0.012
   0.07619259  0.07619259  0.07619259       0.004
   0.22857778 -0.07619259 -0.07619259       0.012
 
 k-points in reciprocal lattice and weights: Automatic kpoint scheme                 
   0.06250000  0.06250000  0.06250000       0.004
   0.18750000  0.06250000  0.06250000       0.012
   0.31250000  0.06250000  0.06250000       0.012
   0.43750000  0.06250000  0.06250000       0.012
  -0.43750000  0.06250000  0.06250000       0.012
  -0.31250000  0.06250000  0.06250000       0.012
  -0.18750000  0.06250000  0.06250000       0.012
  -0.06250000  0.06250000  0.06250000       0.012
   0.18750000  0.18750000  0.06250000       0.012
   0.31250000  0.18750000  0.06250000       0.023
   0.43750000  0.18750000  0.06250000       0.023
  -0.43750000  0.18750000  0.06250000       0.023
  -0.31250000  0.18750000  0.06250000       0.023
  -0.18750000  0.18750000  0.06250000       0.023
  -0.06250000  0.18750000  0.06250000       0.023
   0.31250000  0.31250000  0.06250000       0.012
   0.43750000  0.31250000  0.06250000       0.023
  -0.43750000  0.31250000  0.06250000       0.023
  -0.31250000  0.31250000  0.06250000       0.023
  -0.18750000  0.31250000  0.06250000       0.023
  -0.06250000  0.31250000  0.06250000       0.023
   0.43750000  0.43750000  0.06250000       0.012
  -0.43750000  0.43750000  0.06250000       0.023
  -0.31250000  0.43750000  0.06250000       0.023
  -0.18750000  0.43750000  0.06250000       0.023
  -0.06250000  0.43750000  0.06250000       0.023
  -0.43750000 -0.43750000  0.06250000       0.012
  -0.31250000 -0.43750000  0.06250000       0.023
  -0.18750000 -0.43750000  0.06250000       0.023
  -0.31250000 -0.31250000  0.06250000       0.012
  -0.18750000 -0.31250000  0.06250000       0.023
  -0.18750000 -0.18750000  0.06250000       0.012
   0.18750000  0.18750000  0.18750000       0.004
   0.31250000  0.18750000  0.18750000       0.012
   0.43750000  0.18750000  0.18750000       0.012
  -0.43750000  0.18750000  0.18750000       0.012
  -0.31250000  0.18750000  0.18750000       0.012
  -0.18750000  0.18750000  0.18750000       0.012
   0.31250000  0.31250000  0.18750000       0.012
   0.43750000  0.31250000  0.18750000       0.023
  -0.43750000  0.31250000  0.18750000       0.023
  -0.31250000  0.31250000  0.18750000       0.023
  -0.18750000  0.31250000  0.18750000       0.023
   0.43750000  0.43750000  0.18750000       0.012
  -0.43750000  0.43750000  0.18750000       0.023
  -0.31250000  0.43750000  0.18750000       0.023
  -0.18750000  0.43750000  0.18750000       0.023
  -0.43750000 -0.43750000  0.18750000       0.012
  -0.31250000 -0.43750000  0.18750000       0.023
  -0.31250000 -0.31250000  0.18750000       0.012
   0.31250000  0.31250000  0.31250000       0.004
   0.43750000  0.31250000  0.31250000       0.012
  -0.43750000  0.31250000  0.31250000       0.012
  -0.31250000  0.31250000  0.31250000       0.012
   0.43750000  0.43750000  0.31250000       0.012
  -0.43750000  0.43750000  0.31250000       0.023
  -0.31250000  0.43750000  0.31250000       0.023
  -0.43750000 -0.43750000  0.31250000       0.012
   0.43750000  0.43750000  0.43750000       0.004
  -0.43750000  0.43750000  0.43750000       0.012
 
 position of ions in fractional coordinates (direct lattice) 
   0.00000000  0.00000000  0.00000000
   0.25000000  0.25000000  0.25000000
 
 position of ions in cartesian coordinates  (Angst):
   0.00000000  0.00000000  0.00000000
   1.43550700  1.43550700  1.43550700
 


--------------------------------------------------------------------------------------------------------


 k-point  1 :   0.0625 0.0625 0.0625  plane waves:     718
 k-point  2 :   0.1875 0.0625 0.0625  plane waves:     703
 k-point  3 :   0.3125 0.0625 0.0625  plane waves:     701
 k-point  4 :   0.4375 0.0625 0.0625  plane waves:     703
 k-point  5 :  -0.4375 0.0625 0.0625  plane waves:     709
 k-point  6 :  -0.3125 0.0625 0.0625  plane waves:     707
 k-point  7 :  -0.1875 0.0625 0.0625  plane waves:     699
 k-point  8 :  -0.0625 0.0625 0.0625  plane waves:     698
 k-point  9 :   0.1875 0.1875 0.0625  plane waves:     695
 k-point 10 :   0.3125 0.1875 0.0625  plane waves:     698
 k-point 11 :   0.4375 0.1875 0.0625  plane waves:     705
 k-point 12 :  -0.4375 0.1875 0.0625  plane waves:     705
 k-point 13 :  -0.3125 0.1875 0.0625  plane waves:     705
 k-point 14 :  -0.1875 0.1875 0.0625  plane waves:     707
 k-point 15 :  -0.0625 0.1875 0.0625  plane waves:     696
 k-point 16 :   0.3125 0.3125 0.0625  plane waves:     707
 k-point 17 :   0.4375 0.3125 0.0625  plane waves:     702
 k-point 18 :  -0.4375 0.3125 0.0625  plane waves:     706
 k-point 19 :  -0.3125 0.3125 0.0625  plane waves:     703
 k-point 20 :  -0.1875 0.3125 0.0625  plane waves:     699
 k-point 21 :  -0.0625 0.3125 0.0625  plane waves:     708
 k-point 22 :   0.4375 0.4375 0.0625  plane waves:     700
 k-point 23 :  -0.4375 0.4375 0.0625  plane waves:     708
 k-point 24 :  -0.3125 0.4375 0.0625  plane waves:     707
 k-point 25 :  -0.1875 0.4375 0.0625  plane waves:     703
 k-point 26 :  -0.0625 0.4375 0.0625  plane waves:     705
 k-point 27 :  -0.4375-0.4375 0.0625  plane waves:     710
 k-point 28 :  -0.3125-0.4375 0.0625  plane waves:     703
 k-point 29 :  -0.1875-0.4375 0.0625  plane waves:     701
 k-point 30 :  -0.3125-0.3125 0.0625  plane waves:     703
 k-point 31 :  -0.1875-0.3125 0.0625  plane waves:     698
 k-point 32 :  -0.1875-0.1875 0.0625  plane waves:     700
 k-point 33 :   0.1875 0.1875 0.1875  plane waves:     703
 k-point 34 :   0.3125 0.1875 0.1875  plane waves:     704
 k-point 35 :   0.4375 0.1875 0.1875  plane waves:     705
 k-point 36 :  -0.4375 0.1875 0.1875  plane waves:     699
 k-point 37 :  -0.3125 0.1875 0.1875  plane waves:     702
 k-point 38 :  -0.1875 0.1875 0.1875  plane waves:     702
 k-point 39 :   0.3125 0.3125 0.1875  plane waves:     705
 k-point 40 :   0.4375 0.3125 0.1875  plane waves:     699
 k-point 41 :  -0.4375 0.3125 0.1875  plane waves:     703
 k-point 42 :  -0.3125 0.3125 0.1875  plane waves:     705
 k-point 43 :  -0.1875 0.3125 0.1875  plane waves:     704
 k-point 44 :   0.4375 0.4375 0.1875  plane waves:     698
 k-point 45 :  -0.4375 0.4375 0.1875  plane waves:     707
 k-point 46 :  -0.3125 0.4375 0.1875  plane waves:     708
 k-point 47 :  -0.1875 0.4375 0.1875  plane waves:     705
 k-point 48 :  -0.4375-0.4375 0.1875  plane waves:     707
 k-point 49 :  -0.3125-0.4375 0.1875  plane waves:     707
 k-point 50 :  -0.3125-0.3125 0.1875  plane waves:     704
 k-point 51 :   0.3125 0.3125 0.3125  plane waves:     697
 k-point 52 :   0.4375 0.3125 0.3125  plane waves:     701
 k-point 53 :  -0.4375 0.3125 0.3125  plane waves:     699
 k-point 54 :  -0.3125 0.3125 0.3125  plane waves:     707
 k-point 55 :   0.4375 0.4375 0.3125  plane waves:     708
 k-point 56 :  -0.4375 0.4375 0.3125  plane waves:     704
 k-point 57 :  -0.3125 0.4375 0.3125  plane waves:     708
 k-point 58 :  -0.4375-0.4375 0.3125  plane waves:     704
 k-point 59 :   0.4375 0.4375 0.4375  plane waves:     709
 k-point 60 :  -0.4375 0.4375 0.4375  plane waves:     705

 maximum and minimum number of plane-waves per node :       718      695

 maximum number of plane-waves:       718
 maximum index in each direction: 
   IXMAX=    6   IYMAX=    6   IZMAX=    6
   IXMIN=   -6   IYMIN=   -6   IZMIN=   -6


 serial   3D FFT for wavefunctions
 parallel 3D FFT for charge:
    minimum data exchange during FFTs selected (reduces bandwidth)


 total amount of memory used by VASP MPI-rank0    34536. kBytes
=======================================================================

   base      :      30000. kBytes
   nonl-proj :       2787. kBytes
   fftplans  :        314. kBytes
   grid      :        723. kBytes
   one-center:          6. kBytes
   wavefun   :        706. kBytes
 
     INWAV:  cpu time    0.0000: real time    0.0002
 Broyden mixing: mesh for mixing (old mesh)
   NGX = 13   NGY = 13   NGZ = 13
  (NGX  = 40   NGY  = 40   NGZ  = 40)
  gives a total of   2197 points

 initial charge density was supplied:
 charge density of overlapping atoms calculated
 number of electron       8.0000000 magnetization 
 keeping initial charge density in first step


--------------------------------------------------------------------------------------------------------


 Maximum index for augmentation-charges          721 (set IRDMAX)


--------------------------------------------------------------------------------------------------------


 First call to EWALD:  gamma=   0.490
 Maximum number of real-space cells 3x 3x 3
 Maximum number of reciprocal cells 3x 3x 3

    FEWALD:  cpu time    0.0040: real time    0.0071


--------------------------------------- Iteration      1(   1)  ---------------------------------------


    POTLOK:  cpu time    0.0440: real time    0.0524
    SETDIJ:  cpu time    0.0080: real time    0.0088
     EDDAV:  cpu time    1.0560: real time    1.0582
       DOS:  cpu time    0.0000: real time    0.0036
    --------------------------------------------
      LOOP:  cpu time    1.1120: real time    1.1237

 eigenvalue-minimisations  :   960
 total energy-change (2. order) : 0.2774633E+01  (-0.2564251E+03)
 number of electron       8.0000000 magnetization 
 augmentation part        8.0000000 magnetization 

 Free energy of the ion-electron system (eV)
  ---------------------------------------------------
  alpha Z        PSCENC =         2.84497133
  Ewald energy   TEWEN  =      -216.14313625
  -Hartree energ DENC   =       -13.65942417
  -exchange      EXHF   =         0.00000000
  -V(xc)+E(xc)   XCENC  =       -19.22680994
  PAW double counting   =        65.95520812      -30.76852678
  entropy T*S    EENTRO =        -0.01075472
  eigenvalues    EBANDS =         7.65185147
  atomic energy  EATOM  =       206.13125414
  Solvation  Ediel_sol  =         0.00000000
  ---------------------------------------------------
  free energy    TOTEN  =         2.77463319 eV

  energy without entropy =        2.78538791  energy(sigma->0) =        2.78001055


--------------------------------------------------------------------------------------------------------




--------------------------------------- Iteration      1(   2)  ---------------------------------------


     EDDAV:  cpu time    1.5520: real time    1.5588
       DOS:  cpu time    0.0040: real time    0.0032
    --------------------------------------------
      LOOP:  cpu time    1.5520: real time    1.5620

 eigenvalue-minimisations  :  1488
 total energy-change (2. order) :-0.1331539E+02  (-0.1279702E+02)
 number of electron       8.0000000 magnetization 
 augmentation part        8.0000000 magnetization 

 Free energy of the ion-electron system (eV)
  ---------------------------------------------------
  alpha Z        PSCENC =         2.84497133
  Ewald energy   TEWEN  =      -216.14313625
  -Hartree energ DENC   =       -13.65942417
  -exchange      EXHF   =         0.00000000
  -V(xc)+E(xc)   XCENC  =       -19.22680994
  PAW double counting   =        65.95520812      -30.76852678
  entropy T*S    EENTRO =        -0.00000046
  eigenvalues    EBANDS =        -5.67429228
  atomic energy  EATOM  =       206.13125414
  Solvation  Ediel_sol  =         0.00000000
  ---------------------------------------------------
  free energy    TOTEN  =       -10.54075630 eV

  energy without entropy =      -10.54075584  energy(sigma->0) =      -10.54075607


--------------------------------------------------------------------------------------------------------




--------------------------------------- Iteration      1(   3)  ---------------------------------------


     EDDAV:  cpu time    1.3280: real time    1.3360
       DOS:  cpu time    0.0040: real time    0.0033
    --------------------------------------------
      LOOP:  cpu time    1.3320: real time    1.3393

 eigenvalue-minimisations  :  1248
 total energy-change (2. order) :-0.1899497E+00  (-0.1899496E+00)
 number of electron       8.0000000 magnetization 
 augmentation part        8.0000000 magnetization 

 Free energy of the ion-electron system (eV)
  ---------------------------------------------------
  alpha Z        PSCENC =         2.84497133
  Ewald energy   TEWEN  =      -216.14313625
  -Hartree energ DENC   =       -13.65942417
  -exchange      EXHF   =         0.00000000
  -V(xc)+E(xc)   XCENC  =       -19.22680994
  PAW double counting   =        65.95520812      -30.76852678
  entropy T*S    EENTRO =        -0.00000034
  eigenvalues    EBANDS =        -5.86424207
  atomic energy  EATOM  =       206.13125414
  Solvation  Ediel_sol  =         0.00000000
  ---------------------------------------------------
  free energy    TOTEN  =       -10.73070596 eV

  energy without entropy =      -10.73070562  energy(sigma->0) =      -10.73070579


--------------------------------------------------------------------------------------------------------




--------------------------------------- Iteration      1(   4)  ---------------------------------------


     EDDAV:  cpu time    1.5640: real time    1.5707
       DOS:  cpu time    0.0040: real time    0.0033
    --------------------------------------------
      LOOP:  cpu time    1.5680: real time    1.5739

 eigenvalue-minimisations  :  1496
 total energy-change (2. order) :-0.7957659E-03  (-0.7957659E-03)
 number of electron       8.0000000 magnetization 
 augmentation part        8.0000000 magnetization 

 Free energy of the ion-electron system (eV)
  ---------------------------------------------------
  alpha Z        PSCENC =         2.84497133
  Ewald energy   TEWEN  =      -216.14313625
  -Hartree energ DENC   =       -13.65942417
  -exchange      EXHF   =         0.00000000
  -V(xc)+E(xc)   XCENC  =       -19.22680994
  PAW double counting   =        65.95520812      -30.76852678
  entropy T*S    EENTRO =        -0.00000034
  eigenvalues    EBANDS =        -5.86503783
  atomic energy  EATOM  =       206.13125414
  Solvation  Ediel_sol  =         0.00000000
  ---------------------------------------------------
  free energy    TOTEN  =       -10.73150173 eV

  energy without entropy =      -10.73150139  energy(sigma->0) =      -10.73150156


--------------------------------------------------------------------------------------------------------




--------------------------------------- Iteration      1(   5)  ---------------------------------------


     EDDAV:  cpu time    1.3520: real time    1.3577
       DOS:  cpu time    0.0040: real time    0.0033
    CHARGE:  cpu time    0.1040: real time    0.1043
    MIXING:  cpu time    0.0000: real time    0.0026
    --------------------------------------------
      LOOP:  cpu time    1.4600: real time    1.4680

 eigenvalue-minimisations  :  1272
 total energy-change (2. order) :-0.1489669E-05  (-0.1489357E-05)
 number of electron       8.0000006 magnetization 
 augmentation part       -0.4660148 magnetization 

 Broyden mixing:
  rms(total) = 0.26106E+00    rms(broyden)= 0.26105E+00
  rms(prec ) = 0.72268E+00
  weight for this iteration     100.00

 Free energy of the ion-electron system (eV)
  ---------------------------------------------------
  alpha Z        PSCENC =         2.84497133
  Ewald energy   TEWEN  =      -216.14313625
  -Hartree energ DENC   =       -13.65942417
  -exchange      EXHF   =         0.00000000
  -V(xc)+E(xc)   XCENC  =       -19.22680994
  PAW double counting   =        65.95520812      -30.76852678
  entropy T*S    EENTRO =        -0.00000034
  eigenvalues    EBANDS =        -5.86503932
  atomic energy  EATOM  =       206.13125414
  Solvation  Ediel_sol  =         0.00000000
  ---------------------------------------------------
  free energy    TOTEN  =       -10.73150322 eV

  energy without entropy =      -10.73150288  energy(sigma->0) =      -10.73150305


--------------------------------------------------------------------------------------------------------




--------------------------------------- Iteration      1(   6)  ---------------------------------------


    POTLOK:  cpu time    0.0360: real time    0.0399
    SETDIJ:  cpu time    0.0080: real time    0.0085
     EDDAV:  cpu time    1.2080: real time    1.2090
       DOS:  cpu time    0.0040: real time    0.0033
    CHARGE:  cpu time    0.1040: real time    0.1037
    MIXING:  cpu time    0.0000: real time    0.0024
    --------------------------------------------
      LOOP:  cpu time    1.3600: real time    1.3670

 eigenvalue-minimisations  :  1144
 total energy-change (2. order) : 0.6573262E-01  (-0.3739518E-02)
 number of electron       8.0000006 magnetization 
 augmentation part       -0.4624324 magnetization 

 Broyden mixing:
  rms(total) = 0.15850E+00    rms(broyden)= 0.15850E+00
  rms(prec ) = 0.43851E+00
  weight for this iteration     100.00

 eigenvalues of (default mixing * dielectric matrix)
  average eigenvalue GAMMA=   2.5278
  2.5278

 Free energy of the ion-electron system (eV)
  ---------------------------------------------------
  alpha Z        PSCENC =         2.84497133
  Ewald energy   TEWEN  =      -216.14313625
  -Hartree energ DENC   =       -14.86390867
  -exchange      EXHF   =         0.00000000
  -V(xc)+E(xc)   XCENC  =       -19.04041756
  PAW double counting   =        67.99518449      -32.86235803
  entropy T*S    EENTRO =        -0.00000092
  eigenvalues    EBANDS =        -4.72735913
  atomic energy  EATOM  =       206.13125414
  Solvation  Ediel_sol  =         0.00000000
  ---------------------------------------------------
  free energy    TOTEN  =       -10.66577059 eV

  energy without entropy =      -10.66576968  energy(sigma->0) =      -10.66577013


--------------------------------------------------------------------------------------------------------




--------------------------------------- Iteration      1(   7)  ---------------------------------------


    POTLOK:  cpu time    0.0360: real time    0.0390
    SETDIJ:  cpu time    0.0080: real time    0.0085
     EDDAV:  cpu time    1.2400: real time    1.2426
       DOS:  cpu time    0.0040: real time    0.0033
    CHARGE:  cpu time    0.1040: real time    0.1019
    MIXING:  cpu time    0.0000: real time    0.0022
    --------------------------------------------
      LOOP:  cpu time    1.3920: real time    1.3976

 eigenvalue-minimisations  :  1184
 total energy-change (2. order) : 0.3484918E-01  (-0.8311492E-02)
 number of electron       8.0000006 magnetization 
 augmentation part       -0.4582179 magnetization 

 Broyden mixing:
  rms(total) = 0.11911E-01    rms(broyden)= 0.11911E-01
  rms(prec ) = 0.30159E-01
  weight for this iteration     100.00

 eigenvalues of (default mixing * dielectric matrix)
  average eigenvalue GAMMA=   2.5041
  2.5041  2.5041

 Free energy of the ion-electron system (eV)
  ---------------------------------------------------
  alpha Z        PSCENC =         2.84497133
  Ewald energy   TEWEN  =      -216.14313625
  -Hartree energ DENC   =       -16.95839642
  -exchange      EXHF   =         0.00000000
  -V(xc)+E(xc)   XCENC  =       -18.70910562
  PAW double counting   =        70.57443378      -35.50798116
  entropy T*S    EENTRO =        -0.00000445
  eigenvalues    EBANDS =        -2.86295675
  atomic energy  EATOM  =       206.13125414
  Solvation  Ediel_sol  =         0.00000000
  ---------------------------------------------------
  free energy    TOTEN  =       -10.63092141 eV

  energy without entropy =      -10.63091696  energy(sigma->0) =      -10.63091919


--------------------------------------------------------------------------------------------------------




--------------------------------------- Iteration      1(   8)  ---------------------------------------


    POTLOK:  cpu time    0.0320: real time    0.0400
    SETDIJ:  cpu time    0.0120: real time    0.0085
     EDDAV:  cpu time    1.1280: real time    1.1285
       DOS:  cpu time    0.0000: real time    0.0034
    CHARGE:  cpu time    0.1040: real time    0.1019
    MIXING:  cpu time    0.0000: real time    0.0023
    --------------------------------------------
      LOOP:  cpu time    1.2800: real time    1.2846

 eigenvalue-minimisations  :  1056
 total energy-change (2. order) :-0.1360224E-02  (-0.2928943E-03)
 number of electron       8.0000006 magnetization 
 augmentation part       -0.4589686 magnetization 

 Broyden mixing:
  rms(total) = 0.25885E-02    rms(broyden)= 0.25885E-02
  rms(prec ) = 0.85788E-02
  weight for this iteration     100.00

 eigenvalues of (default mixing * dielectric matrix)
  average eigenvalue GAMMA=   2.1512
  1.2443  2.8672  2.3421

 Free energy of the ion-electron system (eV)
  ---------------------------------------------------
  alpha Z        PSCENC =         2.84497133
  Ewald energy   TEWEN  =      -216.14313625
  -Hartree energ DENC   =       -16.92266116
  -exchange      EXHF   =         0.00000000
  -V(xc)+E(xc)   XCENC  =       -18.70977034
  PAW double counting   =        69.83015128      -34.74196040
  entropy T*S    EENTRO =        -0.00000348
  eigenvalues    EBANDS =        -2.92112675
  atomic energy  EATOM  =       206.13125414
  Solvation  Ediel_sol  =         0.00000000
  ---------------------------------------------------
  free energy    TOTEN  =       -10.63228164 eV

  energy without entropy =      -10.63227816  energy(sigma->0) =      -10.63227990


--------------------------------------------------------------------------------------------------------




--------------------------------------- Iteration      1(   9)  ---------------------------------------


    POTLOK:  cpu time    0.0360: real time    0.0399
    SETDIJ:  cpu time    0.0080: real time    0.0085
     EDDAV:  cpu time    0.9080: real time    0.9099
       DOS:  cpu time    0.0040: real time    0.0034
    --------------------------------------------
      LOOP:  cpu time    0.9520: real time    0.9616

 eigenvalue-minimisations  :   776
 total energy-change (2. order) :-0.1424251E-03  (-0.1499860E-04)
 number of electron       8.0000006 magnetization 
 augmentation part       -0.4589686 magnetization 

 Free energy of the ion-electron system (eV)
  ---------------------------------------------------
  alpha Z        PSCENC =         2.84497133
  Ewald energy   TEWEN  =      -216.14313625
  -Hartree energ DENC   =       -16.96677804
  -exchange      EXHF   =         0.00000000
  -V(xc)+E(xc)   XCENC  =       -18.70311091
  PAW double counting   =        69.77127444      -34.68181198
  entropy T*S    EENTRO =        -0.00000339
  eigenvalues    EBANDS =        -2.88508341
  atomic energy  EATOM  =       206.13125414
  Solvation  Ediel_sol  =         0.00000000
  ---------------------------------------------------
  free energy    TOTEN  =       -10.63242406 eV

  energy without entropy =      -10.63242067  energy(sigma->0) =      -10.63242237


--------------------------------------------------------------------------------------------------------




 average (electrostatic) potential at core
  the test charge radii are     0.9892
  (the norm of the test charge is              1.0000)
       1 -85.0292       2 -85.0292
 
 
 
 E-fermi :   4.6908     XC(G=0):  -8.7703     alpha+bet :-10.1350


 k-point     1 :       0.0625    0.0625    0.0625
  band No.  band energies     occupation 
      1      -6.5892      2.00000
      2       3.6682      2.00000
      3       4.1869      1.99963
      4       4.1869      1.99963
      5       6.1120      0.00000
      6       6.8423      0.00000
      7       6.8423      0.00000
      8       6.9586      0.00000

 k-point     2 :       0.1875    0.0625    0.0625
  band No.  band energies     occupation 
      1      -6.3555      2.00000
      2       2.2113      2.00000
      3       3.5017      2.00000
      4       4.0730      1.99999
      5       6.3262      0.00000
      6       7.0646      0.00000
      7       7.2483      0.00000
      8       8.3256      0.00000

 k-point     3 :       0.3125    0.0625    0.0625
  band No.  band energies     occupation 
      1      -5.7956      2.00000
      2       0.2414      2.00000
      3       3.0476      2.00000
      4       3.6665      2.00000
      5       5.9347      0.00000
      6       7.5530      0.00000
      7       7.7999      0.00000
      8      10.0099      0.00000

 k-point     4 :       0.4375    0.0625    0.0625
  band No.  band energies     occupation 
      1      -5.0330      2.00000
      2      -1.3938      2.00000
      3       2.8348      2.00000
      4       3.3089      2.00000
      5       5.6431      0.00000
      6       7.7066      0.00000
      7       7.7249      0.00000
      8      11.5139      0.00000

 k-point     5 :      -0.4375    0.0625    0.0625
  band No.  band energies     occupation 
      1      -4.6731      2.00000
      2      -1.9771      2.00000
      3       2.8640      2.00000
      4       3.1233      2.00000
      5       5.5731      0.00000
      6       7.5652      0.00000
      7       7.7968      0.00000
      8      11.7685      0.00000

 k-point     6 :      -0.3125    0.0625    0.0625
  band No.  band energies     occupation 
      1      -5.2903      2.00000
      2      -0.9160      2.00000
      3       3.1134      2.00000
      4       3.1533      2.00000
      5       5.7392      0.00000
      6       7.5114      0.00000
      7       7.9718      0.00000
      8      10.7435      0.00000

 k-point     7 :      -0.1875    0.0625    0.0625
  band No.  band energies     occupation 
      1      -6.0142      2.00000
      2       0.8841      2.00000
      3       3.4077      2.00000
      4       3.5295      2.00000
      5       6.1024      0.00000
      6       7.2344      0.00000
      7       7.9128      0.00000
      8       9.3647      0.00000

 k-point     8 :      -0.0625    0.0625    0.0625
  band No.  band energies     occupation 
      1      -6.4716      2.00000
      2       2.8948      2.00000
      3       3.8322      2.00000
      4       3.9317      2.00000
      5       6.4847      0.00000
      6       6.6755      0.00000
      7       7.3343      0.00000
      8       7.6332      0.00000

 k-point     9 :       0.1875    0.1875    0.0625
  band No.  band energies     occupation 
      1      -6.2377      2.00000
      2       1.9955      2.00000
      3       3.3549      2.00000
      4       3.3883      2.00000
      5       6.2256      0.00000
      6       7.2591      0.00000
      7       8.0812      0.00000
      8       8.3418      0.00000

 k-point    10 :       0.3125    0.1875    0.0625
  band No.  band energies     occupation 
      1      -5.7820      2.00000
      2       0.6420      2.00000
      3       2.5094      2.00000
      4       3.1645      2.00000
      5       6.3631      0.00000
      6       7.4210      0.00000
      7       8.6644      0.00000
      8       8.8101      0.00000

 k-point    11 :       0.4375    0.1875    0.0625
  band No.  band energies     occupation 
      1      -5.0590      2.00000
      2      -0.9446      2.00000
      3       2.0210      2.00000
      4       2.8252      2.00000
      5       6.4354      0.00000
      6       7.6751      0.00000
      7       8.8553      0.00000
      8       9.2924      0.00000

 k-point    12 :      -0.4375    0.1875    0.0625
  band No.  band energies     occupation 
      1      -4.4360      2.00000
      2      -1.9508      2.00000
      3       1.7503      2.00000
      4       2.7499      2.00000
      5       6.4065      0.00000
      6       7.6015      0.00000
      7       8.7693      0.00000
      8      10.9833      0.00000

 k-point    13 :      -0.3125    0.1875    0.0625
  band No.  band energies     occupation 
      1      -4.8064      2.00000
      2      -1.3817      2.00000
      3       1.7119      2.00000
      4       2.9864      2.00000
      5       6.5563      0.00000
      6       7.5993      0.00000
      7       8.6884      0.00000
      8      10.3316      0.00000

 k-point    14 :      -0.1875    0.1875    0.0625
  band No.  band energies     occupation 
      1      -5.5692      2.00000
      2       0.0848      2.00000
      3       2.0326      2.00000
      4       3.4138      2.00000
      5       6.8338      0.00000
      6       7.3443      0.00000
      7       8.5431      0.00000
      8       9.0930      0.00000

 k-point    15 :      -0.0625    0.1875    0.0625
  band No.  band energies     occupation 
      1      -6.1247      2.00000
      2       1.4357      2.00000
      3       3.0039      2.00000
      4       3.7300      2.00000
      5       6.5823      0.00000
      6       6.9588      0.00000
      7       7.9233      0.00000
      8       8.8541      0.00000

 k-point    16 :       0.3125    0.3125    0.0625
  band No.  band energies     occupation 
      1      -5.4318      2.00000
      2       0.1036      2.00000
      3       2.3871      2.00000
      4       2.4913      2.00000
      5       5.5361      0.00000
      6       7.0342      0.00000
      7       9.6773      0.00000
      8       9.8611      0.00000

 k-point    17 :       0.4375    0.3125    0.0625
  band No.  band energies     occupation 
      1      -4.7822      2.00000
      2      -0.9908      2.00000
      3       1.7210      2.00000
      4       2.1976      2.00000
      5       5.8236      0.00000
      6       6.9180      0.00000
      7       9.6522      0.00000
      8      10.7321      0.00000

 k-point    18 :      -0.4375    0.3125    0.0625
  band No.  band energies     occupation 
      1      -4.0291      2.00000
      2      -2.0044      2.00000
      3       1.0045      2.00000
      4       2.1683      2.00000
      5       6.0426      0.00000
      6       8.3895      0.00000
      7       9.2841      0.00000
      8      10.6554      0.00000

 k-point    19 :      -0.3125    0.3125    0.0625
  band No.  band energies     occupation 
      1      -4.0983      2.00000
      2      -1.9164      2.00000
      3       0.7183      2.00000
      4       2.4589      2.00000
      5       6.3554      0.00000
      6       8.9766      0.00000
      7       9.9935      0.00000
      8      10.5565      0.00000

 k-point    20 :      -0.1875    0.3125    0.0625
  band No.  band energies     occupation 
      1      -4.8548      2.00000
      2      -1.0467      2.00000
      3       1.2119      2.00000
      4       2.9523      2.00000
      5       6.7678      0.00000
      6       8.0007      0.00000
      7       9.1687      0.00000
      8       9.5829      0.00000

 k-point    21 :      -0.0625    0.3125    0.0625
  band No.  band energies     occupation 
      1      -5.4741      2.00000
      2      -0.3741      2.00000
      3       2.5604      2.00000
      4       3.3239      2.00000
      5       6.2650      0.00000
      6       7.4500      0.00000
      7       8.2377      0.00000
      8       9.7905      0.00000

 k-point    22 :       0.4375    0.4375    0.0625
  band No.  band energies     occupation 
      1      -4.2101      2.00000
      2      -1.7631      2.00000
      3       1.7965      2.00000
      4       1.9687      2.00000
      5       5.2272      0.00015
      6       5.9087      0.00000
      7      11.6777      0.00000
      8      11.7713      0.00000

 k-point    23 :      -0.4375    0.4375    0.0625
  band No.  band energies     occupation 
      1      -3.4286      2.00000
      2      -2.6327      2.00000
      3       1.3434      2.00000
      4       1.7731      2.00000
      5       5.6231      0.00000
      6       6.2611      0.00000
      7      11.5163      0.00000
      8      12.2613      0.00000

 k-point    24 :      -0.3125    0.4375    0.0625
  band No.  band energies     occupation 
      1      -3.5463      2.00000
      2      -2.4644      2.00000
      3       0.7450      2.00000
      4       2.0434      2.00000
      5       5.9259      0.00000
      6       8.2504      0.00000
      7      10.1865      0.00000
      8      11.0973      0.00000

 k-point    25 :      -0.1875    0.4375    0.0625
  band No.  band energies     occupation 
      1      -4.2110      2.00000
      2      -1.9802      2.00000
      3       1.1269      2.00000
      4       2.5555      2.00000
      5       6.4180      0.00000
      6       8.1956      0.00000
      7       9.5369      0.00000
      8      10.7623      0.00000

 k-point    26 :      -0.0625    0.4375    0.0625
  band No.  band energies     occupation 
      1      -4.7316      2.00000
      2      -1.7512      2.00000
      3       2.3756      2.00000
      4       3.0425      2.00000
      5       6.0475      0.00000
      6       7.5067      0.00000
      7       8.1360      0.00000
      8      11.2968      0.00000

 k-point    27 :      -0.4375   -0.4375    0.0625
  band No.  band energies     occupation 
      1      -3.4644      2.00000
      2      -2.6422      2.00000
      3       1.6768      2.00000
      4       1.8616      2.00000
      5       5.2506      0.00008
      6       5.5735      0.00000
      7      12.6020      0.00000
      8      12.6095      0.00000

 k-point    28 :      -0.3125   -0.4375    0.0625
  band No.  band energies     occupation 
      1      -4.1419      2.00000
      2      -1.8211      2.00000
      3       1.4723      2.00000
      4       1.9134      2.00000
      5       5.6808      0.00000
      6       6.4970      0.00000
      7      10.5668      0.00000
      8      11.7161      0.00000

 k-point    29 :      -0.1875   -0.4375    0.0625
  band No.  band energies     occupation 
      1      -4.5666      2.00000
      2      -1.4821      2.00000
      3       1.4665      2.00000
      4       2.4252      2.00000
      5       6.2486      0.00000
      6       8.3489      0.00000
      7       8.7552      0.00000
      8       9.7850      0.00000

 k-point    30 :      -0.3125   -0.3125    0.0625
  band No.  band energies     occupation 
      1      -4.8694      2.00000
      2      -0.8418      2.00000
      3       2.0344      2.00000
      4       2.1804      2.00000
      5       5.3212      0.00001
      6       6.4184      0.00000
      7      10.6607      0.00000
      8      10.8130      0.00000

 k-point    31 :      -0.1875   -0.3125    0.0625
  band No.  band energies     occupation 
      1      -5.3322      2.00000
      2      -0.1664      2.00000
      3       2.0732      2.00000
      4       2.6239      2.00000
      5       6.0586      0.00000
      6       7.4081      0.00000
      7       8.8656      0.00000
      8       9.7439      0.00000

 k-point    32 :      -0.1875   -0.1875    0.0625
  band No.  band energies     occupation 
      1      -5.8898      2.00000
      2       1.0556      2.00000
      3       2.8463      2.00000
      4       2.8904      2.00000
      5       5.8512      0.00000
      6       7.5243      0.00000
      7       8.8482      0.00000
      8       8.9424      0.00000

 k-point    33 :       0.1875    0.1875    0.1875
  band No.  band energies     occupation 
      1      -6.2412      2.00000
      2       1.5900      2.00000
      3       3.8040      2.00000
      4       3.8040      2.00000
      5       5.9092      0.00000
      6       7.3923      0.00000
      7       7.3923      0.00000
      8       8.8421      0.00000

 k-point    34 :       0.3125    0.1875    0.1875
  band No.  band energies     occupation 
      1      -5.9006      2.00000
      2       0.7628      2.00000
      3       2.5105      2.00000
      4       3.8003      2.00000
      5       6.5612      0.00000
      6       7.5145      0.00000
      7       7.7344      0.00000
      8       9.3084      0.00000

 k-point    35 :       0.4375    0.1875    0.1875
  band No.  band energies     occupation 
      1      -5.2569      2.00000
      2      -0.4901      2.00000
      3       1.5788      2.00000
      4       3.3671      2.00000
      5       6.6262      0.00000
      6       8.1989      0.00000
      7       8.3342      0.00000
      8       9.6245      0.00000

 k-point    36 :      -0.4375    0.1875    0.1875
  band No.  band energies     occupation 
      1      -4.5086      2.00000
      2      -1.7391      2.00000
      3       1.3930      2.00000
      4       2.9136      2.00000
      5       6.3084      0.00000
      6       8.2546      0.00000
      7       8.6391      0.00000
      8      11.3349      0.00000

 k-point    37 :      -0.3125    0.1875    0.1875
  band No.  band energies     occupation 
      1      -4.4933      2.00000
      2      -1.7652      2.00000
      3       1.6347      2.00000
      4       2.6455      2.00000
      5       6.1396      0.00000
      6       8.2283      0.00000
      7       8.9581      0.00000
      8       9.8056      0.00000

 k-point    38 :      -0.1875    0.1875    0.1875
  band No.  band energies     occupation 
      1      -5.2390      2.00000
      2      -0.4939      2.00000
      3       2.1787      2.00000
      4       2.6344      2.00000
      5       6.1182      0.00000
      6       7.8653      0.00000
      7       8.7360      0.00000
      8       9.2153      0.00000

 k-point    39 :       0.3125    0.3125    0.1875
  band No.  band energies     occupation 
      1      -5.6781      2.00000
      2       0.1890      2.00000
      3       2.8701      2.00000
      4       2.9982      2.00000
      5       6.3377      0.00000
      6       7.3845      0.00000
      7       8.5307      0.00000
      8       9.0389      0.00000

 k-point    40 :       0.4375    0.3125    0.1875
  band No.  band energies     occupation 
      1      -5.1370      2.00000
      2      -0.5848      2.00000
      3       1.6287      2.00000
      4       2.8209      2.00000
      5       6.8799      0.00000
      6       7.5676      0.00000
      7       8.4811      0.00000
      8       9.6058      0.00000

 k-point    41 :      -0.4375    0.3125    0.1875
  band No.  band energies     occupation 
      1      -4.3784      2.00000
      2      -1.5832      2.00000
      3       0.9654      2.00000
      4       2.3535      2.00000
      5       7.2386      0.00000
      6       7.7855      0.00000
      7       8.9005      0.00000
      8      10.5791      0.00000

 k-point    42 :      -0.3125    0.3125    0.1875
  band No.  band energies     occupation 
      1      -3.9757      2.00000
      2      -2.0917      2.00000
      3       0.9454      2.00000
      4       2.0954      2.00000
      5       6.8944      0.00000
      6       8.0469      0.00000
      7       9.5905      0.00000
      8      10.5852      0.00000

 k-point    43 :      -0.1875    0.3125    0.1875
  band No.  band energies     occupation 
      1      -4.6139      2.00000
      2      -1.2565      2.00000
      3       1.3249      2.00000
      4       2.2423      2.00000
      5       6.6730      0.00000
      6       7.7518      0.00000
      7       8.4761      0.00000
      8      10.6639      0.00000

 k-point    44 :       0.4375    0.4375    0.1875
  band No.  band energies     occupation 
      1      -4.7066      2.00000
      2      -1.1842      2.00000
      3       1.5922      2.00000
      4       2.3454      2.00000
      5       5.8314      0.00000
      6       7.6343      0.00000
      7       9.4352      0.00000
      8       9.9633      0.00000

 k-point    45 :      -0.4375    0.4375    0.1875
  band No.  band energies     occupation 
      1      -4.0156      2.00000
      2      -1.9406      2.00000
      3       1.1324      2.00000
      4       1.7948      2.00000
      5       6.5165      0.00000
      6       7.4418      0.00000
      7       9.2404      0.00000
      8      11.6130      0.00000

 k-point    46 :      -0.3125    0.4375    0.1875
  band No.  band energies     occupation 
      1      -3.3323      2.00000
      2      -2.6168      2.00000
      3       0.8845      2.00000
      4       1.3811      2.00000
      5       7.5272      0.00000
      6       8.4376      0.00000
      7       8.7921      0.00000
      8       9.7601      0.00000

 k-point    47 :      -0.1875    0.4375    0.1875
  band No.  band energies     occupation 
      1      -3.8522      2.00000
      2      -2.1110      2.00000
      3       0.8594      2.00000
      4       1.7797      2.00000
      5       7.5957      0.00000
      6       7.9618      0.00000
      7       8.5982      0.00000
      8      10.7890      0.00000

 k-point    48 :      -0.4375   -0.4375    0.1875
  band No.  band energies     occupation 
      1      -3.4626      2.00000
      2      -2.5780      2.00000
      3       0.9676      2.00000
      4       2.0451      2.00000
      5       5.4880      0.00000
      6       7.1562      0.00000
      7      11.4879      0.00000
      8      11.4951      0.00000

 k-point    49 :      -0.3125   -0.4375    0.1875
  band No.  band energies     occupation 
      1      -3.3742      2.00000
      2      -2.6219      2.00000
      3       1.0470      2.00000
      4       1.5473      2.00000
      5       6.4377      0.00000
      6       7.2574      0.00000
      7      10.1472      0.00000
      8      11.1234      0.00000

 k-point    50 :      -0.3125   -0.3125    0.1875
  band No.  band energies     occupation 
      1      -4.0976      2.00000
      2      -1.8924      2.00000
      3       1.1784      2.00000
      4       2.1463      2.00000
      5       5.6077      0.00000
      6       7.3221      0.00000
      7      10.4425      0.00000
      8      10.7615      0.00000

 k-point    51 :       0.3125    0.3125    0.3125
  band No.  band energies     occupation 
      1      -5.5893      2.00000
      2      -0.3622      2.00000
      3       3.4331      2.00000
      4       3.4331      2.00000
      5       5.4913      0.00000
      6       7.6920      0.00000
      7       7.6920      0.00000
      8      10.9087      0.00000

 k-point    52 :       0.4375    0.3125    0.3125
  band No.  band energies     occupation 
      1      -5.1782      2.00000
      2      -0.9109      2.00000
      3       2.1375      2.00000
      4       3.3512      2.00000
      5       6.2660      0.00000
      6       7.8913      0.00000
      7       7.9407      0.00000
      8      10.5829      0.00000

 k-point    53 :      -0.4375    0.3125    0.3125
  band No.  band energies     occupation 
      1      -4.5008      2.00000
      2      -1.4975      2.00000
      3       0.8944      2.00000
      4       2.8607      2.00000
      5       6.3168      0.00000
      6       9.1149      0.00000
      7       9.1629      0.00000
      8      10.2877      0.00000

 k-point    54 :      -0.3125    0.3125    0.3125
  band No.  band energies     occupation 
      1      -3.8068      2.00000
      2      -2.2182      2.00000
      3       0.6342      2.00000
      4       2.3930      2.00000
      5       5.8636      0.00000
      6       9.3908      0.00000
      7      10.2380      0.00000
      8      10.2487      0.00000

 k-point    55 :       0.4375    0.4375    0.3125
  band No.  band energies     occupation 
      1      -4.9147      2.00000
      2      -1.3869      2.00000
      3       2.3914      2.00000
      4       2.8782      2.00000
      5       6.1498      0.00000
      6       7.5763      0.00000
      7       8.3986      0.00000
      8      10.2152      0.00000

 k-point    56 :      -0.4375    0.4375    0.3125
  band No.  band energies     occupation 
      1      -4.3873      2.00000
      2      -1.7759      2.00000
      3       1.3062      2.00000
      4       2.4908      2.00000
      5       6.9197      0.00000
      6       7.5088      0.00000
      7       9.5247      0.00000
      8      10.0512      0.00000

 k-point    57 :      -0.3125    0.4375    0.3125
  band No.  band energies     occupation 
      1      -3.6837      2.00000
      2      -2.2992      2.00000
      3       0.7141      2.00000
      4       1.8936      2.00000
      5       6.8092      0.00000
      6       8.8492      0.00000
      7       9.4814      0.00000
      8       9.8840      0.00000

 k-point    58 :      -0.4375   -0.4375    0.3125
  band No.  band energies     occupation 
      1      -4.0857      2.00000
      2      -2.0485      2.00000
      3       1.0041      2.00000
      4       2.4792      2.00000
      5       5.9733      0.00000
      6       9.1738      0.00000
      7       9.5443      0.00000
      8       9.6166      0.00000

 k-point    59 :       0.4375    0.4375    0.4375
  band No.  band energies     occupation 
      1      -4.8491      2.00000
      2      -1.7756      2.00000
      3       3.2309      2.00000
      4       3.2309      2.00000
      5       5.2509      0.00007
      6       7.6454      0.00000
      7       7.6454      0.00000
      8      11.7298      0.00000

 k-point    60 :      -0.4375    0.4375    0.4375
  band No.  band energies     occupation 
      1      -4.5554      2.00000
      2      -1.9540      2.00000
      3       2.1249      2.00000
      4       3.0083      2.00000
      5       6.1004      0.00000
      6       7.6704      0.00000
      7       8.1462      0.00000
      8      11.8053      0.00000


--------------------------------------------------------------------------------------------------------


 soft charge-density along one line, spin component           1
         0         1         2         3         4         5         6         7         8         9
 total charge-density along one line
 
 pseudopotential strength for first ion, spin component:           1
 18.596   0.001  -0.000  -0.000  -0.000   0.000   0.000   0.000
  0.001   0.006   0.000   0.000   0.000  -0.000  -0.000  -0.000
 -0.000   0.000   4.197  -0.000  -0.000  -0.003   0.000   0.000
 -0.000   0.000  -0.000   4.197  -0.000   0.000  -0.003   0.000
 -0.000   0.000  -0.000  -0.000   4.197   0.000   0.000  -0.003
  0.000  -0.000  -0.003   0.000   0.000   0.005  -0.000  -0.000
  0.000  -0.000   0.000  -0.003   0.000  -0.000   0.005  -0.000
  0.000  -0.000   0.000   0.000  -0.003  -0.000  -0.000   0.005
 total augmentation occupancy for first ion, spin component:           1
  1.535  -0.560  -0.000  -0.000   0.000   0.000   0.000   0.000
 -0.560   0.517  -0.000  -0.000   0.000   0.000   0.000  -0.000
 -0.000  -0.000   0.924  -0.000   0.000  -0.447   0.000  -0.000
 -0.000  -0.000  -0.000   0.924   0.000   0.000  -0.447  -0.000
  0.000   0.000   0.000   0.000   0.924  -0.000  -0.000  -0.447
  0.000   0.000  -0.447   0.000  -0.000   0.256  -0.000   0.000
  0.000   0.000   0.000  -0.447  -0.000  -0.000   0.256   0.000
  0.000   0.000  -0.000  -0.000  -0.447   0.000   0.000   0.256


------------------------ aborting loop because EDIFF is reached ----------------------------------------


    CHARGE:  cpu time    0.1040: real time    0.1043
    FORLOC:  cpu time    0.0040: real time    0.0012
    FORNL :  cpu time    0.0240: real time    0.0270
    STRESS:  cpu time    0.3160: real time    0.3151
    FORCOR:  cpu time    0.0280: real time    0.0271
    FORHAR:  cpu time    0.0040: real time    0.0065
    MIXING:  cpu time    0.0040: real time    0.0019
    OFIELD:  cpu time    0.0000: real time    0.0005

  FORCE on cell =-STRESS in cart. coord.  units (eV):
  Direction    XX          YY          ZZ          XY          YZ          ZX
  --------------------------------------------------------------------------------------
  Alpha Z     2.84497     2.84497     2.84497
  Ewald     -72.04774   -72.04774   -72.04774     0.00000     0.00000    -0.00000
  Hartree     5.65988     5.65988     5.65988     0.00000     0.00000     0.00000
  E(xc)     -24.46527   -24.46527   -24.46527    -0.00000    -0.00000    -0.00000
  Local     -31.73530   -31.73530   -31.73530     0.00003     0.00003     0.00003
  n-local    75.33489    77.88063    73.21363     0.90549    -0.99843     0.04251
  augment   -11.70783   -11.70783   -11.70783    -0.00002    -0.00002    -0.00002
  Kinetic    54.31946    53.82998    51.45281     0.94090    -1.04487     0.05092
  Fock        0.00000     0.00000     0.00000     0.00000     0.00000     0.00000
  -------------------------------------------------------------------------------------
  Total      -2.77416    -2.77416    -2.77416    -0.00000    -0.00000     0.00000
  in kB     -93.90867   -93.90867   -93.90867    -0.00000    -0.00000     0.00000
  external pressure =      -93.91 kB  Pullay stress =        0.00 kB


 VOLUME and BASIS-vectors are now :
 -----------------------------------------------------------------------------
  energy-cutoff  :      350.00
  volume of cell :       47.33
      direct lattice vectors                 reciprocal lattice vectors
     0.000000000  2.871014000  2.871014000    -0.174154497  0.174154497  0.174154497
     2.871014000  0.000000000  2.871014000     0.174154497 -0.174154497  0.174154497
     2.871014000  2.871014000  0.000000000     0.174154497  0.174154497 -0.174154497

  length of vectors
     4.060226937  4.060226937  4.060226937     0.301644438  0.301644438  0.301644438


 FORCES acting on ions
    electron-ion (+dipol)            ewald-force                    non-local-force                 convergence-correction
 -----------------------------------------------------------------------------------------------
   -.125E-06 -.125E-06 -.115E-06   0.834E-15 -.192E-14 0.776E-15   -.152E-16 -.136E-17 -.873E-17   -.143E-07 -.143E-07 -.143E-07
   0.125E-06 0.125E-06 0.115E-06   -.764E-15 0.187E-14 -.691E-15   0.110E-16 0.612E-18 0.194E-17   0.143E-07 0.143E-07 0.143E-07
 -----------------------------------------------------------------------------------------------
   0.347E-13 0.319E-13 0.324E-13   0.693E-16 -.477E-16 0.851E-16   -.422E-17 -.751E-18 -.678E-17   -.245E-14 -.326E-14 -.305E-14
 
 
 POSITION                                       TOTAL-FORCE (eV/Angst)
 -----------------------------------------------------------------------------------
      0.00000      0.00000      0.00000         0.000000     -0.000000     -0.000000
      1.43551      1.43551      1.43551        -0.000000      0.000000      0.000000
 -----------------------------------------------------------------------------------
    total drift:                                0.000000      0.000000      0.000000


--------------------------------------------------------------------------------------------------------



  FREE ENERGIE OF THE ION-ELECTRON SYSTEM (eV)
  ---------------------------------------------------
  free  energy   TOTEN  =       -10.63242406 eV

  energy  without entropy=      -10.63242067  energy(sigma->0) =      -10.63242237
 


--------------------------------------------------------------------------------------------------------


    POTLOK:  cpu time    0.0440: real time    0.0536


--------------------------------------------------------------------------------------------------------




--------------------------------------------------------------------------------------------------------


  
 reached required accuracy - stopping structural energy minimisation
 writing wavefunctions
     LOOP+:  cpu time   14.1400: real time   15.0058
    4ORBIT:  cpu time    0.0000: real time    0.0000

 total amount of memory used by VASP MPI-rank0    34536. kBytes
=======================================================================

   base      :      30000. kBytes
   nonl-proj :       2787. kBytes
   fftplans  :        314. kBytes
   grid      :        723. kBytes
   one-center:          6. kBytes
   wavefun   :        706. kBytes
 
  
  
 General timing and accounting informations for this job:
 ========================================================
  
                  Total CPU time used (sec):       19.308
                            User time (sec):       17.288
                          System time (sec):        2.020
                         Elapsed time (sec):       32.641
  
                   Maximum memory used (kb):       11076.
                   Average memory used (kb):           0.
  
                          Minor page faults:        38490
                          Major page faults:           30
                 Voluntary context switches:        49895
