<?xml version="1.0" encoding="ISO-8859-1"?>
<modeling>
 <generator>
  <i name="program" type="string">vasp </i>
  <i name="version" type="string">5.4.4.18Apr17-6-g9f103f2a35  </i>
  <i name="subversion" type="string">(build Dec 09 2018 21:25:21) complex            parallel </i>
  <i name="platform" type="string">IFC18.0.1.163_CrayMPICH7.7.0_MKL18.0.1.163 </i>
  <i name="date" type="string">2019 04 01 </i>
  <i name="time" type="string">16:01:46 </i>
 </generator>
 <incar>
  <i type="string" name="PREC">normal</i>
  <i type="int" name="IBRION">     2</i>
  <i name="EDIFF">      0.00040000</i>
  <i name="EDIFFG">     -0.01000000</i>
  <i type="int" name="NSW">    15</i>
  <i type="int" name="ISIF">     2</i>
  <i name="ENCUT">    350.00000000</i>
  <i type="int" name="NBANDS">     8</i>
  <i type="logical" name="LREAL"> F  </i>
  <i type="int" name="ISMEAR">     0</i>
  <i name="SIGMA">      0.20000000</i>
  <v type="int" name="KPOINT_BSE">    -1     0     0     0</v>
 </incar>
 <structure name="primitive_cell" >
  <crystal>
   <varray name="basis" >
    <v>       0.00000000       2.87101400       2.87101400 </v>
    <v>       2.87101400       0.00000000       2.87101400 </v>
    <v>       2.87101400       2.87101400       0.00000000 </v>
   </varray>
   <i name="volume">     47.32993701 </i>
   <varray name="rec_basis" >
    <v>      -0.17415450       0.17415450       0.17415450 </v>
    <v>       0.17415450      -0.17415450       0.17415450 </v>
    <v>       0.17415450       0.17415450      -0.17415450 </v>
   </varray>
  </crystal>
  <varray name="positions" >
   <v>       0.00000000       0.00000000       0.00000000 </v>
   <v>       0.25000000       0.25000000       0.25000000 </v>
  </varray>
 </structure>
 <varray name="primitive_index" >
  <v type="int" >        1 </v>
  <v type="int" >        2 </v>
 </varray>
 <kpoints>
  <generation param="Monkhorst-Pack">
   <v type="int" name="divisions">       8        8        8 </v>
   <v name="usershift">      0.00000000       0.00000000       0.00000000 </v>
   <v name="genvec1">      0.12500000       0.00000000      -0.00000000 </v>
   <v name="genvec2">      0.00000000       0.12500000       0.00000000 </v>
   <v name="genvec3">     -0.00000000      -0.00000000       0.12500000 </v>
   <v name="shift">      0.50000000       0.50000000       0.50000000 </v>
  </generation>
  <varray name="kpointlist" >
   <v>       0.06250000       0.06250000       0.06250000 </v>
   <v>       0.18750000       0.06250000       0.06250000 </v>
   <v>       0.31250000       0.06250000       0.06250000 </v>
   <v>       0.43750000       0.06250000       0.06250000 </v>
   <v>      -0.43750000       0.06250000       0.06250000 </v>
   <v>      -0.31250000       0.06250000       0.06250000 </v>
   <v>      -0.18750000       0.06250000       0.06250000 </v>
   <v>      -0.06250000       0.06250000       0.06250000 </v>
   <v>       0.18750000       0.18750000       0.06250000 </v>
   <v>       0.31250000       0.18750000       0.06250000 </v>
   <v>       0.43750000       0.18750000       0.06250000 </v>
   <v>      -0.43750000       0.18750000       0.06250000 </v>
   <v>      -0.31250000       0.18750000       0.06250000 </v>
   <v>      -0.18750000       0.18750000       0.06250000 </v>
   <v>      -0.06250000       0.18750000       0.06250000 </v>
   <v>       0.31250000       0.31250000       0.06250000 </v>
   <v>       0.43750000       0.31250000       0.06250000 </v>
   <v>      -0.43750000       0.31250000       0.06250000 </v>
   <v>      -0.31250000       0.31250000       0.06250000 </v>
   <v>      -0.18750000       0.31250000       0.06250000 </v>
   <v>      -0.06250000       0.31250000       0.06250000 </v>
   <v>       0.43750000       0.43750000       0.06250000 </v>
   <v>      -0.43750000       0.43750000       0.06250000 </v>
   <v>      -0.31250000       0.43750000       0.06250000 </v>
   <v>      -0.18750000       0.43750000       0.06250000 </v>
   <v>      -0.06250000       0.43750000       0.06250000 </v>
   <v>      -0.43750000      -0.43750000       0.06250000 </v>
   <v>      -0.31250000      -0.43750000       0.06250000 </v>
   <v>      -0.18750000      -0.43750000       0.06250000 </v>
   <v>      -0.31250000      -0.31250000       0.06250000 </v>
   <v>      -0.18750000      -0.31250000       0.06250000 </v>
   <v>      -0.18750000      -0.18750000       0.06250000 </v>
   <v>       0.18750000       0.18750000       0.18750000 </v>
   <v>       0.31250000       0.18750000       0.18750000 </v>
   <v>       0.43750000       0.18750000       0.18750000 </v>
   <v>      -0.43750000       0.18750000       0.18750000 </v>
   <v>      -0.31250000       0.18750000       0.18750000 </v>
   <v>      -0.18750000       0.18750000       0.18750000 </v>
   <v>       0.31250000       0.31250000       0.18750000 </v>
   <v>       0.43750000       0.31250000       0.18750000 </v>
   <v>      -0.43750000       0.31250000       0.18750000 </v>
   <v>      -0.31250000       0.31250000       0.18750000 </v>
   <v>      -0.18750000       0.31250000       0.18750000 </v>
   <v>       0.43750000       0.43750000       0.18750000 </v>
   <v>      -0.43750000       0.43750000       0.18750000 </v>
   <v>      -0.31250000       0.43750000       0.18750000 </v>
   <v>      -0.18750000       0.43750000       0.18750000 </v>
   <v>      -0.43750000      -0.43750000       0.18750000 </v>
   <v>      -0.31250000      -0.43750000       0.18750000 </v>
   <v>      -0.31250000      -0.31250000       0.18750000 </v>
   <v>       0.31250000       0.31250000       0.31250000 </v>
   <v>       0.43750000       0.31250000       0.31250000 </v>
   <v>      -0.43750000       0.31250000       0.31250000 </v>
   <v>      -0.31250000       0.31250000       0.31250000 </v>
   <v>       0.43750000       0.43750000       0.31250000 </v>
   <v>      -0.43750000       0.43750000       0.31250000 </v>
   <v>      -0.31250000       0.43750000       0.31250000 </v>
   <v>      -0.43750000      -0.43750000       0.31250000 </v>
   <v>       0.43750000       0.43750000       0.43750000 </v>
   <v>      -0.43750000       0.43750000       0.43750000 </v>
  </varray>
  <varray name="weights" >
   <v>       0.00390625 </v>
   <v>       0.01171875 </v>
   <v>       0.01171875 </v>
   <v>       0.01171875 </v>
   <v>       0.01171875 </v>
   <v>       0.01171875 </v>
   <v>       0.01171875 </v>
   <v>       0.01171875 </v>
   <v>       0.01171875 </v>
   <v>       0.02343750 </v>
   <v>       0.02343750 </v>
   <v>       0.02343750 </v>
   <v>       0.02343750 </v>
   <v>       0.02343750 </v>
   <v>       0.02343750 </v>
   <v>       0.01171875 </v>
   <v>       0.02343750 </v>
   <v>       0.02343750 </v>
   <v>       0.02343750 </v>
   <v>       0.02343750 </v>
   <v>       0.02343750 </v>
   <v>       0.01171875 </v>
   <v>       0.02343750 </v>
   <v>       0.02343750 </v>
   <v>       0.02343750 </v>
   <v>       0.02343750 </v>
   <v>       0.01171875 </v>
   <v>       0.02343750 </v>
   <v>       0.02343750 </v>
   <v>       0.01171875 </v>
   <v>       0.02343750 </v>
   <v>       0.01171875 </v>
   <v>       0.00390625 </v>
   <v>       0.01171875 </v>
   <v>       0.01171875 </v>
   <v>       0.01171875 </v>
   <v>       0.01171875 </v>
   <v>       0.01171875 </v>
   <v>       0.01171875 </v>
   <v>       0.02343750 </v>
   <v>       0.02343750 </v>
   <v>       0.02343750 </v>
   <v>       0.02343750 </v>
   <v>       0.01171875 </v>
   <v>       0.02343750 </v>
   <v>       0.02343750 </v>
   <v>       0.02343750 </v>
   <v>       0.01171875 </v>
   <v>       0.02343750 </v>
   <v>       0.01171875 </v>
   <v>       0.00390625 </v>
   <v>       0.01171875 </v>
   <v>       0.01171875 </v>
   <v>       0.01171875 </v>
   <v>       0.01171875 </v>
   <v>       0.02343750 </v>
   <v>       0.02343750 </v>
   <v>       0.01171875 </v>
   <v>       0.00390625 </v>
   <v>       0.01171875 </v>
  </varray>
 </kpoints>
 <parameters>
  <separator name="general" >
   <i type="string" name="SYSTEM">unknown system</i>
   <i type="logical" name="LCOMPAT"> F  </i>
  </separator>
  <separator name="electronic" >
   <i type="string" name="PREC">normal</i>
   <i name="ENMAX">    350.00000000</i>
   <i name="ENAUG">    322.06900000</i>
   <i name="EDIFF">      0.00040000</i>
   <i type="int" name="IALGO">    38</i>
   <i type="int" name="IWAVPR">    11</i>
   <i type="int" name="NBANDS">     8</i>
   <i name="NELECT">      8.00000000</i>
   <i type="int" name="TURBO">     0</i>
   <i type="int" name="IRESTART">     0</i>
   <i type="int" name="NREBOOT">     0</i>
   <i type="int" name="NMIN">     0</i>
   <i name="EREF">      0.00000000</i>
   <separator name="electronic smearing" >
    <i type="int" name="ISMEAR">     0</i>
    <i name="SIGMA">      0.20000000</i>
    <i name="KSPACING">      0.50000000</i>
    <i type="logical" name="KGAMMA"> T  </i>
   </separator>
   <separator name="electronic projectors" >
    <i type="logical" name="LREAL"> F  </i>
    <v name="ROPT">      0.00000000</v>
    <i type="int" name="LMAXPAW">  -100</i>
    <i type="int" name="LMAXMIX">     2</i>
    <i type="logical" name="NLSPLINE"> F  </i>
   </separator>
   <separator name="electronic startup" >
    <i type="int" name="ISTART">     0</i>
    <i type="int" name="ICHARG">     2</i>
    <i type="int" name="INIWAV">     1</i>
   </separator>
   <separator name="electronic spin" >
    <i type="int" name="ISPIN">     1</i>
    <i type="logical" name="LNONCOLLINEAR"> F  </i>
    <v name="MAGMOM">      1.00000000      1.00000000</v>
    <i name="NUPDOWN">     -1.00000000</i>
    <i type="logical" name="LSORBIT"> F  </i>
    <v name="SAXIS">      0.00000000      0.00000000      1.00000000</v>
    <i type="logical" name="LSPIRAL"> F  </i>
    <v name="QSPIRAL">      0.00000000      0.00000000      0.00000000</v>
    <i type="logical" name="LZEROZ"> F  </i>
   </separator>
   <separator name="electronic exchange-correlation" >
    <i type="logical" name="LASPH"> F  </i>
    <i type="logical" name="LMETAGGA"> F  </i>
   </separator>
   <separator name="electronic convergence" >
    <i type="int" name="NELM">    60</i>
    <i type="int" name="NELMDL">    -5</i>
    <i type="int" name="NELMIN">     2</i>
    <i name="ENINI">    350.00000000</i>
    <separator name="electronic convergence detail" >
     <i type="logical" name="LDIAG"> T  </i>
     <i type="logical" name="LSUBROT"> F  </i>
     <i name="WEIMIN">      0.00100000</i>
     <i name="EBREAK">      0.00001250</i>
     <i name="DEPER">      0.30000000</i>
     <i type="int" name="NRMM">     4</i>
     <i name="TIME">      0.40000000</i>
    </separator>
   </separator>
   <separator name="electronic mixer" >
    <i name="AMIX">      0.40000000</i>
    <i name="BMIX">      1.00000000</i>
    <i name="AMIN">      0.10000000</i>
    <i name="AMIX_MAG">      1.60000000</i>
    <i name="BMIX_MAG">      1.00000000</i>
    <separator name="electronic mixer details" >
     <i type="int" name="IMIX">     4</i>
     <i type="logical" name="MIXFIRST"> F  </i>
     <i type="int" name="MAXMIX">   -45</i>
     <i name="WC">    100.00000000</i>
     <i type="int" name="INIMIX">     1</i>
     <i type="int" name="MIXPRE">     1</i>
     <i type="int" name="MREMOVE">     5</i>
    </separator>
   </separator>
   <separator name="electronic dipolcorrection" >
    <i type="logical" name="LDIPOL"> F  </i>
    <i type="logical" name="LMONO"> F  </i>
    <i type="int" name="IDIPOL">     0</i>
    <i name="EPSILON">      1.00000000</i>
    <v name="DIPOL">   -100.00000000   -100.00000000   -100.00000000</v>
    <i name="EFIELD">      0.00000000</i>
   </separator>
  </separator>
  <separator name="grids" >
   <i type="int" name="NGX">    20</i>
   <i type="int" name="NGY">    20</i>
   <i type="int" name="NGZ">    20</i>
   <i type="int" name="NGXF">    40</i>
   <i type="int" name="NGYF">    40</i>
   <i type="int" name="NGZF">    40</i>
   <i type="logical" name="ADDGRID"> F  </i>
  </separator>
  <separator name="ionic" >
   <i type="int" name="NSW">    15</i>
   <i type="int" name="IBRION">     2</i>
   <i type="int" name="MDALGO">     0</i>
   <i type="int" name="ISIF">     2</i>
   <i name="PSTRESS">      0.00000000</i>
   <i name="EDIFFG">     -0.01000000</i>
   <i type="int" name="NFREE">     1</i>
   <i name="POTIM">      0.50000000</i>
   <i name="SMASS">     -3.00000000</i>
   <i name="SCALEE">      1.00000000</i>
  </separator>
  <separator name="ionic md" >
   <i name="TEBEG">      0.00010000</i>
   <i name="TEEND">      0.00010000</i>
   <i type="int" name="NBLOCK">     1</i>
   <i type="int" name="KBLOCK">    15</i>
   <i type="int" name="NPACO">   256</i>
   <i name="APACO">     16.00000000</i>
  </separator>
  <separator name="symmetry" >
   <i type="int" name="ISYM">     2</i>
   <i name="SYMPREC">      0.00001000</i>
  </separator>
  <separator name="dos" >
   <i type="int" name="LORBIT">     0</i>
   <v name="RWIGS">     -1.00000000</v>
   <i type="int" name="NEDOS">   301</i>
   <i name="EMIN">     10.00000000</i>
   <i name="EMAX">    -10.00000000</i>
   <i name="EFERMI">      0.00000000</i>
  </separator>
  <separator name="writing" >
   <i type="int" name="NWRITE">     2</i>
   <i type="logical" name="LWAVE"> T  </i>
   <i type="logical" name="LDOWNSAMPLE"> F  </i>
   <i type="logical" name="LCHARG"> T  </i>
   <i type="logical" name="LPARD"> F  </i>
   <i type="logical" name="LVTOT"> F  </i>
   <i type="logical" name="LVHAR"> F  </i>
   <i type="logical" name="LELF"> F  </i>
   <i type="logical" name="LOPTICS"> F  </i>
   <v name="STM">      0.00000000      0.00000000      0.00000000      0.00000000      0.00000000      0.00000000      0.00000000</v>
  </separator>
  <separator name="performance" >
   <i type="int" name="NPAR">     8</i>
   <i type="int" name="NSIM">     4</i>
   <i type="int" name="NBLK">    -1</i>
   <i type="logical" name="LPLANE"> T  </i>
   <i type="logical" name="LSCALAPACK"> T  </i>
   <i type="logical" name="LSCAAWARE"> F  </i>
   <i type="logical" name="LSCALU"> F  </i>
   <i type="logical" name="LASYNC"> F  </i>
   <i type="logical" name="LORBITALREAL"> F  </i>
  </separator>
  <separator name="miscellaneous" >
   <i type="int" name="IDIOT">     3</i>
   <i type="int" name="ISPECIAL">     0</i>
   <i type="logical" name="LMUSIC"> F  </i>
   <v name="POMASS">     28.08500000</v>
   <v name="DARWINR">      0.00000000</v>
   <v name="DARWINV">      1.00000000</v>
   <i type="logical" name="LCORR"> T  </i>
  </separator>
  <i type="logical" name="GGA_COMPAT"> T  </i>
  <i type="logical" name="LBERRY"> F  </i>
  <i type="int" name="ICORELEVEL">     0</i>
  <i type="logical" name="LDAU"> F  </i>
  <i type="int" name="I_CONSTRAINED_M">     0</i>
  <separator name="electronic exchange-correlation" >
   <i type="string" name="GGA">--</i>
   <i type="int" name="VOSKOWN">     0</i>
   <i type="logical" name="LHFCALC"> F  </i>
   <i type="string" name="PRECFOCK"></i>
   <i type="logical" name="LSYMGRAD"> F  </i>
   <i type="logical" name="LHFONE"> F  </i>
   <i type="logical" name="LRHFCALC"> F  </i>
   <i type="logical" name="LTHOMAS"> F  </i>
   <i type="logical" name="LMODELHF"> F  </i>
   <i name="ENCUT4O">     -1.00000000</i>
   <i type="int" name="EXXOEP">     0</i>
   <i type="int" name="FOURORBIT">     0</i>
   <i name="AEXX">      0.00000000</i>
   <i name="HFALPHA">      0.00000000</i>
   <i name="MCALPHA">      0.00000000</i>
   <i name="ALDAX">      1.00000000</i>
   <i name="AGGAX">      1.00000000</i>
   <i name="ALDAC">      1.00000000</i>
   <i name="AGGAC">      1.00000000</i>
   <i type="int" name="NKREDX">     1</i>
   <i type="int" name="NKREDY">     1</i>
   <i type="int" name="NKREDZ">     1</i>
   <i type="logical" name="SHIFTRED"> F  </i>
   <i type="logical" name="ODDONLY"> F  </i>
   <i type="logical" name="EVENONLY"> F  </i>
   <i type="int" name="LMAXFOCK">     0</i>
   <i type="int" name="NMAXFOCKAE">     0</i>
   <i type="logical" name="LFOCKAEDFT"> F  </i>
   <i name="HFSCREEN">      0.00000000</i>
   <i name="HFSCREENC">      0.00000000</i>
   <i type="int" name="NBANDSGWLOW">     0</i>
  </separator>
  <separator name="vdW DFT" >
   <i type="logical" name="LUSE_VDW"> F  </i>
   <i name="Zab_VDW">     -0.84910000</i>
   <i name="PARAM1">      0.12340000</i>
   <i name="PARAM2">      1.00000000</i>
   <i name="PARAM3">      0.00000000</i>
  </separator>
  <separator name="model GW" >
   <i type="int" name="MODEL_GW">     0</i>
   <i name="MODEL_EPS0">     14.19898110</i>
   <i name="MODEL_ALPHA">      1.00000000</i>
  </separator>
  <separator name="linear response parameters" >
   <i type="logical" name="LEPSILON"> F  </i>
   <i type="logical" name="LRPA"> F  </i>
   <i type="logical" name="LNABLA"> F  </i>
   <i type="logical" name="LVEL"> F  </i>
   <i type="int" name="KINTER">     0</i>
   <i name="CSHIFT">      0.10000000</i>
   <i name="OMEGAMAX">     -1.00000000</i>
   <i name="DEG_THRESHOLD">      0.00200000</i>
   <i name="RTIME">     -0.10000000</i>
   <i name="WPLASMAI">      0.00000000</i>
   <v name="DFIELD">      0.00000000      0.00000000      0.00000000</v>
   <v name="WPLASMA">      0.00000000      0.00000000      0.00000000      0.00000000      0.00000000      0.00000000      0.00000000      0.00000000      0.00000000</v>
  </separator>
  <separator name="orbital magnetization" >
   <i type="logical" name="NUCIND"> F  </i>
   <v name="MAGPOS">      0.00000000      0.00000000      0.00000000</v>
   <i type="logical" name="LNICSALL"> T  </i>
   <i type="logical" name="ORBITALMAG"> F  </i>
   <i type="logical" name="LMAGBLOCH"> F  </i>
   <i type="logical" name="LCHIMAG"> F  </i>
   <i type="logical" name="LGAUGE"> T  </i>
   <i type="int" name="MAGATOM">     0</i>
   <v name="MAGDIPOL">      0.00000000      0.00000000      0.00000000</v>
   <v name="AVECCONST">      0.00000000      0.00000000      0.00000000</v>
  </separator>
  <separator name="response functions" >
   <i type="logical" name="LADDER"> F  </i>
   <i type="logical" name="LRPAFORCE"> F  </i>
   <i type="logical" name="LFXC"> F  </i>
   <i type="logical" name="LHARTREE"> T  </i>
   <i type="int" name="IBSE">     0</i>
   <v type="int" name="KPOINT">    -1     0     0     0</v>
   <i type="logical" name="LTCTE"> F  </i>
   <i type="logical" name="LTETE"> F  </i>
   <i type="logical" name="LTRIPLET"> F  </i>
   <i type="logical" name="LFXCEPS"> F  </i>
   <i type="logical" name="LFXHEG"> F  </i>
   <i type="int" name="NATURALO">     2</i>
   <i type="logical" name="L2ORDER"> F  </i>
   <i type="logical" name="LMP2LT"> F  </i>
   <i type="logical" name="LUSEW"> F  </i>
   <i name="ENCUTGW">     -2.00000000</i>
   <i name="ENCUTGWSOFT">     -2.00000000</i>
   <i name="ENCUTLF">     -1.00000000</i>
   <i type="int" name="LMAXMP2">    -1</i>
   <i name="SCISSOR">      0.00000000</i>
   <i type="int" name="NOMEGA">     0</i>
   <i type="int" name="NOMEGAR">     0</i>
   <i type="int" name="NBANDSGW">    -1</i>
   <i type="int" name="NBANDSO">    -1</i>
   <i type="int" name="NBANDSV">    -1</i>
   <i type="int" name="NELM">     1</i>
   <i type="int" name="NELMHF">     1</i>
   <i type="int" name="DIM">     3</i>
   <i type="int" name="ANTIRES">     0</i>
   <i name="OMEGAMAX">    -30.00000000</i>
   <i name="OMEGAMIN">    -30.00000000</i>
   <i name="OMEGATL">   -200.00000000</i>
   <i type="int" name="OMEGAGRID">   140</i>
   <i name="CSHIFT">     -0.10000000</i>
   <i type="logical" name="SELFENERGY"> F  </i>
   <i type="logical" name="LSPECTRAL"> F  </i>
   <i type="logical" name="LSPECTRALGW"> F  </i>
   <i type="logical" name="LSINGLES"> F  </i>
   <i type="logical" name="LFERMIGW"> F  </i>
   <i type="logical" name="ODDONLYGW"> F  </i>
   <i type="logical" name="EVENONLYGW"> F  </i>
   <i type="int" name="NKREDLFX">     1</i>
   <i type="int" name="NKREDLFY">     1</i>
   <i type="int" name="NKREDLFZ">     1</i>
   <i type="int" name="MAXMEM">  2800</i>
   <i type="int" name="TELESCOPE">     0</i>
   <i type="int" name="TAUPAR">     1</i>
   <i type="int" name="OMEGAPAR">    -1</i>
   <i name="LAMBDA">      1.00000000</i>
  </separator>
  <separator name="External order field" >
   <i name="OFIELD_KAPPA">      0.00000000</i>
   <v name="OFIELD_K">      0.00000000      0.00000000      0.00000000</v>
   <i name="OFIELD_Q6_NEAR">      0.00000000</i>
   <i name="OFIELD_Q6_FAR">      0.00000000</i>
   <i name="OFIELD_A">      0.00000000</i>
  </separator>
 </parameters>
 <atominfo>
  <atoms>       2 </atoms>
  <types>       1 </types>
  <array name="atoms" >
   <dimension dim="1">ion</dimension>
   <field type="string">element</field>
   <field type="int">atomtype</field>
   <set>
    <rc><c>Si</c><c>   1</c></rc>
    <rc><c>Si</c><c>   1</c></rc>
   </set>
  </array>
  <array name="atomtypes" >
   <dimension dim="1">type</dimension>
   <field type="int">atomspertype</field>
   <field type="string">element</field>
   <field>mass</field>
   <field>valence</field>
   <field type="string">pseudopotential</field>
   <set>
    <rc><c>   2</c><c>Si</c><c>     28.08500000</c><c>      4.00000000</c><c> PAW_PBE Si 05Jan2001                   </c></rc>
   </set>
  </array>
 </atominfo>
 <structure name="initialpos" >
  <crystal>
   <varray name="basis" >
    <v>       0.00000000       2.87101400       2.87101400 </v>
    <v>       2.87101400       0.00000000       2.87101400 </v>
    <v>       2.87101400       2.87101400       0.00000000 </v>
   </varray>
   <i name="volume">     47.32993701 </i>
   <varray name="rec_basis" >
    <v>      -0.17415450       0.17415450       0.17415450 </v>
    <v>       0.17415450      -0.17415450       0.17415450 </v>
    <v>       0.17415450       0.17415450      -0.17415450 </v>
   </varray>
  </crystal>
  <varray name="positions" >
   <v>       0.00000000       0.00000000       0.00000000 </v>
   <v>       0.25000000       0.25000000       0.25000000 </v>
  </varray>
 </structure>
 <calculation>
  <scstep>
   <time name="dav">    1.06    1.06</time>
   <time name="total">    1.11    1.12</time>
   <energy>
    <i name="alphaZ">      2.84497133 </i>
    <i name="ewald">   -216.14313625 </i>
    <i name="hartreedc">    -13.65942417 </i>
    <i name="XCdc">    -19.22680994 </i>
    <i name="pawpsdc">     65.95520812 </i>
    <i name="pawaedc">    -30.76852678 </i>
    <i name="eentropy">     -0.01075472 </i>
    <i name="bandstr">      7.65185147 </i>
    <i name="atom">    206.13125414 </i>
    <i name="e_fr_energy">      2.77463319 </i>
    <i name="e_wo_entrp">      2.78538791 </i>
    <i name="e_0_energy">      2.78001055 </i>
   </energy>
  </scstep>
  <scstep>
   <time name="dav">    1.55    1.56</time>
   <time name="total">    1.55    1.56</time>
   <energy>
    <i name="e_fr_energy">    -10.54075630 </i>
    <i name="e_wo_entrp">    -10.54075584 </i>
    <i name="e_0_energy">    -10.54075607 </i>
   </energy>
  </scstep>
  <scstep>
   <time name="dav">    1.33    1.34</time>
   <time name="total">    1.33    1.34</time>
   <energy>
    <i name="e_fr_energy">    -10.73070596 </i>
    <i name="e_wo_entrp">    -10.73070562 </i>
    <i name="e_0_energy">    -10.73070579 </i>
   </energy>
  </scstep>
  <scstep>
   <time name="dav">    1.56    1.57</time>
   <time name="total">    1.57    1.57</time>
   <energy>
    <i name="e_fr_energy">    -10.73150173 </i>
    <i name="e_wo_entrp">    -10.73150139 </i>
    <i name="e_0_energy">    -10.73150156 </i>
   </energy>
  </scstep>
  <scstep>
   <time name="dav">    1.35    1.36</time>
   <time name="total">    1.46    1.47</time>
   <energy>
    <i name="e_fr_energy">    -10.73150322 </i>
    <i name="e_wo_entrp">    -10.73150288 </i>
    <i name="e_0_energy">    -10.73150305 </i>
   </energy>
  </scstep>
  <scstep>
   <time name="dav">    1.21    1.21</time>
   <time name="total">    1.36    1.37</time>
   <energy>
    <i name="e_fr_energy">    -10.66577059 </i>
    <i name="e_wo_entrp">    -10.66576968 </i>
    <i name="e_0_energy">    -10.66577013 </i>
   </energy>
  </scstep>
  <scstep>
   <time name="dav">    1.24    1.24</time>
   <time name="total">    1.39    1.40</time>
   <energy>
    <i name="e_fr_energy">    -10.63092141 </i>
    <i name="e_wo_entrp">    -10.63091696 </i>
    <i name="e_0_energy">    -10.63091919 </i>
   </energy>
  </scstep>
  <scstep>
   <time name="dav">    1.13    1.13</time>
   <time name="total">    1.28    1.28</time>
   <energy>
    <i name="e_fr_energy">    -10.63228164 </i>
    <i name="e_wo_entrp">    -10.63227816 </i>
    <i name="e_0_energy">    -10.63227990 </i>
   </energy>
  </scstep>
  <scstep>
   <time name="dav">    0.91    0.91</time>
   <time name="total">    0.95    0.96</time>
   <energy>
    <i name="alphaZ">      2.84497133 </i>
    <i name="ewald">   -216.14313625 </i>
    <i name="hartreedc">    -16.96677804 </i>
    <i name="XCdc">    -18.70311091 </i>
    <i name="pawpsdc">     69.77127444 </i>
    <i name="pawaedc">    -34.68181198 </i>
    <i name="eentropy">     -0.00000339 </i>
    <i name="bandstr">     -2.88508341 </i>
    <i name="atom">    206.13125414 </i>
    <i name="e_fr_energy">    -10.63242406 </i>
    <i name="e_wo_entrp">    -10.63242067 </i>
    <i name="e_0_energy">    -10.63242237 </i>
   </energy>
  </scstep>
  <structure>
   <crystal>
    <varray name="basis" >
     <v>       0.00000000       2.87101400       2.87101400 </v>
     <v>       2.87101400       0.00000000       2.87101400 </v>
     <v>       2.87101400       2.87101400       0.00000000 </v>
    </varray>
    <i name="volume">     47.32993701 </i>
    <varray name="rec_basis" >
     <v>      -0.17415450       0.17415450       0.17415450 </v>
     <v>       0.17415450      -0.17415450       0.17415450 </v>
     <v>       0.17415450       0.17415450      -0.17415450 </v>
    </varray>
   </crystal>
   <varray name="positions" >
    <v>       0.00000000       0.00000000       0.00000000 </v>
    <v>       0.25000000       0.25000000       0.25000000 </v>
   </varray>
  </structure>
  <varray name="forces" >
   <v>       0.00000000      -0.00000000      -0.00000000 </v>
   <v>      -0.00000000       0.00000000       0.00000000 </v>
  </varray>
  <varray name="stress" >
   <v>     -93.90866905      -0.00000000       0.00000000 </v>
   <v>      -0.00000000     -93.90866905       0.00000000 </v>
   <v>       0.00000000      -0.00000000     -93.90866905 </v>
  </varray>
  <energy>
   <i name="e_fr_energy">    -10.63242406 </i>
   <i name="e_wo_entrp">    -10.63242237 </i>
   <i name="e_0_energy">     -0.00000339 </i>
  </energy>
  <time name="totalsc">   14.14   15.01</time>
  <eigenvalues>
   <array>
    <dimension dim="1">band</dimension>
    <dimension dim="2">kpoint</dimension>
    <dimension dim="3">spin</dimension>
    <field>eigene</field>
    <field>occ</field>
    <set>
     <set comment="spin 1">
      <set comment="kpoint 1">
       <r>   -6.5892    1.0000 </r>
       <r>    3.6682    1.0000 </r>
       <r>    4.1869    0.9998 </r>
       <r>    4.1869    0.9998 </r>
       <r>    6.1120    0.0000 </r>
       <r>    6.8423    0.0000 </r>
       <r>    6.8423    0.0000 </r>
       <r>    6.9586    0.0000 </r>
      </set>
      <set comment="kpoint 2">
       <r>   -6.3555    1.0000 </r>
       <r>    2.2113    1.0000 </r>
       <r>    3.5017    1.0000 </r>
       <r>    4.0730    1.0000 </r>
       <r>    6.3262    0.0000 </r>
       <r>    7.0646    0.0000 </r>
       <r>    7.2483    0.0000 </r>
       <r>    8.3256    0.0000 </r>
      </set>
      <set comment="kpoint 3">
       <r>   -5.7956    1.0000 </r>
       <r>    0.2414    1.0000 </r>
       <r>    3.0476    1.0000 </r>
       <r>    3.6665    1.0000 </r>
       <r>    5.9347    0.0000 </r>
       <r>    7.5530    0.0000 </r>
       <r>    7.7999    0.0000 </r>
       <r>   10.0099    0.0000 </r>
      </set>
      <set comment="kpoint 4">
       <r>   -5.0330    1.0000 </r>
       <r>   -1.3938    1.0000 </r>
       <r>    2.8348    1.0000 </r>
       <r>    3.3089    1.0000 </r>
       <r>    5.6431    0.0000 </r>
       <r>    7.7066    0.0000 </r>
       <r>    7.7249    0.0000 </r>
       <r>   11.5139    0.0000 </r>
      </set>
      <set comment="kpoint 5">
       <r>   -4.6731    1.0000 </r>
       <r>   -1.9771    1.0000 </r>
       <r>    2.8640    1.0000 </r>
       <r>    3.1233    1.0000 </r>
       <r>    5.5731    0.0000 </r>
       <r>    7.5652    0.0000 </r>
       <r>    7.7968    0.0000 </r>
       <r>   11.7685    0.0000 </r>
      </set>
      <set comment="kpoint 6">
       <r>   -5.2903    1.0000 </r>
       <r>   -0.9160    1.0000 </r>
       <r>    3.1134    1.0000 </r>
       <r>    3.1533    1.0000 </r>
       <r>    5.7392    0.0000 </r>
       <r>    7.5114    0.0000 </r>
       <r>    7.9718    0.0000 </r>
       <r>   10.7435    0.0000 </r>
      </set>
      <set comment="kpoint 7">
       <r>   -6.0142    1.0000 </r>
       <r>    0.8841    1.0000 </r>
       <r>    3.4077    1.0000 </r>
       <r>    3.5295    1.0000 </r>
       <r>    6.1024    0.0000 </r>
       <r>    7.2344    0.0000 </r>
       <r>    7.9128    0.0000 </r>
       <r>    9.3647    0.0000 </r>
      </set>
      <set comment="kpoint 8">
       <r>   -6.4716    1.0000 </r>
       <r>    2.8948    1.0000 </r>
       <r>    3.8322    1.0000 </r>
       <r>    3.9317    1.0000 </r>
       <r>    6.4847    0.0000 </r>
       <r>    6.6755    0.0000 </r>
       <r>    7.3343    0.0000 </r>
       <r>    7.6332    0.0000 </r>
      </set>
      <set comment="kpoint 9">
       <r>   -6.2377    1.0000 </r>
       <r>    1.9955    1.0000 </r>
       <r>    3.3549    1.0000 </r>
       <r>    3.3883    1.0000 </r>
       <r>    6.2256    0.0000 </r>
       <r>    7.2591    0.0000 </r>
       <r>    8.0812    0.0000 </r>
       <r>    8.3418    0.0000 </r>
      </set>
      <set comment="kpoint 10">
       <r>   -5.7820    1.0000 </r>
       <r>    0.6420    1.0000 </r>
       <r>    2.5094    1.0000 </r>
       <r>    3.1645    1.0000 </r>
       <r>    6.3631    0.0000 </r>
       <r>    7.4210    0.0000 </r>
       <r>    8.6644    0.0000 </r>
       <r>    8.8101    0.0000 </r>
      </set>
      <set comment="kpoint 11">
       <r>   -5.0590    1.0000 </r>
       <r>   -0.9446    1.0000 </r>
       <r>    2.0210    1.0000 </r>
       <r>    2.8252    1.0000 </r>
       <r>    6.4354    0.0000 </r>
       <r>    7.6751    0.0000 </r>
       <r>    8.8553    0.0000 </r>
       <r>    9.2924    0.0000 </r>
      </set>
      <set comment="kpoint 12">
       <r>   -4.4360    1.0000 </r>
       <r>   -1.9508    1.0000 </r>
       <r>    1.7503    1.0000 </r>
       <r>    2.7499    1.0000 </r>
       <r>    6.4065    0.0000 </r>
       <r>    7.6015    0.0000 </r>
       <r>    8.7693    0.0000 </r>
       <r>   10.9833    0.0000 </r>
      </set>
      <set comment="kpoint 13">
       <r>   -4.8064    1.0000 </r>
       <r>   -1.3817    1.0000 </r>
       <r>    1.7119    1.0000 </r>
       <r>    2.9864    1.0000 </r>
       <r>    6.5563    0.0000 </r>
       <r>    7.5993    0.0000 </r>
       <r>    8.6884    0.0000 </r>
       <r>   10.3316    0.0000 </r>
      </set>
      <set comment="kpoint 14">
       <r>   -5.5692    1.0000 </r>
       <r>    0.0848    1.0000 </r>
       <r>    2.0326    1.0000 </r>
       <r>    3.4138    1.0000 </r>
       <r>    6.8338    0.0000 </r>
       <r>    7.3443    0.0000 </r>
       <r>    8.5431    0.0000 </r>
       <r>    9.0930    0.0000 </r>
      </set>
      <set comment="kpoint 15">
       <r>   -6.1247    1.0000 </r>
       <r>    1.4357    1.0000 </r>
       <r>    3.0039    1.0000 </r>
       <r>    3.7300    1.0000 </r>
       <r>    6.5823    0.0000 </r>
       <r>    6.9588    0.0000 </r>
       <r>    7.9233    0.0000 </r>
       <r>    8.8541    0.0000 </r>
      </set>
      <set comment="kpoint 16">
       <r>   -5.4318    1.0000 </r>
       <r>    0.1036    1.0000 </r>
       <r>    2.3871    1.0000 </r>
       <r>    2.4913    1.0000 </r>
       <r>    5.5361    0.0000 </r>
       <r>    7.0342    0.0000 </r>
       <r>    9.6773    0.0000 </r>
       <r>    9.8611    0.0000 </r>
      </set>
      <set comment="kpoint 17">
       <r>   -4.7822    1.0000 </r>
       <r>   -0.9908    1.0000 </r>
       <r>    1.7210    1.0000 </r>
       <r>    2.1976    1.0000 </r>
       <r>    5.8236    0.0000 </r>
       <r>    6.9180    0.0000 </r>
       <r>    9.6522    0.0000 </r>
       <r>   10.7321    0.0000 </r>
      </set>
      <set comment="kpoint 18">
       <r>   -4.0291    1.0000 </r>
       <r>   -2.0044    1.0000 </r>
       <r>    1.0045    1.0000 </r>
       <r>    2.1683    1.0000 </r>
       <r>    6.0426    0.0000 </r>
       <r>    8.3895    0.0000 </r>
       <r>    9.2841    0.0000 </r>
       <r>   10.6554    0.0000 </r>
      </set>
      <set comment="kpoint 19">
       <r>   -4.0983    1.0000 </r>
       <r>   -1.9164    1.0000 </r>
       <r>    0.7183    1.0000 </r>
       <r>    2.4589    1.0000 </r>
       <r>    6.3554    0.0000 </r>
       <r>    8.9766    0.0000 </r>
       <r>    9.9935    0.0000 </r>
       <r>   10.5565    0.0000 </r>
      </set>
      <set comment="kpoint 20">
       <r>   -4.8548    1.0000 </r>
       <r>   -1.0467    1.0000 </r>
       <r>    1.2119    1.0000 </r>
       <r>    2.9523    1.0000 </r>
       <r>    6.7678    0.0000 </r>
       <r>    8.0007    0.0000 </r>
       <r>    9.1687    0.0000 </r>
       <r>    9.5829    0.0000 </r>
      </set>
      <set comment="kpoint 21">
       <r>   -5.4741    1.0000 </r>
       <r>   -0.3741    1.0000 </r>
       <r>    2.5604    1.0000 </r>
       <r>    3.3239    1.0000 </r>
       <r>    6.2650    0.0000 </r>
       <r>    7.4500    0.0000 </r>
       <r>    8.2377    0.0000 </r>
       <r>    9.7905    0.0000 </r>
      </set>
      <set comment="kpoint 22">
       <r>   -4.2101    1.0000 </r>
       <r>   -1.7631    1.0000 </r>
       <r>    1.7965    1.0000 </r>
       <r>    1.9687    1.0000 </r>
       <r>    5.2272    0.0001 </r>
       <r>    5.9087    0.0000 </r>
       <r>   11.6777    0.0000 </r>
       <r>   11.7713    0.0000 </r>
      </set>
      <set comment="kpoint 23">
       <r>   -3.4286    1.0000 </r>
       <r>   -2.6327    1.0000 </r>
       <r>    1.3434    1.0000 </r>
       <r>    1.7731    1.0000 </r>
       <r>    5.6231    0.0000 </r>
       <r>    6.2611    0.0000 </r>
       <r>   11.5163    0.0000 </r>
       <r>   12.2613    0.0000 </r>
      </set>
      <set comment="kpoint 24">
       <r>   -3.5463    1.0000 </r>
       <r>   -2.4644    1.0000 </r>
       <r>    0.7450    1.0000 </r>
       <r>    2.0434    1.0000 </r>
       <r>    5.9259    0.0000 </r>
       <r>    8.2504    0.0000 </r>
       <r>   10.1865    0.0000 </r>
       <r>   11.0973    0.0000 </r>
      </set>
      <set comment="kpoint 25">
       <r>   -4.2110    1.0000 </r>
       <r>   -1.9802    1.0000 </r>
       <r>    1.1269    1.0000 </r>
       <r>    2.5555    1.0000 </r>
       <r>    6.4180    0.0000 </r>
       <r>    8.1956    0.0000 </r>
       <r>    9.5369    0.0000 </r>
       <r>   10.7623    0.0000 </r>
      </set>
      <set comment="kpoint 26">
       <r>   -4.7316    1.0000 </r>
       <r>   -1.7512    1.0000 </r>
       <r>    2.3756    1.0000 </r>
       <r>    3.0425    1.0000 </r>
       <r>    6.0475    0.0000 </r>
       <r>    7.5067    0.0000 </r>
       <r>    8.1360    0.0000 </r>
       <r>   11.2968    0.0000 </r>
      </set>
      <set comment="kpoint 27">
       <r>   -3.4644    1.0000 </r>
       <r>   -2.6422    1.0000 </r>
       <r>    1.6768    1.0000 </r>
       <r>    1.8616    1.0000 </r>
       <r>    5.2506    0.0000 </r>
       <r>    5.5735    0.0000 </r>
       <r>   12.6020    0.0000 </r>
       <r>   12.6095    0.0000 </r>
      </set>
      <set comment="kpoint 28">
       <r>   -4.1419    1.0000 </r>
       <r>   -1.8211    1.0000 </r>
       <r>    1.4723    1.0000 </r>
       <r>    1.9134    1.0000 </r>
       <r>    5.6808    0.0000 </r>
       <r>    6.4970    0.0000 </r>
       <r>   10.5668    0.0000 </r>
       <r>   11.7161    0.0000 </r>
      </set>
      <set comment="kpoint 29">
       <r>   -4.5666    1.0000 </r>
       <r>   -1.4821    1.0000 </r>
       <r>    1.4665    1.0000 </r>
       <r>    2.4252    1.0000 </r>
       <r>    6.2486    0.0000 </r>
       <r>    8.3489    0.0000 </r>
       <r>    8.7552    0.0000 </r>
       <r>    9.7850    0.0000 </r>
      </set>
      <set comment="kpoint 30">
       <r>   -4.8694    1.0000 </r>
       <r>   -0.8418    1.0000 </r>
       <r>    2.0344    1.0000 </r>
       <r>    2.1804    1.0000 </r>
       <r>    5.3212    0.0000 </r>
       <r>    6.4184    0.0000 </r>
       <r>   10.6607    0.0000 </r>
       <r>   10.8130    0.0000 </r>
      </set>
      <set comment="kpoint 31">
       <r>   -5.3322    1.0000 </r>
       <r>   -0.1664    1.0000 </r>
       <r>    2.0732    1.0000 </r>
       <r>    2.6239    1.0000 </r>
       <r>    6.0586    0.0000 </r>
       <r>    7.4081    0.0000 </r>
       <r>    8.8656    0.0000 </r>
       <r>    9.7439    0.0000 </r>
      </set>
      <set comment="kpoint 32">
       <r>   -5.8898    1.0000 </r>
       <r>    1.0556    1.0000 </r>
       <r>    2.8463    1.0000 </r>
       <r>    2.8904    1.0000 </r>
       <r>    5.8512    0.0000 </r>
       <r>    7.5243    0.0000 </r>
       <r>    8.8482    0.0000 </r>
       <r>    8.9424    0.0000 </r>
      </set>
      <set comment="kpoint 33">
       <r>   -6.2412    1.0000 </r>
       <r>    1.5900    1.0000 </r>
       <r>    3.8040    1.0000 </r>
       <r>    3.8040    1.0000 </r>
       <r>    5.9092    0.0000 </r>
       <r>    7.3923    0.0000 </r>
       <r>    7.3923    0.0000 </r>
       <r>    8.8421    0.0000 </r>
      </set>
      <set comment="kpoint 34">
       <r>   -5.9006    1.0000 </r>
       <r>    0.7628    1.0000 </r>
       <r>    2.5105    1.0000 </r>
       <r>    3.8003    1.0000 </r>
       <r>    6.5612    0.0000 </r>
       <r>    7.5145    0.0000 </r>
       <r>    7.7344    0.0000 </r>
       <r>    9.3084    0.0000 </r>
      </set>
      <set comment="kpoint 35">
       <r>   -5.2569    1.0000 </r>
       <r>   -0.4901    1.0000 </r>
       <r>    1.5788    1.0000 </r>
       <r>    3.3671    1.0000 </r>
       <r>    6.6262    0.0000 </r>
       <r>    8.1989    0.0000 </r>
       <r>    8.3342    0.0000 </r>
       <r>    9.6245    0.0000 </r>
      </set>
      <set comment="kpoint 36">
       <r>   -4.5086    1.0000 </r>
       <r>   -1.7391    1.0000 </r>
       <r>    1.3930    1.0000 </r>
       <r>    2.9136    1.0000 </r>
       <r>    6.3084    0.0000 </r>
       <r>    8.2546    0.0000 </r>
       <r>    8.6391    0.0000 </r>
       <r>   11.3349    0.0000 </r>
      </set>
      <set comment="kpoint 37">
       <r>   -4.4933    1.0000 </r>
       <r>   -1.7652    1.0000 </r>
       <r>    1.6347    1.0000 </r>
       <r>    2.6455    1.0000 </r>
       <r>    6.1396    0.0000 </r>
       <r>    8.2283    0.0000 </r>
       <r>    8.9581    0.0000 </r>
       <r>    9.8056    0.0000 </r>
      </set>
      <set comment="kpoint 38">
       <r>   -5.2390    1.0000 </r>
       <r>   -0.4939    1.0000 </r>
       <r>    2.1787    1.0000 </r>
       <r>    2.6344    1.0000 </r>
       <r>    6.1182    0.0000 </r>
       <r>    7.8653    0.0000 </r>
       <r>    8.7360    0.0000 </r>
       <r>    9.2153    0.0000 </r>
      </set>
      <set comment="kpoint 39">
       <r>   -5.6781    1.0000 </r>
       <r>    0.1890    1.0000 </r>
       <r>    2.8701    1.0000 </r>
       <r>    2.9982    1.0000 </r>
       <r>    6.3377    0.0000 </r>
       <r>    7.3845    0.0000 </r>
       <r>    8.5307    0.0000 </r>
       <r>    9.0389    0.0000 </r>
      </set>
      <set comment="kpoint 40">
       <r>   -5.1370    1.0000 </r>
       <r>   -0.5848    1.0000 </r>
       <r>    1.6287    1.0000 </r>
       <r>    2.8209    1.0000 </r>
       <r>    6.8799    0.0000 </r>
       <r>    7.5676    0.0000 </r>
       <r>    8.4811    0.0000 </r>
       <r>    9.6058    0.0000 </r>
      </set>
      <set comment="kpoint 41">
       <r>   -4.3784    1.0000 </r>
       <r>   -1.5832    1.0000 </r>
       <r>    0.9654    1.0000 </r>
       <r>    2.3535    1.0000 </r>
       <r>    7.2386    0.0000 </r>
       <r>    7.7855    0.0000 </r>
       <r>    8.9005    0.0000 </r>
       <r>   10.5791    0.0000 </r>
      </set>
      <set comment="kpoint 42">
       <r>   -3.9757    1.0000 </r>
       <r>   -2.0917    1.0000 </r>
       <r>    0.9454    1.0000 </r>
       <r>    2.0954    1.0000 </r>
       <r>    6.8944    0.0000 </r>
       <r>    8.0469    0.0000 </r>
       <r>    9.5905    0.0000 </r>
       <r>   10.5852    0.0000 </r>
      </set>
      <set comment="kpoint 43">
       <r>   -4.6139    1.0000 </r>
       <r>   -1.2565    1.0000 </r>
       <r>    1.3249    1.0000 </r>
       <r>    2.2423    1.0000 </r>
       <r>    6.6730    0.0000 </r>
       <r>    7.7518    0.0000 </r>
       <r>    8.4761    0.0000 </r>
       <r>   10.6639    0.0000 </r>
      </set>
      <set comment="kpoint 44">
       <r>   -4.7066    1.0000 </r>
       <r>   -1.1842    1.0000 </r>
       <r>    1.5922    1.0000 </r>
       <r>    2.3454    1.0000 </r>
       <r>    5.8314    0.0000 </r>
       <r>    7.6343    0.0000 </r>
       <r>    9.4352    0.0000 </r>
       <r>    9.9633    0.0000 </r>
      </set>
      <set comment="kpoint 45">
       <r>   -4.0156    1.0000 </r>
       <r>   -1.9406    1.0000 </r>
       <r>    1.1324    1.0000 </r>
       <r>    1.7948    1.0000 </r>
       <r>    6.5165    0.0000 </r>
       <r>    7.4418    0.0000 </r>
       <r>    9.2404    0.0000 </r>
       <r>   11.6130    0.0000 </r>
      </set>
      <set comment="kpoint 46">
       <r>   -3.3323    1.0000 </r>
       <r>   -2.6168    1.0000 </r>
       <r>    0.8845    1.0000 </r>
       <r>    1.3811    1.0000 </r>
       <r>    7.5272    0.0000 </r>
       <r>    8.4376    0.0000 </r>
       <r>    8.7921    0.0000 </r>
       <r>    9.7601    0.0000 </r>
      </set>
      <set comment="kpoint 47">
       <r>   -3.8522    1.0000 </r>
       <r>   -2.1110    1.0000 </r>
       <r>    0.8594    1.0000 </r>
       <r>    1.7797    1.0000 </r>
       <r>    7.5957    0.0000 </r>
       <r>    7.9618    0.0000 </r>
       <r>    8.5982    0.0000 </r>
       <r>   10.7890    0.0000 </r>
      </set>
      <set comment="kpoint 48">
       <r>   -3.4626    1.0000 </r>
       <r>   -2.5780    1.0000 </r>
       <r>    0.9676    1.0000 </r>
       <r>    2.0451    1.0000 </r>
       <r>    5.4880    0.0000 </r>
       <r>    7.1562    0.0000 </r>
       <r>   11.4879    0.0000 </r>
       <r>   11.4951    0.0000 </r>
      </set>
      <set comment="kpoint 49">
       <r>   -3.3742    1.0000 </r>
       <r>   -2.6219    1.0000 </r>
       <r>    1.0470    1.0000 </r>
       <r>    1.5473    1.0000 </r>
       <r>    6.4377    0.0000 </r>
       <r>    7.2574    0.0000 </r>
       <r>   10.1472    0.0000 </r>
       <r>   11.1234    0.0000 </r>
      </set>
      <set comment="kpoint 50">
       <r>   -4.0976    1.0000 </r>
       <r>   -1.8924    1.0000 </r>
       <r>    1.1784    1.0000 </r>
       <r>    2.1463    1.0000 </r>
       <r>    5.6077    0.0000 </r>
       <r>    7.3221    0.0000 </r>
       <r>   10.4425    0.0000 </r>
       <r>   10.7615    0.0000 </r>
      </set>
      <set comment="kpoint 51">
       <r>   -5.5893    1.0000 </r>
       <r>   -0.3622    1.0000 </r>
       <r>    3.4331    1.0000 </r>
       <r>    3.4331    1.0000 </r>
       <r>    5.4913    0.0000 </r>
       <r>    7.6920    0.0000 </r>
       <r>    7.6920    0.0000 </r>
       <r>   10.9087    0.0000 </r>
      </set>
      <set comment="kpoint 52">
       <r>   -5.1782    1.0000 </r>
       <r>   -0.9109    1.0000 </r>
       <r>    2.1375    1.0000 </r>
       <r>    3.3512    1.0000 </r>
       <r>    6.2660    0.0000 </r>
       <r>    7.8913    0.0000 </r>
       <r>    7.9407    0.0000 </r>
       <r>   10.5829    0.0000 </r>
      </set>
      <set comment="kpoint 53">
       <r>   -4.5008    1.0000 </r>
       <r>   -1.4975    1.0000 </r>
       <r>    0.8944    1.0000 </r>
       <r>    2.8607    1.0000 </r>
       <r>    6.3168    0.0000 </r>
       <r>    9.1149    0.0000 </r>
       <r>    9.1629    0.0000 </r>
       <r>   10.2877    0.0000 </r>
      </set>
      <set comment="kpoint 54">
       <r>   -3.8068    1.0000 </r>
       <r>   -2.2182    1.0000 </r>
       <r>    0.6342    1.0000 </r>
       <r>    2.3930    1.0000 </r>
       <r>    5.8636    0.0000 </r>
       <r>    9.3908    0.0000 </r>
       <r>   10.2380    0.0000 </r>
       <r>   10.2487    0.0000 </r>
      </set>
      <set comment="kpoint 55">
       <r>   -4.9147    1.0000 </r>
       <r>   -1.3869    1.0000 </r>
       <r>    2.3914    1.0000 </r>
       <r>    2.8782    1.0000 </r>
       <r>    6.1498    0.0000 </r>
       <r>    7.5763    0.0000 </r>
       <r>    8.3986    0.0000 </r>
       <r>   10.2152    0.0000 </r>
      </set>
      <set comment="kpoint 56">
       <r>   -4.3873    1.0000 </r>
       <r>   -1.7759    1.0000 </r>
       <r>    1.3062    1.0000 </r>
       <r>    2.4908    1.0000 </r>
       <r>    6.9197    0.0000 </r>
       <r>    7.5088    0.0000 </r>
       <r>    9.5247    0.0000 </r>
       <r>   10.0512    0.0000 </r>
      </set>
      <set comment="kpoint 57">
       <r>   -3.6837    1.0000 </r>
       <r>   -2.2992    1.0000 </r>
       <r>    0.7141    1.0000 </r>
       <r>    1.8936    1.0000 </r>
       <r>    6.8092    0.0000 </r>
       <r>    8.8492    0.0000 </r>
       <r>    9.4814    0.0000 </r>
       <r>    9.8840    0.0000 </r>
      </set>
      <set comment="kpoint 58">
       <r>   -4.0857    1.0000 </r>
       <r>   -2.0485    1.0000 </r>
       <r>    1.0041    1.0000 </r>
       <r>    2.4792    1.0000 </r>
       <r>    5.9733    0.0000 </r>
       <r>    9.1738    0.0000 </r>
       <r>    9.5443    0.0000 </r>
       <r>    9.6166    0.0000 </r>
      </set>
      <set comment="kpoint 59">
       <r>   -4.8491    1.0000 </r>
       <r>   -1.7756    1.0000 </r>
       <r>    3.2309    1.0000 </r>
       <r>    3.2309    1.0000 </r>
       <r>    5.2509    0.0000 </r>
       <r>    7.6454    0.0000 </r>
       <r>    7.6454    0.0000 </r>
       <r>   11.7298    0.0000 </r>
      </set>
      <set comment="kpoint 60">
       <r>   -4.5554    1.0000 </r>
       <r>   -1.9540    1.0000 </r>
       <r>    2.1249    1.0000 </r>
       <r>    3.0083    1.0000 </r>
       <r>    6.1004    0.0000 </r>
       <r>    7.6704    0.0000 </r>
       <r>    8.1462    0.0000 </r>
       <r>   11.8053    0.0000 </r>
      </set>
     </set>
    </set>
   </array>
  </eigenvalues>
  <separator name="orbital magnetization" >
   <v name="MAGDIPOLOUT">      0.00000000      0.00000000      0.00000000</v>
  </separator>
  <dos>
   <i name="efermi">      4.69075383 </i>
   <total>
    <array>
     <dimension dim="1">gridpoints</dimension>
     <dimension dim="2">spin</dimension>
     <field>energy</field>
     <field>total</field>
     <field>integrated</field>
     <set>
      <set comment="spin 1">
       <r>    -8.5892     0.0000     0.0000 </r>
       <r>    -8.5118     0.0000     0.0000 </r>
       <r>    -8.4345     0.0000     0.0000 </r>
       <r>    -8.3572     0.0000     0.0000 </r>
       <r>    -8.2799     0.0000     0.0000 </r>
       <r>    -8.2025     0.0000     0.0000 </r>
       <r>    -8.1252     0.0000     0.0000 </r>
       <r>    -8.0479     0.0000     0.0000 </r>
       <r>    -7.9705     0.0000     0.0000 </r>
       <r>    -7.8932     0.0000     0.0000 </r>
       <r>    -7.8159     0.0000     0.0000 </r>
       <r>    -7.7385     0.0000     0.0000 </r>
       <r>    -7.6612     0.0000     0.0000 </r>
       <r>    -7.5839     0.0000     0.0000 </r>
       <r>    -7.5066     0.0000     0.0000 </r>
       <r>    -7.4292     0.0000     0.0000 </r>
       <r>    -7.3519     0.0000     0.0000 </r>
       <r>    -7.2746     0.0000     0.0000 </r>
       <r>    -7.1972     0.0000     0.0000 </r>
       <r>    -7.1199     0.0000     0.0000 </r>
       <r>    -7.0426     0.0001     0.0000 </r>
       <r>    -6.9653     0.0004     0.0000 </r>
       <r>    -6.8879     0.0018     0.0002 </r>
       <r>    -6.8106     0.0064     0.0007 </r>
       <r>    -6.7333     0.0179     0.0021 </r>
       <r>    -6.6559     0.0406     0.0052 </r>
       <r>    -6.5786     0.0755     0.0110 </r>
       <r>    -6.5013     0.1188     0.0202 </r>
       <r>    -6.4240     0.1635     0.0329 </r>
       <r>    -6.3466     0.2054     0.0487 </r>
       <r>    -6.2693     0.2442     0.0676 </r>
       <r>    -6.1920     0.2786     0.0892 </r>
       <r>    -6.1146     0.3050     0.1128 </r>
       <r>    -6.0373     0.3257     0.1379 </r>
       <r>    -5.9600     0.3516     0.1651 </r>
       <r>    -5.8827     0.3874     0.1951 </r>
       <r>    -5.8053     0.4210     0.2276 </r>
       <r>    -5.7280     0.4386     0.2615 </r>
       <r>    -5.6507     0.4460     0.2960 </r>
       <r>    -5.5733     0.4611     0.3317 </r>
       <r>    -5.4960     0.4914     0.3697 </r>
       <r>    -5.4187     0.5309     0.4107 </r>
       <r>    -5.3414     0.5720     0.4550 </r>
       <r>    -5.2640     0.6076     0.5020 </r>
       <r>    -5.1867     0.6278     0.5505 </r>
       <r>    -5.1094     0.6303     0.5993 </r>
       <r>    -5.0320     0.6338     0.6483 </r>
       <r>    -4.9547     0.6724     0.7003 </r>
       <r>    -4.8774     0.7610     0.7591 </r>
       <r>    -4.8001     0.8680     0.8262 </r>
       <r>    -4.7227     0.9444     0.8993 </r>
       <r>    -4.6454     0.9752     0.9747 </r>
       <r>    -4.5681     0.9778     1.0503 </r>
       <r>    -4.4907     0.9587     1.1244 </r>
       <r>    -4.4134     0.9082     1.1946 </r>
       <r>    -4.3361     0.8408     1.2597 </r>
       <r>    -4.2588     0.8084     1.3222 </r>
       <r>    -4.1814     0.8461     1.3876 </r>
       <r>    -4.1041     0.9158     1.4584 </r>
       <r>    -4.0268     0.9319     1.5305 </r>
       <r>    -3.9494     0.8479     1.5961 </r>
       <r>    -3.8721     0.6976     1.6500 </r>
       <r>    -3.7948     0.5525     1.6927 </r>
       <r>    -3.7175     0.4637     1.7286 </r>
       <r>    -3.6401     0.4480     1.7632 </r>
       <r>    -3.5628     0.4966     1.8016 </r>
       <r>    -3.4855     0.5723     1.8459 </r>
       <r>    -3.4081     0.6102     1.8931 </r>
       <r>    -3.3308     0.5558     1.9360 </r>
       <r>    -3.2535     0.4135     1.9680 </r>
       <r>    -3.1762     0.2450     1.9870 </r>
       <r>    -3.0988     0.1145     1.9958 </r>
       <r>    -3.0215     0.0458     1.9994 </r>
       <r>    -2.9442     0.0335     2.0020 </r>
       <r>    -2.8668     0.0771     2.0079 </r>
       <r>    -2.7895     0.1897     2.0226 </r>
       <r>    -2.7122     0.3634     2.0507 </r>
       <r>    -2.6348     0.5343     2.0920 </r>
       <r>    -2.5575     0.6145     2.1395 </r>
       <r>    -2.4802     0.5779     2.1842 </r>
       <r>    -2.4029     0.4888     2.2220 </r>
       <r>    -2.3255     0.4376     2.2559 </r>
       <r>    -2.2482     0.4793     2.2929 </r>
       <r>    -2.1709     0.6295     2.3416 </r>
       <r>    -2.0935     0.8687     2.4088 </r>
       <r>    -2.0162     1.1290     2.4961 </r>
       <r>    -1.9389     1.3102     2.5974 </r>
       <r>    -1.8616     1.3419     2.7012 </r>
       <r>    -1.7842     1.2270     2.7960 </r>
       <r>    -1.7069     1.0272     2.8755 </r>
       <r>    -1.6296     0.8275     2.9395 </r>
       <r>    -1.5522     0.6972     2.9934 </r>
       <r>    -1.4749     0.6464     3.0434 </r>
       <r>    -1.3976     0.6267     3.0918 </r>
       <r>    -1.3203     0.5885     3.1373 </r>
       <r>    -1.2429     0.5309     3.1784 </r>
       <r>    -1.1656     0.4945     3.2166 </r>
       <r>    -1.0883     0.5120     3.2562 </r>
       <r>    -1.0109     0.5636     3.2998 </r>
       <r>    -0.9336     0.5832     3.3449 </r>
       <r>    -0.8563     0.5221     3.3853 </r>
       <r>    -0.7790     0.4057     3.4166 </r>
       <r>    -0.7016     0.3102     3.4406 </r>
       <r>    -0.6243     0.2866     3.4628 </r>
       <r>    -0.5470     0.3196     3.4875 </r>
       <r>    -0.4696     0.3562     3.5151 </r>
       <r>    -0.3923     0.3584     3.5428 </r>
       <r>    -0.3150     0.3259     3.5680 </r>
       <r>    -0.2377     0.2815     3.5897 </r>
       <r>    -0.1603     0.2476     3.6089 </r>
       <r>    -0.0830     0.2366     3.6272 </r>
       <r>    -0.0057     0.2545     3.6469 </r>
       <r>     0.0717     0.2914     3.6694 </r>
       <r>     0.1490     0.3139     3.6937 </r>
       <r>     0.2263     0.2900     3.7161 </r>
       <r>     0.3036     0.2252     3.7335 </r>
       <r>     0.3810     0.1654     3.7463 </r>
       <r>     0.4583     0.1695     3.7594 </r>
       <r>     0.5356     0.2786     3.7809 </r>
       <r>     0.6130     0.4893     3.8188 </r>
       <r>     0.6903     0.7480     3.8766 </r>
       <r>     0.7676     0.9875     3.9530 </r>
       <r>     0.8449     1.1736     4.0437 </r>
       <r>     0.9223     1.2981     4.1441 </r>
       <r>     0.9996     1.3462     4.2482 </r>
       <r>     1.0769     1.3107     4.3496 </r>
       <r>     1.1543     1.2302     4.4447 </r>
       <r>     1.2316     1.1753     4.5356 </r>
       <r>     1.3089     1.1870     4.6274 </r>
       <r>     1.3862     1.2421     4.7234 </r>
       <r>     1.4636     1.2930     4.8234 </r>
       <r>     1.5409     1.3310     4.9263 </r>
       <r>     1.6182     1.3865     5.0335 </r>
       <r>     1.6956     1.4674     5.1470 </r>
       <r>     1.7729     1.5359     5.2658 </r>
       <r>     1.8502     1.5673     5.3870 </r>
       <r>     1.9275     1.5985     5.5106 </r>
       <r>     2.0049     1.6703     5.6398 </r>
       <r>     2.0822     1.7471     5.7749 </r>
       <r>     2.1595     1.7529     5.9104 </r>
       <r>     2.2369     1.6833     6.0406 </r>
       <r>     2.3142     1.6220     6.1660 </r>
       <r>     2.3915     1.6292     6.2920 </r>
       <r>     2.4688     1.6544     6.4199 </r>
       <r>     2.5462     1.6012     6.5437 </r>
       <r>     2.6235     1.4614     6.6567 </r>
       <r>     2.7008     1.3436     6.7607 </r>
       <r>     2.7782     1.3547     6.8654 </r>
       <r>     2.8555     1.4752     6.9795 </r>
       <r>     2.9328     1.5758     7.1013 </r>
       <r>     3.0102     1.5461     7.2209 </r>
       <r>     3.0875     1.3850     7.3280 </r>
       <r>     3.1648     1.1825     7.4194 </r>
       <r>     3.2421     1.0372     7.4996 </r>
       <r>     3.3195     0.9745     7.5750 </r>
       <r>     3.3968     0.9306     7.6470 </r>
       <r>     3.4741     0.8318     7.7113 </r>
       <r>     3.5515     0.6833     7.7641 </r>
       <r>     3.6288     0.5547     7.8070 </r>
       <r>     3.7061     0.4882     7.8448 </r>
       <r>     3.7834     0.4570     7.8801 </r>
       <r>     3.8608     0.4118     7.9119 </r>
       <r>     3.9381     0.3385     7.9381 </r>
       <r>     4.0154     0.2587     7.9581 </r>
       <r>     4.0928     0.1935     7.9731 </r>
       <r>     4.1701     0.1432     7.9842 </r>
       <r>     4.2474     0.0993     7.9919 </r>
       <r>     4.3247     0.0597     7.9965 </r>
       <r>     4.4021     0.0295     7.9988 </r>
       <r>     4.4794     0.0116     7.9996 </r>
       <r>     4.5567     0.0035     7.9999 </r>
       <r>     4.6341     0.0008     8.0000 </r>
       <r>     4.7114     0.0002     8.0000 </r>
       <r>     4.7887     0.0005     8.0000 </r>
       <r>     4.8660     0.0026     8.0002 </r>
       <r>     4.9434     0.0108     8.0011 </r>
       <r>     5.0207     0.0342     8.0037 </r>
       <r>     5.0980     0.0823     8.0101 </r>
       <r>     5.1754     0.1531     8.0219 </r>
       <r>     5.2527     0.2284     8.0396 </r>
       <r>     5.3300     0.2959     8.0625 </r>
       <r>     5.4073     0.3749     8.0915 </r>
       <r>     5.4847     0.4960     8.1298 </r>
       <r>     5.5620     0.6506     8.1801 </r>
       <r>     5.6393     0.7883     8.2411 </r>
       <r>     5.7167     0.8785     8.3090 </r>
       <r>     5.7940     0.9464     8.3822 </r>
       <r>     5.8713     1.0321     8.4620 </r>
       <r>     5.9486     1.1417     8.5503 </r>
       <r>     6.0260     1.2566     8.6475 </r>
       <r>     6.1033     1.3709     8.7535 </r>
       <r>     6.1806     1.5047     8.8698 </r>
       <r>     6.2580     1.6743     8.9993 </r>
       <r>     6.3353     1.8430     9.1418 </r>
       <r>     6.4126     1.9250     9.2907 </r>
       <r>     6.4899     1.8556     9.4342 </r>
       <r>     6.5673     1.6555     9.5622 </r>
       <r>     6.6446     1.4262     9.6725 </r>
       <r>     6.7219     1.2798     9.7714 </r>
       <r>     6.7993     1.2509     9.8682 </r>
       <r>     6.8766     1.2625     9.9658 </r>
       <r>     6.9539     1.2045    10.0590 </r>
       <r>     7.0312     1.0629    10.1411 </r>
       <r>     7.1086     0.9482    10.2145 </r>
       <r>     7.1859     0.9838    10.2905 </r>
       <r>     7.2632     1.1975    10.3831 </r>
       <r>     7.3406     1.5296    10.5014 </r>
       <r>     7.4179     1.8962    10.6481 </r>
       <r>     7.4952     2.2058    10.8186 </r>
       <r>     7.5725     2.3568    11.0009 </r>
       <r>     7.6499     2.2894    11.1779 </r>
       <r>     7.7272     2.0479    11.3363 </r>
       <r>     7.8045     1.7568    11.4721 </r>
       <r>     7.8819     1.5266    11.5902 </r>
       <r>     7.9592     1.3899    11.6976 </r>
       <r>     8.0365     1.3262    11.8002 </r>
       <r>     8.1139     1.3192    11.9022 </r>
       <r>     8.1912     1.3609    12.0074 </r>
       <r>     8.2685     1.4220    12.1174 </r>
       <r>     8.3458     1.4584    12.2302 </r>
       <r>     8.4232     1.4477    12.3421 </r>
       <r>     8.5005     1.4075    12.4510 </r>
       <r>     8.5778     1.3905    12.5585 </r>
       <r>     8.6552     1.4540    12.6709 </r>
       <r>     8.7325     1.6001    12.7947 </r>
       <r>     8.8098     1.7373    12.9290 </r>
       <r>     8.8871     1.7410    13.0636 </r>
       <r>     8.9645     1.5808    13.1859 </r>
       <r>     9.0418     1.3615    13.2912 </r>
       <r>     9.1191     1.2110    13.3848 </r>
       <r>     9.1965     1.1590    13.4744 </r>
       <r>     9.2738     1.1513    13.5635 </r>
       <r>     9.3511     1.1553    13.6528 </r>
       <r>     9.4284     1.2033    13.7459 </r>
       <r>     9.5058     1.3225    13.8481 </r>
       <r>     9.5831     1.4619    13.9612 </r>
       <r>     9.6604     1.5285    14.0794 </r>
       <r>     9.7378     1.4782    14.1937 </r>
       <r>     9.8151     1.3372    14.2971 </r>
       <r>     9.8924     1.1622    14.3870 </r>
       <r>     9.9697     1.0080    14.4649 </r>
       <r>    10.0471     0.9077    14.5351 </r>
       <r>    10.1244     0.8586    14.6015 </r>
       <r>    10.2017     0.8274    14.6655 </r>
       <r>    10.2791     0.7832    14.7260 </r>
       <r>    10.3564     0.7426    14.7835 </r>
       <r>    10.4337     0.7744    14.8433 </r>
       <r>    10.5110     0.9265    14.9150 </r>
       <r>    10.5884     1.1455    15.0036 </r>
       <r>    10.6657     1.2977    15.1039 </r>
       <r>    10.7430     1.2785    15.2028 </r>
       <r>    10.8204     1.0934    15.2873 </r>
       <r>    10.8977     0.8430    15.3525 </r>
       <r>    10.9750     0.6408    15.4021 </r>
       <r>    11.0523     0.5316    15.4432 </r>
       <r>    11.1297     0.4844    15.4806 </r>
       <r>    11.2070     0.4563    15.5159 </r>
       <r>    11.2843     0.4412    15.5500 </r>
       <r>    11.3617     0.4584    15.5855 </r>
       <r>    11.4390     0.5160    15.6254 </r>
       <r>    11.5163     0.5944    15.6714 </r>
       <r>    11.5936     0.6566    15.7221 </r>
       <r>    11.6710     0.6699    15.7739 </r>
       <r>    11.7483     0.6148    15.8215 </r>
       <r>    11.8256     0.4907    15.8594 </r>
       <r>    11.9030     0.3289    15.8849 </r>
       <r>    11.9803     0.1856    15.8992 </r>
       <r>    12.0576     0.1049    15.9073 </r>
       <r>    12.1349     0.0916    15.9144 </r>
       <r>    12.2123     0.1157    15.9234 </r>
       <r>    12.2896     0.1375    15.9340 </r>
       <r>    12.3669     0.1372    15.9446 </r>
       <r>    12.4443     0.1278    15.9545 </r>
       <r>    12.5216     0.1298    15.9645 </r>
       <r>    12.5989     0.1389    15.9753 </r>
       <r>    12.6762     0.1315    15.9854 </r>
       <r>    12.7536     0.0985    15.9931 </r>
       <r>    12.8309     0.0561    15.9974 </r>
       <r>    12.9082     0.0239    15.9992 </r>
       <r>    12.9856     0.0077    15.9998 </r>
       <r>    13.0629     0.0018    16.0000 </r>
       <r>    13.1402     0.0003    16.0000 </r>
       <r>    13.2176     0.0000    16.0000 </r>
       <r>    13.2949     0.0000    16.0000 </r>
       <r>    13.3722     0.0000    16.0000 </r>
       <r>    13.4495     0.0000    16.0000 </r>
       <r>    13.5269     0.0000    16.0000 </r>
       <r>    13.6042     0.0000    16.0000 </r>
       <r>    13.6815     0.0000    16.0000 </r>
       <r>    13.7589     0.0000    16.0000 </r>
       <r>    13.8362     0.0000    16.0000 </r>
       <r>    13.9135     0.0000    16.0000 </r>
       <r>    13.9908     0.0000    16.0000 </r>
       <r>    14.0682     0.0000    16.0000 </r>
       <r>    14.1455     0.0000    16.0000 </r>
       <r>    14.2228     0.0000    16.0000 </r>
       <r>    14.3002     0.0000    16.0000 </r>
       <r>    14.3775     0.0000    16.0000 </r>
       <r>    14.4548     0.0000    16.0000 </r>
       <r>    14.5321     0.0000    16.0000 </r>
       <r>    14.6095     0.0000    16.0000 </r>
      </set>
     </set>
    </array>
   </total>
  </dos>
 </calculation>
 <structure name="finalpos" >
  <crystal>
   <varray name="basis" >
    <v>       0.00000000       2.87101400       2.87101400 </v>
    <v>       2.87101400       0.00000000       2.87101400 </v>
    <v>       2.87101400       2.87101400       0.00000000 </v>
   </varray>
   <i name="volume">     47.32993701 </i>
   <varray name="rec_basis" >
    <v>      -0.17415450       0.17415450       0.17415450 </v>
    <v>       0.17415450      -0.17415450       0.17415450 </v>
    <v>       0.17415450       0.17415450      -0.17415450 </v>
   </varray>
  </crystal>
  <varray name="positions" >
   <v>       0.00000000       0.00000000       0.00000000 </v>
   <v>       0.25000000       0.25000000       0.25000000 </v>
  </varray>
 </structure>
</modeling>
