   2   2   0   0
  0.2001288E+02  0.3839590E-09  0.3839590E-09  0.3839590E-09  0.5000000E-15
  1.000000000000000E-004
  CAR 
 unknown system                          
     15.23078582     -8.17012605  301      5.90089520      1.00000000
     -8.170  0.0000E+00  0.0000E+00
     -8.092  0.0000E+00  0.0000E+00
     -8.014  0.0000E+00  0.0000E+00
     -7.936  0.0000E+00  0.0000E+00
     -7.858  0.0000E+00  0.0000E+00
     -7.780  0.0000E+00  0.0000E+00
     -7.702  0.0000E+00  0.0000E+00
     -7.624  0.0000E+00  0.0000E+00
     -7.546  0.0000E+00  0.0000E+00
     -7.468  0.0000E+00  0.0000E+00
     -7.390  0.0000E+00  0.0000E+00
     -7.312  0.2109E-16  0.1645E-17
     -7.234  0.1669E-14  0.1319E-15
     -7.156  0.9736E-13  0.7727E-14
     -7.078  0.4208E-11  0.3360E-12
     -7.000  0.1348E-09  0.1085E-10
     -6.922  0.3198E-08  0.2603E-09
     -6.844  0.5628E-07  0.4651E-08
     -6.766  0.7347E-06  0.6196E-07
     -6.688  0.7115E-05  0.6169E-06
     -6.610  0.5114E-04  0.4606E-05
     -6.532  0.2730E-03  0.2590E-04
     -6.454  0.1082E-02  0.1103E-03
     -6.376  0.3187E-02  0.3589E-03
     -6.298  0.6975E-02  0.9029E-03
     -6.220  0.1134E-01  0.1788E-02
     -6.142  0.1372E-01  0.2858E-02
     -6.064  0.1233E-01  0.3819E-02
     -5.986  0.8235E-02  0.4462E-02
     -5.908  0.4089E-02  0.4781E-02
     -5.830  0.1509E-02  0.4898E-02
     -5.752  0.4137E-03  0.4931E-02
     -5.674  0.8424E-04  0.4937E-02
     -5.596  0.1276E-04  0.4938E-02
     -5.518  0.1830E-05  0.4938E-02
     -5.440  0.5416E-05  0.4939E-02
     -5.362  0.5196E-04  0.4943E-02
     -5.284  0.3783E-03  0.4972E-02
     -5.206  0.2045E-02  0.5132E-02
     -5.128  0.8210E-02  0.5772E-02
     -5.050  0.2449E-01  0.7683E-02
     -4.972  0.5428E-01  0.1192E-01
     -4.894  0.8944E-01  0.1889E-01
     -4.816  0.1096E+00  0.2744E-01
     -4.738  0.1003E+00  0.3526E-01
     -4.660  0.7028E-01  0.4075E-01
     -4.582  0.4400E-01  0.4418E-01
     -4.504  0.3924E-01  0.4724E-01
     -4.426  0.5553E-01  0.5157E-01
     -4.348  0.7640E-01  0.5753E-01
     -4.270  0.8197E-01  0.6392E-01
     -4.192  0.6584E-01  0.6906E-01
     -4.114  0.3934E-01  0.7213E-01
     -4.036  0.1748E-01  0.7349E-01
     -3.958  0.5768E-02  0.7394E-01
     -3.880  0.1414E-02  0.7405E-01
     -3.802  0.2576E-03  0.7407E-01
     -3.724  0.3511E-04  0.7407E-01
     -3.646  0.7415E-05  0.7407E-01
     -3.568  0.4211E-04  0.7408E-01
     -3.490  0.3318E-03  0.7410E-01
     -3.412  0.1953E-02  0.7426E-01
     -3.334  0.8535E-02  0.7492E-01
     -3.256  0.2771E-01  0.7708E-01
     -3.178  0.6686E-01  0.8230E-01
     -3.100  0.1199E+00  0.9165E-01
     -3.022  0.1598E+00  0.1041E+00
     -2.944  0.1583E+00  0.1165E+00
     -2.866  0.1166E+00  0.1256E+00
     -2.788  0.6381E-01  0.1305E+00
     -2.710  0.2596E-01  0.1326E+00
     -2.632  0.7846E-02  0.1332E+00
     -2.554  0.1762E-02  0.1333E+00
     -2.476  0.2938E-03  0.1333E+00
     -2.398  0.3637E-04  0.1333E+00
     -2.320  0.3342E-05  0.1333E+00
     -2.242  0.2278E-06  0.1333E+00
     -2.164  0.1151E-07  0.1333E+00
     -2.086  0.4393E-09  0.1333E+00
     -2.008  0.3074E-09  0.1333E+00
     -1.930  0.8146E-08  0.1333E+00
     -1.852  0.1665E-06  0.1333E+00
     -1.774  0.2525E-05  0.1333E+00
     -1.696  0.2840E-04  0.1333E+00
     -1.618  0.2370E-03  0.1334E+00
     -1.540  0.1468E-02  0.1335E+00
     -1.462  0.6757E-02  0.1340E+00
     -1.384  0.2310E-01  0.1358E+00
     -1.306  0.5866E-01  0.1404E+00
     -1.228  0.1107E+00  0.1490E+00
     -1.150  0.1553E+00  0.1611E+00
     -1.072  0.1620E+00  0.1738E+00
     -0.994  0.1255E+00  0.1835E+00
     -0.916  0.7233E-01  0.1892E+00
     -0.838  0.3097E-01  0.1916E+00
     -0.760  0.9855E-02  0.1924E+00
     -0.682  0.2330E-02  0.1926E+00
     -0.604  0.4090E-03  0.1926E+00
     -0.526  0.5331E-04  0.1926E+00
     -0.448  0.5181E-05  0.1926E+00
     -0.370  0.8016E-06  0.1926E+00
     -0.292  0.5679E-05  0.1926E+00
     -0.214  0.5507E-04  0.1926E+00
     -0.136  0.3978E-03  0.1926E+00
     -0.058  0.2135E-02  0.1928E+00
      0.020  0.8516E-02  0.1935E+00
      0.098  0.2531E-01  0.1954E+00
      0.176  0.5633E-01  0.1998E+00
      0.254  0.9492E-01  0.2072E+00
      0.332  0.1245E+00  0.2169E+00
      0.410  0.1340E+00  0.2274E+00
      0.488  0.1281E+00  0.2374E+00
      0.566  0.1137E+00  0.2463E+00
      0.644  0.9059E-01  0.2533E+00
      0.722  0.5997E-01  0.2580E+00
      0.800  0.3128E-01  0.2604E+00
      0.878  0.1356E-01  0.2615E+00
      0.956  0.9866E-02  0.2623E+00
      1.034  0.2254E-01  0.2640E+00
      1.112  0.5628E-01  0.2684E+00
      1.190  0.1077E+00  0.2768E+00
      1.268  0.1536E+00  0.2888E+00
      1.346  0.1628E+00  0.3015E+00
      1.424  0.1283E+00  0.3115E+00
      1.502  0.7514E-01  0.3174E+00
      1.580  0.3271E-01  0.3199E+00
      1.658  0.1058E-01  0.3207E+00
      1.736  0.2542E-02  0.3209E+00
      1.814  0.4537E-03  0.3210E+00
      1.892  0.6011E-04  0.3210E+00
      1.970  0.5911E-05  0.3210E+00
      2.048  0.4313E-06  0.3210E+00
      2.126  0.2334E-07  0.3210E+00
      2.204  0.9373E-09  0.3210E+00
      2.282  0.7165E-10  0.3210E+00
      2.360  0.1420E-08  0.3210E+00
      2.438  0.3409E-07  0.3210E+00
      2.516  0.6070E-06  0.3210E+00
      2.594  0.8016E-05  0.3210E+00
      2.672  0.7855E-04  0.3210E+00
      2.750  0.5713E-03  0.3210E+00
      2.828  0.3086E-02  0.3213E+00
      2.906  0.1239E-01  0.3222E+00
      2.984  0.3699E-01  0.3251E+00
      3.062  0.8248E-01  0.3316E+00
      3.140  0.1387E+00  0.3424E+00
      3.218  0.1806E+00  0.3565E+00
      3.296  0.1947E+00  0.3717E+00
      3.374  0.1948E+00  0.3868E+00
      3.452  0.1950E+00  0.4021E+00
      3.530  0.1839E+00  0.4164E+00
      3.608  0.1455E+00  0.4278E+00
      3.686  0.8969E-01  0.4348E+00
      3.764  0.4177E-01  0.4380E+00
      3.842  0.1454E-01  0.4391E+00
      3.920  0.3768E-02  0.4394E+00
      3.998  0.7553E-03  0.4395E+00
      4.076  0.3656E-03  0.4395E+00
      4.154  0.1680E-02  0.4397E+00
      4.232  0.7901E-02  0.4403E+00
      4.310  0.2777E-01  0.4424E+00
      4.388  0.7254E-01  0.4481E+00
      4.466  0.1408E+00  0.4591E+00
      4.544  0.2031E+00  0.4749E+00
      4.622  0.2178E+00  0.4919E+00
      4.700  0.1736E+00  0.5055E+00
      4.778  0.1029E+00  0.5135E+00
      4.856  0.4531E-01  0.5170E+00
      4.934  0.1483E-01  0.5182E+00
      5.012  0.3620E-02  0.5185E+00
      5.090  0.7654E-03  0.5185E+00
      5.168  0.7283E-03  0.5186E+00
      5.246  0.2672E-02  0.5188E+00
      5.324  0.8222E-02  0.5194E+00
      5.402  0.1886E-01  0.5209E+00
      5.480  0.3214E-01  0.5234E+00
      5.558  0.4073E-01  0.5266E+00
      5.636  0.3836E-01  0.5296E+00
      5.714  0.2686E-01  0.5317E+00
      5.792  0.1405E-01  0.5328E+00
      5.870  0.5870E-02  0.5332E+00
      5.948  0.3869E-02  0.5335E+00
      6.026  0.8899E-02  0.5342E+00
      6.104  0.2360E-01  0.5361E+00
      6.182  0.4811E-01  0.5398E+00
      6.260  0.7304E-01  0.5455E+00
      6.338  0.8243E-01  0.5519E+00
      6.416  0.6915E-01  0.5573E+00
      6.494  0.4313E-01  0.5607E+00
      6.572  0.2004E-01  0.5623E+00
      6.650  0.7339E-02  0.5628E+00
      6.728  0.4481E-02  0.5632E+00
      6.806  0.1244E-01  0.5642E+00
      6.884  0.4027E-01  0.5673E+00
      6.962  0.9985E-01  0.5751E+00
      7.040  0.1853E+00  0.5895E+00
      7.118  0.2573E+00  0.6096E+00
      7.196  0.2687E+00  0.6306E+00
      7.274  0.2146E+00  0.6473E+00
      7.352  0.1417E+00  0.6584E+00
      7.430  0.9739E-01  0.6660E+00
      7.508  0.8776E-01  0.6728E+00
      7.586  0.8676E-01  0.6796E+00
      7.664  0.7286E-01  0.6853E+00
      7.742  0.4847E-01  0.6890E+00
      7.820  0.2921E-01  0.6913E+00
      7.899  0.2485E-01  0.6933E+00
      7.977  0.3233E-01  0.6958E+00
      8.055  0.4055E-01  0.6989E+00
      8.133  0.3993E-01  0.7021E+00
      8.211  0.3041E-01  0.7044E+00
      8.289  0.1984E-01  0.7060E+00
      8.367  0.1464E-01  0.7071E+00
      8.445  0.1431E-01  0.7082E+00
      8.523  0.1446E-01  0.7094E+00
      8.601  0.1336E-01  0.7104E+00
      8.679  0.1605E-01  0.7116E+00
      8.757  0.3422E-01  0.7143E+00
      8.835  0.7976E-01  0.7205E+00
      8.913  0.1484E+00  0.7321E+00
      8.991  0.2074E+00  0.7483E+00
      9.069  0.2158E+00  0.7651E+00
      9.147  0.1668E+00  0.7781E+00
      9.225  0.9591E-01  0.7856E+00
      9.303  0.4097E-01  0.7888E+00
      9.381  0.1301E-01  0.7898E+00
      9.459  0.3067E-02  0.7901E+00
      9.537  0.5372E-03  0.7901E+00
      9.615  0.6985E-04  0.7901E+00
      9.693  0.6741E-05  0.7901E+00
      9.771  0.4827E-06  0.7901E+00
      9.849  0.2563E-07  0.7901E+00
      9.927  0.1009E-08  0.7901E+00
     10.005  0.2944E-10  0.7901E+00
     10.083  0.6364E-12  0.7901E+00
     10.161  0.1074E-13  0.7901E+00
     10.239  0.3912E-13  0.7901E+00
     10.317  0.2169E-11  0.7901E+00
     10.395  0.8939E-10  0.7901E+00
     10.473  0.2729E-08  0.7901E+00
     10.551  0.6177E-07  0.7901E+00
     10.629  0.1037E-05  0.7901E+00
     10.707  0.1290E-04  0.7901E+00
     10.785  0.1192E-03  0.7901E+00
     10.863  0.8170E-03  0.7902E+00
     10.941  0.4159E-02  0.7905E+00
     11.019  0.1573E-01  0.7917E+00
     11.097  0.4418E-01  0.7952E+00
     11.175  0.9224E-01  0.8024E+00
     11.253  0.1431E+00  0.8136E+00
     11.331  0.1651E+00  0.8264E+00
     11.409  0.1420E+00  0.8375E+00
     11.487  0.9302E-01  0.8448E+00
     11.565  0.5428E-01  0.8490E+00
     11.643  0.5005E-01  0.8529E+00
     11.721  0.8271E-01  0.8594E+00
     11.799  0.1325E+00  0.8697E+00
     11.877  0.1639E+00  0.8825E+00
     11.955  0.1517E+00  0.8943E+00
     12.033  0.1061E+00  0.9026E+00
     12.111  0.6258E-01  0.9075E+00
     12.189  0.5078E-01  0.9114E+00
     12.267  0.7996E-01  0.9177E+00
     12.345  0.1391E+00  0.9285E+00
     12.423  0.2022E+00  0.9443E+00
     12.501  0.2435E+00  0.9633E+00
     12.579  0.2516E+00  0.9829E+00
     12.657  0.2251E+00  0.1000E+01
     12.735  0.1694E+00  0.1014E+01
     12.813  0.1030E+00  0.1022E+01
     12.891  0.5125E-01  0.1026E+01
     12.969  0.2911E-01  0.1028E+01
     13.047  0.3726E-01  0.1031E+01
     13.125  0.6679E-01  0.1036E+01
     13.203  0.9875E-01  0.1044E+01
     13.281  0.1097E+00  0.1052E+01
     13.359  0.9076E-01  0.1059E+01
     13.437  0.5580E-01  0.1064E+01
     13.515  0.2550E-01  0.1066E+01
     13.593  0.8657E-02  0.1066E+01
     13.671  0.2184E-02  0.1067E+01
     13.749  0.4092E-03  0.1067E+01
     13.827  0.5692E-04  0.1067E+01
     13.905  0.5877E-05  0.1067E+01
     13.983  0.4503E-06  0.1067E+01
     14.061  0.2559E-07  0.1067E+01
     14.139  0.1078E-08  0.1067E+01
     14.217  0.3367E-10  0.1067E+01
     14.295  0.7789E-12  0.1067E+01
     14.373  0.1333E-13  0.1067E+01
     14.451  0.1687E-15  0.1067E+01
     14.529  0.0000E+00  0.1067E+01
     14.607  0.0000E+00  0.1067E+01
     14.685  0.0000E+00  0.1067E+01
     14.763  0.0000E+00  0.1067E+01
     14.841  0.0000E+00  0.1067E+01
     14.919  0.0000E+00  0.1067E+01
     14.997  0.0000E+00  0.1067E+01
     15.075  0.0000E+00  0.1067E+01
     15.153  0.0000E+00  0.1067E+01
     15.231  0.0000E+00  0.1067E+01
