    2    2   15    1
  0.2001288E+02  0.3839590E-09  0.3839590E-09  0.3839590E-09  0.5000000E-15
  1.000000000000000E-004
  CAR 
 unknown system                          
      8      4      8
 
  0.0000000E+00  0.0000000E+00  0.0000000E+00  0.3703704E-01
    1       -6.170126   1.000000
    2        5.542636   0.994350
    3        5.542670   0.994346
    4        5.542670   0.994346
    5        8.050467   0.000000
    6        8.050498   0.000000
    7        8.050498   0.000000
    8        8.471789   0.000000
 
  0.3333333E+00  0.6723763E-17  0.1473614E-18  0.2962963E+00
    1       -4.840730   1.000000
    2        0.305345   1.000000
    3        4.562734   1.000000
    4        4.562769   1.000000
    5        7.154662   0.000000
    6        9.000906   0.000000
    7        9.000984   0.000000
    8       13.230786   0.000000
 
  0.3333333E+00  0.3333333E+00  0.1682863E-16  0.2222222E+00
    1       -4.327323   1.000000
    2        0.558709   1.000000
    3        3.193286   1.000000
    4        3.193308   1.000000
    5        6.292247   0.002826
    6        7.549120   0.000000
    7       12.623481   0.000000
    8       12.623505   0.000000
 
 -0.3333333E+00  0.3333333E+00  0.1344753E-16  0.4444444E+00
    1       -3.024383   1.000000
    2       -1.138831   1.000000
    3        1.283564   1.000000
    4        3.487566   1.000000
    5        7.111168   0.000000
    6       11.290154   0.000000
    7       11.855852   0.000000
    8       12.414232   0.000000
