unknown system                          
   1.00000000000000     
     0.000000    2.735373    2.735373
     2.735373   -0.000000    2.735373
     2.735373    2.735373    0.000000
   Si
     2
Direct
  0.500000  0.500000  0.500000
  0.750000  0.750000  0.750000
 
   28   28   28
 0.83113916408E+00 0.85792638233E+00 0.94041864791E+00 0.10853707665E+01 0.13045806256E+01
 0.16139497577E+01 0.20298585733E+01 0.25627023441E+01 0.32089849559E+01 0.39442946214E+01
 0.47194783682E+01 0.54620560398E+01 0.60847099992E+01 0.65014141055E+01 0.66482180781E+01
 0.65014010716E+01 0.60847196419E+01 0.54621030947E+01 0.47195272691E+01 0.39442998905E+01
 0.32089442248E+01 0.25626542829E+01 0.20298377319E+01 0.16139578043E+01 0.13045975100E+01
 0.10853797754E+01 0.94041752020E+00 0.85792237346E+00 0.85792638233E+00 0.90309621367E+00
 0.99665939238E+00 0.11454630650E+01 0.13599593703E+01 0.16526056589E+01 0.20339745329E+01
 0.25069324906E+01 0.30603961345E+01 0.36647843365E+01 0.42711784445E+01 0.48156774942E+01
 0.52295115038E+01 0.54536109296E+01 0.54536116380E+01 0.52295225404E+01 0.48157036204E+01
 0.42711957712E+01 0.36647644558E+01 0.30603479400E+01 0.25068967151E+01 0.20339767922E+01
 0.16526328057E+01 0.13599837057E+01 0.11454733077E+01 0.99666186333E+00 0.90309795739E+00
 0.85792745972E+00 0.94041864791E+00 0.99665939238E+00 0.10947185078E+01 0.12412164612E+01
 0.14448632286E+01 0.17144307249E+01 0.20550705277E+01 0.24635394612E+01 0.29237596691E+01
 0.34045497701E+01 0.38610857970E+01 0.42408276398E+01 0.44933793736E+01 0.45820526128E+01
 0.44933828020E+01 0.42408310478E+01 0.38610774859E+01 0.34045217886E+01 0.29237268090E+01
 0.24635299531E+01 0.20550927052E+01 0.17144623404E+01 0.14448790575E+01 0.12412144214E+01
 0.10947127966E+01 0.99665904061E+00 0.94042113925E+00 0.92209389236E+00 0.10853707665E+01
 0.11454630650E+01 0.12412164612E+01 0.13787819849E+01 0.15648789690E+01 0.18047179017E+01
 0.20989136463E+01 0.24399507661E+01 0.28094371512E+01 0.31776237559E+01 0.35062443210E+01
 0.37547700909E+01 0.38889050811E+01 0.38889037998E+01 0.37547660138E+01 0.35062366392E+01
 0.31776143165E+01 0.28094347776E+01 0.24399641362E+01 0.20989364894E+01 0.18047307868E+01
 0.15648715131E+01 0.13787647250E+01 0.12412051164E+01 0.11454604040E+01 0.10853706869E+01
 0.10564752774E+01 0.10564754692E+01 0.13045806256E+01 0.13599593703E+01 0.14448632286E+01
 0.15648789690E+01 0.17248138263E+01 0.19269052118E+01 0.21685418270E+01 0.24399491582E+01
 0.27228162520E+01 0.29909705936E+01 0.32137510217E+01 0.33617839534E+01 0.34137327079E+01
 0.33617826805E+01 0.32137546676E+01 0.29909828897E+01 0.27228335548E+01 0.24399632586E+01
 0.21685442846E+01 0.19268921763E+01 0.17247920889E+01 0.15648638508E+01 0.14448635531E+01
 0.13599673514E+01 0.13045835070E+01 0.12736858449E+01 0.12638026580E+01 0.12736884946E+01
 0.16139497577E+01 0.16526056589E+01 0.17144307249E+01 0.18047179017E+01 0.19269052118E+01
 0.20812799434E+01 0.22635450719E+01 0.24635384836E+01 0.26648183579E+01 0.28459288467E+01
 0.29837466583E+01 0.30584211319E+01 0.30584228331E+01 0.29837543704E+01 0.28459429323E+01
 0.26648284005E+01 0.24635314062E+01 0.22635210153E+01 0.20812541769E+01 0.19268940965E+01
 0.18047260017E+01 0.17144498929E+01 0.16526227237E+01 0.16139561321E+01 0.15925734447E+01
 0.15833761456E+01 0.15833786376E+01 0.15925759192E+01 0.20298585733E+01 0.20339745329E+01
 0.20550705277E+01 0.20989136463E+01 0.21685418270E+01 0.22635450719E+01 0.23793920071E+01
 0.25069359746E+01 0.26326102031E+01 0.27399298864E+01 0.28125482779E+01 0.28382692322E+01
 0.28125563524E+01 0.27399366482E+01 0.26326017536E+01 0.25069068588E+01 0.23793564675E+01
 0.22635289430E+01 0.21685576464E+01 0.20989467702E+01 0.20550944986E+01 0.20339778337E+01
 0.20298512363E+01 0.20352174154E+01 0.20423852445E+01 0.20455046443E+01 0.20423843252E+01
 0.20352214826E+01 0.25627023441E+01 0.25069324906E+01 0.24635394612E+01 0.24399507661E+01
 0.24399491582E+01 0.24635384836E+01 0.25069359746E+01 0.25627063296E+01 0.26203911301E+01
 0.26680958867E+01 0.26951490917E+01 0.26951560048E+01 0.26681035488E+01 0.26203776456E+01
 0.25626716283E+01 0.25069079058E+01 0.24635455467E+01 0.24399896273E+01 0.24399920222E+01
 0.24635488713E+01 0.25069081830E+01 0.25626723291E+01 0.26203820319E+01 0.26681071668E+01
 0.26951545773E+01 0.26951463656E+01 0.26680960081E+01 0.26203908334E+01 0.32089849559E+01
 0.30603961345E+01 0.29237596691E+01 0.28094371512E+01 0.27228162520E+01 0.26648183579E+01
 0.26326102031E+01 0.26203911301E+01 0.26204332752E+01 0.26246784916E+01 0.26268895476E+01
 0.26246868026E+01 0.26204254928E+01 0.26203617539E+01 0.26325910306E+01 0.26648404392E+01
 0.27228674348E+01 0.28094728261E+01 0.29237509677E+01 0.30603563115E+01 0.32089502832E+01
 0.33543482233E+01 0.34780620366E+01 0.35616354406E+01 0.35912085884E+01 0.35616165030E+01
 0.34780437978E+01 0.33543539692E+01 0.39442946214E+01 0.36647843365E+01 0.34045497701E+01
 0.31776237559E+01 0.29909705936E+01 0.28459288467E+01 0.27399298864E+01 0.26680958867E+01
 0.26246784916E+01 0.26045190444E+01 0.26045192439E+01 0.26246675663E+01 0.26680658481E+01
 0.27399070190E+01 0.28459467357E+01 0.29910200382E+01 0.31776577547E+01 0.34045400069E+01
 0.36647508497E+01 0.39442744622E+01 0.42215105032E+01 0.44686927261E+01 0.46558496576E+01
 0.47570289867E+01 0.47570263645E+01 0.46558397382E+01 0.44686775908E+01 0.42215054978E+01
 0.47194783682E+01 0.42711784445E+01 0.38610857970E+01 0.35062443210E+01 0.32137510217E+01
 0.29837466583E+01 0.28125482779E+01 0.26951490917E+01 0.26268895476E+01 0.26045192439E+01
 0.26268680057E+01 0.26951083854E+01 0.28125134766E+01 0.29837527429E+01 0.32137983837E+01
 0.35062908278E+01 0.38610958931E+01 0.42711615896E+01 0.47194665047E+01 0.51773198636E+01
 0.56052985285E+01 0.59577426840E+01 0.61908121746E+01 0.62724427825E+01 0.61908212361E+01
 0.59577480420E+01 0.56052932687E+01 0.51773158071E+01 0.54620560398E+01 0.48156774942E+01
 0.42408276398E+01 0.37547700909E+01 0.33617839534E+01 0.30584211319E+01 0.28382692322E+01
 0.26951560048E+01 0.26246868026E+01 0.26246675663E+01 0.26951083854E+01 0.28382253554E+01
 0.30584210528E+01 0.33618369319E+01 0.37548377136E+01 0.42408618815E+01 0.48156684032E+01
 0.54620297879E+01 0.61457764142E+01 0.68152471954E+01 0.74056654704E+01 0.78488904036E+01
 0.80871774780E+01 0.80871728551E+01 0.78488809187E+01 0.74056593458E+01 0.68152510504E+01
 0.61457945100E+01 0.60847099992E+01 0.52295115038E+01 0.44933793736E+01 0.38889050811E+01
 0.34137327079E+01 0.30584228331E+01 0.28125563524E+01 0.26681035488E+01 0.26204254928E+01
 0.26680658481E+01 0.28125134766E+01 0.30584210528E+01 0.34137914227E+01 0.38889889984E+01
 0.44934264777E+01 0.52294932898E+01 0.60846536881E+01 0.70241079380E+01 0.79870790157E+01
 0.88893254672E+01 0.96333134950E+01 0.10125623547E+02 0.10298068863E+02 0.10125576331E+02
 0.96332508719E+01 0.88892851158E+01 0.79870826853E+01 0.70241533677E+01 0.65014141055E+01
 0.54536109296E+01 0.45820526128E+01 0.38889037998E+01 0.33617826805E+01 0.29837543704E+01
 0.27399366482E+01 0.26203776456E+01 0.26203617539E+01 0.27399070190E+01 0.29837527429E+01
 0.33618369319E+01 0.38889889984E+01 0.45821016141E+01 0.54535805265E+01 0.65013341462E+01
 0.76975977570E+01 0.89804004266E+01 0.10251556523E+02 0.11384177795E+02 0.12241379274E+02
 0.12704684804E+02 0.12704661012E+02 0.12241313282E+02 0.11384089158E+02 0.10251483141E+02
 0.89803857662E+01 0.76976536535E+01 0.66482180781E+01 0.54536116380E+01 0.44933828020E+01
 0.37547660138E+01 0.32137546676E+01 0.28459429323E+01 0.26326017536E+01 0.25626716283E+01
 0.26325910306E+01 0.28459467357E+01 0.32137983837E+01 0.37548377136E+01 0.44934264777E+01
 0.54535805265E+01 0.66481381271E+01 0.80645535761E+01 0.96510574540E+01 0.11307851038E+02
 0.12887793773E+02 0.14211122763E+02 0.15097224382E+02 0.15409247165E+02 0.15097249380E+02
 0.14211116354E+02 0.12887717995E+02 0.11307746070E+02 0.96510084617E+01 0.80645967890E+01
 0.65014010716E+01 0.52295225404E+01 0.42408310478E+01 0.35062366392E+01 0.29909828897E+01
 0.26648284005E+01 0.25069068588E+01 0.25069079058E+01 0.26648404392E+01 0.29910200382E+01
 0.35062908278E+01 0.42408618815E+01 0.52294932898E+01 0.65013341462E+01 0.80645535761E+01
 0.98885126976E+01 0.11887904816E+02 0.13913711881E+02 0.15756971801E+02 0.17165216976E+02
 0.17924081067E+02 0.17924145252E+02 0.17165341565E+02 0.15757024692E+02 0.13913634546E+02
 0.11887767789E+02 0.98884338769E+01 0.80645768330E+01 0.60847196419E+01 0.48157036204E+01
 0.38610774859E+01 0.31776143165E+01 0.27228335548E+01 0.24635314062E+01 0.23793564675E+01
 0.24635455467E+01 0.27228674348E+01 0.31776577547E+01 0.38610958931E+01 0.48156684032E+01
 0.60846536881E+01 0.76975977570E+01 0.96510574540E+01 0.11887904816E+02 0.14279084360E+02
 0.16610055086E+02 0.18566828589E+02 0.19859529095E+02 0.20310165189E+02 0.19859668201E+02
 0.18566982509E+02 0.16610090711E+02 0.14278978466E+02 0.11887753600E+02 0.96509765411E+01
 0.76976196500E+01 0.54621030947E+01 0.42711957712E+01 0.34045217886E+01 0.28094347776E+01
 0.24399632586E+01 0.22635210153E+01 0.22635289430E+01 0.24399896273E+01 0.28094728261E+01
 0.34045400069E+01 0.42711615896E+01 0.54620297879E+01 0.70241079380E+01 0.89804004266E+01
 0.11307851038E+02 0.13913711881E+02 0.16610055086E+02 0.19062447222E+02 0.20910115124E+02
 0.21898271521E+02 0.21898341834E+02 0.20910267509E+02 0.19062556105E+02 0.16610033823E+02
 0.13913581666E+02 0.11307714879E+02 0.89803504389E+01 0.70241524835E+01 0.47195272691E+01
 0.36647644558E+01 0.29237268090E+01 0.24399641362E+01 0.21685442846E+01 0.20812541769E+01
 0.21685576464E+01 0.24399920222E+01 0.29237509677E+01 0.36647508497E+01 0.47194665047E+01
 0.61457764142E+01 0.79870790157E+01 0.10251556523E+02 0.12887793773E+02 0.15756971801E+02
 0.18566828589E+02 0.20910115124E+02 0.22454771142E+02 0.22993150503E+02 0.22454897950E+02
 0.20910263672E+02 0.18566882033E+02 0.15756897753E+02 0.12887659642E+02 0.10251463049E+02
 0.79870781138E+01 0.61458405544E+01 0.39442998905E+01 0.30603479400E+01 0.24635299531E+01
 0.20989364894E+01 0.19268921763E+01 0.19268940965E+01 0.20989467702E+01 0.24635488713E+01
 0.30603563115E+01 0.39442744622E+01 0.51773198636E+01 0.68152471954E+01 0.88893254672E+01
 0.11384177795E+02 0.14211122763E+02 0.17165216976E+02 0.19859529095E+02 0.21898271521E+02
 0.22993150503E+02 0.22993229452E+02 0.21898437028E+02 0.19859640411E+02 0.17165198828E+02
 0.14211017342E+02 0.11384082001E+02 0.88893011953E+01 0.68152869443E+01 0.51773738472E+01
 0.32089442248E+01 0.25068967151E+01 0.20550927052E+01 0.18047307868E+01 0.17247920889E+01
 0.18047260017E+01 0.20550944986E+01 0.25069081830E+01 0.32089502832E+01 0.42215105032E+01
 0.56052985285E+01 0.74056654704E+01 0.96333134950E+01 0.12241379274E+02 0.15097224382E+02
 0.17924081067E+02 0.20310165189E+02 0.21898341834E+02 0.22454897950E+02 0.21898437028E+02
 0.20310254108E+02 0.17924080046E+02 0.15097152782E+02 0.12241318112E+02 0.96333123007E+01
 0.74057092216E+01 0.56053438529E+01 0.42215293750E+01 0.25626542829E+01 0.20339767922E+01
 0.17144623404E+01 0.15648715131E+01 0.15648638508E+01 0.17144498929E+01 0.20339778337E+01
 0.25626723291E+01 0.33543482233E+01 0.44686927261E+01 0.59577426840E+01 0.78488904036E+01
 0.10125623547E+02 0.12704684804E+02 0.15409247165E+02 0.17924145252E+02 0.19859668201E+02
 0.20910267509E+02 0.20910263672E+02 0.19859640411E+02 0.17924080046E+02 0.15409179287E+02
 0.12704671666E+02 0.10125679867E+02 0.78489732101E+01 0.59577991122E+01 0.44687041748E+01
 0.33543309984E+01 0.20298377319E+01 0.16526328057E+01 0.14448790575E+01 0.13787647250E+01
 0.14448635531E+01 0.16526227237E+01 0.20298512363E+01 0.26203820319E+01 0.34780620366E+01
 0.46558496576E+01 0.61908121746E+01 0.80871774780E+01 0.10298068863E+02 0.12704661012E+02
 0.15097249380E+02 0.17165341565E+02 0.18566982509E+02 0.19062556105E+02 0.18566882033E+02
 0.17165198828E+02 0.15097152782E+02 0.12704671666E+02 0.10298172846E+02 0.80873007903E+01
 0.61908864839E+01 0.46558584275E+01 0.34780313798E+01 0.26203478485E+01 0.16139578043E+01
 0.13599837057E+01 0.12412144214E+01 0.12412051164E+01 0.13599673514E+01 0.16139561321E+01
 0.20352174154E+01 0.26681071668E+01 0.35616354406E+01 0.47570289867E+01 0.62724427825E+01
 0.80871728551E+01 0.10125576331E+02 0.12241313282E+02 0.14211116354E+02 0.15757024692E+02
 0.16610090711E+02 0.16610033823E+02 0.15756897753E+02 0.14211017342E+02 0.12241318112E+02
 0.10125679867E+02 0.80873007903E+01 0.62725207849E+01 0.47570366182E+01 0.35615998148E+01
 0.26680653086E+01 0.20351936232E+01 0.13045975100E+01 0.11454733077E+01 0.10947127966E+01
 0.11454604040E+01 0.13045835070E+01 0.15925734447E+01 0.20423852445E+01 0.26951545773E+01
 0.35912085884E+01 0.47570263645E+01 0.61908212361E+01 0.78488809187E+01 0.96332508719E+01
 0.11384089158E+02 0.12887717995E+02 0.13913634546E+02 0.14278978466E+02 0.13913581666E+02
 0.12887659642E+02 0.11384082001E+02 0.96333123007E+01 0.78489732101E+01 0.61908864839E+01
 0.47570366182E+01 0.35911798511E+01 0.26951199975E+01 0.20423665036E+01 0.15925747831E+01
 0.10853797754E+01 0.99666186333E+00 0.99665904061E+00 0.10853706869E+01 0.12736858449E+01
 0.15833761456E+01 0.20455046443E+01 0.26951463656E+01 0.35616165030E+01 0.46558397382E+01
 0.59577480420E+01 0.74056593458E+01 0.88892851158E+01 0.10251483141E+02 0.11307746070E+02
 0.11887767789E+02 0.11887753600E+02 0.11307714879E+02 0.10251463049E+02 0.88893011953E+01
 0.74057092216E+01 0.59577991122E+01 0.46558584275E+01 0.35615998148E+01 0.26951199975E+01
 0.20454933551E+01 0.15833830906E+01 0.12736989908E+01 0.94041752020E+00 0.90309795739E+00
 0.94042113925E+00 0.10564752774E+01 0.12638026580E+01 0.15833786376E+01 0.20423843252E+01
 0.26680960081E+01 0.34780437978E+01 0.44686775908E+01 0.56052932687E+01 0.68152510504E+01
 0.79870826853E+01 0.89803857662E+01 0.96510084617E+01 0.98884338769E+01 0.96509765411E+01
 0.89803504389E+01 0.79870781138E+01 0.68152869443E+01 0.56053438529E+01 0.44687041748E+01
 0.34780313798E+01 0.26680653086E+01 0.20423665036E+01 0.15833830906E+01 0.12638141417E+01
 0.10564782671E+01 0.85792237346E+00 0.85792745972E+00 0.92209389236E+00 0.10564754692E+01
 0.12736884946E+01 0.15925759192E+01 0.20352214826E+01 0.26203908334E+01 0.33543539692E+01
 0.42215054978E+01 0.51773158071E+01 0.61457945100E+01 0.70241533677E+01 0.76976536535E+01
 0.80645967890E+01 0.80645768330E+01 0.76976196500E+01 0.70241524835E+01 0.61458405544E+01
 0.51773738472E+01 0.42215293750E+01 0.33543309984E+01 0.26203478485E+01 0.20351936232E+01
 0.15925747831E+01 0.12736989908E+01 0.10564782671E+01 0.92208653537E+00 0.85792649710E+00
 0.90309762690E+00 0.99666079769E+00 0.11454640141E+01 0.13599607735E+01 0.16526076433E+01
 0.20339758423E+01 0.25069325324E+01 0.30603956148E+01 0.36647834079E+01 0.42711763316E+01
 0.48156745037E+01 0.52295093278E+01 0.54536103380E+01 0.54536118010E+01 0.52295230775E+01
 0.48157052478E+01 0.42711984092E+01 0.36647667785E+01 0.30603493770E+01 0.25068979178E+01
 0.20339776516E+01 0.16526321101E+01 0.13599813392E+01 0.11454707712E+01 0.99666006567E+00
 0.90309644968E+00 0.85792627440E+00 0.90309762690E+00 0.95788149731E+00 0.10531749685E+01
 0.11952423011E+01 0.13924995230E+01 0.16535535995E+01 0.19835433242E+01 0.23793903947E+01
 0.28254318598E+01 0.32912735558E+01 0.37333511381E+01 0.41008032696E+01 0.43450289536E+01
 0.44307487343E+01 0.43450362998E+01 0.41008151389E+01 0.37333510215E+01 0.32912440958E+01
 0.28253846292E+01 0.23793630043E+01 0.19835576326E+01 0.16535914805E+01 0.13925282305E+01
 0.11952504347E+01 0.10531739822E+01 0.95788287841E+00 0.90310093608E+00 0.88521974094E+00
 0.99666079769E+00 0.10531749685E+01 0.11427962374E+01 0.12711657931E+01 0.14447359666E+01
 0.16687295790E+01 0.19440097105E+01 0.22635476276E+01 0.26098186098E+01 0.29545647641E+01
 0.32617736506E+01 0.34937085864E+01 0.36187301621E+01 0.36187314573E+01 0.34937074993E+01
 0.32617593928E+01 0.29545338850E+01 0.26097870804E+01 0.22635409347E+01 0.19440347520E+01
 0.16687645323E+01 0.14447547973E+01 0.12711648853E+01 0.11427898694E+01 0.10531734460E+01
 0.99666293036E+00 0.96936596934E+00 0.96936468838E+00 0.11454640141E+01 0.11952423011E+01
 0.12711657931E+01 0.13784088447E+01 0.15217703051E+01 0.17038047212E+01 0.19224137946E+01
 0.21685443761E+01 0.24250589706E+01 0.26677459941E+01 0.28687734338E+01 0.30019842704E+01
 0.30486567389E+01 0.30019823946E+01 0.28687640991E+01 0.26677301617E+01 0.24250502516E+01
 0.21685560470E+01 0.19224401374E+01 0.17038234656E+01 0.15217673750E+01 0.13783934840E+01
 0.12711557194E+01 0.11952416659E+01 0.11454648395E+01 0.11174851865E+01 0.11084839505E+01
 0.11174865097E+01 0.13599607735E+01 0.13924995230E+01 0.14447359666E+01 0.15217703051E+01
 0.16272894160E+01 0.17620734190E+01 0.19224126836E+01 0.20989134792E+01 0.22764174279E+01
 0.24355970584E+01 0.25562187921E+01 0.26213600902E+01 0.26213606308E+01 0.25562186445E+01
 0.24355955186E+01 0.22764196155E+01 0.20989238474E+01 0.19224250078E+01 0.17620746200E+01
 0.16272758343E+01 0.15217542818E+01 0.14447315569E+01 0.13925058405E+01 0.13599657438E+01
 0.13418885256E+01 0.13340390100E+01 0.13340414381E+01 0.13418904749E+01 0.16526076433E+01
 0.16535535995E+01 0.16687295790E+01 0.17038047212E+01 0.17620734190E+01 0.18435085805E+01
 0.19440091049E+01 0.20550714711E+01 0.21643132593E+01 0.22571766420E+01 0.23197138186E+01
 0.23417975944E+01 0.23197164561E+01 0.22571776025E+01 0.21643101865E+01 0.20550660144E+01
 0.19440027858E+01 0.18435014344E+01 0.17620675080E+01 0.17038041706E+01 0.16687350760E+01
 0.16535602764E+01 0.16526103889E+01 0.16590098676E+01 0.16661145352E+01 0.16690771864E+01
 0.16661166819E+01 0.16590112813E+01 0.20339758423E+01 0.19835433242E+01 0.19440097105E+01
 0.19224137946E+01 0.19224126836E+01 0.19440091049E+01 0.19835459610E+01 0.20339789497E+01
 0.20856909811E+01 0.21281055895E+01 0.21520154381E+01 0.21520172872E+01 0.21281053581E+01
 0.20856808119E+01 0.20339623531E+01 0.19835350681E+01 0.19440113745E+01 0.19224250252E+01
 0.19224267845E+01 0.19440139385E+01 0.19835356309E+01 0.20339633084E+01 0.20856843511E+01
 0.21281082155E+01 0.21520163567E+01 0.21520133477E+01 0.21281053391E+01 0.20856903989E+01
 0.25069325324E+01 0.23793903947E+01 0.22635476276E+01 0.21685443761E+01 0.20989134792E+01
 0.20550714711E+01 0.20339789497E+01 0.20298621246E+01 0.20352210032E+01 0.20423831499E+01
 0.20455050634E+01 0.20423835963E+01 0.20352118865E+01 0.20298466823E+01 0.20339775701E+01
 0.20550949675E+01 0.20989454001E+01 0.21685581310E+01 0.22635335438E+01 0.23793609164E+01
 0.25069081167E+01 0.26326030872E+01 0.27399399281E+01 0.28125572293E+01 0.28382652287E+01
 0.28125439186E+01 0.27399286111E+01 0.26326088957E+01 0.30603956148E+01 0.28254318598E+01
 0.26098186098E+01 0.24250589706E+01 0.22764174279E+01 0.21643132593E+01 0.20856909811E+01
 0.20352210032E+01 0.20065704753E+01 0.19939818377E+01 0.19939810883E+01 0.20065637659E+01
 0.20352105650E+01 0.20856982395E+01 0.21643514672E+01 0.22764616555E+01 0.24250675404E+01
 0.26097827888E+01 0.28253856238E+01 0.30603756826E+01 0.32962526413E+01 0.35085479980E+01
 0.36703701674E+01 0.37581992937E+01 0.37581928964E+01 0.36703515367E+01 0.35085237089E+01
 0.32962409162E+01 0.36647834079E+01 0.32912735558E+01 0.29545647641E+01 0.26677459941E+01
 0.24355970584E+01 0.22571766420E+01 0.21281055895E+01 0.20423831499E+01 0.19939818377E+01
 0.19784030649E+01 0.19939727842E+01 0.20423724565E+01 0.21281140159E+01 0.22572175355E+01
 0.24356453495E+01 0.26677543064E+01 0.29545212441E+01 0.32912224275E+01 0.36647745176E+01
 0.40516826410E+01 0.44180473208E+01 0.47230428697E+01 0.49263208582E+01 0.49978098338E+01
 0.49263243291E+01 0.47230296617E+01 0.44180097173E+01 0.40516486556E+01 0.42711763316E+01
 0.37333511381E+01 0.32617736506E+01 0.28687734338E+01 0.25562187921E+01 0.23197138186E+01
 0.21520154381E+01 0.20455050634E+01 0.19939810883E+01 0.19939727842E+01 0.20454909270E+01
 0.21520209361E+01 0.23197541803E+01 0.25562713735E+01 0.28687906573E+01 0.32617380725E+01
 0.37333034449E+01 0.42711705537E+01 0.48485164277E+01 0.54221520165E+01 0.59349704320E+01
 0.63242308240E+01 0.65350367439E+01 0.65350487156E+01 0.63242489807E+01 0.59349613498E+01
 0.54221084689E+01 0.48484754836E+01 0.48156745037E+01 0.41008032696E+01 0.34937085864E+01
 0.30019842704E+01 0.26213600902E+01 0.23417975944E+01 0.21520172872E+01 0.20423835963E+01
 0.20065637659E+01 0.20423724565E+01 0.21520209361E+01 0.23418370260E+01 0.26214184546E+01
 0.30020143434E+01 0.34936844936E+01 0.41007562074E+01 0.48156600515E+01 0.56123020818E+01
 0.64412088164E+01 0.72293887655E+01 0.78878310054E+01 0.83277902339E+01 0.84827224274E+01
 0.83278089609E+01 0.78878445227E+01 0.72293704008E+01 0.64411619581E+01 0.56122676922E+01
 0.52295093278E+01 0.43450289536E+01 0.36187301621E+01 0.30486567389E+01 0.26213606308E+01
 0.23197164561E+01 0.21281053581E+01 0.20352118865E+01 0.20352105650E+01 0.21281140159E+01
 0.23197541803E+01 0.26214184546E+01 0.30486927496E+01 0.36187113781E+01 0.43449753333E+01
 0.52294797585E+01 0.62531285944E+01 0.73668178917E+01 0.84867271575E+01 0.94982032294E+01
 0.10272113752E+02 0.10693366940E+02 0.10693380711E+02 0.10272139171E+02 0.94982051708E+01
 0.84866851554E+01 0.73667557747E+01 0.62530994384E+01 0.54536103380E+01 0.44307487343E+01
 0.36187314573E+01 0.30019823946E+01 0.25562186445E+01 0.22571776025E+01 0.20856808119E+01
 0.20298466823E+01 0.20856982395E+01 0.22572175355E+01 0.25562713735E+01 0.30020143434E+01
 0.36187113781E+01 0.44306889483E+01 0.54535703119E+01 0.66822109878E+01 0.80774111437E+01
 0.95550230867E+01 0.10982796801E+02 0.12191889286E+02 0.13007902904E+02 0.13296808463E+02
 0.13007972186E+02 0.12191960385E+02 0.10982797462E+02 0.95549451408E+01 0.80773189337E+01
 0.66821783937E+01 0.54536118010E+01 0.43450362998E+01 0.34937074993E+01 0.28687640991E+01
 0.24355955186E+01 0.21643101865E+01 0.20339623531E+01 0.20339775701E+01 0.21643514672E+01
 0.24356453495E+01 0.28687906573E+01 0.34936844936E+01 0.43449753333E+01 0.54535703119E+01
 0.68334276698E+01 0.84648818838E+01 0.10277449324E+02 0.12137253452E+02 0.13847966065E+02
 0.15176402238E+02 0.15906552927E+02 0.15906632833E+02 0.15176575260E+02 0.13848092674E+02
 0.12137243827E+02 0.10277331911E+02 0.84647620387E+01 0.68333884396E+01 0.52295230775E+01
 0.41008151389E+01 0.32617593928E+01 0.26677301617E+01 0.22764196155E+01 0.20550660144E+01
 0.19835350681E+01 0.20550949675E+01 0.22764616555E+01 0.26677543064E+01 0.32617380725E+01
 0.41007562074E+01 0.52294797585E+01 0.66822109878E+01 0.84648818838E+01 0.10533438554E+02
 0.12772253983E+02 0.14981006968E+02 0.16885627138E+02 0.18188429110E+02 0.18653006735E+02
 0.18188602897E+02 0.16885848281E+02 0.14981127405E+02 0.12772216728E+02 0.10533304178E+02
 0.84647618659E+01 0.66821771706E+01 0.48157052478E+01 0.37333510215E+01 0.29545338850E+01
 0.24250502516E+01 0.20989238474E+01 0.19440027858E+01 0.19440113745E+01 0.20989454001E+01
 0.24250675404E+01 0.29545212441E+01 0.37333034449E+01 0.48156600515E+01 0.62531285944E+01
 0.80774111437E+01 0.10277449324E+02 0.12772253983E+02 0.15385040267E+02 0.17834209935E+02
 0.19764822643E+02 0.20833433760E+02 0.20833503122E+02 0.19764987096E+02 0.17834369702E+02
 0.15385107779E+02 0.12772208690E+02 0.10277343934E+02 0.80773280228E+01 0.62531173203E+01
 0.42711984092E+01 0.32912440958E+01 0.26097870804E+01 0.21685560470E+01 0.19224250078E+01
 0.18435014344E+01 0.19224250252E+01 0.21685581310E+01 0.26097827888E+01 0.32912224275E+01
 0.42711705537E+01 0.56123020818E+01 0.73668178917E+01 0.95550230867E+01 0.12137253452E+02
 0.14981006968E+02 0.17834209935E+02 0.20328993639E+02 0.22043614332E+02 0.22654677401E+02
 0.22043659516E+02 0.20329068992E+02 0.17834286575E+02 0.14981050612E+02 0.12137245556E+02
 0.95549809037E+01 0.73667844264E+01 0.56123054671E+01 0.36647667785E+01 0.28253846292E+01
 0.22635409347E+01 0.19224401374E+01 0.17620746200E+01 0.17620675080E+01 0.19224267845E+01
 0.22635335438E+01 0.28253856238E+01 0.36647745176E+01 0.48485164277E+01 0.64412088164E+01
 0.84867271575E+01 0.10982796801E+02 0.13847966065E+02 0.16885627138E+02 0.19764822643E+02
 0.22043614332E+02 0.23304445661E+02 0.23304436642E+02 0.22043600383E+02 0.19764832171E+02
 0.16885676062E+02 0.13848036124E+02 0.10982848932E+02 0.84867402362E+01 0.64411960372E+01
 0.48485015134E+01 0.30603493770E+01 0.23793630043E+01 0.19440347520E+01 0.17038234656E+01
 0.16272758343E+01 0.17038041706E+01 0.19440139385E+01 0.23793609164E+01 0.30603756826E+01
 0.40516826410E+01 0.54221520165E+01 0.72293887655E+01 0.94982032294E+01 0.12191889286E+02
 0.15176402238E+02 0.18188429110E+02 0.20833433760E+02 0.22654677401E+02 0.23304436642E+02
 0.22654622459E+02 0.20833367542E+02 0.18188414444E+02 0.15176471486E+02 0.12192008578E+02
 0.94982987077E+01 0.72294136545E+01 0.54221193599E+01 0.40516366103E+01 0.25068979178E+01
 0.19835576326E+01 0.16687645323E+01 0.15217673750E+01 0.15217542818E+01 0.16687350760E+01
 0.19835356309E+01 0.25069081167E+01 0.32962526413E+01 0.44180473208E+01 0.59349704320E+01
 0.78878310054E+01 0.10272113752E+02 0.13007902904E+02 0.15906552927E+02 0.18653006735E+02
 0.20833503122E+02 0.22043659516E+02 0.22043600383E+02 0.20833367542E+02 0.18652895559E+02
 0.15906556833E+02 0.13008027641E+02 0.10272272107E+02 0.78879213141E+01 0.59349620696E+01
 0.44179867090E+01 0.32962026102E+01 0.20339776516E+01 0.16535914805E+01 0.14447547973E+01
 0.13783934840E+01 0.14447315569E+01 0.16535602764E+01 0.20339633084E+01 0.26326030872E+01
 0.35085479980E+01 0.47230428697E+01 0.63242308240E+01 0.83277902339E+01 0.10693366940E+02
 0.13296808463E+02 0.15906632833E+02 0.18188602897E+02 0.19764987096E+02 0.20329068992E+02
 0.19764832171E+02 0.18188414444E+02 0.15906556833E+02 0.13296897941E+02 0.10693545006E+02
 0.83279275242E+01 0.63242581402E+01 0.47229890125E+01 0.35084851953E+01 0.26325779542E+01
 0.16526321101E+01 0.13925282305E+01 0.12711648853E+01 0.12711557194E+01 0.13925058405E+01
 0.16526103889E+01 0.20856843511E+01 0.27399399281E+01 0.36703701674E+01 0.49263208582E+01
 0.65350367439E+01 0.84827224274E+01 0.10693380711E+02 0.13007972186E+02 0.15176575260E+02
 0.16885848281E+02 0.17834369702E+02 0.17834286575E+02 0.16885676062E+02 0.15176471486E+02
 0.13008027641E+02 0.10693545006E+02 0.84828670371E+01 0.65350770562E+01 0.49262718174E+01
 0.36703012327E+01 0.27399024046E+01 0.20856853579E+01 0.13599813392E+01 0.11952504347E+01
 0.11427898694E+01 0.11952416659E+01 0.13599657438E+01 0.16590098676E+01 0.21281082155E+01
 0.28125572293E+01 0.37581992937E+01 0.49978098338E+01 0.65350487156E+01 0.83278089609E+01
 0.10272139171E+02 0.12191960385E+02 0.13848092674E+02 0.14981127405E+02 0.15385107779E+02
 0.14981050612E+02 0.13848036124E+02 0.12192008578E+02 0.10272272107E+02 0.83279275242E+01
 0.65350770562E+01 0.49977570865E+01 0.37581285964E+01 0.28125177461E+01 0.21281055613E+01
 0.16590249150E+01 0.11454707712E+01 0.10531739822E+01 0.10531734460E+01 0.11454648395E+01
 0.13418885256E+01 0.16661145352E+01 0.21520163567E+01 0.28382652287E+01 0.37581928964E+01
 0.49263243291E+01 0.63242489807E+01 0.78878445227E+01 0.94982051708E+01 0.10982797462E+02
 0.12137243827E+02 0.12772216728E+02 0.12772208690E+02 0.12137245556E+02 0.10982848932E+02
 0.94982987077E+01 0.78879213141E+01 0.63242581402E+01 0.49262718174E+01 0.37581285964E+01
 0.28382328372E+01 0.21520222823E+01 0.16661371662E+01 0.13419058216E+01 0.99666006567E+00
 0.95788287841E+00 0.99666293036E+00 0.11174851865E+01 0.13340390100E+01 0.16690771864E+01
 0.21520133477E+01 0.28125439186E+01 0.36703515367E+01 0.47230296617E+01 0.59349613498E+01
 0.72293704008E+01 0.84866851554E+01 0.95549451408E+01 0.10277331911E+02 0.10533304178E+02
 0.10277343934E+02 0.95549809037E+01 0.84867402362E+01 0.72294136545E+01 0.59349620696E+01
 0.47229890125E+01 0.36703012327E+01 0.28125177461E+01 0.21520222823E+01 0.16691062782E+01
 0.13340636331E+01 0.11174925481E+01 0.90309644968E+00 0.90310093608E+00 0.96936596934E+00
 0.11084839505E+01 0.13340414381E+01 0.16661166819E+01 0.21281053391E+01 0.27399286111E+01
 0.35085237089E+01 0.44180097173E+01 0.54221084689E+01 0.64411619581E+01 0.73667557747E+01
 0.80773189337E+01 0.84647620387E+01 0.84647618659E+01 0.80773280228E+01 0.73667844264E+01
 0.64411960372E+01 0.54221193599E+01 0.44179867090E+01 0.35084851953E+01 0.27399024046E+01
 0.21281055613E+01 0.16661371662E+01 0.13340636331E+01 0.11084922461E+01 0.96936094273E+00
 0.85792627440E+00 0.88521974094E+00 0.96936468838E+00 0.11174865097E+01 0.13418904749E+01
 0.16590112813E+01 0.20856903989E+01 0.26326088957E+01 0.32962409162E+01 0.40516486556E+01
 0.48484754836E+01 0.56122676922E+01 0.62530994384E+01 0.66821783937E+01 0.68333884396E+01
 0.66821771706E+01 0.62531173203E+01 0.56123054671E+01 0.48485015134E+01 0.40516366103E+01
 0.32962026102E+01 0.26325779542E+01 0.20856853579E+01 0.16590249150E+01 0.13419058216E+01
 0.11174925481E+01 0.96936094273E+00 0.88521384599E+00 0.94042077200E+00 0.99666272747E+00
 0.10947207699E+01 0.12412173758E+01 0.14448645674E+01 0.17144323944E+01 0.20550703693E+01
 0.24635371490E+01 0.29237571032E+01 0.34045474733E+01 0.38610826961E+01 0.42408245494E+01
 0.44933787965E+01 0.45820547359E+01 0.44933853458E+01 0.42408332670E+01 0.38610806161E+01
 0.34045254281E+01 0.29237287207E+01 0.24635297397E+01 0.20550919906E+01 0.17144611637E+01
 0.14448758824E+01 0.12412099141E+01 0.10947097695E+01 0.99665832970E+00 0.94042114734E+00
 0.92209429918E+00 0.99666272747E+00 0.10531768029E+01 0.11427970346E+01 0.12711657345E+01
 0.14447359000E+01 0.16687292881E+01 0.19440083070E+01 0.22635453611E+01 0.26098166384E+01
 0.29545634475E+01 0.32617726994E+01 0.34937084968E+01 0.36187317244E+01 0.36187341000E+01
 0.34937098053E+01 0.32617610079E+01 0.29545353235E+01 0.26097880372E+01 0.22635405261E+01
 0.19440331463E+01 0.16687626745E+01 0.14447528280E+01 0.12711624853E+01 0.11427878007E+01
 0.10531729874E+01 0.99666400683E+00 0.96936745312E+00 0.96936622886E+00 0.10947207699E+01
 0.11427970346E+01 0.12159032003E+01 0.13190506583E+01 0.14570249558E+01 0.16324863087E+01