   2   2   0   0
  0.2001288E+02  0.3839590E-09  0.3839590E-09  0.3839590E-09  0.5000000E-15
  1.000000000000000E-004
  CAR 
 unknown system                          
     16.21749951     -8.18807974  301      5.93779247      1.00000000
     -8.188  0.0000E+00  0.0000E+00
     -8.107  0.0000E+00  0.0000E+00
     -8.025  0.0000E+00  0.0000E+00
     -7.944  0.0000E+00  0.0000E+00
     -7.863  0.0000E+00  0.0000E+00
     -7.781  0.0000E+00  0.0000E+00
     -7.700  0.0000E+00  0.0000E+00
     -7.619  0.0000E+00  0.0000E+00
     -7.537  0.0000E+00  0.0000E+00
     -7.456  0.0000E+00  0.0000E+00
     -7.375  0.0000E+00  0.0000E+00
     -7.293  0.3639E-16  0.2961E-17
     -7.212  0.2922E-14  0.2407E-15
     -7.131  0.1718E-12  0.1422E-13
     -7.049  0.7288E-11  0.6071E-12
     -6.968  0.2232E-09  0.1877E-10
     -6.886  0.4938E-08  0.4205E-09
     -6.805  0.7895E-07  0.6843E-08
     -6.724  0.9126E-06  0.8108E-07
     -6.642  0.7630E-05  0.7018E-06
     -6.561  0.4617E-04  0.4458E-05
     -6.480  0.2023E-03  0.2091E-04
     -6.398  0.6417E-03  0.7311E-04
     -6.317  0.1475E-02  0.1931E-03
     -6.236  0.2460E-02  0.3933E-03
     -6.154  0.3003E-02  0.6375E-03
     -6.073  0.2843E-02  0.8688E-03
     -5.992  0.2836E-02  0.1100E-02
     -5.910  0.4910E-02  0.1499E-02
     -5.829  0.1092E-01  0.2387E-02
     -5.748  0.2052E-01  0.4057E-02
     -5.666  0.3001E-01  0.6498E-02
     -5.585  0.3461E-01  0.9314E-02
     -5.503  0.3228E-01  0.1194E-01
     -5.422  0.2453E-01  0.1394E-01
     -5.341  0.1499E-01  0.1516E-01
     -5.259  0.7436E-02  0.1576E-01
     -5.178  0.4241E-02  0.1610E-01
     -5.097  0.6549E-02  0.1664E-01
     -5.015  0.1482E-01  0.1784E-01
     -4.934  0.2664E-01  0.2001E-01
     -4.853  0.3509E-01  0.2287E-01
     -4.771  0.3425E-01  0.2565E-01
     -4.690  0.2762E-01  0.2790E-01
     -4.609  0.2740E-01  0.3013E-01
     -4.527  0.4353E-01  0.3367E-01
     -4.446  0.7186E-01  0.3952E-01
     -4.365  0.9276E-01  0.4706E-01
     -4.283  0.8813E-01  0.5423E-01
     -4.202  0.6108E-01  0.5920E-01
     -4.120  0.3084E-01  0.6171E-01
     -4.039  0.1139E-01  0.6263E-01
     -3.958  0.3427E-02  0.6291E-01
     -3.876  0.2744E-02  0.6314E-01
     -3.795  0.8704E-02  0.6384E-01
     -3.714  0.2503E-01  0.6588E-01
     -3.632  0.5263E-01  0.7016E-01
     -3.551  0.8035E-01  0.7670E-01
     -3.470  0.8969E-01  0.8399E-01
     -3.388  0.7592E-01  0.9017E-01
     -3.307  0.5702E-01  0.9481E-01
     -3.226  0.5347E-01  0.9916E-01
     -3.144  0.6489E-01  0.1044E+00
     -3.063  0.7236E-01  0.1103E+00
     -2.982  0.6181E-01  0.1154E+00
     -2.900  0.3868E-01  0.1185E+00
     -2.819  0.1763E-01  0.1199E+00
     -2.738  0.6201E-02  0.1204E+00
     -2.656  0.3308E-02  0.1207E+00
     -2.575  0.6703E-02  0.1213E+00
     -2.493  0.1573E-01  0.1225E+00
     -2.412  0.2764E-01  0.1248E+00
     -2.331  0.3525E-01  0.1276E+00
     -2.249  0.3261E-01  0.1303E+00
     -2.168  0.2203E-01  0.1321E+00
     -2.087  0.1166E-01  0.1330E+00
     -2.005  0.7815E-02  0.1337E+00
     -1.924  0.1228E-01  0.1347E+00
     -1.843  0.2295E-01  0.1365E+00
     -1.761  0.3318E-01  0.1392E+00
     -1.680  0.3499E-01  0.1421E+00
     -1.599  0.2676E-01  0.1443E+00
     -1.517  0.1487E-01  0.1455E+00
     -1.436  0.6232E-02  0.1460E+00
     -1.355  0.3352E-02  0.1463E+00
     -1.273  0.7361E-02  0.1469E+00
     -1.192  0.2239E-01  0.1487E+00
     -1.110  0.5307E-01  0.1530E+00
     -1.029  0.9456E-01  0.1607E+00
     -0.948  0.1274E+00  0.1710E+00
     -0.866  0.1311E+00  0.1817E+00
     -0.785  0.1058E+00  0.1903E+00
     -0.704  0.7351E-01  0.1963E+00
     -0.622  0.5413E-01  0.2007E+00
     -0.541  0.4757E-01  0.2046E+00
     -0.460  0.4138E-01  0.2079E+00
     -0.378  0.2927E-01  0.2103E+00
     -0.297  0.1559E-01  0.2116E+00
     -0.216  0.6131E-02  0.2121E+00
     -0.134  0.1826E-02  0.2122E+00
     -0.053  0.8157E-03  0.2123E+00
      0.028  0.2366E-02  0.2125E+00
      0.110  0.8699E-02  0.2132E+00
      0.191  0.2370E-01  0.2151E+00
      0.273  0.4682E-01  0.2189E+00
      0.354  0.6703E-01  0.2244E+00
      0.435  0.6955E-01  0.2301E+00
      0.517  0.5230E-01  0.2343E+00
      0.598  0.2851E-01  0.2366E+00
      0.679  0.1128E-01  0.2375E+00
      0.761  0.3423E-02  0.2378E+00
      0.842  0.1739E-02  0.2380E+00
      0.923  0.4200E-02  0.2383E+00
      1.005  0.1137E-01  0.2392E+00
      1.086  0.2281E-01  0.2411E+00
      1.167  0.3322E-01  0.2438E+00
      1.249  0.3532E-01  0.2467E+00
      1.330  0.2859E-01  0.2490E+00
      1.411  0.2232E-01  0.2508E+00
      1.493  0.2852E-01  0.2531E+00
      1.574  0.5207E-01  0.2574E+00
      1.656  0.8378E-01  0.2642E+00
      1.737  0.1027E+00  0.2725E+00
      1.818  0.9387E-01  0.2802E+00
      1.900  0.6456E-01  0.2854E+00
      1.981  0.3738E-01  0.2885E+00
      2.062  0.2953E-01  0.2909E+00
      2.144  0.4249E-01  0.2943E+00
      2.225  0.6307E-01  0.2995E+00
      2.306  0.7295E-01  0.3054E+00
      2.388  0.6656E-01  0.3108E+00
      2.469  0.5995E-01  0.3157E+00
      2.550  0.7372E-01  0.3217E+00
      2.632  0.1071E+00  0.3304E+00
      2.713  0.1359E+00  0.3414E+00
      2.794  0.1420E+00  0.3530E+00
      2.876  0.1381E+00  0.3642E+00
      2.957  0.1463E+00  0.3761E+00
      3.038  0.1606E+00  0.3892E+00
      3.120  0.1531E+00  0.4016E+00
      3.201  0.1142E+00  0.4109E+00
      3.283  0.6487E-01  0.4162E+00
      3.364  0.3033E-01  0.4187E+00
      3.445  0.2028E-01  0.4203E+00
      3.527  0.3190E-01  0.4229E+00
      3.608  0.5575E-01  0.4275E+00
      3.689  0.7764E-01  0.4338E+00
      3.771  0.8812E-01  0.4410E+00
      3.852  0.9098E-01  0.4484E+00
      3.933  0.9296E-01  0.4559E+00
      4.015  0.9140E-01  0.4633E+00
      4.096  0.8177E-01  0.4700E+00
      4.177  0.6668E-01  0.4754E+00
      4.259  0.5176E-01  0.4796E+00
      4.340  0.4239E-01  0.4831E+00
      4.421  0.4276E-01  0.4866E+00
      4.503  0.5012E-01  0.4906E+00
      4.584  0.5538E-01  0.4951E+00
      4.666  0.5440E-01  0.4996E+00
      4.747  0.5166E-01  0.5038E+00
      4.828  0.5106E-01  0.5079E+00
      4.910  0.5240E-01  0.5122E+00
      4.991  0.5502E-01  0.5167E+00
      5.072  0.5595E-01  0.5212E+00
      5.154  0.4920E-01  0.5252E+00
      5.235  0.3402E-01  0.5280E+00
      5.316  0.1784E-01  0.5294E+00
      5.398  0.7768E-02  0.5301E+00
      5.479  0.4884E-02  0.5305E+00
      5.560  0.6334E-02  0.5310E+00
      5.642  0.8494E-02  0.5317E+00
      5.723  0.8660E-02  0.5324E+00
      5.804  0.6463E-02  0.5329E+00
      5.886  0.3696E-02  0.5332E+00
      5.967  0.2422E-02  0.5334E+00
      6.049  0.3890E-02  0.5337E+00
      6.130  0.8387E-02  0.5344E+00
      6.211  0.1429E-01  0.5356E+00
      6.293  0.1791E-01  0.5370E+00
      6.374  0.1700E-01  0.5384E+00
      6.455  0.1441E-01  0.5396E+00
      6.537  0.1608E-01  0.5409E+00
      6.618  0.2440E-01  0.5429E+00
      6.699  0.3447E-01  0.5457E+00
      6.781  0.3900E-01  0.5488E+00
      6.862  0.3762E-01  0.5519E+00
      6.943  0.3754E-01  0.5550E+00
      7.025  0.4377E-01  0.5585E+00
      7.106  0.5326E-01  0.5629E+00
      7.187  0.6068E-01  0.5678E+00
      7.269  0.6653E-01  0.5732E+00
      7.350  0.7540E-01  0.5793E+00
      7.431  0.8636E-01  0.5864E+00
      7.513  0.9366E-01  0.5940E+00
      7.594  0.9794E-01  0.6020E+00
      7.676  0.1031E+00  0.6103E+00
      7.757  0.1027E+00  0.6187E+00
      7.838  0.8609E-01  0.6257E+00
      7.920  0.5674E-01  0.6303E+00
      8.001  0.2980E-01  0.6327E+00
      8.082  0.1517E-01  0.6340E+00
      8.164  0.1159E-01  0.6349E+00
      8.245  0.1378E-01  0.6360E+00
      8.326  0.1942E-01  0.6376E+00
      8.408  0.2828E-01  0.6399E+00
      8.489  0.3728E-01  0.6430E+00
      8.570  0.4181E-01  0.6464E+00
      8.652  0.4359E-01  0.6499E+00
      8.733  0.5137E-01  0.6541E+00
      8.814  0.7271E-01  0.6600E+00
      8.896  0.1086E+00  0.6688E+00
      8.977  0.1494E+00  0.6810E+00
      9.059  0.1727E+00  0.6950E+00
      9.140  0.1594E+00  0.7080E+00
      9.221  0.1198E+00  0.7177E+00
      9.303  0.8865E-01  0.7250E+00
      9.384  0.8849E-01  0.7322E+00
      9.465  0.1107E+00  0.7412E+00
      9.547  0.1327E+00  0.7520E+00
      9.628  0.1424E+00  0.7635E+00
      9.709  0.1410E+00  0.7750E+00
      9.791  0.1341E+00  0.7859E+00
      9.872  0.1294E+00  0.7965E+00
      9.953  0.1331E+00  0.8073E+00
     10.035  0.1410E+00  0.8187E+00
     10.116  0.1435E+00  0.8304E+00
     10.197  0.1388E+00  0.8417E+00
     10.279  0.1364E+00  0.8528E+00
     10.360  0.1488E+00  0.8649E+00
     10.442  0.1739E+00  0.8791E+00
     10.523  0.1857E+00  0.8942E+00
     10.604  0.1596E+00  0.9072E+00
     10.686  0.1047E+00  0.9157E+00
     10.767  0.5394E-01  0.9201E+00
     10.848  0.3047E-01  0.9225E+00
     10.930  0.3592E-01  0.9255E+00
     11.011  0.5790E-01  0.9302E+00
     11.092  0.7824E-01  0.9365E+00
     11.174  0.8405E-01  0.9434E+00
     11.255  0.7670E-01  0.9496E+00
     11.336  0.6518E-01  0.9549E+00
     11.418  0.5442E-01  0.9593E+00
     11.499  0.4407E-01  0.9629E+00
     11.580  0.3268E-01  0.9656E+00
     11.662  0.2059E-01  0.9673E+00
     11.743  0.1031E-01  0.9681E+00
     11.824  0.3919E-02  0.9684E+00
     11.906  0.1104E-02  0.9685E+00
     11.987  0.2274E-03  0.9685E+00
     12.069  0.3408E-04  0.9685E+00
     12.150  0.3703E-05  0.9685E+00
     12.231  0.2913E-06  0.9685E+00
     12.313  0.1667E-07  0.9685E+00
     12.394  0.3907E-08  0.9685E+00
     12.475  0.7507E-07  0.9685E+00
     12.557  0.1262E-05  0.9685E+00
     12.638  0.1535E-04  0.9685E+00
     12.719  0.1351E-03  0.9685E+00
     12.801  0.8624E-03  0.9686E+00
     12.882  0.4002E-02  0.9689E+00
     12.963  0.1358E-01  0.9700E+00
     13.045  0.3405E-01  0.9728E+00
     13.126  0.6461E-01  0.9781E+00
     13.207  0.9646E-01  0.9859E+00
     13.289  0.1195E+00  0.9956E+00
     13.370  0.1283E+00  0.1006E+01
     13.452  0.1206E+00  0.1016E+01
     13.533  0.9948E-01  0.1024E+01
     13.614  0.7549E-01  0.1030E+01
     13.696  0.5617E-01  0.1035E+01
     13.777  0.4080E-01  0.1038E+01
     13.858  0.2930E-01  0.1040E+01
     13.940  0.2721E-01  0.1043E+01
     14.021  0.3791E-01  0.1046E+01
     14.102  0.5502E-01  0.1050E+01
     14.184  0.6540E-01  0.1055E+01
     14.265  0.6015E-01  0.1060E+01
     14.346  0.4229E-01  0.1064E+01
     14.428  0.2254E-01  0.1066E+01
     14.509  0.9026E-02  0.1066E+01
     14.590  0.2690E-02  0.1067E+01
     14.672  0.5918E-03  0.1067E+01
     14.753  0.9549E-04  0.1067E+01
     14.835  0.1125E-04  0.1067E+01
     14.916  0.9634E-06  0.1067E+01
     14.997  0.5988E-07  0.1067E+01
     15.079  0.2696E-08  0.1067E+01
     15.160  0.8781E-10  0.1067E+01
     15.241  0.2067E-11  0.1067E+01
     15.323  0.3513E-13  0.1067E+01
     15.404  0.4367E-15  0.1067E+01
     15.485  0.0000E+00  0.1067E+01
     15.567  0.0000E+00  0.1067E+01
     15.648  0.0000E+00  0.1067E+01
     15.729  0.0000E+00  0.1067E+01
     15.811  0.0000E+00  0.1067E+01
     15.892  0.0000E+00  0.1067E+01
     15.973  0.0000E+00  0.1067E+01
     16.055  0.0000E+00  0.1067E+01
     16.136  0.0000E+00  0.1067E+01
     16.217  0.0000E+00  0.1067E+01
