unknown system                          
   1.00000000000000     
     0.000000    2.734299    2.734299
     2.734299    0.000000    2.734299
     2.734299    2.734299   -0.000000
   Si
     2
Direct
  0.500000  0.500000  0.500000
  0.750000  0.750000  0.750000
 
   36   36   36
 0.85617901150E+00 0.87222390779E+00 0.92142635810E+00 0.10068495559E+01 0.11331876014E+01
 0.13062707662E+01 0.15325255122E+01 0.18183613387E+01 0.21692989612E+01 0.25885766203E+01
 0.30750916406E+01 0.36208777370E+01 0.42087737007E+01 0.48112683187E+01 0.53914490392E+01
 0.59064475273E+01 0.63129660069E+01 0.65737630434E+01 0.66636624342E+01 0.65737652010E+01
 0.63129642067E+01 0.59064385998E+01 0.53914383923E+01 0.48112644373E+01 0.42087787411E+01
 0.36208859566E+01 0.30750965801E+01 0.25885774443E+01 0.21692991620E+01 0.18183632296E+01
 0.15325278420E+01 0.13062712865E+01 0.11331862414E+01 0.10068482491E+01 0.92142642607E+00
 0.87222463830E+00 0.87222390779E+00 0.90018222297E+00 0.95785950568E+00 0.10485638920E+01
 0.11767639716E+01 0.13475893123E+01 0.15662573279E+01 0.18373863395E+01 0.21640632010E+01
 0.25465191671E+01 0.29804048912E+01 0.34549414084E+01 0.39515472020E+01 0.44437062515E+01
 0.48986692726E+01 0.52810560181E+01 0.55577663239E+01 0.57031306756E+01 0.57031311948E+01
 0.55577654446E+01 0.52810513778E+01 0.48986646681E+01 0.44437076533E+01 0.39515543069E+01
 0.34549479150E+01 0.29804068309E+01 0.25465187521E+01 0.21640638958E+01 0.18373878949E+01
 0.15662573540E+01 0.13475872522E+01 0.11767614803E+01 0.10485624185E+01 0.95785907432E+00
 0.90018221039E+00 0.87222393015E+00 0.92142635810E+00 0.95785950568E+00 0.10209874774E+01
 0.11141186813E+01 0.12413146214E+01 0.14068850683E+01 0.16147923962E+01 0.18679312790E+01
 0.21672069790E+01 0.25103628424E+01 0.28906453180E+01 0.32956124689E+01 0.37065847408E+01
 0.40992652651E+01 0.44458260736E+01 0.47183057042E+01 0.48926843256E+01 0.49527234646E+01
 0.48926836229E+01 0.47183042605E+01 0.44458257821E+01 0.40992682516E+01 0.37065892314E+01
 0.32956139262E+01 0.28906426372E+01 0.25103600395E+01 0.21672073392E+01 0.18679329701E+01
 0.16147918674E+01 0.14068822570E+01 0.12413123465E+01 0.11141184132E+01 0.10209880767E+01
 0.95785958216E+00 0.92142600659E+00 0.90953122038E+00 0.10068495559E+01 0.10485638920E+01
 0.11141186813E+01 0.12066752523E+01 0.13297900922E+01 0.14869096249E+01 0.16807760064E+01
 0.19127241049E+01 0.21818409429E+01 0.24840086828E+01 0.28109730833E+01 0.31497253264E+01
 0.34825703334E+01 0.37881977026E+01 0.40438410635E+01 0.42282637649E+01 0.43249820668E+01
 0.43249811772E+01 0.42282624648E+01 0.40438415956E+01 0.37881998291E+01 0.34825709164E+01
 0.31497221230E+01 0.28109681807E+01 0.24840064945E+01 0.21818428683E+01 0.19127270716E+01
 0.16807768103E+01 0.14869087511E+01 0.13297900586E+01 0.12066768112E+01 0.11141203733E+01
 0.10485644860E+01 0.10068493146E+01 0.98661975424E+00 0.98661996514E+00 0.11331876014E+01
 0.11767639716E+01 0.12413146214E+01 0.13297900922E+01 0.14452163453E+01 0.15902039750E+01
 0.17663886473E+01 0.19737980752E+01 0.22101511560E+01 0.24701478037E+01 0.27449020918E+01
 0.30217587079E+01 0.32847500167E+01 0.35158601568E+01 0.36970643120E+01 0.38128491023E+01
 0.38526867560E+01 0.38128478282E+01 0.36970640908E+01 0.35158611003E+01 0.32847491422E+01
 0.30217548761E+01 0.27448987979E+01 0.24701488577E+01 0.22101555617E+01 0.19738016361E+01
 0.17663895181E+01 0.15902041186E+01 0.14452178087E+01 0.13297922519E+01 0.12413157557E+01
 0.11767638052E+01 0.11331871449E+01 0.11081299792E+01 0.10999671007E+01 0.11081301307E+01
 0.13062707662E+01 0.13475893123E+01 0.14068850683E+01 0.14869096249E+01 0.15902039750E+01
 0.17186445589E+01 0.18729547845E+01 0.20521865417E+01 0.22531915816E+01 0.24701477591E+01
 0.26942759802E+01 0.29139368076E+01 0.31152840948E+01 0.32835583875E+01 0.34049308461E+01
 0.34685909423E+01 0.34685907323E+01 0.34049308053E+01 0.32835586086E+01 0.31152830756E+01
 0.29139343925E+01 0.26942751559E+01 0.24701507080E+01 0.22531957826E+01 0.20521878542E+01
 0.18729531122E+01 0.17186433619E+01 0.15902049409E+01 0.14869108905E+01 0.14068846723E+01
 0.13475877704E+01 0.13062696499E+01 0.12803858710E+01 0.12679775401E+01 0.12679774768E+01
 0.12803860939E+01 0.15325255122E+01 0.15662573279E+01 0.16147923962E+01 0.16807760064E+01
 0.17663886473E+01 0.18729547845E+01 0.20005568271E+01 0.21476555289E+01 0.23107324721E+01
 0.24840086756E+01 0.26593527082E+01 0.28265331182E+01 0.29739507798E+01 0.30898884978E+01
 0.31641456483E+01 0.31897292826E+01 0.31641461480E+01 0.30898883924E+01 0.29739490795E+01
 0.28265307234E+01 0.26593520465E+01 0.24840103529E+01 0.23107335834E+01 0.21476533138E+01
 0.20005528586E+01 0.18729529398E+01 0.17663896668E+01 0.16807769665E+01 0.16147913392E+01
 0.15662554670E+01 0.15325245429E+01 0.15108887117E+01 0.14989899424E+01 0.14952152018E+01
 0.14989899305E+01 0.15108888378E+01 0.18183613387E+01 0.18373863395E+01 0.18679312790E+01
 0.19127241049E+01 0.19737980752E+01 0.20521865417E+01 0.21476555289E+01 0.22584615729E+01
 0.23811395897E+01 0.25103629930E+01 0.26389754274E+01 0.27583323790E+01 0.28590621782E+01
 0.29322400217E+01 0.29707932384E+01 0.29707935141E+01 0.29322397304E+01 0.28590599994E+01
 0.27583294658E+01 0.26389740067E+01 0.25103627891E+01 0.23811379769E+01 0.22584578170E+01
 0.21476526587E+01 0.20521874675E+01 0.19738014325E+01 0.19127260477E+01 0.18679305121E+01
 0.18373850134E+01 0.18183612142E+01 0.18077995384E+01 0.18027548964E+01 0.18008845852E+01
 0.18008849352E+01 0.18027552206E+01 0.18077992316E+01 0.21692989612E+01 0.21640632010E+01
 0.21672069790E+01 0.21818409429E+01 0.22101511560E+01 0.22531915816E+01 0.23107324721E+01
 0.23811395897E+01 0.24612840457E+01 0.25465193346E+01 0.26308157054E+01 0.27071721765E+01
 0.27683781924E+01 0.28080639042E+01 0.28218192510E+01 0.28080635734E+01 0.27683767023E+01
 0.27071703405E+01 0.26308151961E+01 0.25465192973E+01 0.24612819959E+01 0.23811363024E+01
 0.23107323092E+01 0.22531964196E+01 0.22101571209E+01 0.21818432808E+01 0.21672057934E+01
 0.21640620616E+01 0.21692995606E+01 0.21791908978E+01 0.21898571473E+01 0.21978590008E+01
 0.22008118446E+01 0.21978601468E+01 0.21898577443E+01 0.21791901259E+01 0.25885766203E+01
 0.25465191671E+01 0.25103628424E+01 0.24840086828E+01 0.24701478037E+01 0.24701477591E+01
 0.24840086756E+01 0.25103629930E+01 0.25465193346E+01 0.25885766795E+01 0.26316748512E+01
 0.26704623780E+01 0.26998013847E+01 0.27156061643E+01 0.27156058139E+01 0.26998007039E+01
 0.26704624940E+01 0.26316763082E+01 0.25885774346E+01 0.25465167729E+01 0.25103589396E+01
 0.24840087767E+01 0.24701538252E+01 0.24701543978E+01 0.24840101420E+01 0.25103604249E+01
 0.25465179311E+01 0.25885780428E+01 0.26316762076E+01 0.26704617779E+01 0.26997998112E+01
 0.27156051150E+01 0.27156056378E+01 0.26998009075E+01 0.26704620429E+01 0.26316747413E+01
 0.30750916406E+01 0.29804048912E+01 0.28906453180E+01 0.28109730833E+01 0.27449020918E+01
 0.26942759802E+01 0.26593527082E+01 0.26389754274E+01 0.26308157054E+01 0.26316748512E+01
 0.26378542174E+01 0.26456205893E+01 0.26517491125E+01 0.26540498577E+01 0.26517482856E+01
 0.26456212423E+01 0.26378566569E+01 0.26316751164E+01 0.26308101301E+01 0.26389670991E+01
 0.26593496943E+01 0.26942814887E+01 0.27449099061E+01 0.28109756345E+01 0.28906430485E+01
 0.29804036464E+01 0.30750935200E+01 0.31681034082E+01 0.32518738001E+01 0.33187215755E+01
 0.33619292909E+01 0.33768806545E+01 0.33619291335E+01 0.33187220182E+01 0.32518737742E+01
 0.31681014702E+01 0.36208777370E+01 0.34549414084E+01 0.32956124689E+01 0.31497253264E+01
 0.30217587079E+01 0.29139368076E+01 0.28265331182E+01 0.27583323790E+01 0.27071721765E+01
 0.26704623780E+01 0.26456205893E+01 0.26304175978E+01 0.26232365466E+01 0.26232358880E+01
 0.26304176848E+01 0.26456227421E+01 0.26704616139E+01 0.27071627877E+01 0.27583182564E+01
 0.28265263619E+01 0.29139440002E+01 0.30217729247E+01 0.31497346957E+01 0.32956132455E+01
 0.34549388159E+01 0.36208765746E+01 0.37843988227E+01 0.39348369330E+01 0.40608738114E+01
 0.41519292828E+01 0.41997333001E+01 0.41997326335E+01 0.41519285420E+01 0.40608743691E+01
 0.39348377838E+01 0.37843990310E+01 0.42087737007E+01 0.39515472020E+01 0.37065847408E+01
 0.34825703334E+01 0.32847500167E+01 0.31152840948E+01 0.29739507798E+01 0.28590621782E+01
 0.27683781924E+01 0.26998013847E+01 0.26517491125E+01 0.26232365466E+01 0.26137780368E+01
 0.26232370704E+01 0.26517514132E+01 0.26998006076E+01 0.27683666585E+01 0.28590434657E+01
 0.29739416854E+01 0.31152965392E+01 0.32847761788E+01 0.34825910946E+01 0.37065892673E+01
 0.39515395640E+01 0.42087636279E+01 0.44662324700E+01 0.47092157362E+01 0.49215175045E+01
 0.50872298094E+01 0.51928017444E+01 0.52290731659E+01 0.51928005907E+01 0.50872284938E+01
 0.49215174815E+01 0.47092184880E+01 0.44662392321E+01 0.48112683187E+01 0.44437062515E+01
 0.40992652651E+01 0.37881977026E+01 0.35158601568E+01 0.32835583875E+01 0.30898884978E+01
 0.29322400217E+01 0.28080639042E+01 0.27156061643E+01 0.26540498577E+01 0.26232358880E+01
 0.26232370704E+01 0.26540530645E+01 0.27156063358E+01 0.28080519875E+01 0.29322180577E+01
 0.30898769340E+01 0.32835760489E+01 0.35158995359E+01 0.37882303646E+01 0.40992709397E+01
 0.44436889015E+01 0.48112454334E+01 0.51866648197E+01 0.55503667814E+01 0.58800325609E+01
 0.61528400335E+01 0.63481125899E+01 0.64500458934E+01 0.64500457127E+01 0.63481108640E+01
 0.61528359630E+01 0.58800293896E+01 0.55503706026E+01 0.51866797554E+01 0.53914490392E+01
 0.48986692726E+01 0.44458260736E+01 0.40438410635E+01 0.36970643120E+01 0.34049308461E+01
 0.31641456483E+01 0.29707932384E+01 0.28218192510E+01 0.27156058139E+01 0.26517482856E+01
 0.26304176848E+01 0.26517514132E+01 0.27156063358E+01 0.28218073894E+01 0.29707690863E+01
 0.31641306990E+01 0.34049502659E+01 0.36971137056E+01 0.40438840535E+01 0.44458312368E+01
 0.48986401939E+01 0.53914135424E+01 0.59060118040E+01 0.64177135944E+01 0.68971272833E+01
 0.73130175161E+01 0.76356447841E+01 0.78402683495E+01 0.79104093614E+01 0.78402698264E+01
 0.76356432720E+01 0.73130107615E+01 0.68971198313E+01 0.64177153560E+01 0.59060318094E+01
 0.59064475273E+01 0.52810560181E+01 0.47183057042E+01 0.42282637649E+01 0.38128491023E+01
 0.34685909423E+01 0.31897292826E+01 0.29707935141E+01 0.28080635734E+01 0.26998007039E+01
 0.26456212423E+01 0.26456227421E+01 0.26998006076E+01 0.28080519875E+01 0.29707690863E+01
 0.31897123818E+01 0.34686101086E+01 0.38129045320E+01 0.42283155594E+01 0.47183122253E+01
 0.52810178985E+01 0.59064021519E+01 0.65746886881E+01 0.72566019807E+01 0.79154639052E+01
 0.85106071595E+01 0.90014567655E+01 0.93518749850E+01 0.95344965369E+01 0.95344991084E+01
 0.93518801467E+01 0.90014589225E+01 0.85106019372E+01 0.79154533170E+01 0.72565988281E+01
 0.65747100628E+01 0.63129660069E+01 0.55577663239E+01 0.48926843256E+01 0.43249820668E+01
 0.38526867560E+01 0.34685907323E+01 0.31641461480E+01 0.29322397304E+01 0.27683767023E+01
 0.26704624940E+01 0.26378566569E+01 0.26704616139E+01 0.27683666585E+01 0.29322180577E+01
 0.31641306990E+01 0.34686101086E+01 0.38527449945E+01 0.43250401942E+01 0.48926943849E+01
 0.55577237354E+01 0.63129132321E+01 0.71389179783E+01 0.80036282073E+01 0.88640771490E+01
 0.96702184290E+01 0.10369592192E+02 0.10912382649E+02 0.11256874729E+02 0.11375016344E+02
 0.11256877503E+02 0.10912388968E+02 0.10369598964E+02 0.96702171854E+01 0.88640647982E+01
 0.80036208079E+01 0.71389407846E+01 0.65737630434E+01 0.57031306756E+01 0.49527234646E+01
 0.43249811772E+01 0.38128478282E+01 0.34049308053E+01 0.30898883924E+01 0.28590599994E+01
 0.27071703405E+01 0.26316763082E+01 0.26316751164E+01 0.27071627877E+01 0.28590434657E+01
 0.30898769340E+01 0.34049502659E+01 0.38129045320E+01 0.43250401942E+01 0.49527356190E+01
 0.57030862161E+01 0.65737041799E+01 0.75483009680E+01 0.85947195577E+01 0.96661539784E+01
 0.10704867872E+02 0.11647020035E+02 0.12427906636E+02 0.12988125490E+02 0.13281152655E+02
 0.13281148796E+02 0.12988119000E+02 0.12427906661E+02 0.11647026520E+02 0.10704867924E+02
 0.96661406014E+01 0.85947117867E+01 0.75483281072E+01 0.66636624342E+01 0.57031311948E+01
 0.48926836229E+01 0.42282624648E+01 0.36970640908E+01 0.32835586086E+01 0.29739490795E+01
 0.27583294658E+01 0.26308151961E+01 0.25885774346E+01 0.26308101301E+01 0.27583182564E+01
 0.29739416854E+01 0.32835760489E+01 0.36971137056E+01 0.42283155594E+01 0.48926943849E+01
 0.57030862161E+01 0.66635996166E+01 0.77636937041E+01 0.89745740524E+01 0.10249253402E+02
 0.11525750575E+02 0.12731552760E+02 0.13788175667E+02 0.14616859903E+02 0.15147211352E+02
 0.15329724225E+02 0.15147196145E+02 0.14616840342E+02 0.13788165746E+02 0.12731554079E+02
 0.11525748353E+02 0.10249239614E+02 0.89745692392E+01 0.77637264961E+01 0.65737652010E+01
 0.55577654446E+01 0.47183042605E+01 0.40438415956E+01 0.35158611003E+01 0.31152830756E+01
 0.28265307234E+01 0.26389740067E+01 0.25465192973E+01 0.25465167729E+01 0.26389670991E+01
 0.28265263619E+01 0.31152965392E+01 0.35158995359E+01 0.40438840535E+01 0.47183122253E+01
 0.55577237354E+01 0.65737041799E+01 0.77636937041E+01 0.91056307901E+01 0.10556501703E+02
 0.12054682777E+02 0.13523739980E+02 0.14875575759E+02 0.16011808992E+02 0.16831600462E+02
 0.17260706382E+02 0.17260699518E+02 0.16831580583E+02 0.16011783699E+02 0.14875559473E+02
 0.13523736441E+02 0.12054678059E+02 0.10556488558E+02 0.91056295662E+01 0.77637292500E+01
 0.63129642067E+01 0.52810513778E+01 0.44458257821E+01 0.37881998291E+01 0.32847491422E+01
 0.29139343925E+01 0.26593520465E+01 0.25103627891E+01 0.24612819959E+01 0.25103589396E+01
 0.26593496943E+01 0.29139440002E+01 0.32847761788E+01 0.37882303646E+01 0.44458312368E+01
 0.52810178985E+01 0.63129132321E+01 0.75483009680E+01 0.89745740524E+01 0.10556501703E+02
 0.12237476852E+02 0.13942735759E+02 0.15580861786E+02 0.17034078050E+02 0.18174678884E+02
 0.18902284619E+02 0.19152317780E+02 0.18902280932E+02 0.18174661931E+02 0.17034051020E+02
 0.15580842654E+02 0.13942731455E+02 0.12237473817E+02 0.10556492160E+02 0.89745754453E+01
 0.75483330045E+01 0.59064385998E+01 0.48986646681E+01 0.40992682516E+01 0.34825709164E+01
 0.30217548761E+01 0.26942751559E+01 0.24840103529E+01 0.23811379769E+01 0.23811363024E+01
 0.24840087767E+01 0.26942814887E+01 0.30217729247E+01 0.34825910946E+01 0.40992709397E+01
 0.48986401939E+01 0.59064021519E+01 0.71389179783E+01 0.85947195577E+01 0.10249253402E+02
 0.12054682777E+02 0.13942735759E+02 0.15825325989E+02 0.17574841325E+02 0.19041896482E+02
 0.20099991025E+02 0.20654844705E+02 0.20654848678E+02 0.20099989776E+02 0.19041873080E+02
 0.17574806269E+02 0.15825306385E+02 0.13942738719E+02 0.12054689385E+02 0.10249250816E+02
 0.85947207576E+01 0.71389403334E+01 0.53914383923E+01 0.44437076533E+01 0.37065892314E+01
 0.31497221230E+01 0.27448987979E+01 0.24701507080E+01 0.23107335834E+01 0.22584578170E+01
 0.23107323092E+01 0.24701538252E+01 0.27449099061E+01 0.31497346957E+01 0.37065892673E+01
 0.44436889015E+01 0.53914135424E+01 0.65746886881E+01 0.80036282073E+01 0.96661539784E+01
 0.11525750575E+02 0.13523739980E+02 0.15580861786E+02 0.17574841325E+02 0.19341870339E+02
 0.20732886772E+02 0.21624678453E+02 0.21932234759E+02 0.21624686678E+02 0.20732875346E+02
 0.19341828804E+02 0.17574798922E+02 0.15580852722E+02 0.13523761183E+02 0.11525770014E+02
 0.96661539828E+01 0.80036233178E+01 0.65746996462E+01 0.48112644373E+01 0.39515543069E+01
 0.32956139262E+01 0.28109681807E+01 0.24701488577E+01 0.22531957826E+01 0.21476533138E+01
 0.21476526587E+01 0.22531964196E+01 0.24701543978E+01 0.28109756345E+01 0.32956132455E+01
 0.39515395640E+01 0.48112454334E+01 0.59060118040E+01 0.72566019807E+01 0.88640771490E+01
 0.10704867872E+02 0.12731552760E+02 0.14875575759E+02 0.17034078050E+02 0.19041896482E+02
 0.20732886772E+02 0.21960357870E+02 0.22607567096E+02 0.22607578764E+02 0.21960369287E+02
 0.20732863179E+02 0.19041847040E+02 0.17034049545E+02 0.14875593690E+02 0.12731591319E+02
 0.10704885519E+02 0.88640654370E+01 0.72565868257E+01 0.59060159327E+01 0.42087787411E+01
 0.34549479150E+01 0.28906426372E+01 0.24840064945E+01 0.22101555617E+01 0.20521878542E+01
 0.20005528586E+01 0.20521874675E+01 0.22101571209E+01 0.24840101420E+01 0.28906430485E+01
 0.34549388159E+01 0.42087636279E+01 0.51866648197E+01 0.64177135944E+01 0.79154639052E+01
 0.96702184290E+01 0.11647020035E+02 0.13788175667E+02 0.16011808992E+02 0.18174678884E+02
 0.20099991025E+02 0.21624678453E+02 0.22607567096E+02 0.22947656551E+02 0.22607595909E+02
 0.21624692522E+02 0.20099967791E+02 0.18174650787E+02 0.16011818559E+02 0.13788217738E+02
 0.11647050068E+02 0.96702090855E+01 0.79154325819E+01 0.64176941632E+01 0.51866694079E+01
 0.36208859566E+01 0.29804068309E+01 0.25103600395E+01 0.21818428683E+01 0.19738016361E+01
 0.18729531122E+01 0.18729529398E+01 0.19738014325E+01 0.21818432808E+01 0.25103604249E+01
 0.29804036465E+01 0.36208765746E+01 0.44662324700E+01 0.55503667814E+01 0.68971272833E+01
 0.85106071595E+01 0.10369592192E+02 0.12427906636E+02 0.14616859903E+02 0.16831600462E+02
 0.18902284619E+02 0.20654844705E+02 0.21932234759E+02 0.22607578764E+02 0.22607595909E+02
 0.21932263998E+02 0.20654853799E+02 0.18902280514E+02 0.16831616824E+02 0.14616902552E+02
 0.12427939423E+02 0.10369582673E+02 0.85105658418E+01 0.68970910346E+01 0.55503568058E+01
 0.44662408048E+01 0.30750965801E+01 0.25465187521E+01 0.21672073392E+01 0.19127270716E+01
 0.17663895181E+01 0.17186433619E+01 0.17663896668E+01 0.19127260477E+01 0.21672057934E+01
 0.25465179311E+01 0.30750935200E+01 0.37843988227E+01 0.47092157362E+01 0.58800325609E+01
 0.73130175161E+01 0.90014567655E+01 0.10912382649E+02 0.12988125490E+02 0.15147211352E+02
 0.17260706382E+02 0.19152317780E+02 0.20654848678E+02 0.21624686678E+02 0.21960369287E+02
 0.21624692522E+02 0.20654853799E+02 0.19152328599E+02 0.17260739650E+02 0.15147263346E+02
 0.12988161469E+02 0.10912371836E+02 0.90014091195E+01 0.73129724758E+01 0.58800162784E+01
 0.47092216944E+01 0.37844075156E+01 0.25885774443E+01 0.21640638958E+01 0.18679329701E+01
 0.16807768103E+01 0.15902041186E+01 0.15902049409E+01 0.16807769665E+01 0.18679305121E+01
 0.21640620616E+01 0.25885780428E+01 0.31681034082E+01 0.39348369330E+01 0.49215175045E+01
 0.61528400335E+01 0.76356447841E+01 0.93518749850E+01 0.11256874729E+02 0.13281152655E+02
 0.15329724225E+02 0.17260699518E+02 0.18902280932E+02 0.20099989776E+02 0.20732875346E+02
 0.20732863179E+02 0.20099967791E+02 0.18902280514E+02 0.17260739650E+02 0.15329787935E+02
 0.13281195636E+02 0.11256864948E+02 0.93518241868E+01 0.76355957464E+01 0.61528234395E+01
 0.49215278034E+01 0.39348500199E+01 0.31681069852E+01 0.21692991620E+01 0.18373878949E+01
 0.16147918674E+01 0.14869087511E+01 0.14452178087E+01 0.14869108905E+01 0.16147913392E+01
 0.18373850134E+01 0.21692995606E+01 0.26316762076E+01 0.32518738001E+01 0.40608738114E+01
 0.50872298094E+01 0.63481125899E+01 0.78402683495E+01 0.95344965369E+01 0.11375016344E+02
 0.13281148796E+02 0.15147196145E+02 0.16831580583E+02 0.18174661931E+02 0.19041873080E+02
 0.19341828804E+02 0.19041847040E+02 0.18174650787E+02 0.16831616824E+02 0.15147263346E+02
 0.13281195636E+02 0.11375007163E+02 0.95344436357E+01 0.78402162250E+01 0.63480950638E+01
 0.50872441486E+01 0.40608936279E+01 0.32518807769E+01 0.26316739298E+01 0.18183632296E+01
 0.15662573540E+01 0.14068822570E+01 0.13297900586E+01 0.13297922519E+01 0.14068846723E+01
 0.15662554670E+01 0.18183612142E+01 0.21791908978E+01 0.26704617779E+01 0.33187215755E+01
 0.41519292828E+01 0.51928017444E+01 0.64500458934E+01 0.79104093614E+01 0.95344991084E+01
 0.11256877503E+02 0.12988119000E+02 0.14616840342E+02 0.16011783699E+02 0.17034051020E+02
 0.17574806269E+02 0.17574798922E+02 0.17034049545E+02 0.16011818559E+02 0.14616902552E+02
 0.12988161469E+02 0.11256864948E+02 0.95344436357E+01 0.79103547616E+01 0.64500258418E+01
 0.51928158421E+01 0.41519528109E+01 0.33187328814E+01 0.26704597846E+01 0.21791878139E+01
 0.15325278420E+01 0.13475872522E+01 0.12413123465E+01 0.12066768112E+01 0.12413157557E+01
 0.13475877704E+01 0.15325245429E+01 0.18077995384E+01 0.21898571473E+01 0.26997998112E+01
 0.33619292909E+01 0.41997333001E+01 0.52290731659E+01 0.64500457127E+01 0.78402698264E+01
 0.93518801467E+01 0.10912388968E+02 0.12427906661E+02 0.13788165746E+02 0.14875559473E+02
 0.15580842654E+02 0.15825306385E+02 0.15580852722E+02 0.14875593690E+02 0.13788217738E+02
 0.12427939423E+02 0.10912371836E+02 0.93518241868E+01 0.78402162250E+01 0.64500258418E+01
 0.52290865942E+01 0.41997578254E+01 0.33619439600E+01 0.26998000780E+01 0.21898528933E+01
 0.18078000462E+01 0.13062712865E+01 0.11767614803E+01 0.11141184132E+01 0.11141203733E+01
 0.11767638052E+01 0.13062696499E+01 0.15108887117E+01 0.18027548964E+01 0.21978590008E+01
 0.27156051150E+01 0.33768806545E+01 0.41997326335E+01 0.51928005907E+01 0.63481108640E+01
 0.76356432720E+01 0.90014589225E+01 0.10369598964E+02 0.11647026520E+02 0.12731554079E+02
 0.13523736441E+02 0.13942731455E+02 0.13942738719E+02 0.13523761183E+02 0.12731591319E+02
 0.11647050068E+02 0.10369582673E+02 0.90014091195E+01 0.76355957464E+01 0.63480950638E+01
 0.51928158421E+01 0.41997578254E+01 0.33768968829E+01 0.27156075997E+01 0.21978549296E+01
 0.18027534590E+01 0.15108915431E+01 0.11331862414E+01 0.10485624185E+01 0.10209880767E+01
 0.10485644860E+01 0.11331871449E+01 0.12803858710E+01 0.14989899424E+01 0.18008845852E+01
 0.22008118446E+01 0.27156056378E+01 0.33619291335E+01 0.41519285420E+01 0.50872284938E+01
 0.61528359630E+01 0.73130107615E+01 0.85106019372E+01 0.96702171854E+01 0.10704867924E+02
 0.11525748353E+02 0.12054678059E+02 0.12237473817E+02 0.12054689385E+02 0.11525770014E+02
 0.10704885519E+02 0.96702090855E+01 0.85105658418E+01 0.73129724758E+01 0.61528234395E+01
 0.50872441486E+01 0.41519528109E+01 0.33619439600E+01 0.27156075997E+01 0.22008075925E+01
 0.18008813928E+01 0.14989902612E+01 0.12803871196E+01 0.10068482491E+01 0.95785907432E+00
 0.95785958216E+00 0.10068493146E+01 0.11081299792E+01 0.12679775401E+01 0.14952152018E+01
 0.18008849352E+01 0.21978601468E+01 0.26998009075E+01 0.33187220182E+01 0.40608743691E+01
 0.49215174815E+01 0.58800293896E+01 0.68971198313E+01 0.79154533170E+01 0.88640647982E+01
 0.96661406014E+01 0.10249239614E+02 0.10556488558E+02 0.10556492160E+02 0.10249250816E+02
 0.96661539828E+01 0.88640654370E+01 0.79154325819E+01 0.68970910346E+01 0.58800162784E+01
 0.49215278034E+01 0.40608936279E+01 0.33187328814E+01 0.26998000780E+01 0.21978549296E+01
 0.18008813928E+01 0.14952139865E+01 0.12679770235E+01 0.11081291314E+01 0.92142642607E+00
 0.90018221039E+00 0.92142600659E+00 0.98661975424E+00 0.10999671007E+01 0.12679774768E+01
 0.14989899305E+01 0.18027552206E+01 0.21898577443E+01 0.26704620429E+01 0.32518737742E+01
 0.39348377838E+01 0.47092184880E+01 0.55503706026E+01 0.64177153560E+01 0.72565988281E+01
 0.80036208079E+01 0.85947117867E+01 0.89745692392E+01 0.91056295662E+01 0.89745754453E+01
 0.85947207576E+01 0.80036233178E+01 0.72565868257E+01 0.64176941632E+01 0.55503568058E+01
 0.47092216944E+01 0.39348500199E+01 0.32518807769E+01 0.26704597846E+01 0.21898528933E+01
 0.18027534590E+01 0.14989902612E+01 0.12679770235E+01 0.10999659245E+01 0.98661940113E+00
 0.87222463830E+00 0.87222393015E+00 0.90953122038E+00 0.98661996514E+00 0.11081301307E+01
 0.12803860939E+01 0.15108888378E+01 0.18077992316E+01 0.21791901259E+01 0.26316747413E+01
 0.31681014702E+01 0.37843990310E+01 0.44662392321E+01 0.51866797554E+01 0.59060318094E+01
 0.65747100628E+01 0.71389407846E+01 0.75483281072E+01 0.77637264961E+01 0.77637292500E+01
 0.75483330045E+01 0.71389403334E+01 0.65746996462E+01 0.59060159327E+01 0.51866694079E+01
 0.44662408048E+01 0.37844075156E+01 0.31681069852E+01 0.26316739298E+01 0.21791878139E+01
 0.18078000462E+01 0.15108915431E+01 0.12803871196E+01 0.11081291314E+01 0.98661940113E+00
 0.90953210356E+00 0.87222400632E+00 0.90018223020E+00 0.95785955695E+00 0.10485639769E+01
 0.11767639761E+01 0.13475892430E+01 0.15662572980E+01 0.18373863604E+01 0.21640631953E+01
 0.25465191609E+01 0.29804049748E+01 0.34549415134E+01 0.39515471172E+01 0.44437058511E+01
 0.48986685627E+01 0.52810550295E+01 0.55577652006E+01 0.57031298322E+01 0.57031311109E+01
 0.55577662214E+01 0.52810526209E+01 0.48986657729E+01 0.44437080732E+01 0.39515536937E+01
 0.34549463316E+01 0.29804048727E+01 0.25465172254E+01 0.21640632844E+01 0.18373882070E+01
 0.15662583651E+01 0.13475886606E+01 0.11767628964E+01 0.10485635040E+01 0.95785976599E+00
 0.90018265116E+00 0.87222420235E+00 0.90018223020E+00 0.93602233648E+00 0.99806258472E+00
 0.10895006233E+01 0.12143057622E+01 0.13767477103E+01 0.15808116059E+01 0.18294607487E+01
 0.21236815241E+01 0.24612838896E+01 0.28355673284E+01 0.32341663500E+01 0.36385627465E+01
 0.40247620459E+01 0.43653934350E+01 0.46330543409E+01 0.48042723599E+01 0.48632095461E+01
 0.48042727522E+01 0.46330537772E+01 0.43653926944E+01 0.40247637632E+01 0.36385669720E+01
 0.32341698069E+01 0.28355682357E+01 0.24612843784E+01 0.21236836697E+01 0.18294629756E+01
 0.15808111733E+01 0.13767448348E+01 0.12143030568E+01 0.10894995439E+01 0.99806235460E+00
 0.93602189866E+00 0.90018169216E+00 0.88847360785E+00 0.95785955695E+00 0.99806258472E+00
 0.10611078278E+01 0.11499755391E+01 0.12681165689E+01 0.14189881503E+01 0.16054506101E+01
 0.18290095962E+01 0.20889086134E+01 0.23811395250E+01 0.26975434717E+01 0.30252848981E+01
 0.33470313886E+01 0.36420952604E+01 0.38885678395E+01 0.40661649238E+01 0.41592298807E+01
 0.41592290278E+01 0.40661631472E+01 0.38885668449E+01 0.36420960451E+01 0.33470330828E+01
 0.30252858543E+01 0.26975435575E+01 0.23811401986E+01 0.20889103091E+01 0.18290104307E+01
 0.16054487561E+01 0.14189844863E+01 0.12681136781E+01 0.11499746489E+01 0.10611079519E+01
 0.99806238682E+00 0.95785891591E+00 0.93832748412E+00 0.93832783789E+00 0.10485639769E+01
 0.10895006233E+01 0.11499755391E+01 0.12327626120E+01 0.13408521246E+01 0.14769783013E+01
 0.16430101647E+01 0.18392252019E+01 0.20635281493E+01 0.23107324895E+01 0.25720787568E+01
 0.28351964163E+01 0.30846940883E+01 0.33034655541E+01 0.34746295212E+01 0.35838166869E+01
 0.36213499698E+01 0.35838146008E+01 0.34746279235E+01 0.33034657429E+01 0.30846945154E+01
 0.28351956249E+01 0.25720777861E+01 0.23107329478E+01 0.20635293544E+01 0.18392250341E+01
 0.16430081553E+01 0.14769762287E+01 0.13408515736E+01 0.12327632653E+01 0.11499761835E+01
 0.10895007953E+01 0.10485640058E+01 0.10249519184E+01 0.10172440892E+01 0.10249518342E+01
 0.11767639761E+01 0.12143057622E+01 0.12681165689E+01 0.13408521246E+01 0.14351391734E+01
 0.15530974456E+01 0.16957607123E+01 0.18624471083E+01 0.20501677056E+01 0.22531915792E+01
 0.24629010478E+01 0.26680622625E+01 0.28555945216E+01 0.30118425001E+01 0.31242364947E+01
 0.31830793048E+01 0.31830788411E+01 0.31242361755E+01 0.30118433876E+01 0.28555953760E+01
 0.26680616777E+01 0.24629001769E+01 0.22531922382E+01 0.20501690741E+01 0.18624469863E+01
 0.16957592814E+01 0.15530971258E+01 0.14351409081E+01 0.13408541398E+01 0.12681171141E+01
 0.12143052262E+01 0.11767637109E+01 0.11531746280E+01 0.11418316401E+01 0.11418313647E+01
 0.11531742715E+01 0.13475892430E+01 0.13767477103E+01 0.14189881503E+01 0.14769783013E+01
 0.15530974456E+01 0.16489796723E+01 0.17650178412E+01 0.18998871735E+01 0.20501677028E+01
 0.22101511225E+01 0.23719158682E+01 0.25257418208E+01 0.26609049840E+01 0.27668315959E+01
 0.28344890810E+01 0.28577638693E+01 0.28344903551E+01 0.27668334089E+01 0.26609059804E+01
 0.25257414334E+01 0.23719153641E+01 0.22101518431E+01 0.20501687972E+01 0.18998869110E+01
 0.17650166975E+01 0.16489798547E+01 0.15530993774E+01 0.14769798537E+01 0.14189877540E+01
 0.13767462297E+01 0.13475882103E+01 0.13289498108E+01 0.13187077116E+01 0.13154575838E+01
 0.13187077314E+01 0.13289501000E+01 0.15662572980E+01 0.15808116059E+01 0.16054506101E+01
 0.16430101647E+01 0.16957607123E+01 0.17650178412E+01 0.18507785456E+01 0.19514229686E+01
 0.20635281430E+01 0.21818409697E+01 0.22994631015E+01 0.24083035679E+01 0.24998340986E+01
 0.25661164085E+01 0.26009606783E+01 0.26009614833E+01 0.25661176380E+01 0.24998338758E+01
 0.24083019794E+01 0.22994620204E+01 0.21818413064E+01 0.20635286238E+01 0.19514223109E+01
 0.18507776144E+01 0.17650182829E+01 0.16957621752E+01 0.16430106095E+01 0.16054492621E+01
 0.15808098646E+01 0.15662564216E+01 0.15587822497E+01 0.15556156899E+01 0.15546174778E+01
 0.15546178639E+01 0.15556163260E+01 0.15587826755E+01 0.18373863604E+01 0.18294607487E+01
 0.18290095962E+01 0.18392252019E+01 0.18624471083E+01 0.18998871735E+01 0.19514229686E+01
 0.20154644957E+01 0.20889086178E+01 0.21672070735E+01 0.22445960917E+01 0.23145493616E+01
 0.23704866697E+01 0.24066840625E+01 0.24192165665E+01 0.24066836734E+01 0.23704849061E+01
 0.23145467188E+01 0.22445945806E+01 0.21672073024E+01 0.20889090237E+01 0.20154641944E+01
 0.19514232596E+01 0.18998890751E+01 0.18624492021E+01 0.18392254756E+01 0.18290082538E+01
 0.18294596401E+01 0.18373862819E+01 0.18490957498E+01 0.18608498936E+01 0.18693979037E+01
 0.18725123857E+01 0.18693988016E+01 0.18608506237E+01 0.18490957375E+01 0.21640631953E+01
 0.21236815241E+01 0.20889086134E+01 0.20635281493E+01 0.20501677056E+01 0.20501677028E+01
 0.20635281430E+01 0.20889086178E+01 0.21236815630E+01 0.21640632655E+01 0.22053766364E+01
 0.22425074696E+01 0.22705671706E+01 0.22856749502E+01 0.22856741341E+01 0.22705650442E+01
 0.22425052786E+01 0.22053759082E+01 0.21640638910E+01 0.21236819954E+01 0.20889087897E+01
 0.20635300615E+01 0.20501718720E+01 0.20501712958E+01 0.20635286228E+01 0.20889071894E+01
 0.21236809659E+01 0.21640638560E+01 0.22053768475E+01 0.22425068126E+01 0.22705666642E+01
 0.22856754455E+01 0.22856757940E+01 0.22705675855E+01 0.22425075861E+01 0.22053765995E+01
 0.25465191609E+01 0.24612838896E+01 0.23811395250E+01 0.23107324895E+01 0.22531915792E+01
 0.22101511225E+01 0.21818409697E+01 0.21672070735E+01 0.21640632655E+01 0.21692989671E+01