 running on    8 total cores
 distrk:  each k-point on    8 cores,    1 groups
 distr:  one band on    1 cores,    8 groups
 using from now: INCAR     
 vasp.5.4.4.18Apr17-6-g9f103f2a35 (build Dec 09 2018 21:25:21) complex          
  
 POSCAR found type information on POSCAR  Si
 POSCAR found :  1 types and       2 ions
 scaLAPACK will be used

 ----------------------------------------------------------------------------- 
|                                                                             |
|           W    W    AA    RRRRR   N    N  II  N    N   GGGG   !!!           |
|           W    W   A  A   R    R  NN   N  II  NN   N  G    G  !!!           |
|           W    W  A    A  R    R  N N  N  II  N N  N  G       !!!           |
|           W WW W  AAAAAA  RRRRR   N  N N  II  N  N N  G  GGG   !            |
|           WW  WW  A    A  R   R   N   NN  II  N   NN  G    G                |
|           W    W  A    A  R    R  N    N  II  N    N   GGGG   !!!           |
|                                                                             |
|      For optimal performance we recommend to set                            |
|        NCORE= 4 - approx SQRT( number of cores)                             |
|      NCORE specifies how many cores store one orbital (NPAR=cpu/NCORE).     |
|      This setting can  greatly improve the performance of VASP for DFT.     |
|      The default,   NCORE=1            might be grossly inefficient         |
|      on modern multi-core architectures or massively parallel machines.     |
|      Do your own testing !!!!                                               |
|      Unfortunately you need to use the default for GW and RPA calculations. |
|      (for HF NCORE is supported but not extensively tested yet)             |
|                                                                             |
 ----------------------------------------------------------------------------- 

 LDA part: xc-table for Pade appr. of Perdew
 POSCAR, INCAR and KPOINTS ok, starting setup
 FFT: planning ...
 WAVECAR not read
 entering main loop
       N       E                     dE             d eps       ncg     rms          rms(c)
DAV:   1     0.412922907449E+01    0.41292E+01   -0.27643E+03  1776   0.588E+02
DAV:   2    -0.108486881786E+02   -0.14978E+02   -0.14406E+02  2776   0.727E+01
DAV:   3    -0.110220410577E+02   -0.17335E+00   -0.17335E+00  2160   0.102E+01
DAV:   4    -0.110227179891E+02   -0.67693E-03   -0.67693E-03  2928   0.700E-01
DAV:   5    -0.110227183406E+02   -0.35145E-06   -0.35141E-06  2176   0.141E-02    0.301E+00
DAV:   6    -0.108979955867E+02    0.12472E+00   -0.82598E-02  2136   0.150E+00    0.178E+00
DAV:   7    -0.108411365007E+02    0.56859E-01   -0.15158E-01  2256   0.216E+00    0.154E-01
DAV:   8    -0.108424546871E+02   -0.13182E-02   -0.41567E-03  2056   0.481E-01    0.250E-02
DAV:   9    -0.108425467971E+02   -0.92110E-04   -0.96499E-05  1480   0.809E-02
   1 F= -.10842547E+02 E0= -.10842517E+02  d E =-.108425E+02
 curvature:   0.00 expect dE= 0.000E+00 dE for cont linesearch  0.000E+00
 trial: gam= 0.00000 g(F)=  0.240E-45 g(S)=  0.172E-01 ort = 0.000E+00 (trialstep = 0.100E+01)
 search vector abs. value=  0.172E-01
 bond charge predicted
       N       E                     dE             d eps       ncg     rms          rms(c)
DAV:   1    -0.108519250201E+02   -0.94703E-02   -0.26264E-01  2224   0.287E+00    0.324E-01
DAV:   2    -0.108474790914E+02    0.44459E-02   -0.37285E-03  2376   0.406E-01    0.186E-01
DAV:   3    -0.108451430882E+02    0.23360E-02   -0.47412E-03  2184   0.347E-01    0.234E-02
DAV:   4    -0.108451323964E+02    0.10692E-04   -0.52837E-05  1064   0.661E-02
   2 F= -.10845132E+02 E0= -.10845116E+02  d E =-.258560E-02
 trial-energy change:   -0.002586  1 .order   -0.002961   -0.017244    0.011322
 step:   0.6037(harm=  0.6037)  dis= 0.00000  next Energy=   -10.847752 (dE=-0.520E-02)
 bond charge predicted
       N       E                     dE             d eps       ncg     rms          rms(c)
DAV:   1    -0.108485556886E+02   -0.34126E-02   -0.42255E-02  2152   0.116E+00    0.131E-01
DAV:   2    -0.108478480597E+02    0.70763E-03   -0.59235E-04  2296   0.162E-01    0.750E-02
DAV:   3    -0.108474841618E+02    0.36390E-03   -0.74488E-04  1352   0.139E-01
   3 F= -.10847484E+02 E0= -.10847464E+02  d E =-.493736E-02
 curvature:  -0.30 expect dE=-0.423E-05 dE for cont linesearch -0.423E-05
 trial: gam= 0.00000 g(F)=  0.329E-45 g(S)=  0.140E-04 ort =-0.492E-03 (trialstep = 0.921E+00)
 search vector abs. value=  0.140E-04
 reached required accuracy - stopping structural energy minimisation
 writing wavefunctions
