<?xml version="1.0" encoding="ISO-8859-1"?>
<modeling>
 <generator>
  <i name="program" type="string">vasp </i>
  <i name="version" type="string">5.4.4.18Apr17-6-g9f103f2a35  </i>
  <i name="subversion" type="string">(build Dec 09 2018 21:25:21) complex            parallel </i>
  <i name="platform" type="string">IFC18.0.1.163_CrayMPICH7.7.0_MKL18.0.1.163 </i>
  <i name="date" type="string">2019 03 19 </i>
  <i name="time" type="string">13:30:20 </i>
 </generator>
 <incar>
  <i type="string" name="PREC">normal</i>
  <i type="int" name="IBRION">     2</i>
  <i name="EDIFF">      0.00040000</i>
  <i name="EDIFFG">     -0.01000000</i>
  <i type="int" name="NSW">    15</i>
  <i type="int" name="ISIF">     2</i>
  <i name="ENCUT">    200.00000000</i>
  <i type="int" name="NBANDS">     8</i>
  <i type="logical" name="LREAL"> F  </i>
  <i type="int" name="ISMEAR">     0</i>
  <i name="SIGMA">      0.20000000</i>
  <v type="int" name="KPOINT_BSE">    -1     0     0     0</v>
 </incar>
 <structure name="primitive_cell" >
  <crystal>
   <varray name="basis" >
    <v>       0.00000000       2.71500000       2.71500000 </v>
    <v>       2.71500000       0.00000000       2.71500000 </v>
    <v>       2.71500000       2.71500000       0.00000000 </v>
   </varray>
   <i name="volume">     40.02575175 </i>
   <varray name="rec_basis" >
    <v>      -0.18416206       0.18416206       0.18416206 </v>
    <v>       0.18416206      -0.18416206       0.18416206 </v>
    <v>       0.18416206       0.18416206      -0.18416206 </v>
   </varray>
  </crystal>
  <varray name="positions" >
   <v>      -0.50000000      -0.50000000      -0.50000000 </v>
   <v>      -0.25000000      -0.25000000      -0.25000000 </v>
  </varray>
 </structure>
 <varray name="primitive_index" >
  <v type="int" >        1 </v>
  <v type="int" >        2 </v>
 </varray>
 <kpoints>
  <generation param="Monkhorst-Pack">
   <v type="int" name="divisions">       8        8        8 </v>
   <v name="usershift">      0.00000000       0.00000000       0.00000000 </v>
   <v name="genvec1">      0.12500000       0.00000000      -0.00000000 </v>
   <v name="genvec2">      0.00000000       0.12500000       0.00000000 </v>
   <v name="genvec3">     -0.00000000      -0.00000000       0.12500000 </v>
   <v name="shift">      0.50000000       0.50000000       0.50000000 </v>
  </generation>
  <varray name="kpointlist" >
   <v>       0.06250000       0.06250000       0.06250000 </v>
   <v>       0.18750000       0.06250000       0.06250000 </v>
   <v>       0.31250000       0.06250000       0.06250000 </v>
   <v>       0.43750000       0.06250000       0.06250000 </v>
   <v>      -0.43750000       0.06250000       0.06250000 </v>
   <v>      -0.31250000       0.06250000       0.06250000 </v>
   <v>      -0.18750000       0.06250000       0.06250000 </v>
   <v>      -0.06250000       0.06250000       0.06250000 </v>
   <v>       0.18750000       0.18750000       0.06250000 </v>
   <v>       0.31250000       0.18750000       0.06250000 </v>
   <v>       0.43750000       0.18750000       0.06250000 </v>
   <v>      -0.43750000       0.18750000       0.06250000 </v>
   <v>      -0.31250000       0.18750000       0.06250000 </v>
   <v>      -0.18750000       0.18750000       0.06250000 </v>
   <v>      -0.06250000       0.18750000       0.06250000 </v>
   <v>       0.31250000       0.31250000       0.06250000 </v>
   <v>       0.43750000       0.31250000       0.06250000 </v>
   <v>      -0.43750000       0.31250000       0.06250000 </v>
   <v>      -0.31250000       0.31250000       0.06250000 </v>
   <v>      -0.18750000       0.31250000       0.06250000 </v>
   <v>      -0.06250000       0.31250000       0.06250000 </v>
   <v>       0.43750000       0.43750000       0.06250000 </v>
   <v>      -0.43750000       0.43750000       0.06250000 </v>
   <v>      -0.31250000       0.43750000       0.06250000 </v>
   <v>      -0.18750000       0.43750000       0.06250000 </v>
   <v>      -0.06250000       0.43750000       0.06250000 </v>
   <v>      -0.43750000      -0.43750000       0.06250000 </v>
   <v>      -0.31250000      -0.43750000       0.06250000 </v>
   <v>      -0.18750000      -0.43750000       0.06250000 </v>
   <v>      -0.31250000      -0.31250000       0.06250000 </v>
   <v>      -0.18750000      -0.31250000       0.06250000 </v>
   <v>      -0.18750000      -0.18750000       0.06250000 </v>
   <v>       0.18750000       0.18750000       0.18750000 </v>
   <v>       0.31250000       0.18750000       0.18750000 </v>
   <v>       0.43750000       0.18750000       0.18750000 </v>
   <v>      -0.43750000       0.18750000       0.18750000 </v>
   <v>      -0.31250000       0.18750000       0.18750000 </v>
   <v>      -0.18750000       0.18750000       0.18750000 </v>
   <v>       0.31250000       0.31250000       0.18750000 </v>
   <v>       0.43750000       0.31250000       0.18750000 </v>
   <v>      -0.43750000       0.31250000       0.18750000 </v>
   <v>      -0.31250000       0.31250000       0.18750000 </v>
   <v>      -0.18750000       0.31250000       0.18750000 </v>
   <v>       0.43750000       0.43750000       0.18750000 </v>
   <v>      -0.43750000       0.43750000       0.18750000 </v>
   <v>      -0.31250000       0.43750000       0.18750000 </v>
   <v>      -0.18750000       0.43750000       0.18750000 </v>
   <v>      -0.43750000      -0.43750000       0.18750000 </v>
   <v>      -0.31250000      -0.43750000       0.18750000 </v>
   <v>      -0.31250000      -0.31250000       0.18750000 </v>
   <v>       0.31250000       0.31250000       0.31250000 </v>
   <v>       0.43750000       0.31250000       0.31250000 </v>
   <v>      -0.43750000       0.31250000       0.31250000 </v>
   <v>      -0.31250000       0.31250000       0.31250000 </v>
   <v>       0.43750000       0.43750000       0.31250000 </v>
   <v>      -0.43750000       0.43750000       0.31250000 </v>
   <v>      -0.31250000       0.43750000       0.31250000 </v>
   <v>      -0.43750000      -0.43750000       0.31250000 </v>
   <v>       0.43750000       0.43750000       0.43750000 </v>
   <v>      -0.43750000       0.43750000       0.43750000 </v>
  </varray>
  <varray name="weights" >
   <v>       0.00390625 </v>
   <v>       0.01171875 </v>
   <v>       0.01171875 </v>
   <v>       0.01171875 </v>
   <v>       0.01171875 </v>
   <v>       0.01171875 </v>
   <v>       0.01171875 </v>
   <v>       0.01171875 </v>
   <v>       0.01171875 </v>
   <v>       0.02343750 </v>
   <v>       0.02343750 </v>
   <v>       0.02343750 </v>
   <v>       0.02343750 </v>
   <v>       0.02343750 </v>
   <v>       0.02343750 </v>
   <v>       0.01171875 </v>
   <v>       0.02343750 </v>
   <v>       0.02343750 </v>
   <v>       0.02343750 </v>
   <v>       0.02343750 </v>
   <v>       0.02343750 </v>
   <v>       0.01171875 </v>
   <v>       0.02343750 </v>
   <v>       0.02343750 </v>
   <v>       0.02343750 </v>
   <v>       0.02343750 </v>
   <v>       0.01171875 </v>
   <v>       0.02343750 </v>
   <v>       0.02343750 </v>
   <v>       0.01171875 </v>
   <v>       0.02343750 </v>
   <v>       0.01171875 </v>
   <v>       0.00390625 </v>
   <v>       0.01171875 </v>
   <v>       0.01171875 </v>
   <v>       0.01171875 </v>
   <v>       0.01171875 </v>
   <v>       0.01171875 </v>
   <v>       0.01171875 </v>
   <v>       0.02343750 </v>
   <v>       0.02343750 </v>
   <v>       0.02343750 </v>
   <v>       0.02343750 </v>
   <v>       0.01171875 </v>
   <v>       0.02343750 </v>
   <v>       0.02343750 </v>
   <v>       0.02343750 </v>
   <v>       0.01171875 </v>
   <v>       0.02343750 </v>
   <v>       0.01171875 </v>
   <v>       0.00390625 </v>
   <v>       0.01171875 </v>
   <v>       0.01171875 </v>
   <v>       0.01171875 </v>
   <v>       0.01171875 </v>
   <v>       0.02343750 </v>
   <v>       0.02343750 </v>
   <v>       0.01171875 </v>
   <v>       0.00390625 </v>
   <v>       0.01171875 </v>
  </varray>
 </kpoints>
 <parameters>
  <separator name="general" >
   <i type="string" name="SYSTEM">unknown system</i>
   <i type="logical" name="LCOMPAT"> F  </i>
  </separator>
  <separator name="electronic" >
   <i type="string" name="PREC">normal</i>
   <i name="ENMAX">    200.00000000</i>
   <i name="ENAUG">    322.06900000</i>
   <i name="EDIFF">      0.00040000</i>
   <i type="int" name="IALGO">    38</i>
   <i type="int" name="IWAVPR">    11</i>
   <i type="int" name="NBANDS">     8</i>
   <i name="NELECT">      8.00000000</i>
   <i type="int" name="TURBO">     0</i>
   <i type="int" name="IRESTART">     0</i>
   <i type="int" name="NREBOOT">     0</i>
   <i type="int" name="NMIN">     0</i>
   <i name="EREF">      0.00000000</i>
   <separator name="electronic smearing" >
    <i type="int" name="ISMEAR">     0</i>
    <i name="SIGMA">      0.20000000</i>
    <i name="KSPACING">      0.50000000</i>
    <i type="logical" name="KGAMMA"> T  </i>
   </separator>
   <separator name="electronic projectors" >
    <i type="logical" name="LREAL"> F  </i>
    <v name="ROPT">      0.00000000</v>
    <i type="int" name="LMAXPAW">  -100</i>
    <i type="int" name="LMAXMIX">     2</i>
    <i type="logical" name="NLSPLINE"> F  </i>
   </separator>
   <separator name="electronic startup" >
    <i type="int" name="ISTART">     0</i>
    <i type="int" name="ICHARG">     2</i>
    <i type="int" name="INIWAV">     1</i>
   </separator>
   <separator name="electronic spin" >
    <i type="int" name="ISPIN">     1</i>
    <i type="logical" name="LNONCOLLINEAR"> F  </i>
    <v name="MAGMOM">      1.00000000      1.00000000</v>
    <i name="NUPDOWN">     -1.00000000</i>
    <i type="logical" name="LSORBIT"> F  </i>
    <v name="SAXIS">      0.00000000      0.00000000      1.00000000</v>
    <i type="logical" name="LSPIRAL"> F  </i>
    <v name="QSPIRAL">      0.00000000      0.00000000      0.00000000</v>
    <i type="logical" name="LZEROZ"> F  </i>
   </separator>
   <separator name="electronic exchange-correlation" >
    <i type="logical" name="LASPH"> F  </i>
    <i type="logical" name="LMETAGGA"> F  </i>
   </separator>
   <separator name="electronic convergence" >
    <i type="int" name="NELM">    60</i>
    <i type="int" name="NELMDL">    -5</i>
    <i type="int" name="NELMIN">     2</i>
    <i name="ENINI">    200.00000000</i>
    <separator name="electronic convergence detail" >
     <i type="logical" name="LDIAG"> T  </i>
     <i type="logical" name="LSUBROT"> F  </i>
     <i name="WEIMIN">      0.00100000</i>
     <i name="EBREAK">      0.00001250</i>
     <i name="DEPER">      0.30000000</i>
     <i type="int" name="NRMM">     4</i>
     <i name="TIME">      0.40000000</i>
    </separator>
   </separator>
   <separator name="electronic mixer" >
    <i name="AMIX">      0.40000000</i>
    <i name="BMIX">      1.00000000</i>
    <i name="AMIN">      0.10000000</i>
    <i name="AMIX_MAG">      1.60000000</i>
    <i name="BMIX_MAG">      1.00000000</i>
    <separator name="electronic mixer details" >
     <i type="int" name="IMIX">     4</i>
     <i type="logical" name="MIXFIRST"> F  </i>
     <i type="int" name="MAXMIX">   -45</i>
     <i name="WC">    100.00000000</i>
     <i type="int" name="INIMIX">     1</i>
     <i type="int" name="MIXPRE">     1</i>
     <i type="int" name="MREMOVE">     5</i>
    </separator>
   </separator>
   <separator name="electronic dipolcorrection" >
    <i type="logical" name="LDIPOL"> F  </i>
    <i type="logical" name="LMONO"> F  </i>
    <i type="int" name="IDIPOL">     0</i>
    <i name="EPSILON">      1.00000000</i>
    <v name="DIPOL">   -100.00000000   -100.00000000   -100.00000000</v>
    <i name="EFIELD">      0.00000000</i>
   </separator>
  </separator>
  <separator name="grids" >
   <i type="int" name="NGX">    14</i>
   <i type="int" name="NGY">    14</i>
   <i type="int" name="NGZ">    14</i>
   <i type="int" name="NGXF">    28</i>
   <i type="int" name="NGYF">    28</i>
   <i type="int" name="NGZF">    28</i>
   <i type="logical" name="ADDGRID"> F  </i>
  </separator>
  <separator name="ionic" >
   <i type="int" name="NSW">    15</i>
   <i type="int" name="IBRION">     2</i>
   <i type="int" name="MDALGO">     0</i>
   <i type="int" name="ISIF">     2</i>
   <i name="PSTRESS">      0.00000000</i>
   <i name="EDIFFG">     -0.01000000</i>
   <i type="int" name="NFREE">     1</i>
   <i name="POTIM">      0.50000000</i>
   <i name="SMASS">     -3.00000000</i>
   <i name="SCALEE">      1.00000000</i>
  </separator>
  <separator name="ionic md" >
   <i name="TEBEG">      0.00010000</i>
   <i name="TEEND">      0.00010000</i>
   <i type="int" name="NBLOCK">     1</i>
   <i type="int" name="KBLOCK">    15</i>
   <i type="int" name="NPACO">   256</i>
   <i name="APACO">     16.00000000</i>
  </separator>
  <separator name="symmetry" >
   <i type="int" name="ISYM">     2</i>
   <i name="SYMPREC">      0.00001000</i>
  </separator>
  <separator name="dos" >
   <i type="int" name="LORBIT">     0</i>
   <v name="RWIGS">     -1.00000000</v>
   <i type="int" name="NEDOS">   301</i>
   <i name="EMIN">     10.00000000</i>
   <i name="EMAX">    -10.00000000</i>
   <i name="EFERMI">      0.00000000</i>
  </separator>
  <separator name="writing" >
   <i type="int" name="NWRITE">     2</i>
   <i type="logical" name="LWAVE"> T  </i>
   <i type="logical" name="LDOWNSAMPLE"> F  </i>
   <i type="logical" name="LCHARG"> T  </i>
   <i type="logical" name="LPARD"> F  </i>
   <i type="logical" name="LVTOT"> F  </i>
   <i type="logical" name="LVHAR"> F  </i>
   <i type="logical" name="LELF"> F  </i>
   <i type="logical" name="LOPTICS"> F  </i>
   <v name="STM">      0.00000000      0.00000000      0.00000000      0.00000000      0.00000000      0.00000000      0.00000000</v>
  </separator>
  <separator name="performance" >
   <i type="int" name="NPAR">     8</i>
   <i type="int" name="NSIM">     4</i>
   <i type="int" name="NBLK">    -1</i>
   <i type="logical" name="LPLANE"> T  </i>
   <i type="logical" name="LSCALAPACK"> T  </i>
   <i type="logical" name="LSCAAWARE"> F  </i>
   <i type="logical" name="LSCALU"> F  </i>
   <i type="logical" name="LASYNC"> F  </i>
   <i type="logical" name="LORBITALREAL"> F  </i>
  </separator>
  <separator name="miscellaneous" >
   <i type="int" name="IDIOT">     3</i>
   <i type="int" name="ISPECIAL">     0</i>
   <i type="logical" name="LMUSIC"> F  </i>
   <v name="POMASS">     28.08500000</v>
   <v name="DARWINR">      0.00000000</v>
   <v name="DARWINV">      1.00000000</v>
   <i type="logical" name="LCORR"> T  </i>
  </separator>
  <i type="logical" name="GGA_COMPAT"> T  </i>
  <i type="logical" name="LBERRY"> F  </i>
  <i type="int" name="ICORELEVEL">     0</i>
  <i type="logical" name="LDAU"> F  </i>
  <i type="int" name="I_CONSTRAINED_M">     0</i>
  <separator name="electronic exchange-correlation" >
   <i type="string" name="GGA">--</i>
   <i type="int" name="VOSKOWN">     0</i>
   <i type="logical" name="LHFCALC"> F  </i>
   <i type="string" name="PRECFOCK"></i>
   <i type="logical" name="LSYMGRAD"> F  </i>
   <i type="logical" name="LHFONE"> F  </i>
   <i type="logical" name="LRHFCALC"> F  </i>
   <i type="logical" name="LTHOMAS"> F  </i>
   <i type="logical" name="LMODELHF"> F  </i>
   <i name="ENCUT4O">     -1.00000000</i>
   <i type="int" name="EXXOEP">     0</i>
   <i type="int" name="FOURORBIT">     0</i>
   <i name="AEXX">      0.00000000</i>
   <i name="HFALPHA">      0.00000000</i>
   <i name="MCALPHA">      0.00000000</i>
   <i name="ALDAX">      1.00000000</i>
   <i name="AGGAX">      1.00000000</i>
   <i name="ALDAC">      1.00000000</i>
   <i name="AGGAC">      1.00000000</i>
   <i type="int" name="NKREDX">     1</i>
   <i type="int" name="NKREDY">     1</i>
   <i type="int" name="NKREDZ">     1</i>
   <i type="logical" name="SHIFTRED"> F  </i>
   <i type="logical" name="ODDONLY"> F  </i>
   <i type="logical" name="EVENONLY"> F  </i>
   <i type="int" name="LMAXFOCK">     0</i>
   <i type="int" name="NMAXFOCKAE">     0</i>
   <i type="logical" name="LFOCKAEDFT"> F  </i>
   <i name="HFSCREEN">      0.00000000</i>
   <i name="HFSCREENC">      0.00000000</i>
   <i type="int" name="NBANDSGWLOW">     0</i>
  </separator>
  <separator name="vdW DFT" >
   <i type="logical" name="LUSE_VDW"> F  </i>
   <i name="Zab_VDW">     -0.84910000</i>
   <i name="PARAM1">      0.12340000</i>
   <i name="PARAM2">      1.00000000</i>
   <i name="PARAM3">      0.00000000</i>
  </separator>
  <separator name="model GW" >
   <i type="int" name="MODEL_GW">     0</i>
   <i name="MODEL_EPS0">     12.00772552</i>
   <i name="MODEL_ALPHA">      1.00000000</i>
  </separator>
  <separator name="linear response parameters" >
   <i type="logical" name="LEPSILON"> F  </i>
   <i type="logical" name="LRPA"> F  </i>
   <i type="logical" name="LNABLA"> F  </i>
   <i type="logical" name="LVEL"> F  </i>
   <i type="int" name="KINTER">     0</i>
   <i name="CSHIFT">      0.10000000</i>
   <i name="OMEGAMAX">     -1.00000000</i>
   <i name="DEG_THRESHOLD">      0.00200000</i>
   <i name="RTIME">     -0.10000000</i>
   <i name="WPLASMAI">      0.00000000</i>
   <v name="DFIELD">      0.00000000      0.00000000      0.00000000</v>
   <v name="WPLASMA">      0.00000000      0.00000000      0.00000000      0.00000000      0.00000000      0.00000000      0.00000000      0.00000000      0.00000000</v>
  </separator>
  <separator name="orbital magnetization" >
   <i type="logical" name="NUCIND"> F  </i>
   <v name="MAGPOS">      0.00000000      0.00000000      0.00000000</v>
   <i type="logical" name="LNICSALL"> T  </i>
   <i type="logical" name="ORBITALMAG"> F  </i>
   <i type="logical" name="LMAGBLOCH"> F  </i>
   <i type="logical" name="LCHIMAG"> F  </i>
   <i type="logical" name="LGAUGE"> T  </i>
   <i type="int" name="MAGATOM">     0</i>
   <v name="MAGDIPOL">      0.00000000      0.00000000      0.00000000</v>
   <v name="AVECCONST">      0.00000000      0.00000000      0.00000000</v>
  </separator>
  <separator name="response functions" >
   <i type="logical" name="LADDER"> F  </i>
   <i type="logical" name="LRPAFORCE"> F  </i>
   <i type="logical" name="LFXC"> F  </i>
   <i type="logical" name="LHARTREE"> T  </i>
   <i type="int" name="IBSE">     0</i>
   <v type="int" name="KPOINT">    -1     0     0     0</v>
   <i type="logical" name="LTCTE"> F  </i>
   <i type="logical" name="LTETE"> F  </i>
   <i type="logical" name="LTRIPLET"> F  </i>
   <i type="logical" name="LFXCEPS"> F  </i>
   <i type="logical" name="LFXHEG"> F  </i>
   <i type="int" name="NATURALO">     2</i>
   <i type="logical" name="L2ORDER"> F  </i>
   <i type="logical" name="LMP2LT"> F  </i>
   <i type="logical" name="LUSEW"> F  </i>
   <i name="ENCUTGW">     -2.00000000</i>
   <i name="ENCUTGWSOFT">     -2.00000000</i>
   <i name="ENCUTLF">     -1.00000000</i>
   <i type="int" name="LMAXMP2">    -1</i>
   <i name="SCISSOR">      0.00000000</i>
   <i type="int" name="NOMEGA">     0</i>
   <i type="int" name="NOMEGAR">     0</i>
   <i type="int" name="NBANDSGW">    -1</i>
   <i type="int" name="NBANDSO">    -1</i>
   <i type="int" name="NBANDSV">    -1</i>
   <i type="int" name="NELM">     1</i>
   <i type="int" name="NELMHF">     1</i>
   <i type="int" name="DIM">     3</i>
   <i type="int" name="ANTIRES">     0</i>
   <i name="OMEGAMAX">    -30.00000000</i>
   <i name="OMEGAMIN">    -30.00000000</i>
   <i name="OMEGATL">   -200.00000000</i>
   <i type="int" name="OMEGAGRID">   140</i>
   <i name="CSHIFT">     -0.10000000</i>
   <i type="logical" name="SELFENERGY"> F  </i>
   <i type="logical" name="LSPECTRAL"> F  </i>
   <i type="logical" name="LSPECTRALGW"> F  </i>
   <i type="logical" name="LSINGLES"> F  </i>
   <i type="logical" name="LFERMIGW"> F  </i>
   <i type="logical" name="ODDONLYGW"> F  </i>
   <i type="logical" name="EVENONLYGW"> F  </i>
   <i type="int" name="NKREDLFX">     1</i>
   <i type="int" name="NKREDLFY">     1</i>
   <i type="int" name="NKREDLFZ">     1</i>
   <i type="int" name="MAXMEM">  2800</i>
   <i type="int" name="TELESCOPE">     0</i>
   <i type="int" name="TAUPAR">     1</i>
   <i type="int" name="OMEGAPAR">    -1</i>
   <i name="LAMBDA">      1.00000000</i>
  </separator>
  <separator name="External order field" >
   <i name="OFIELD_KAPPA">      0.00000000</i>
   <v name="OFIELD_K">      0.00000000      0.00000000      0.00000000</v>
   <i name="OFIELD_Q6_NEAR">      0.00000000</i>
   <i name="OFIELD_Q6_FAR">      0.00000000</i>
   <i name="OFIELD_A">      0.00000000</i>
  </separator>
 </parameters>
 <atominfo>
  <atoms>       2 </atoms>
  <types>       1 </types>
  <array name="atoms" >
   <dimension dim="1">ion</dimension>
   <field type="string">element</field>
   <field type="int">atomtype</field>
   <set>
    <rc><c>Si</c><c>   1</c></rc>
    <rc><c>Si</c><c>   1</c></rc>
   </set>
  </array>
  <array name="atomtypes" >
   <dimension dim="1">type</dimension>
   <field type="int">atomspertype</field>
   <field type="string">element</field>
   <field>mass</field>
   <field>valence</field>
   <field type="string">pseudopotential</field>
   <set>
    <rc><c>   2</c><c>Si</c><c>     28.08500000</c><c>      4.00000000</c><c> PAW_PBE Si 05Jan2001                   </c></rc>
   </set>
  </array>
 </atominfo>
 <structure name="initialpos" >
  <crystal>
   <varray name="basis" >
    <v>       0.00000000       2.71500000       2.71500000 </v>
    <v>       2.71500000       0.00000000       2.71500000 </v>
    <v>       2.71500000       2.71500000       0.00000000 </v>
   </varray>
   <i name="volume">     40.02575175 </i>
   <varray name="rec_basis" >
    <v>      -0.18416206       0.18416206       0.18416206 </v>
    <v>       0.18416206      -0.18416206       0.18416206 </v>
    <v>       0.18416206       0.18416206      -0.18416206 </v>
   </varray>
  </crystal>
  <varray name="positions" >
   <v>       0.50000000       0.50000000       0.50000000 </v>
   <v>       0.75000000       0.75000000       0.75000000 </v>
  </varray>
 </structure>
 <calculation>
  <scstep>
   <time name="dav">    0.49    0.49</time>
   <time name="total">    0.53    0.54</time>
   <energy>
    <i name="alphaZ">      3.36414203 </i>
    <i name="ewald">   -228.56352493 </i>
    <i name="hartreedc">    -11.00108243 </i>
    <i name="XCdc">    -18.60172597 </i>
    <i name="pawpsdc">     65.95520812 </i>
    <i name="pawaedc">    -30.76852678 </i>
    <i name="eentropy">     -0.01086254 </i>
    <i name="bandstr">     12.25040118 </i>
    <i name="atom">    206.11247263 </i>
    <i name="e_fr_energy">     -1.26349870 </i>
    <i name="e_wo_entrp">     -1.25263616 </i>
    <i name="e_0_energy">     -1.25806743 </i>
   </energy>
  </scstep>
  <scstep>
   <time name="dav">    0.79    0.79</time>
   <time name="total">    0.79    0.80</time>
   <energy>
    <i name="e_fr_energy">    -10.89191112 </i>
    <i name="e_wo_entrp">    -10.89190962 </i>
    <i name="e_0_energy">    -10.89191037 </i>
   </energy>
  </scstep>
  <scstep>
   <time name="dav">    0.57    0.57</time>
   <time name="total">    0.57    0.58</time>
   <energy>
    <i name="e_fr_energy">    -10.97664412 </i>
    <i name="e_wo_entrp">    -10.97664302 </i>
    <i name="e_0_energy">    -10.97664357 </i>
   </energy>
  </scstep>
  <scstep>
   <time name="dav">    0.84    0.85</time>
   <time name="total">    0.84    0.85</time>
   <energy>
    <i name="e_fr_energy">    -10.97687432 </i>
    <i name="e_wo_entrp">    -10.97687322 </i>
    <i name="e_0_energy">    -10.97687377 </i>
   </energy>
  </scstep>
  <scstep>
   <time name="dav">    0.55    0.56</time>
   <time name="total">    0.58    0.58</time>
   <energy>
    <i name="e_fr_energy">    -10.97687436 </i>
    <i name="e_wo_entrp">    -10.97687326 </i>
    <i name="e_0_energy">    -10.97687381 </i>
   </energy>
  </scstep>
  <scstep>
   <time name="dav">    0.56    0.56</time>
   <time name="total">    0.60    0.61</time>
   <energy>
    <i name="e_fr_energy">    -10.85291987 </i>
    <i name="e_wo_entrp">    -10.85291262 </i>
    <i name="e_0_energy">    -10.85291625 </i>
   </energy>
  </scstep>
  <scstep>
   <time name="dav">    0.60    0.61</time>
   <time name="total">    0.65    0.66</time>
   <energy>
    <i name="e_fr_energy">    -10.79633447 </i>
    <i name="e_wo_entrp">    -10.79627812 </i>
    <i name="e_0_energy">    -10.79630630 </i>
   </energy>
  </scstep>
  <scstep>
   <time name="dav">    0.54    0.54</time>
   <time name="total">    0.59    0.59</time>
   <energy>
    <i name="e_fr_energy">    -10.79761862 </i>
    <i name="e_wo_entrp">    -10.79757442 </i>
    <i name="e_0_energy">    -10.79759652 </i>
   </energy>
  </scstep>
  <scstep>
   <time name="dav">    0.40    0.40</time>
   <time name="total">    0.43    0.44</time>
   <energy>
    <i name="alphaZ">      3.36414203 </i>
    <i name="ewald">   -228.56352493 </i>
    <i name="hartreedc">    -14.89246071 </i>
    <i name="XCdc">    -17.94069813 </i>
    <i name="pawpsdc">     75.91456192 </i>
    <i name="pawaedc">    -40.96474950 </i>
    <i name="eentropy">     -0.00004381 </i>
    <i name="bandstr">      6.17258924 </i>
    <i name="atom">    206.11247263 </i>
    <i name="e_fr_energy">    -10.79771126 </i>
    <i name="e_wo_entrp">    -10.79766745 </i>
    <i name="e_0_energy">    -10.79768936 </i>
   </energy>
  </scstep>
  <structure>
   <crystal>
    <varray name="basis" >
     <v>       0.00000000       2.71500000       2.71500000 </v>
     <v>       2.71500000       0.00000000       2.71500000 </v>
     <v>       2.71500000       2.71500000       0.00000000 </v>
    </varray>
    <i name="volume">     40.02575175 </i>
    <varray name="rec_basis" >
     <v>      -0.18416206       0.18416206       0.18416206 </v>
     <v>       0.18416206      -0.18416206       0.18416206 </v>
     <v>       0.18416206       0.18416206      -0.18416206 </v>
    </varray>
   </crystal>
   <varray name="positions" >
    <v>       0.50000000       0.50000000       0.50000000 </v>
    <v>       0.75000000       0.75000000       0.75000000 </v>
   </varray>
  </structure>
  <varray name="forces" >
   <v>      -0.00000000      -0.00000000       0.00000000 </v>
   <v>       0.00000000       0.00000000      -0.00000000 </v>
  </varray>
  <varray name="stress" >
   <v>      18.69852647       0.00000000      -0.00000000 </v>
   <v>       0.00000000      18.69852647      -0.00000000 </v>
   <v>      -0.00000000       0.00000000      18.69852647 </v>
  </varray>
  <energy>
   <i name="e_fr_energy">    -10.79771126 </i>
   <i name="e_wo_entrp">    -10.79768936 </i>
   <i name="e_0_energy">     -0.00004381 </i>
  </energy>
  <time name="totalsc">    6.46    7.07</time>
  <eigenvalues>
   <array>
    <dimension dim="1">band</dimension>
    <dimension dim="2">kpoint</dimension>
    <dimension dim="3">spin</dimension>
    <field>eigene</field>
    <field>occ</field>
    <set>
     <set comment="spin 1">
      <set comment="kpoint 1">
       <r>   -6.0810    1.0000 </r>
       <r>    5.3188    1.0000 </r>
       <r>    5.7667    0.9972 </r>
       <r>    5.7667    0.9972 </r>
       <r>    8.4872    0.0000 </r>
       <r>    8.5498    0.0000 </r>
       <r>    8.5498    0.0000 </r>
       <r>    9.5865    0.0000 </r>
      </set>
      <set comment="kpoint 2">
       <r>   -5.8096    1.0000 </r>
       <r>    3.8043    1.0000 </r>
       <r>    4.9423    1.0000 </r>
       <r>    5.6475    0.9998 </r>
       <r>    8.5699    0.0000 </r>
       <r>    8.7974    0.0000 </r>
       <r>    9.1059    0.0000 </r>
       <r>   11.0212    0.0000 </r>
      </set>
      <set comment="kpoint 3">
       <r>   -5.1540    1.0000 </r>
       <r>    1.5486    1.0000 </r>
       <r>    4.4500    1.0000 </r>
       <r>    5.1767    1.0000 </r>
       <r>    8.1308    0.0000 </r>
       <r>    9.2950    0.0000 </r>
       <r>    9.5884    0.0000 </r>
       <r>   12.5193    0.0000 </r>
      </set>
      <set comment="kpoint 4">
       <r>   -4.2367    1.0000 </r>
       <r>   -0.3650    1.0000 </r>
       <r>    4.2307    1.0000 </r>
       <r>    4.7616    1.0000 </r>
       <r>    7.8172    0.0000 </r>
       <r>    9.3488    0.0000 </r>
       <r>    9.3666    0.0000 </r>
       <r>   13.7058    0.0000 </r>
      </set>
      <set comment="kpoint 5">
       <r>   -3.7775    1.0000 </r>
       <r>   -1.0790    1.0000 </r>
       <r>    4.2831    1.0000 </r>
       <r>    4.5380    1.0000 </r>
       <r>    7.7351    0.0000 </r>
       <r>    9.1478    0.0000 </r>
       <r>    9.4289    0.0000 </r>
       <r>   13.7509    0.0000 </r>
      </set>
      <set comment="kpoint 6">
       <r>   -4.5516    1.0000 </r>
       <r>    0.2020    1.0000 </r>
       <r>    4.5582    1.0000 </r>
       <r>    4.5753    1.0000 </r>
       <r>    7.8996    0.0000 </r>
       <r>    9.1634    0.0000 </r>
       <r>    9.6929    0.0000 </r>
       <r>   12.8536    0.0000 </r>
      </set>
      <set comment="kpoint 7">
       <r>   -5.4113    1.0000 </r>
       <r>    2.2873    1.0000 </r>
       <r>    4.8389    1.0000 </r>
       <r>    5.0479    1.0000 </r>
       <r>    8.2460    0.0000 </r>
       <r>    9.0418    0.0000 </r>
       <r>    9.7668    0.0000 </r>
       <r>   11.6698    0.0000 </r>
      </set>
      <set comment="kpoint 8">
       <r>   -5.9446    1.0000 </r>
       <r>    4.5662    1.0000 </r>
       <r>    5.3291    1.0000 </r>
       <r>    5.4977    1.0000 </r>
       <r>    8.2602    0.0000 </r>
       <r>    8.8762    0.0000 </r>
       <r>    9.1430    0.0000 </r>
       <r>   10.3006    0.0000 </r>
      </set>
      <set comment="kpoint 9">
       <r>   -5.6731    1.0000 </r>
       <r>    3.6729    1.0000 </r>
       <r>    4.7603    1.0000 </r>
       <r>    4.8532    1.0000 </r>
       <r>    7.8313    0.0000 </r>
       <r>    9.6603    0.0000 </r>
       <r>   10.0184    0.0000 </r>
       <r>   10.5654    0.0000 </r>
      </set>
      <set comment="kpoint 10">
       <r>   -5.1419    1.0000 </r>
       <r>    2.1534    1.0000 </r>
       <r>    3.7729    1.0000 </r>
       <r>    4.5881    1.0000 </r>
       <r>    8.0056    0.0000 </r>
       <r>    9.7756    0.0000 </r>
       <r>   10.3300    0.0000 </r>
       <r>   10.8339    0.0000 </r>
      </set>
      <set comment="kpoint 11">
       <r>   -4.2842    1.0000 </r>
       <r>    0.2651    1.0000 </r>
       <r>    3.2790    1.0000 </r>
       <r>    4.1655    1.0000 </r>
       <r>    8.2106    0.0000 </r>
       <r>    9.6711    0.0000 </r>
       <r>   10.8583    0.0000 </r>
       <r>   11.1108    0.0000 </r>
      </set>
      <set comment="kpoint 12">
       <r>   -3.5061    1.0000 </r>
       <r>   -0.9680    1.0000 </r>
       <r>    2.9889    1.0000 </r>
       <r>    4.0696    1.0000 </r>
       <r>    8.2917    0.0000 </r>
       <r>    9.3450    0.0000 </r>
       <r>   10.6994    0.0000 </r>
       <r>   13.1745    0.0000 </r>
      </set>
      <set comment="kpoint 13">
       <r>   -3.9747    1.0000 </r>
       <r>   -0.2638    1.0000 </r>
       <r>    2.9105    1.0000 </r>
       <r>    4.3612    1.0000 </r>
       <r>    8.5911    0.0000 </r>
       <r>    9.2413    0.0000 </r>
       <r>   10.6453    0.0000 </r>
       <r>   12.4120    0.0000 </r>
      </set>
      <set comment="kpoint 14">
       <r>   -4.8904    1.0000 </r>
       <r>    1.4936    1.0000 </r>
       <r>    3.2076    1.0000 </r>
       <r>    4.8808    1.0000 </r>
       <r>    8.9001    0.0000 </r>
       <r>    9.2025    0.0000 </r>
       <r>   10.5217    0.0000 </r>
       <r>   10.9829    0.0000 </r>
      </set>
      <set comment="kpoint 15">
       <r>   -5.5411    1.0000 </r>
       <r>    2.9820    1.0000 </r>
       <r>    4.3550    1.0000 </r>
       <r>    5.2635    1.0000 </r>
       <r>    8.4143    0.0000 </r>
       <r>    9.1327    0.0000 </r>
       <r>    9.8279    0.0000 </r>
       <r>   11.0870    0.0000 </r>
      </set>
      <set comment="kpoint 16">
       <r>   -4.7365    1.0000 </r>
       <r>    1.6588    1.0000 </r>
       <r>    3.6275    1.0000 </r>
       <r>    3.7523    1.0000 </r>
       <r>    7.0065    0.0000 </r>
       <r>    8.6806    0.0000 </r>
       <r>   11.9317    0.0000 </r>
       <r>   12.0695    0.0000 </r>
      </set>
      <set comment="kpoint 17">
       <r>   -3.9744    1.0000 </r>
       <r>    0.4065    1.0000 </r>
       <r>    2.8256    1.0000 </r>
       <r>    3.3973    1.0000 </r>
       <r>    7.3248    0.0000 </r>
       <r>    8.5169    0.0000 </r>
       <r>   11.8881    0.0000 </r>
       <r>   13.0860    0.0000 </r>
      </set>
      <set comment="kpoint 18">
       <r>   -3.0602    1.0000 </r>
       <r>   -0.8123    1.0000 </r>
       <r>    1.9714    1.0000 </r>
       <r>    3.3655    1.0000 </r>
       <r>    7.5607    0.0000 </r>
       <r>   10.2112    0.0000 </r>
       <r>   11.4504    0.0000 </r>
       <r>   12.9948    0.0000 </r>
      </set>
      <set comment="kpoint 19">
       <r>   -3.1313    1.0000 </r>
       <r>   -0.7178    1.0000 </r>
       <r>    1.6098    1.0000 </r>
       <r>    3.7173    1.0000 </r>
       <r>    7.9731    0.0000 </r>
       <r>   10.9680    0.0000 </r>
       <r>   12.3020    0.0000 </r>
       <r>   12.5838    0.0000 </r>
      </set>
      <set comment="kpoint 20">
       <r>   -4.0430    1.0000 </r>
       <r>    0.2418    1.0000 </r>
       <r>    2.2283    1.0000 </r>
       <r>    4.3160    1.0000 </r>
       <r>    8.6315    0.0000 </r>
       <r>    9.8440    0.0000 </r>
       <r>   11.3084    0.0000 </r>
       <r>   11.5783    0.0000 </r>
      </set>
      <set comment="kpoint 21">
       <r>   -4.7751    1.0000 </r>
       <r>    0.8699    1.0000 </r>
       <r>    3.8977    1.0000 </r>
       <r>    4.7806    1.0000 </r>
       <r>    8.3769    0.0000 </r>
       <r>    9.2005    0.0000 </r>
       <r>   10.0693    0.0000 </r>
       <r>   11.7729    0.0000 </r>
      </set>
      <set comment="kpoint 22">
       <r>   -3.3130    1.0000 </r>
       <r>   -0.4643    1.0000 </r>
       <r>    2.9259    1.0000 </r>
       <r>    3.1486    1.0000 </r>
       <r>    6.6000    0.0009 </r>
       <r>    7.3155    0.0000 </r>
       <r>   14.2743    0.0000 </r>
       <r>   14.2769    0.0000 </r>
      </set>
      <set comment="kpoint 23">
       <r>   -2.3892    1.0000 </r>
       <r>   -1.4661    1.0000 </r>
       <r>    2.3546    1.0000 </r>
       <r>    2.8991    1.0000 </r>
       <r>    7.0375    0.0000 </r>
       <r>    7.7821    0.0000 </r>
       <r>   14.0072    0.0000 </r>
       <r>   15.0464    0.0000 </r>
      </set>
      <set comment="kpoint 24">
       <r>   -2.4818    1.0000 </r>
       <r>   -1.3026    1.0000 </r>
       <r>    1.6086    1.0000 </r>
       <r>    3.2203    1.0000 </r>
       <r>    7.4093    0.0000 </r>
       <r>   10.0539    0.0000 </r>
       <r>   12.4445    0.0000 </r>
       <r>   13.6126    0.0000 </r>
      </set>
      <set comment="kpoint 25">
       <r>   -3.2474    1.0000 </r>
       <r>   -0.9116    1.0000 </r>
       <r>    2.1879    1.0000 </r>
       <r>    3.8333    1.0000 </r>
       <r>    8.0996    0.0000 </r>
       <r>   10.1047    0.0000 </r>
       <r>   11.6767    0.0000 </r>
       <r>   12.9281    0.0000 </r>
      </set>
      <set comment="kpoint 26">
       <r>   -3.8659    1.0000 </r>
       <r>   -0.7732    1.0000 </r>
       <r>    3.7253    1.0000 </r>
       <r>    4.4354    1.0000 </r>
       <r>    8.1850    0.0000 </r>
       <r>    9.0823    0.0000 </r>
       <r>    9.8834    0.0000 </r>
       <r>   13.4812    0.0000 </r>
      </set>
      <set comment="kpoint 27">
       <r>   -2.4429    1.0000 </r>
       <r>   -1.4852    1.0000 </r>
       <r>    2.7860    1.0000 </r>
       <r>    3.0257    1.0000 </r>
       <r>    6.5904    0.0011 </r>
       <r>    6.9577    0.0000 </r>
       <r>   15.3641    0.0000 </r>
       <r>   15.4445    0.0000 </r>
      </set>
      <set comment="kpoint 28">
       <r>   -3.2252    1.0000 </r>
       <r>   -0.5286    1.0000 </r>
       <r>    2.5159    1.0000 </r>
       <r>    3.0610    1.0000 </r>
       <r>    7.1301    0.0000 </r>
       <r>    8.0331    0.0000 </r>
       <r>   12.9150    0.0000 </r>
       <r>   14.2708    0.0000 </r>
      </set>
      <set comment="kpoint 29">
       <r>   -3.6999    1.0000 </r>
       <r>   -0.2836    1.0000 </r>
       <r>    2.5904    1.0000 </r>
       <r>    3.6721    1.0000 </r>
       <r>    7.8471    0.0000 </r>
       <r>   10.3977    0.0000 </r>
       <r>   10.6608    0.0000 </r>
       <r>   11.8975    0.0000 </r>
      </set>
      <set comment="kpoint 30">
       <r>   -4.0817    1.0000 </r>
       <r>    0.5942    1.0000 </r>
       <r>    3.2063    1.0000 </r>
       <r>    3.3927    1.0000 </r>
       <r>    6.7377    0.0000 </r>
       <r>    7.8996    0.0000 </r>
       <r>   13.0853    0.0000 </r>
       <r>   13.1564    0.0000 </r>
      </set>
      <set comment="kpoint 31">
       <r>   -4.6172    1.0000 </r>
       <r>    1.3027    1.0000 </r>
       <r>    3.2553    1.0000 </r>
       <r>    3.9192    1.0000 </r>
       <r>    7.6242    0.0000 </r>
       <r>    9.2091    0.0000 </r>
       <r>   10.9266    0.0000 </r>
       <r>   11.9297    0.0000 </r>
      </set>
      <set comment="kpoint 32">
       <r>   -5.2691    1.0000 </r>
       <r>    2.6954    1.0000 </r>
       <r>    4.1874    1.0000 </r>
       <r>    4.2150    1.0000 </r>
       <r>    7.3857    0.0000 </r>
       <r>    9.5804    0.0000 </r>
       <r>   10.8513    0.0000 </r>
       <r>   11.0183    0.0000 </r>
      </set>
      <set comment="kpoint 33">
       <r>   -5.6764    1.0000 </r>
       <r>    3.0644    1.0000 </r>
       <r>    5.3155    1.0000 </r>
       <r>    5.3155    1.0000 </r>
       <r>    8.1280    0.0000 </r>
       <r>    9.1782    0.0000 </r>
       <r>    9.1782    0.0000 </r>
       <r>   11.6788    0.0000 </r>
      </set>
      <set comment="kpoint 34">
       <r>   -5.2788    1.0000 </r>
       <r>    2.2259    1.0000 </r>
       <r>    3.7701    1.0000 </r>
       <r>    5.3374    1.0000 </r>
       <r>    8.7856    0.0000 </r>
       <r>    9.3006    0.0000 </r>
       <r>    9.6116    0.0000 </r>
       <r>   11.6637    0.0000 </r>
      </set>
      <set comment="kpoint 35">
       <r>   -4.5203    1.0000 </r>
       <r>    0.8463    1.0000 </r>
       <r>    2.6694    1.0000 </r>
       <r>    4.8212    1.0000 </r>
       <r>    8.6022    0.0000 </r>
       <r>   10.0696    0.0000 </r>
       <r>   10.2940    0.0000 </r>
       <r>   11.9483    0.0000 </r>
      </set>
      <set comment="kpoint 36">
       <r>   -3.6086    1.0000 </r>
       <r>   -0.6726    1.0000 </r>
       <r>    2.5238    1.0000 </r>
       <r>    4.2785    1.0000 </r>
       <r>    8.0778    0.0000 </r>
       <r>   10.2750    0.0000 </r>
       <r>   10.4599    0.0000 </r>
       <r>   13.8251    0.0000 </r>
      </set>
      <set comment="kpoint 37">
       <r>   -3.5930    1.0000 </r>
       <r>   -0.7011    1.0000 </r>
       <r>    2.8314    1.0000 </r>
       <r>    3.9532    1.0000 </r>
       <r>    7.7863    0.0000 </r>
       <r>   10.3557    0.0000 </r>
       <r>   10.8140    0.0000 </r>
       <r>   11.8229    0.0000 </r>
      </set>
      <set comment="kpoint 38">
       <r>   -4.5039    1.0000 </r>
       <r>    0.8420    1.0000 </r>
       <r>    3.4526    1.0000 </r>
       <r>    3.9277    1.0000 </r>
       <r>    7.7140    0.0000 </r>
       <r>    9.9471    0.0000 </r>
       <r>   10.6333    0.0000 </r>
       <r>   11.2021    0.0000 </r>
      </set>
      <set comment="kpoint 39">
       <r>   -5.0183    1.0000 </r>
       <r>    1.5488    1.0000 </r>
       <r>    4.2994    1.0000 </r>
       <r>    4.3536    1.0000 </r>
       <r>    8.1278    0.0000 </r>
       <r>    9.5602    0.0000 </r>
       <r>   10.4429    0.0000 </r>
       <r>   10.7902    0.0000 </r>
      </set>
      <set comment="kpoint 40">
       <r>   -4.3827    1.0000 </r>
       <r>    0.7849    1.0000 </r>
       <r>    2.7266    1.0000 </r>
       <r>    4.1554    1.0000 </r>
       <r>    8.6187    0.0000 </r>
       <r>    9.7031    0.0000 </r>
       <r>   10.1569    0.0000 </r>
       <r>   11.7391    0.0000 </r>
      </set>
      <set comment="kpoint 41">
       <r>   -3.4763    1.0000 </r>
       <r>   -0.3265    1.0000 </r>
       <r>    1.9205    1.0000 </r>
       <r>    3.5721    1.0000 </r>
       <r>    9.0772    0.0000 </r>
       <r>    9.5721    0.0000 </r>
       <r>   10.8781    0.0000 </r>
       <r>   12.8591    0.0000 </r>
      </set>
      <set comment="kpoint 42">
       <r>   -2.9781    1.0000 </r>
       <r>   -0.9543    1.0000 </r>
       <r>    1.9291    1.0000 </r>
       <r>    3.2515    1.0000 </r>
       <r>    8.5952    0.0000 </r>
       <r>    9.9083    0.0000 </r>
       <r>   11.6711    0.0000 </r>
       <r>   13.0166    0.0000 </r>
      </set>
      <set comment="kpoint 43">
       <r>   -3.7672    1.0000 </r>
       <r>    0.0738    1.0000 </r>
       <r>    2.3548    1.0000 </r>
       <r>    3.4349    1.0000 </r>
       <r>    8.3222    0.0000 </r>
       <r>    9.5457    0.0000 </r>
       <r>   10.4744    0.0000 </r>
       <r>   12.9962    0.0000 </r>
      </set>
      <set comment="kpoint 44">
       <r>   -3.8785    1.0000 </r>
       <r>    0.1270    1.0000 </r>
       <r>    2.6987    1.0000 </r>
       <r>    3.5906    1.0000 </r>
       <r>    7.3202    0.0000 </r>
       <r>    9.3819    0.0000 </r>
       <r>   11.7509    0.0000 </r>
       <r>   12.0406    0.0000 </r>
      </set>
      <set comment="kpoint 45">
       <r>   -3.0620    1.0000 </r>
       <r>   -0.6712    1.0000 </r>
       <r>    2.1035    1.0000 </r>
       <r>    2.8858    1.0000 </r>
       <r>    8.1112    0.0000 </r>
       <r>    9.1386    0.0000 </r>
       <r>   11.3738    0.0000 </r>
       <r>   14.2475    0.0000 </r>
      </set>
      <set comment="kpoint 46">
       <r>   -2.2390    1.0000 </r>
       <r>   -1.4342    1.0000 </r>
       <r>    1.7738    1.0000 </r>
       <r>    2.3717    1.0000 </r>
       <r>    9.2498    0.0000 </r>
       <r>   10.1812    0.0000 </r>
       <r>   10.9207    0.0000 </r>
       <r>   11.9286    0.0000 </r>
      </set>
      <set comment="kpoint 47">
       <r>   -2.8513    1.0000 </r>
       <r>   -0.8835    1.0000 </r>
       <r>    1.7703    1.0000 </r>
       <r>    2.8585    1.0000 </r>
       <r>    9.3469    0.0000 </r>
       <r>    9.7894    0.0000 </r>
       <r>   10.5854    0.0000 </r>
       <r>   13.1109    0.0000 </r>
      </set>
      <set comment="kpoint 48">
       <r>   -2.4072    1.0000 </r>
       <r>   -1.4173    1.0000 </r>
       <r>    1.8812    1.0000 </r>
       <r>    3.2419    1.0000 </r>
       <r>    6.8715    0.0000 </r>
       <r>    8.8154    0.0000 </r>
       <r>   13.9083    0.0000 </r>
       <r>   14.1433    0.0000 </r>
      </set>
      <set comment="kpoint 49">
       <r>   -2.3054    1.0000 </r>
       <r>   -1.4443    1.0000 </r>
       <r>    1.9773    1.0000 </r>
       <r>    2.5944    1.0000 </r>
       <r>    8.0016    0.0000 </r>
       <r>    8.9339    0.0000 </r>
       <r>   12.3884    0.0000 </r>
       <r>   13.5214    0.0000 </r>
      </set>
      <set comment="kpoint 50">
       <r>   -3.1614    1.0000 </r>
       <r>   -0.6359    1.0000 </r>
       <r>    2.1567    1.0000 </r>
       <r>    3.3598    1.0000 </r>
       <r>    7.0294    0.0000 </r>
       <r>    9.0036    0.0000 </r>
       <r>   12.9311    0.0000 </r>
       <r>   12.9605    0.0000 </r>
      </set>
      <set comment="kpoint 51">
       <r>   -4.9086    1.0000 </r>
       <r>    0.8333    1.0000 </r>
       <r>    4.8957    1.0000 </r>
       <r>    4.8957    1.0000 </r>
       <r>    7.6787    0.0000 </r>
       <r>    9.4066    0.0000 </r>
       <r>    9.4066    0.0000 </r>
       <r>   13.6046    0.0000 </r>
      </set>
      <set comment="kpoint 52">
       <r>   -4.4212    1.0000 </r>
       <r>    0.2536    1.0000 </r>
       <r>    3.4066    1.0000 </r>
       <r>    4.8067    1.0000 </r>
       <r>    8.3853    0.0000 </r>
       <r>    9.6400    0.0000 </r>
       <r>    9.6806    0.0000 </r>
       <r>   12.9658    0.0000 </r>
      </set>
      <set comment="kpoint 53">
       <r>   -3.6157    1.0000 </r>
       <r>   -0.2661    1.0000 </r>
       <r>    1.8392    1.0000 </r>
       <r>    4.2130    1.0000 </r>
       <r>    7.9932    0.0000 </r>
       <r>   11.1114    0.0000 </r>
       <r>   11.3076    0.0000 </r>
       <r>   12.7395    0.0000 </r>
      </set>
      <set comment="kpoint 54">
       <r>   -2.7791    1.0000 </r>
       <r>   -1.0525    1.0000 </r>
       <r>    1.4885    1.0000 </r>
       <r>    3.6544    1.0000 </r>
       <r>    7.3513    0.0000 </r>
       <r>   11.3060    0.0000 </r>
       <r>   12.4064    0.0000 </r>
       <r>   12.7219    0.0000 </r>
      </set>
      <set comment="kpoint 55">
       <r>   -4.1007    1.0000 </r>
       <r>   -0.3148    1.0000 </r>
       <r>    3.7549    1.0000 </r>
       <r>    4.2289    1.0000 </r>
       <r>    8.0658    0.0000 </r>
       <r>    9.4347    0.0000 </r>
       <r>   10.1719    0.0000 </r>
       <r>   12.2486    0.0000 </r>
      </set>
      <set comment="kpoint 56">
       <r>   -3.4700    1.0000 </r>
       <r>   -0.6679    1.0000 </r>
       <r>    2.4158    1.0000 </r>
       <r>    3.7404    1.0000 </r>
       <r>    8.8349    0.0000 </r>
       <r>    9.1748    0.0000 </r>
       <r>   11.7871    0.0000 </r>
       <r>   11.9835    0.0000 </r>
      </set>
      <set comment="kpoint 57">
       <r>   -2.6394    1.0000 </r>
       <r>   -1.1141    1.0000 </r>
       <r>    1.5822    1.0000 </r>
       <r>    3.0111    1.0000 </r>
       <r>    8.4618    0.0000 </r>
       <r>   10.7464    0.0000 </r>
       <r>   11.5628    0.0000 </r>
       <r>   12.1088    0.0000 </r>
      </set>
      <set comment="kpoint 58">
       <r>   -3.1044    1.0000 </r>
       <r>   -0.9463    1.0000 </r>
       <r>    2.0094    1.0000 </r>
       <r>    3.7565    1.0000 </r>
       <r>    7.5061    0.0000 </r>
       <r>   11.2758    0.0000 </r>
       <r>   11.5939    0.0000 </r>
       <r>   11.7366    0.0000 </r>
      </set>
      <set comment="kpoint 59">
       <r>   -4.0006    1.0000 </r>
       <r>   -0.8391    1.0000 </r>
       <r>    4.6697    1.0000 </r>
       <r>    4.6697    1.0000 </r>
       <r>    7.4259    0.0000 </r>
       <r>    9.2520    0.0000 </r>
       <r>    9.2520    0.0000 </r>
       <r>   13.6259    0.0000 </r>
      </set>
      <set comment="kpoint 60">
       <r>   -3.6426    1.0000 </r>
       <r>   -1.0142    1.0000 </r>
       <r>    3.4314    1.0000 </r>
       <r>    4.3958    1.0000 </r>
       <r>    8.1111    0.0000 </r>
       <r>    9.4112    0.0000 </r>
       <r>    9.8493    0.0000 </r>
       <r>   14.0783    0.0000 </r>
      </set>
     </set>
    </set>
   </array>
  </eigenvalues>
  <separator name="orbital magnetization" >
   <v name="MAGDIPOLOUT">      0.00000000      0.00000000      0.00000000</v>
  </separator>
  <dos>
   <i name="efermi">      6.15820326 </i>
   <total>
    <array>
     <dimension dim="1">gridpoints</dimension>
     <dimension dim="2">spin</dimension>
     <field>energy</field>
     <field>total</field>
     <field>integrated</field>
     <set>
      <set comment="spin 1">
       <r>    -8.0810     0.0000     0.0000 </r>
       <r>    -7.9959     0.0000     0.0000 </r>
       <r>    -7.9108     0.0000     0.0000 </r>
       <r>    -7.8257     0.0000     0.0000 </r>
       <r>    -7.7407     0.0000     0.0000 </r>
       <r>    -7.6556     0.0000     0.0000 </r>
       <r>    -7.5705     0.0000     0.0000 </r>
       <r>    -7.4854     0.0000     0.0000 </r>
       <r>    -7.4003     0.0000     0.0000 </r>
       <r>    -7.3152     0.0000     0.0000 </r>
       <r>    -7.2301     0.0000     0.0000 </r>
       <r>    -7.1451     0.0000     0.0000 </r>
       <r>    -7.0600     0.0000     0.0000 </r>
       <r>    -6.9749     0.0000     0.0000 </r>
       <r>    -6.8898     0.0000     0.0000 </r>
       <r>    -6.8047     0.0000     0.0000 </r>
       <r>    -6.7196     0.0000     0.0000 </r>
       <r>    -6.6345     0.0000     0.0000 </r>
       <r>    -6.5495     0.0000     0.0000 </r>
       <r>    -6.4644     0.0003     0.0000 </r>
       <r>    -6.3793     0.0016     0.0002 </r>
       <r>    -6.2942     0.0061     0.0007 </r>
       <r>    -6.2091     0.0179     0.0022 </r>
       <r>    -6.1240     0.0411     0.0057 </r>
       <r>    -6.0390     0.0756     0.0121 </r>
       <r>    -5.9539     0.1151     0.0219 </r>
       <r>    -5.8688     0.1519     0.0348 </r>
       <r>    -5.7837     0.1842     0.0505 </r>
       <r>    -5.6986     0.2158     0.0689 </r>
       <r>    -5.6135     0.2457     0.0898 </r>
       <r>    -5.5284     0.2661     0.1124 </r>
       <r>    -5.4434     0.2763     0.1359 </r>
       <r>    -5.3583     0.2920     0.1608 </r>
       <r>    -5.2732     0.3259     0.1885 </r>
       <r>    -5.1881     0.3638     0.2195 </r>
       <r>    -5.1030     0.3797     0.2518 </r>
       <r>    -5.0179     0.3744     0.2836 </r>
       <r>    -4.9328     0.3763     0.3156 </r>
       <r>    -4.8478     0.4006     0.3497 </r>
       <r>    -4.7627     0.4345     0.3867 </r>
       <r>    -4.6776     0.4657     0.4263 </r>
       <r>    -4.5925     0.4960     0.4685 </r>
       <r>    -4.5074     0.5230     0.5130 </r>
       <r>    -4.4223     0.5343     0.5585 </r>
       <r>    -4.3373     0.5246     0.6031 </r>
       <r>    -4.2522     0.5111     0.6466 </r>
       <r>    -4.1671     0.5321     0.6919 </r>
       <r>    -4.0820     0.6119     0.7439 </r>
       <r>    -3.9969     0.7172     0.8050 </r>
       <r>    -3.9118     0.7857     0.8718 </r>
       <r>    -3.8267     0.8011     0.9400 </r>
       <r>    -3.7417     0.7980     1.0079 </r>
       <r>    -3.6566     0.8033     1.0762 </r>
       <r>    -3.5715     0.8048     1.1447 </r>
       <r>    -3.4864     0.7739     1.2105 </r>
       <r>    -3.4013     0.7147     1.2713 </r>
       <r>    -3.3162     0.6851     1.3296 </r>
       <r>    -3.2311     0.7310     1.3918 </r>
       <r>    -3.1461     0.8107     1.4608 </r>
       <r>    -3.0610     0.8297     1.5314 </r>
       <r>    -2.9759     0.7436     1.5947 </r>
       <r>    -2.8908     0.5954     1.6453 </r>
       <r>    -2.8057     0.4597     1.6845 </r>
       <r>    -2.7206     0.3793     1.7167 </r>
       <r>    -2.6356     0.3656     1.7478 </r>
       <r>    -2.5505     0.4164     1.7833 </r>
       <r>    -2.4654     0.5059     1.8263 </r>
       <r>    -2.3803     0.5727     1.8750 </r>
       <r>    -2.2952     0.5536     1.9221 </r>
       <r>    -2.2101     0.4378     1.9594 </r>
       <r>    -2.1250     0.2758     1.9829 </r>
       <r>    -2.0400     0.1349     1.9943 </r>
       <r>    -1.9549     0.0503     1.9986 </r>
       <r>    -1.8698     0.0168     2.0000 </r>
       <r>    -1.7847     0.0201     2.0017 </r>
       <r>    -1.6996     0.0684     2.0076 </r>
       <r>    -1.6145     0.1905     2.0238 </r>
       <r>    -1.5294     0.3834     2.0564 </r>
       <r>    -1.4444     0.5625     2.1043 </r>
       <r>    -1.3593     0.6230     2.1573 </r>
       <r>    -1.2742     0.5726     2.2060 </r>
       <r>    -1.1891     0.5386     2.2518 </r>
       <r>    -1.1040     0.6263     2.3051 </r>
       <r>    -1.0189     0.8184     2.3747 </r>
       <r>    -0.9339     1.0143     2.4610 </r>
       <r>    -0.8488     1.1340     2.5575 </r>
       <r>    -0.7637     1.1615     2.6563 </r>
       <r>    -0.6786     1.0999     2.7499 </r>
       <r>    -0.5935     0.9563     2.8313 </r>
       <r>    -0.5084     0.7934     2.8988 </r>
       <r>    -0.4233     0.7050     2.9588 </r>
       <r>    -0.3383     0.6967     3.0181 </r>
       <r>    -0.2532     0.6626     3.0744 </r>
       <r>    -0.1681     0.5306     3.1196 </r>
       <r>    -0.0830     0.3714     3.1512 </r>
       <r>     0.0021     0.3085     3.1774 </r>
       <r>     0.0872     0.3748     3.2093 </r>
       <r>     0.1723     0.4964     3.2516 </r>
       <r>     0.2573     0.5693     3.3000 </r>
       <r>     0.3424     0.5368     3.3457 </r>
       <r>     0.4275     0.4237     3.3817 </r>
       <r>     0.5126     0.3054     3.4077 </r>
       <r>     0.5977     0.2480     3.4288 </r>
       <r>     0.6828     0.2770     3.4524 </r>
       <r>     0.7679     0.3624     3.4832 </r>
       <r>     0.8529     0.4199     3.5189 </r>
       <r>     0.9380     0.3770     3.5510 </r>
       <r>     1.0231     0.2567     3.5729 </r>
       <r>     1.1082     0.1530     3.5859 </r>
       <r>     1.1933     0.1315     3.5971 </r>
       <r>     1.2784     0.1954     3.6137 </r>
       <r>     1.3634     0.3297     3.6417 </r>
       <r>     1.4485     0.5260     3.6865 </r>
       <r>     1.5336     0.7430     3.7497 </r>
       <r>     1.6187     0.8944     3.8258 </r>
       <r>     1.7038     0.9416     3.9059 </r>
       <r>     1.7889     0.9478     3.9866 </r>
       <r>     1.8740     0.9835     4.0703 </r>
       <r>     1.9590     1.0366     4.1585 </r>
       <r>     2.0441     1.0659     4.2492 </r>
       <r>     2.1292     1.0770     4.3408 </r>
       <r>     2.2143     1.0919     4.4337 </r>
       <r>     2.2994     1.0993     4.5272 </r>
       <r>     2.3845     1.0767     4.6188 </r>
       <r>     2.4696     1.0304     4.7065 </r>
       <r>     2.5546     0.9973     4.7914 </r>
       <r>     2.6397     1.0168     4.8779 </r>
       <r>     2.7248     1.1102     4.9723 </r>
       <r>     2.8099     1.2673     5.0802 </r>
       <r>     2.8950     1.4202     5.2010 </r>
       <r>     2.9801     1.4766     5.3266 </r>
       <r>     3.0651     1.4310     5.4484 </r>
       <r>     3.1502     1.3867     5.5664 </r>
       <r>     3.2353     1.4125     5.6866 </r>
       <r>     3.3204     1.4465     5.8096 </r>
       <r>     3.4055     1.4009     5.9288 </r>
       <r>     3.4906     1.3045     6.0398 </r>
       <r>     3.5757     1.2863     6.1493 </r>
       <r>     3.6607     1.4079     6.2691 </r>
       <r>     3.7458     1.5489     6.4009 </r>
       <r>     3.8309     1.5287     6.5309 </r>
       <r>     3.9160     1.3247     6.6436 </r>
       <r>     4.0011     1.0954     6.7369 </r>
       <r>     4.0862     1.0138     6.8231 </r>
       <r>     4.1713     1.1143     6.9179 </r>
       <r>     4.2563     1.2789     7.0267 </r>
       <r>     4.3414     1.3540     7.1419 </r>
       <r>     4.4265     1.2794     7.2508 </r>
       <r>     4.5116     1.1131     7.3455 </r>
       <r>     4.5967     0.9569     7.4269 </r>
       <r>     4.6818     0.8784     7.5017 </r>
       <r>     4.7668     0.8723     7.5759 </r>
       <r>     4.8519     0.8562     7.6487 </r>
       <r>     4.9370     0.7470     7.7123 </r>
       <r>     5.0221     0.5685     7.7607 </r>
       <r>     5.1072     0.4281     7.7971 </r>
       <r>     5.1923     0.3895     7.8302 </r>
       <r>     5.2774     0.4109     7.8652 </r>
       <r>     5.3624     0.4060     7.8997 </r>
       <r>     5.4475     0.3413     7.9288 </r>
       <r>     5.5326     0.2548     7.9505 </r>
       <r>     5.6177     0.1897     7.9666 </r>
       <r>     5.7028     0.1487     7.9793 </r>
       <r>     5.7879     0.1127     7.9888 </r>
       <r>     5.8730     0.0732     7.9951 </r>
       <r>     5.9580     0.0378     7.9983 </r>
       <r>     6.0431     0.0148     7.9995 </r>
       <r>     6.1282     0.0046     7.9999 </r>
       <r>     6.2133     0.0026     8.0002 </r>
       <r>     6.2984     0.0084     8.0009 </r>
       <r>     6.3835     0.0287     8.0033 </r>
       <r>     6.4685     0.0718     8.0094 </r>
       <r>     6.5536     0.1321     8.0207 </r>
       <r>     6.6387     0.1864     8.0365 </r>
       <r>     6.7238     0.2218     8.0554 </r>
       <r>     6.8089     0.2600     8.0775 </r>
       <r>     6.8940     0.3323     8.1058 </r>
       <r>     6.9791     0.4301     8.1424 </r>
       <r>     7.0641     0.5056     8.1854 </r>
       <r>     7.1492     0.5383     8.2312 </r>
       <r>     7.2343     0.5718     8.2799 </r>
       <r>     7.3194     0.6397     8.3343 </r>
       <r>     7.4045     0.7020     8.3940 </r>
       <r>     7.4896     0.7146     8.4548 </r>
       <r>     7.5747     0.7094     8.5152 </r>
       <r>     7.6597     0.7530     8.5792 </r>
       <r>     7.7448     0.8723     8.6535 </r>
       <r>     7.8299     1.0486     8.7427 </r>
       <r>     7.9150     1.2544     8.8494 </r>
       <r>     8.0001     1.4568     8.9734 </r>
       <r>     8.0852     1.5904     9.1087 </r>
       <r>     8.1702     1.5933     9.2442 </r>
       <r>     8.2553     1.4883     9.3709 </r>
       <r>     8.3404     1.3695     9.4874 </r>
       <r>     8.4255     1.3102     9.5989 </r>
       <r>     8.5106     1.3083     9.7102 </r>
       <r>     8.5957     1.2960     9.8205 </r>
       <r>     8.6808     1.2138     9.9237 </r>
       <r>     8.7658     1.0970    10.0171 </r>
       <r>     8.8509     1.0435    10.1059 </r>
       <r>     8.9360     1.1222    10.2014 </r>
       <r>     9.0211     1.3594    10.3170 </r>
       <r>     9.1062     1.7098    10.4625 </r>
       <r>     9.1913     2.0048    10.6331 </r>
       <r>     9.2764     2.0626    10.8086 </r>
       <r>     9.3614     1.8775    10.9683 </r>
       <r>     9.4465     1.6223    11.1063 </r>
       <r>     9.5316     1.4773    11.2320 </r>
       <r>     9.6167     1.4846    11.3584 </r>
       <r>     9.7018     1.5508    11.4903 </r>
       <r>     9.7869     1.5641    11.6234 </r>
       <r>     9.8719     1.4876    11.7500 </r>
       <r>     9.9570     1.3705    11.8666 </r>
       <r>    10.0421     1.2937    11.9766 </r>
       <r>    10.1272     1.2761    12.0852 </r>
       <r>    10.2123     1.2634    12.1927 </r>
       <r>    10.2974     1.2200    12.2965 </r>
       <r>    10.3825     1.1716    12.3962 </r>
       <r>    10.4675     1.1558    12.4946 </r>
       <r>    10.5526     1.1822    12.5951 </r>
       <r>    10.6377     1.2399    12.7006 </r>
       <r>    10.7228     1.3195    12.8129 </r>
       <r>    10.8079     1.4112    12.9330 </r>
       <r>    10.8930     1.4720    13.0582 </r>
       <r>    10.9781     1.4323    13.1801 </r>
       <r>    11.0631     1.2719    13.2883 </r>
       <r>    11.1482     1.0619    13.3787 </r>
       <r>    11.2333     0.8996    13.4552 </r>
       <r>    11.3184     0.8225    13.5252 </r>
       <r>    11.4035     0.8118    13.5943 </r>
       <r>    11.4886     0.8694    13.6682 </r>
       <r>    11.5736     1.0227    13.7552 </r>
       <r>    11.6587     1.2426    13.8610 </r>
       <r>    11.7438     1.4313    13.9827 </r>
       <r>    11.8289     1.5085    14.1111 </r>
       <r>    11.9140     1.4502    14.2345 </r>
       <r>    11.9991     1.2619    14.3419 </r>
       <r>    12.0842     0.9926    14.4263 </r>
       <r>    12.1692     0.7538    14.4904 </r>
       <r>    12.2543     0.6494    14.5457 </r>
       <r>    12.3394     0.6774    14.6033 </r>
       <r>    12.4245     0.7297    14.6654 </r>
       <r>    12.5096     0.7045    14.7254 </r>
       <r>    12.5947     0.6113    14.7774 </r>
       <r>    12.6798     0.5544    14.8246 </r>
       <r>    12.7648     0.6358    14.8786 </r>
       <r>    12.8499     0.8705    14.9527 </r>
       <r>    12.9350     1.1508    15.0506 </r>
       <r>    13.0201     1.3006    15.1613 </r>
       <r>    13.1052     1.2107    15.2643 </r>
       <r>    13.1903     0.9261    15.3431 </r>
       <r>    13.2753     0.6044    15.3945 </r>
       <r>    13.3604     0.4022    15.4287 </r>
       <r>    13.4455     0.3717    15.4604 </r>
       <r>    13.5306     0.4398    15.4978 </r>
       <r>    13.6157     0.4928    15.5397 </r>
       <r>    13.7008     0.4796    15.5805 </r>
       <r>    13.7859     0.4266    15.6168 </r>
       <r>    13.8709     0.3834    15.6494 </r>
       <r>    13.9560     0.3772    15.6815 </r>
       <r>    14.0411     0.4090    15.7163 </r>
       <r>    14.1262     0.4659    15.7560 </r>
       <r>    14.2113     0.5164    15.7999 </r>
       <r>    14.2964     0.5019    15.8426 </r>
       <r>    14.3815     0.3891    15.8757 </r>
       <r>    14.4665     0.2265    15.8950 </r>
       <r>    14.5516     0.0960    15.9032 </r>
       <r>    14.6367     0.0300    15.9057 </r>
       <r>    14.7218     0.0112    15.9067 </r>
       <r>    14.8069     0.0199    15.9084 </r>
       <r>    14.8920     0.0510    15.9127 </r>
       <r>    14.9770     0.0970    15.9210 </r>
       <r>    15.0621     0.1325    15.9322 </r>
       <r>    15.1472     0.1366    15.9439 </r>
       <r>    15.2323     0.1238    15.9544 </r>
       <r>    15.3174     0.1228    15.9648 </r>
       <r>    15.4025     0.1319    15.9761 </r>
       <r>    15.4876     0.1235    15.9866 </r>
       <r>    15.5726     0.0884    15.9941 </r>
       <r>    15.6577     0.0463    15.9980 </r>
       <r>    15.7428     0.0175    15.9995 </r>
       <r>    15.8279     0.0048    15.9999 </r>
       <r>    15.9130     0.0009    16.0000 </r>
       <r>    15.9981     0.0001    16.0000 </r>
       <r>    16.0832     0.0000    16.0000 </r>
       <r>    16.1682     0.0000    16.0000 </r>
       <r>    16.2533     0.0000    16.0000 </r>
       <r>    16.3384     0.0000    16.0000 </r>
       <r>    16.4235     0.0000    16.0000 </r>
       <r>    16.5086     0.0000    16.0000 </r>
       <r>    16.5937     0.0000    16.0000 </r>
       <r>    16.6787     0.0000    16.0000 </r>
       <r>    16.7638     0.0000    16.0000 </r>
       <r>    16.8489     0.0000    16.0000 </r>
       <r>    16.9340     0.0000    16.0000 </r>
       <r>    17.0191     0.0000    16.0000 </r>
       <r>    17.1042     0.0000    16.0000 </r>
       <r>    17.1893     0.0000    16.0000 </r>
       <r>    17.2743     0.0000    16.0000 </r>
       <r>    17.3594     0.0000    16.0000 </r>
       <r>    17.4445     0.0000    16.0000 </r>
      </set>
     </set>
    </array>
   </total>
  </dos>
 </calculation>
 <structure name="finalpos" >
  <crystal>
   <varray name="basis" >
    <v>       0.00000000       2.71500000       2.71500000 </v>
    <v>       2.71500000       0.00000000       2.71500000 </v>
    <v>       2.71500000       2.71500000       0.00000000 </v>
   </varray>
   <i name="volume">     40.02575175 </i>
   <varray name="rec_basis" >
    <v>      -0.18416206       0.18416206       0.18416206 </v>
    <v>       0.18416206      -0.18416206       0.18416206 </v>
    <v>       0.18416206       0.18416206      -0.18416206 </v>
   </varray>
  </crystal>
  <varray name="positions" >
   <v>       0.50000000       0.50000000       0.50000000 </v>
   <v>       0.75000000       0.75000000       0.75000000 </v>
  </varray>
 </structure>
</modeling>
