unknown system                          
   1.00000000000000     
     0.000000    2.761161    2.761161
     2.761161    0.000000    2.761161
     2.761161    2.761161    0.000000
   Si
     2
Direct
  0.500000  0.500000  0.500000
  0.750000  0.750000  0.750000
 
   36   36   36
 0.82787871423E+00 0.84340487284E+00 0.89106879951E+00 0.97397728550E+00 0.10968813010E+01
 0.12656645809E+01 0.14867965412E+01 0.17667322455E+01 0.21110752168E+01 0.25232282704E+01
 0.30023696911E+01 0.35409360982E+01 0.41222531902E+01 0.47192909443E+01 0.52954786258E+01
 0.58080163403E+01 0.62133481671E+01 0.64737485907E+01 0.65635749160E+01 0.64737402425E+01
 0.62133387414E+01 0.58080221677E+01 0.52955182288E+01 0.47193684363E+01 0.41223483353E+01
 0.35410145349E+01 0.30024059362E+01 0.25232208693E+01 0.21110425713E+01 0.17666968874E+01
 0.14867722908E+01 0.12656539189E+01 0.10968801614E+01 0.97398051098E+00 0.89107272396E+00
 0.84340735542E+00 0.84340487284E+00 0.87048374395E+00 0.92639142851E+00 0.10144279230E+01
 0.11390639838E+01 0.13054573611E+01 0.15188965485E+01 0.17841227798E+01 0.21043914071E+01
 0.24801313773E+01 0.29072125911E+01 0.33751118940E+01 0.38655612029E+01 0.43523973776E+01
 0.48031764285E+01 0.51826557665E+01 0.54576475393E+01 0.56022490687E+01 0.56022498463E+01
 0.54576513673E+01 0.51826696483E+01 0.48032115036E+01 0.43524557884E+01 0.38656251731E+01
 0.33751529243E+01 0.29072137225E+01 0.24800984554E+01 0.21043445412E+01 0.17840814994E+01
 0.15188715660E+01 0.13054493831E+01 0.11390659831E+01 0.10144304614E+01 0.92638936198E+00
 0.87047887238E+00 0.84340237060E+00 0.89106879951E+00 0.92639142851E+00 0.98760361748E+00
 0.10779556979E+01 0.12014844028E+01 0.13625468722E+01 0.15652448766E+01 0.18126861911E+01
 0.21060074205E+01 0.24431421569E+01 0.28174706562E+01 0.32166758025E+01 0.36222640540E+01
 0.40102050783E+01 0.43529491399E+01 0.46227148425E+01 0.47955116269E+01 0.48550380813E+01
 0.47955154647E+01 0.46227251665E+01 0.43529698600E+01 0.40102345105E+01 0.36222888027E+01
 0.32166772633E+01 0.28174409771E+01 0.24430914498E+01 0.21059547602E+01 0.18126468932E+01
 0.15652257881E+01 0.13625470653E+01 0.12014955910E+01 0.10779651959E+01 0.98760253080E+00
 0.92638130670E+00 0.89105938554E+00 0.87953275144E+00 0.97397728550E+00 0.10144279230E+01
 0.10779556979E+01 0.11676414248E+01 0.12870335334E+01 0.14396849585E+01 0.16285584280E+01
 0.18552669750E+01 0.21191427059E+01 0.24162100239E+01 0.27382581063E+01 0.30723030888E+01
 0.34007512716E+01 0.37024992146E+01 0.39550309368E+01 0.41373068428E+01 0.42329398619E+01
 0.42329397723E+01 0.41373081655E+01 0.39550352611E+01 0.37025026088E+01 0.34007440785E+01
 0.30722774344E+01 0.27382159937E+01 0.24161630432E+01 0.21191041957E+01 0.18552455383E+01
 0.16285569555E+01 0.14397010278E+01 0.12870582672E+01 0.11676613633E+01 0.10779606004E+01
 0.10144181925E+01 0.97396324781E+00 0.95433799311E+00 0.95434437074E+00 0.10968813010E+01
 0.11390639838E+01 0.12014844028E+01 0.12870335334E+01 0.13987857844E+01 0.15395315936E+01
 0.17111847429E+01 0.19140643656E+01 0.21460967487E+01 0.24020533030E+01 0.26730153276E+01
 0.29462885047E+01 0.32059552581E+01 0.34341623609E+01 0.36131027272E+01 0.37274528948E+01
 0.37667997609E+01 0.37274498922E+01 0.36130978939E+01 0.34341528562E+01 0.32059349767E+01
 0.29462566720E+01 0.26729809278E+01 0.24020283831E+01 0.21460878060E+01 0.19140718102E+01
 0.17112068573E+01 0.15395645841E+01 0.13988208988E+01 0.12870588897E+01 0.12014922312E+01
 0.11390558832E+01 0.10968665483E+01 0.10725802501E+01 0.10646665157E+01 0.10725909486E+01
 0.12656645809E+01 0.13054573611E+01 0.13625468722E+01 0.14396849585E+01 0.15395315936E+01
 0.16641943338E+01 0.18146819078E+01 0.19902965667E+01 0.21880272348E+01 0.24020532356E+01
 0.26235127640E+01 0.28406961329E+01 0.30397782121E+01 0.32061233576E+01 0.33260771906E+01
 0.33889839808E+01 0.33889825558E+01 0.33260727463E+01 0.32061139324E+01 0.30397607854E+01
 0.28406731544E+01 0.26234950863E+01 0.24020521111E+01 0.21880450189E+01 0.19903279156E+01
 0.18147207114E+01 0.16642349399E+01 0.15395657555E+01 0.14397040558E+01 0.13625484301E+01
 0.13054467602E+01 0.12656502672E+01 0.12406941962E+01 0.12287193699E+01 0.12287235606E+01
 0.12407054399E+01 0.14867965412E+01 0.15188965485E+01 0.15652448766E+01 0.16285584280E+01
 0.17111847429E+01 0.18146819078E+01 0.19393716317E+01 0.20838891749E+01 0.22447778451E+01
 0.24162100051E+01 0.25899514593E+01 0.27556927201E+01 0.29018346488E+01 0.30167375278E+01
 0.30903120347E+01 0.31156566541E+01 0.30903121108E+01 0.30167348106E+01 0.29018264673E+01
 0.27556816366E+01 0.25899465409E+01 0.24162203301E+01 0.22448048088E+01 0.20839266051E+01
 0.19394114474E+01 0.18147163396E+01 0.17112054406E+01 0.16285599416E+01 0.15652305418E+01
 0.15188771688E+01 0.14867815858E+01 0.14662429073E+01 0.14549610543E+01 0.14513842751E+01
 0.14549641632E+01 0.14662509599E+01 0.17667322455E+01 0.17841227798E+01 0.18126861911E+01
 0.18552669750E+01 0.19140643656E+01 0.19902965667E+01 0.20838891749E+01 0.21931908429E+01
 0.23147405665E+01 0.24431423635E+01 0.25711413967E+01 0.26900147103E+01 0.27903586072E+01
 0.28632571886E+01 0.29016630713E+01 0.29016656572E+01 0.28632620744E+01 0.27903609330E+01
 0.26900140400E+01 0.25711426204E+01 0.24431507448E+01 0.23147575582E+01 0.21932140940E+01
 0.20839135689E+01 0.19903137859E+01 0.19140647643E+01 0.18552466135E+01 0.18126526470E+01
 0.17840913647E+01 0.17667146327E+01 0.17573959624E+01 0.17531698664E+01 0.17517009167E+01
 0.17516987051E+01 0.17531663598E+01 0.17573991949E+01 0.21110752168E+01 0.21043914071E+01
 0.21060074205E+01 0.21191427059E+01 0.21460967487E+01 0.21880272348E+01 0.22447778451E+01
 0.23147405665E+01 0.23947619943E+01 0.24801316154E+01 0.25647340378E+01 0.26414751550E+01
 0.27030512248E+01 0.27430060140E+01 0.27568634727E+01 0.27430155505E+01 0.27030639591E+01
 0.26414853208E+01 0.25647398050E+01 0.24801325082E+01 0.23947581118E+01 0.23147347308E+01
 0.22447730464E+01 0.21880197623E+01 0.21460768300E+01 0.21191057313E+01 0.21059621182E+01
 0.21043543331E+01 0.21110579629E+01 0.21222373440E+01 0.21339124705E+01 0.21425568160E+01
 0.21457260429E+01 0.21425466780E+01 0.21339002143E+01 0.21222350479E+01 0.25232282704E+01
 0.24801313773E+01 0.24431421569E+01 0.24162100239E+01 0.24020533030E+01 0.24020532356E+01
 0.24162100051E+01 0.24431423635E+01 0.24801316154E+01 0.25232283671E+01 0.25674852726E+01
 0.26074093732E+01 0.26376754833E+01 0.26540093737E+01 0.26540173432E+01 0.26376950311E+01
 0.26074305146E+01 0.25674972313E+01 0.25232222602E+01 0.24801044019E+01 0.24431012820E+01
 0.24161682776E+01 0.24020172287E+01 0.24020179165E+01 0.24161699082E+01 0.24431030716E+01
 0.24801059069E+01 0.25232232780E+01 0.25674975138E+01 0.26074300539E+01 0.26376942745E+01
 0.26540166972E+01 0.26540087874E+01 0.26376748373E+01 0.26074088748E+01 0.25674850903E+01
 0.30023696911E+01 0.29072125911E+01 0.28174706562E+01 0.27382581063E+01 0.26730153276E+01
 0.26235127640E+01 0.25899514593E+01 0.25711413967E+01 0.25647340378E+01 0.25674852726E+01
 0.25755733079E+01 0.25850381094E+01 0.25923632618E+01 0.25951044622E+01 0.25923815861E+01
 0.25850652207E+01 0.25755916479E+01 0.25674755464E+01 0.25646870863E+01 0.25710674342E+01
 0.25898744706E+01 0.26234521150E+01 0.26729743970E+01 0.27382318947E+01 0.28174587591E+01
 0.29072185563E+01 0.30023916030E+01 0.30963408749E+01 0.31813613669E+01 0.32494939287E+01
 0.32936717690E+01 0.33089805058E+01 0.32936573894E+01 0.32494700439E+01 0.31813326565E+01
 0.30963116509E+01 0.35409360982E+01 0.33751118940E+01 0.32166758025E+01 0.30723030888E+01
 0.29462885047E+01 0.28406961329E+01 0.27556927201E+01 0.26900147103E+01 0.26414751550E+01
 0.26074093732E+01 0.25850381094E+01 0.25718068032E+01 0.25657381939E+01 0.25657481196E+01
 0.25718311094E+01 0.25850587290E+01 0.26073994618E+01 0.26414169337E+01 0.26899179158E+01
 0.27555909980E+01 0.28406222167E+01 0.29462545957E+01 0.30723037854E+01 0.32167021814E+01
 0.33751565319E+01 0.35409882752E+01 0.37052353771E+01 0.38571214558E+01 0.39849961003E+01
 0.40777597308E+01 0.41265944722E+01 0.41265915724E+01 0.40777507029E+01 0.39849783452E+01
 0.38570900089E+01 0.37051893270E+01 0.41222531902E+01 0.38655612029E+01 0.36222640540E+01
 0.34007512716E+01 0.32059552581E+01 0.30397782121E+01 0.29018346488E+01 0.27903586072E+01
 0.27030512248E+01 0.26376754833E+01 0.25923632618E+01 0.25657381939E+01 0.25569627369E+01
 0.25657535164E+01 0.25923800145E+01 0.26376654715E+01 0.27029892516E+01 0.27902504404E+01
 0.29017208589E+01 0.30397035063E+01 0.32059372954E+01 0.34007799647E+01 0.36223208907E+01
 0.38656303528E+01 0.41223199259E+01 0.43805359367E+01 0.46254894735E+01 0.48406016393E+01
 0.50092678639E+01 0.51170921042E+01 0.51542101551E+01 0.51171006098E+01 0.50092769499E+01
 0.48405989842E+01 0.46254644383E+01 0.43804859948E+01 0.47192909443E+01 0.43523973776E+01
 0.40102050783E+01 0.37024992146E+01 0.34341623609E+01 0.32061233576E+01 0.30167375278E+01
 0.28632571886E+01 0.27430060140E+01 0.26540093737E+01 0.25951044622E+01 0.25657481196E+01
 0.25657535164E+01 0.25951126369E+01 0.26539957983E+01 0.27429424442E+01 0.28631438337E+01
 0.30166179440E+01 0.32060527446E+01 0.34341616687E+01 0.37025478552E+01 0.40102715435E+01
 0.43524624712E+01 0.47193448539E+01 0.50959555406E+01 0.54627095606E+01 0.57968416106E+01
 0.60746318039E+01 0.62742207727E+01 0.63786686511E+01 0.63786794627E+01 0.62742473117E+01
 0.60746601486E+01 0.57968569793E+01 0.54627014878E+01 0.50959216006E+01 0.52954786258E+01
 0.48031764285E+01 0.43529491399E+01 0.39550309368E+01 0.36131027272E+01 0.33260771906E+01
 0.30903120347E+01 0.29016630713E+01 0.27568634727E+01 0.26540173432E+01 0.25923815861E+01
 0.25718311094E+01 0.25923800145E+01 0.26539957983E+01 0.27567959910E+01 0.29015463574E+01
 0.30901882030E+01 0.33260080910E+01 0.36131135800E+01 0.39550907898E+01 0.43530098026E+01
 0.48032149476E+01 0.52954970918E+01 0.58122174735E+01 0.63287296556E+01 0.68151200352E+01
 0.72390174850E+01 0.75691183857E+01 0.77790591122E+01 0.78511317015E+01 0.77790791631E+01
 0.75691516254E+01 0.72390538297E+01 0.68151490987E+01 0.63287436280E+01 0.58122147589E+01
 0.58080163403E+01 0.51826557665E+01 0.46227148425E+01 0.41373068428E+01 0.37274528948E+01
 0.33889839808E+01 0.31156566541E+01 0.29016656572E+01 0.27430155505E+01 0.26376950311E+01
 0.25850652207E+01 0.25850587290E+01 0.26376654715E+01 0.27429424442E+01 0.29015463574E+01
 0.31155308617E+01 0.33889150600E+01 0.37274697428E+01 0.41373730418E+01 0.46227675331E+01
 0.51826649644E+01 0.58079947557E+01 0.64797311621E+01 0.71688091523E+01 0.78379756405E+01
 0.84451689885E+01 0.89478263481E+01 0.93076594919E+01 0.94954983519E+01 0.94954979458E+01
 0.93076618286E+01 0.89478388280E+01 0.84451947828E+01 0.78380091673E+01 0.71688430752E+01
 0.64797626689E+01 0.62133481671E+01 0.54576475393E+01 0.47955116269E+01 0.42329398619E+01
 0.37667997609E+01 0.33889825558E+01 0.30903121108E+01 0.28632620744E+01 0.27030639591E+01
 0.26074305146E+01 0.25755916479E+01 0.26073994618E+01 0.27029892516E+01 0.28631438337E+01
 0.30901882030E+01 0.33889150600E+01 0.37668199043E+01 0.42330105755E+01 0.47955612521E+01
 0.54576382290E+01 0.62132977703E+01 0.70442522419E+01 0.79188078710E+01 0.87934320058E+01
 0.96164534372E+01 0.10332988714E+02 0.10890516129E+02 0.11244921326E+02 0.11366536393E+02
 0.11244875738E+02 0.10890454736E+02 0.10332948521E+02 0.96164515288E+01 0.87934604827E+01
 0.79188539699E+01 0.70443089837E+01 0.64737485907E+01 0.56022490687E+01 0.48550380813E+01
 0.42329397723E+01 0.37274498922E+01 0.33260727463E+01 0.30167348106E+01 0.27903609330E+01
 0.26414853208E+01 0.25674972313E+01 0.25674755464E+01 0.26414169337E+01 0.27902504404E+01
 0.30166179440E+01 0.33260080910E+01 0.37274697428E+01 0.42330105755E+01 0.48550869096E+01
 0.56022329775E+01 0.64736855805E+01 0.74545779654E+01 0.85134506201E+01 0.96030272836E+01
 0.10663793789E+02 0.11629094436E+02 0.12430970669E+02 0.13007016891E+02 0.13308498661E+02
 0.13308441637E+02 0.13006875228E+02 0.12430814055E+02 0.11628987584E+02 0.10663757809E+02
 0.96030440840E+01 0.85134986338E+01 0.74546455394E+01 0.65635749160E+01 0.56022498463E+01
 0.47955154647E+01 0.41373081655E+01 0.36130978939E+01 0.32061139324E+01 0.29018264673E+01
 0.26900140400E+01 0.25647398050E+01 0.25232222602E+01 0.25646870863E+01 0.26899179158E+01
 0.29017208589E+01 0.32060527446E+01 0.36131135800E+01 0.41373730418E+01 0.47955612521E+01
 0.56022329775E+01 0.65635121108E+01 0.76707149316E+01 0.88961205994E+01 0.10192475838E+02
 0.11495981069E+02 0.12731017638E+02 0.13815361242E+02 0.14666659567E+02 0.15211916648E+02
 0.15399726918E+02 0.15211766128E+02 0.14666420343E+02 0.13815127664E+02 0.12730862972E+02
 0.11495918883E+02 0.10192477001E+02 0.88961591644E+01 0.76707789072E+01 0.64737402425E+01
 0.54576513673E+01 0.46227251665E+01 0.39550352611E+01 0.34341528562E+01 0.30397607854E+01
 0.27556816366E+01 0.25711426204E+01 0.24801325082E+01 0.24801044019E+01 0.25710674342E+01
 0.27555909980E+01 0.30397035063E+01 0.34341616687E+01 0.39550907898E+01 0.46227675331E+01
 0.54576382290E+01 0.64736855805E+01 0.76707149316E+01 0.90282429147E+01 0.10503343206E+02
 0.12032678906E+02 0.13536555293E+02 0.14922768493E+02 0.16090147991E+02 0.16934718238E+02
 0.17377381855E+02 0.17377304973E+02 0.16934509700E+02 0.16089873776E+02 0.14922517720E+02
 0.13536390233E+02 0.12032602436E+02 0.10503324509E+02 0.90282628619E+01 0.76707661064E+01
 0.62133387414E+01 0.51826696483E+01 0.43529698600E+01 0.37025026088E+01 0.32059349767E+01
 0.28406731544E+01 0.25899465409E+01 0.24431507448E+01 0.23947581118E+01 0.24431012820E+01
 0.25898744706E+01 0.28406222167E+01 0.32059372954E+01 0.37025478552E+01 0.43530098026E+01
 0.51826649644E+01 0.62132977703E+01 0.74545779654E+01 0.88961205994E+01 0.10503343206E+02
 0.12218234067E+02 0.13962781355E+02 0.15641460441E+02 0.17135606649E+02 0.18311590855E+02
 0.19062787242E+02 0.19321030160E+02 0.19062686395E+02 0.18311399960E+02 0.17135368763E+02
 0.15641242703E+02 0.13962629767E+02 0.12218149014E+02 0.10503304893E+02 0.88961219456E+01
 0.74546139427E+01 0.58080221677E+01 0.48032115036E+01 0.40102345105E+01 0.34007440785E+01
 0.29462566720E+01 0.26234950863E+01 0.24162203301E+01 0.23147575582E+01 0.23147347308E+01
 0.24161682776E+01 0.26234521150E+01 0.29462545957E+01 0.34007799647E+01 0.40102715435E+01
 0.48032149476E+01 0.58079947557E+01 0.70442522419E+01 0.85134506201E+01 0.10192475838E+02
 0.12032678906E+02 0.13962781355E+02 0.15890787595E+02 0.17689255465E+02 0.19201663765E+02
 0.20293938456E+02 0.20866995628E+02 0.20866979963E+02 0.20293875034E+02 0.19201531867E+02
 0.17689074155E+02 0.15890609001E+02 0.13962644998E+02 0.12032590691E+02 0.10192427865E+02
 0.85134421602E+01 0.70442765104E+01 0.52955182288E+01 0.43524557884E+01 0.36222888027E+01
 0.30722774344E+01 0.26729809278E+01 0.24020521111E+01 0.22448048088E+01 0.21932140940E+01
 0.22447730464E+01 0.24020172287E+01 0.26729743970E+01 0.30723037854E+01 0.36223208907E+01
 0.43524624712E+01 0.52954970918E+01 0.64797311621E+01 0.79188078710E+01 0.96030272836E+01
 0.11495981069E+02 0.13536555293E+02 0.15641460441E+02 0.17689255465E+02 0.19509687338E+02
 0.20944824269E+02 0.21865361653E+02 0.22182870935E+02 0.21865383072E+02 0.20944812214E+02
 0.19509597997E+02 0.17689105921E+02 0.15641305264E+02 0.13536433173E+02 0.11495899329E+02
 0.96029823362E+01 0.79188007446E+01 0.64797525212E+01 0.47193684363E+01 0.38656251731E+01
 0.32166772633E+01 0.27382159937E+01 0.24020283831E+01 0.21880450189E+01 0.20839266051E+01
 0.20839135689E+01 0.21880197623E+01 0.24020179165E+01 0.27382318947E+01 0.32167021814E+01
 0.38656303528E+01 0.47193448539E+01 0.58122174735E+01 0.71688091523E+01 0.87934320058E+01
 0.10663793789E+02 0.12731017638E+02 0.14922768493E+02 0.17135606649E+02 0.19201663765E+02
 0.20944824269E+02 0.22210963699E+02 0.22878651995E+02 0.22878691344E+02 0.22211034488E+02
 0.20944838117E+02 0.19201582827E+02 0.17135469553E+02 0.14922633746E+02 0.12730913750E+02
 0.10663723146E+02 0.87933968482E+01 0.71688136995E+01 0.58122474190E+01 0.41223483353E+01
 0.33751529243E+01 0.28174409771E+01 0.24161630432E+01 0.21460878060E+01 0.19903279156E+01
 0.19394114474E+01 0.19903137859E+01 0.21460768300E+01 0.24161699082E+01 0.28174587591E+01
 0.33751565319E+01 0.41223199259E+01 0.50959555406E+01 0.63287296556E+01 0.78379756405E+01
 0.96164534372E+01 0.11629094436E+02 0.13815361242E+02 0.16090147991E+02 0.18311590855E+02
 0.20293938456E+02 0.21865361653E+02 0.22878651995E+02 0.23229292243E+02 0.22878746886E+02
 0.21865457067E+02 0.20293947802E+02 0.18311511582E+02 0.16090034415E+02 0.13815254163E+02
 0.11629005657E+02 0.96163918070E+01 0.78379586254E+01 0.63287592743E+01 0.50960031271E+01
 0.35410145349E+01 0.29072137225E+01 0.24430914498E+01 0.21191041957E+01 0.19140718102E+01
 0.18147207114E+01 0.18147163396E+01 0.19140647643E+01 0.21191057313E+01 0.24431030716E+01
 0.29072185563E+01 0.35409882752E+01 0.43805359367E+01 0.54627095606E+01 0.68151200352E+01
 0.84451689885E+01 0.10332988714E+02 0.12430970669E+02 0.14666659567E+02 0.16934718238E+02
 0.19062787242E+02 0.20866995628E+02 0.22182870935E+02 0.22878691344E+02 0.22878746886E+02
 0.22182987116E+02 0.20867078273E+02 0.19062791995E+02 0.16934667584E+02 0.14666585425E+02
 0.12430885380E+02 0.10332908534E+02 0.84451280551E+01 0.68151422016E+01 0.54627752638E+01
 0.43805978551E+01 0.30024059362E+01 0.24800984554E+01 0.21059547602E+01 0.18552455383E+01
 0.17112068573E+01 0.16642349399E+01 0.17112054406E+01 0.18552466135E+01 0.21059621182E+01
 0.24801059069E+01 0.30023916030E+01 0.37052353771E+01 0.46254894735E+01 0.57968416106E+01
 0.72390174850E+01 0.89478263481E+01 0.10890516129E+02 0.13007016891E+02 0.15211916648E+02
 0.17377381855E+02 0.19321030160E+02 0.20866979963E+02 0.21865383072E+02 0.22211034488E+02
 0.21865457067E+02 0.20867078273E+02 0.19321104976E+02 0.17377418783E+02 0.15211914199E+02
 0.13006970097E+02 0.10890440344E+02 0.89477699446E+01 0.72390290277E+01 0.57969193230E+01
 0.46255821438E+01 0.37052935473E+01 0.25232208693E+01 0.21043445412E+01 0.18126468932E+01
 0.16285569555E+01 0.15395645841E+01 0.15395657555E+01 0.16285599416E+01 0.18126526470E+01
 0.21043543331E+01 0.25232232780E+01 0.30963408749E+01 0.38571214558E+01 0.48406016393E+01
 0.60746318039E+01 0.75691183857E+01 0.93076594919E+01 0.11244921326E+02 0.13308498661E+02
 0.15399726918E+02 0.17377304973E+02 0.19062686395E+02 0.20293875034E+02 0.20944812214E+02
 0.20944838117E+02 0.20293947802E+02 0.19062791995E+02 0.17377418783E+02 0.15399810577E+02
 0.13308515489E+02 0.11244874075E+02 0.93076027469E+01 0.75691206427E+01 0.60747136004E+01
 0.48407175737E+01 0.38572085894E+01 0.30963738095E+01 0.21110425713E+01 0.17840814994E+01
 0.15652257881E+01 0.14397010278E+01 0.13988208988E+01 0.14397040558E+01 0.15652305418E+01
 0.17840913647E+01 0.21110579629E+01 0.25674975138E+01 0.31813613669E+01 0.39849961003E+01
 0.50092678639E+01 0.62742207727E+01 0.77790591122E+01 0.94954983519E+01 0.11366536393E+02
 0.13308441637E+02 0.15211766128E+02 0.16934509700E+02 0.18311399960E+02 0.19201531867E+02
 0.19509597997E+02 0.19201582827E+02 0.18311511582E+02 0.16934667584E+02 0.15211914199E+02
 0.13308515489E+02 0.11366521884E+02 0.94954489343E+01 0.77790536776E+01 0.62742970667E+01
 0.50093927459E+01 0.39851024081E+01 0.31814085514E+01 0.25674963628E+01 0.17666968874E+01
 0.15188715660E+01 0.13625470653E+01 0.12870582672E+01 0.12870588897E+01 0.13625484301E+01
 0.15188771688E+01 0.17667146327E+01 0.21222373440E+01 0.26074300539E+01 0.32494939287E+01
 0.40777597308E+01 0.51170921042E+01 0.63786686511E+01 0.78511317015E+01 0.94954979458E+01
 0.11244875738E+02 0.13006875228E+02 0.14666420343E+02 0.16089873776E+02 0.17135368763E+02
 0.17689074155E+02 0.17689105921E+02 0.17135469553E+02 0.16090034415E+02 0.14666585425E+02
 0.13006970097E+02 0.11244874075E+02 0.94954489343E+01 0.78511171035E+01 0.63787336186E+01
 0.51172129916E+01 0.40778726136E+01 0.32495496418E+01 0.26074280982E+01 0.21222124031E+01
 0.14867722908E+01 0.13054493831E+01 0.12014955910E+01 0.11676613633E+01 0.12014922312E+01
 0.13054467602E+01 0.14867815858E+01 0.17573959624E+01 0.21339124705E+01 0.26376942745E+01
 0.32936717690E+01 0.41265944722E+01 0.51542101551E+01 0.63786794627E+01 0.77790791631E+01
 0.93076618286E+01 0.10890454736E+02 0.12430814055E+02 0.13815127664E+02 0.14922517720E+02
 0.15641242703E+02 0.15890609001E+02 0.15641305264E+02 0.14922633746E+02 0.13815254163E+02
 0.12430885380E+02 0.10890440344E+02 0.93076027469E+01 0.77790536776E+01 0.63787336186E+01
 0.51543243018E+01 0.41267084608E+01 0.32937337250E+01 0.26376940051E+01 0.21338793344E+01
 0.17573671365E+01 0.12656539189E+01 0.11390659831E+01 0.10779651959E+01 0.10779606004E+01
 0.11390558832E+01 0.12656502672E+01 0.14662429073E+01 0.17531698664E+01 0.21425568160E+01
 0.26540166972E+01 0.33089805058E+01 0.41265915724E+01 0.51171006098E+01 0.62742473117E+01
 0.75691516254E+01 0.89478388280E+01 0.10332948521E+02 0.11628987584E+02 0.12730862972E+02
 0.13536390233E+02 0.13962629767E+02 0.13962644998E+02 0.13536433173E+02 0.12730913750E+02
 0.11629005657E+02 0.10332908534E+02 0.89477699446E+01 0.75691206427E+01 0.62742970667E+01
 0.51172129916E+01 0.41267084608E+01 0.33090499066E+01 0.26540230124E+01 0.21425220269E+01
 0.17531314146E+01 0.14662256579E+01 0.10968801614E+01 0.10144304614E+01 0.98760253080E+00
 0.10144181925E+01 0.10968665483E+01 0.12406941962E+01 0.14549610543E+01 0.17517009167E+01
 0.21457260429E+01 0.26540087874E+01 0.32936573894E+01 0.40777507029E+01 0.50092769499E+01
 0.60746601486E+01 0.72390538297E+01 0.84451947828E+01 0.96164515288E+01 0.10663757809E+02
 0.11495918883E+02 0.12032602436E+02 0.12218149014E+02 0.12032590691E+02 0.11495899329E+02
 0.10663723146E+02 0.96163918070E+01 0.84451280551E+01 0.72390290277E+01 0.60747136004E+01
 0.50093927459E+01 0.40778726136E+01 0.32937337250E+01 0.26540230124E+01 0.21456956028E+01
 0.17516585785E+01 0.14549346029E+01 0.12406926420E+01 0.97398051098E+00 0.92638936198E+00
 0.92638130670E+00 0.97396324781E+00 0.10725802501E+01 0.12287193699E+01 0.14513842751E+01
 0.17516987051E+01 0.21425466780E+01 0.26376748373E+01 0.32494700439E+01 0.39849783452E+01
 0.48405989842E+01 0.57968569793E+01 0.68151490987E+01 0.78380091673E+01 0.87934604827E+01
 0.96030440840E+01 0.10192477001E+02 0.10503324509E+02 0.10503304893E+02 0.10192427865E+02
 0.96029823362E+01 0.87933968482E+01 0.78379586254E+01 0.68151422016E+01 0.57969193230E+01
 0.48407175737E+01 0.39851024081E+01 0.32495496418E+01 0.26376940051E+01 0.21425220269E+01
 0.17516585785E+01 0.14513529392E+01 0.12287097628E+01 0.10725908610E+01 0.89107272396E+00
 0.87047887238E+00 0.89105938554E+00 0.95433799311E+00 0.10646665157E+01 0.12287235606E+01
 0.14549641632E+01 0.17531663598E+01 0.21339002143E+01 0.26074088748E+01 0.31813326565E+01
 0.38570900089E+01 0.46254644383E+01 0.54627014878E+01 0.63287436280E+01 0.71688430752E+01
 0.79188539699E+01 0.85134986338E+01 0.88961591644E+01 0.90282628619E+01 0.88961219456E+01
 0.85134421602E+01 0.79188007446E+01 0.71688136995E+01 0.63287592743E+01 0.54627752638E+01
 0.46255821438E+01 0.38572085894E+01 0.31814085514E+01 0.26074280982E+01 0.21338793344E+01
 0.17531314146E+01 0.14549346029E+01 0.12287097628E+01 0.10646708292E+01 0.95435356925E+00
 0.84340735542E+00 0.84340237060E+00 0.87953275144E+00 0.95434437074E+00 0.10725909486E+01
 0.12407054399E+01 0.14662509599E+01 0.17573991949E+01 0.21222350479E+01 0.25674850903E+01
 0.30963116509E+01 0.37051893270E+01 0.43804859948E+01 0.50959216006E+01 0.58122147589E+01
 0.64797626689E+01 0.70443089837E+01 0.74546455394E+01 0.76707789072E+01 0.76707661064E+01
 0.74546139427E+01 0.70442765104E+01 0.64797525212E+01 0.58122474190E+01 0.50960031271E+01
 0.43805978551E+01 0.37052935473E+01 0.30963738095E+01 0.25674963628E+01 0.21222124031E+01
 0.17573671365E+01 0.14662256579E+01 0.12406926420E+01 0.10725908610E+01 0.95435356925E+00
 0.87954398294E+00 0.84340508529E+00 0.87048383598E+00 0.92639156166E+00 0.10144280904E+01
 0.11390640556E+01 0.13054573393E+01 0.15188965587E+01 0.17841228377E+01 0.21043914264E+01
 0.24801313874E+01 0.29072127023E+01 0.33751120496E+01 0.38655611881E+01 0.43523970654E+01
 0.48031758168E+01 0.51826548427E+01 0.54576463876E+01 0.56022480964E+01 0.56022496021E+01
 0.54576520359E+01 0.51826708569E+01 0.48032125891E+01 0.43524560995E+01 0.38656242671E+01
 0.33751508464E+01 0.29072111625E+01 0.24800963784E+01 0.21043435606E+01 0.17840816786E+01
 0.15188726813E+01 0.13054510968E+01 0.11390678222E+01 0.10144319750E+01 0.92639040393E+00
 0.87047956532E+00 0.84340281392E+00 0.87048383598E+00 0.90528022259E+00 0.96550210169E+00
 0.10542694566E+01 0.11755035430E+01 0.13334975352E+01 0.15323549615E+01 0.17752390669E+01
 0.20633682855E+01 0.23947617696E+01 0.27628890297E+01 0.31555545477E+01 0.35544660614E+01
 0.39359152459E+01 0.42727990678E+01 0.45378557485E+01 0.47075882811E+01 0.47660499941E+01
 0.47075913230E+01 0.45378650543E+01 0.42728197571E+01 0.39359476845E+01 0.35544991377E+01
 0.31555702228E+01 0.27628765589E+01 0.23947259850E+01 0.20633242553E+01 0.17752017930E+01
 0.15323336145E+01 0.13334935376E+01 0.11755099901E+01 0.10542747987E+01 0.96549860477E+00
 0.90526969441E+00 0.87047489420E+00 0.85911094600E+00 0.92639156166E+00 0.96550210169E+00
 0.10267344847E+01 0.11129457311E+01 0.12275334527E+01 0.13740197018E+01 0.15554536033E+01
 0.17736050590E+01 0.20279749681E+01 0.23147404289E+01 0.26258545090E+01 0.29485832304E+01
 0.32657548445E+01 0.35569072214E+01 0.38003502112E+01 0.39759255008E+01 0.40679930900E+01
 0.40679920412E+01 0.39759247160E+01 0.38003538520E+01 0.35569154135E+01 0.32657609609E+01
 0.29485780900E+01 0.26258337878E+01 0.23147080089E+01 0.20279399903E+01 0.17735770660E+01
 0.15554394286E+01 0.13740210597E+01 0.12275447658E+01 0.11129559501E+01 0.10267344037E+01
 0.96549128025E+00 0.92637821231E+00 0.90735612245E+00 0.90736201419E+00 0.10144280904E+01
 0.10542694566E+01 0.11129457311E+01 0.11931083183E+01 0.12977369403E+01 0.14296972889E+01
 0.15911058826E+01 0.17825270711E+01 0.20021017251E+01 0.22447778286E+01 0.25018495316E+01
 0.27609934770E+01 0.30069252865E+01 0.32227078930E+01 0.33916325664E+01 0.34994451878E+01
 0.35365159370E+01 0.34994399739E+01 0.33916259230E+01 0.32227012417E+01 0.30069152928E+01
 0.27609770236E+01 0.25018282206E+01 0.22447562416E+01 0.20020839158E+01 0.17825165167E+01
 0.15911062144E+01 0.14297094528E+01 0.12977556690E+01 0.11931238822E+01 0.11129504813E+01
 0.10542628488E+01 0.10144162734E+01 0.99136733012E+00 0.98383339136E+00 0.99137604013E+00
 0.11390640556E+01 0.11755035430E+01 0.12275334527E+01 0.12977369403E+01 0.13888005767E+01
 0.15030336376E+01 0.16417358192E+01 0.18044843915E+01 0.19884683492E+01 0.21880272102E+01
 0.23945432861E+01 0.25967863137E+01 0.27817398237E+01 0.29358748059E+01 0.30467652081E+01
 0.31048261722E+01 0.31048235536E+01 0.30467587453E+01 0.29358658965E+01 0.27817272816E+01
 0.25967701628E+01 0.23945285183E+01 0.21880201149E+01 0.19884707738E+01 0.18044946424E+01
 0.16417529131E+01 0.15030564753E+01 0.13888240950E+01 0.12977534625E+01 0.12275386676E+01
 0.11754992752E+01 0.11390555826E+01 0.11160496599E+01 0.11049461475E+01 0.11049490864E+01
 0.11160571613E+01 0.13054573393E+01 0.13334975352E+01 0.13740197018E+01 0.14296972889E+01
 0.15030336376E+01 0.15958735185E+01 0.17088455135E+01 0.18408169513E+01 0.19884683252E+01
 0.21460966531E+01 0.23057355828E+01 0.24576374509E+01 0.25911153184E+01 0.26956975983E+01
 0.27624794202E+01 0.27854490647E+01 0.27624789114E+01 0.26956949228E+01 0.25911085246E+01
 0.24576276858E+01 0.23057287875E+01 0.21460995866E+01 0.19884828629E+01 0.18408398423E+01
 0.17088723085E+01 0.15958997220E+01 0.15030533852E+01 0.14297055475E+01 0.13740169871E+01
 0.13334897489E+01 0.13054501542E+01 0.12874332196E+01 0.12774708751E+01 0.12742965917E+01
 0.12774731961E+01 0.12874379034E+01 0.15188965587E+01 0.15323549615E+01 0.15554536033E+01
 0.15911058826E+01 0.16417358192E+01 0.17088455135E+01 0.17926003697E+01 0.18914863813E+01
 0.20021016861E+01 0.21191426572E+01 0.22356353617E+01 0.23434454076E+01 0.24340689759E+01
 0.24996540455E+01 0.25341158324E+01 0.25341182684E+01 0.24996584336E+01 0.24340701255E+01
 0.23434422875E+01 0.22356326431E+01 0.21191462657E+01 0.20021141076E+01 0.18915060959E+01
 0.17926232742E+01 0.17088652136E+01 0.16417447810E+01 0.15911001382E+01 0.15554372765E+01
 0.15323380632E+01 0.15188869888E+01 0.15120895668E+01 0.15092652344E+01 0.15083951569E+01
 0.15083940448E+01 0.15092633893E+01 0.15120912241E+01 0.17841228377E+01 0.17752390669E+01
 0.17736050590E+01 0.17825270711E+01 0.18044843915E+01 0.18408169513E+01 0.18914863813E+01
 0.19549221930E+01 0.20279749624E+01 0.21060074808E+01 0.21831663291E+01 0.22528769785E+01
 0.23085716429E+01 0.23445836786E+01 0.23570489046E+01 0.23445903446E+01 0.23085789923E+01
 0.22528799321E+01 0.21831649120E+01 0.21060046193E+01 0.20279735859E+01 0.19549248346E+01
 0.18914935160E+01 0.18408237035E+01 0.18044819858E+01 0.17825105948E+01 0.17735792350E+01
 0.17752150440E+01 0.17841097528E+01 0.17965092569E+01 0.18086814835E+01 0.18174327640E+01
 0.18206021213E+01 0.18174263757E+01 0.18086744952E+01 0.17965096987E+01 0.21043914264E+01
 0.20633682855E+01 0.20279749681E+01 0.20021017251E+01 0.19884683492E+01 0.19884683252E+01
 0.20021016861E+01 0.20279749624E+01 0.20633683139E+01 0.21043914578E+01 0.21462749473E+01
 0.21838469863E+01 0.22121989780E+01 0.22274530162E+01 0.22274577626E+01 0.22122094349E+01
 0.21838552879E+01 0.21462747961E+01 0.21043804790E+01 0.20633486653E+01 0.20279537427E+01
 0.20020868682E+01 0.19884607540E+01 0.19884600877E+01 0.20020851984E+01 0.20279519006E+01
 0.20633475616E+01 0.21043806234E+01 0.21462760933E+01 0.21838572311E+01 0.22122114528E+01
 0.22274594304E+01 0.22274541188E+01 0.22121995257E+01 0.21838471623E+01 0.21462749602E+01
 0.24801313874E+01 0.23947617696E+01 0.23147404289E+01 0.22447778286E+01 0.21880272102E+01
 0.21460966531E+01 0.21191426572E+01 0.21060074808E+01 0.21043914578E+01 0.21110751764E+01