   2   2   0   0
  0.2105112E+02  0.3904871E-09  0.3904871E-09  0.3904871E-09  0.5000000E-15
  1.000000000000000E-004
  CAR 
 unknown system                          
     16.51399869     -8.24275792  301      5.67768417      1.00000000
     -8.243  0.0000E+00  0.0000E+00
     -8.160  0.0000E+00  0.0000E+00
     -8.078  0.0000E+00  0.0000E+00
     -7.995  0.0000E+00  0.0000E+00
     -7.913  0.0000E+00  0.0000E+00
     -7.830  0.0000E+00  0.0000E+00
     -7.748  0.0000E+00  0.0000E+00
     -7.665  0.0000E+00  0.0000E+00
     -7.583  0.0000E+00  0.0000E+00
     -7.500  0.0000E+00  0.0000E+00
     -7.418  0.3504E-18  0.2891E-19
     -7.335  0.3539E-16  0.2949E-17
     -7.252  0.2920E-14  0.2439E-15
     -7.170  0.1718E-12  0.1442E-13
     -7.087  0.7235E-11  0.6114E-12
     -7.005  0.2184E-09  0.1864E-10
     -6.922  0.4735E-08  0.4094E-09
     -6.840  0.7391E-07  0.6509E-08
     -6.757  0.8342E-06  0.7535E-07
     -6.675  0.6852E-05  0.6408E-06
     -6.592  0.4134E-04  0.4052E-05
     -6.510  0.1858E-03  0.1938E-04
     -6.427  0.6331E-03  0.7163E-04
     -6.345  0.1673E-02  0.2097E-03
     -6.262  0.3516E-02  0.4998E-03
     -6.180  0.6033E-02  0.9977E-03
     -6.097  0.8754E-02  0.1720E-02
     -6.015  0.1126E-01  0.2649E-02
     -5.932  0.1353E-01  0.3766E-02
     -5.850  0.1574E-01  0.5065E-02
     -5.767  0.1763E-01  0.6519E-02
     -5.685  0.1881E-01  0.8072E-02
     -5.602  0.1969E-01  0.9697E-02
     -5.520  0.2132E-01  0.1146E-01
     -5.437  0.2385E-01  0.1342E-01
     -5.354  0.2589E-01  0.1556E-01
     -5.272  0.2639E-01  0.1774E-01
     -5.189  0.2626E-01  0.1991E-01
     -5.107  0.2714E-01  0.2215E-01
     -5.024  0.2918E-01  0.2455E-01
     -4.942  0.3151E-01  0.2715E-01
     -4.859  0.3377E-01  0.2994E-01
     -4.777  0.3588E-01  0.3290E-01
     -4.694  0.3724E-01  0.3597E-01
     -4.612  0.3723E-01  0.3905E-01
     -4.529  0.3643E-01  0.4205E-01
     -4.447  0.3702E-01  0.4511E-01
     -4.364  0.4119E-01  0.4851E-01
     -4.282  0.4815E-01  0.5248E-01
     -4.199  0.5408E-01  0.5694E-01
     -4.117  0.5653E-01  0.6161E-01
     -4.034  0.5678E-01  0.6629E-01
     -3.952  0.5686E-01  0.7099E-01
     -3.869  0.5656E-01  0.7565E-01
     -3.787  0.5421E-01  0.8013E-01
     -3.704  0.5011E-01  0.8426E-01
     -3.621  0.4788E-01  0.8821E-01
     -3.539  0.5059E-01  0.9239E-01
     -3.456  0.5584E-01  0.9700E-01
     -3.374  0.5752E-01  0.1017E+00
     -3.291  0.5226E-01  0.1061E+00
     -3.209  0.4243E-01  0.1096E+00
     -3.126  0.3297E-01  0.1123E+00
     -3.044  0.2711E-01  0.1145E+00
     -2.961  0.2581E-01  0.1166E+00
     -2.879  0.2886E-01  0.1190E+00
     -2.796  0.3455E-01  0.1219E+00
     -2.714  0.3887E-01  0.1251E+00
     -2.631  0.3759E-01  0.1282E+00
     -2.549  0.2976E-01  0.1306E+00
     -2.466  0.1875E-01  0.1322E+00
     -2.384  0.9200E-02  0.1330E+00
     -2.301  0.3491E-02  0.1332E+00
     -2.219  0.1308E-02  0.1333E+00
     -2.136  0.1856E-02  0.1335E+00
     -2.054  0.5833E-02  0.1340E+00
     -1.971  0.1480E-01  0.1352E+00
     -1.889  0.2764E-01  0.1375E+00
     -1.806  0.3836E-01  0.1407E+00
     -1.723  0.4082E-01  0.1440E+00
     -1.641  0.3609E-01  0.1470E+00
     -1.558  0.3190E-01  0.1496E+00
     -1.476  0.3526E-01  0.1525E+00
     -1.393  0.4737E-01  0.1564E+00
     -1.311  0.6350E-01  0.1617E+00
     -1.228  0.7666E-01  0.1680E+00
     -1.146  0.8272E-01  0.1748E+00
     -1.063  0.8118E-01  0.1815E+00
     -0.981  0.7246E-01  0.1875E+00
     -0.898  0.5933E-01  0.1924E+00
     -0.816  0.4854E-01  0.1964E+00
     -0.733  0.4465E-01  0.2001E+00
     -0.651  0.4390E-01  0.2037E+00
     -0.568  0.3937E-01  0.2070E+00
     -0.486  0.3091E-01  0.2095E+00
     -0.403  0.2483E-01  0.2116E+00
     -0.321  0.2545E-01  0.2137E+00
     -0.238  0.3125E-01  0.2163E+00
     -0.156  0.3730E-01  0.2193E+00
     -0.073  0.3843E-01  0.2225E+00
      0.009  0.3285E-01  0.2252E+00
      0.092  0.2405E-01  0.2272E+00
      0.175  0.1779E-01  0.2287E+00
      0.257  0.1740E-01  0.2301E+00
      0.340  0.2178E-01  0.2319E+00
      0.422  0.2616E-01  0.2341E+00
      0.505  0.2564E-01  0.2362E+00
      0.587  0.1991E-01  0.2378E+00
      0.670  0.1353E-01  0.2389E+00
      0.752  0.1078E-01  0.2398E+00
      0.835  0.1204E-01  0.2408E+00
      0.917  0.1565E-01  0.2421E+00
      1.000  0.2103E-01  0.2438E+00
      1.082  0.2836E-01  0.2462E+00
      1.165  0.3666E-01  0.2492E+00
      1.247  0.4421E-01  0.2529E+00
      1.330  0.5018E-01  0.2570E+00
      1.412  0.5573E-01  0.2616E+00
      1.495  0.6333E-01  0.2668E+00
      1.577  0.7323E-01  0.2729E+00
      1.660  0.8127E-01  0.2796E+00
      1.742  0.8292E-01  0.2864E+00
      1.825  0.7864E-01  0.2929E+00
      1.908  0.7319E-01  0.2990E+00
      1.990  0.7055E-01  0.3048E+00
      2.073  0.7078E-01  0.3106E+00
      2.155  0.7158E-01  0.3165E+00
      2.238  0.7232E-01  0.3225E+00
      2.320  0.7573E-01  0.3287E+00
      2.403  0.8452E-01  0.3357E+00
      2.485  0.9589E-01  0.3436E+00
      2.568  0.1020E+00  0.3520E+00
      2.650  0.9935E-01  0.3602E+00
      2.733  0.9449E-01  0.3680E+00
      2.815  0.9510E-01  0.3759E+00
      2.898  0.9959E-01  0.3841E+00
      2.980  0.1007E+00  0.3924E+00
      3.063  0.9683E-01  0.4004E+00
      3.145  0.9432E-01  0.4082E+00
      3.228  0.9876E-01  0.4163E+00
      3.310  0.1059E+00  0.4251E+00
      3.393  0.1053E+00  0.4338E+00
      3.475  0.9365E-01  0.4415E+00
      3.558  0.7898E-01  0.4480E+00
      3.640  0.7253E-01  0.4540E+00
      3.723  0.7797E-01  0.4604E+00
      3.806  0.8878E-01  0.4678E+00
      3.888  0.9488E-01  0.4756E+00
      3.971  0.9123E-01  0.4831E+00
      4.053  0.8024E-01  0.4897E+00
      4.136  0.6842E-01  0.4954E+00
      4.218  0.6145E-01  0.5005E+00
      4.301  0.5984E-01  0.5054E+00
      4.383  0.5806E-01  0.5102E+00
      4.466  0.5070E-01  0.5144E+00
      4.548  0.3940E-01  0.5176E+00
      4.631  0.3072E-01  0.5202E+00
      4.713  0.2811E-01  0.5225E+00
      4.796  0.2858E-01  0.5248E+00
      4.878  0.2712E-01  0.5271E+00
      4.961  0.2236E-01  0.5289E+00
      5.043  0.1674E-01  0.5303E+00
      5.126  0.1252E-01  0.5313E+00
      5.208  0.9624E-02  0.5321E+00
      5.291  0.7006E-02  0.5327E+00
      5.373  0.4356E-02  0.5331E+00
      5.456  0.2163E-02  0.5332E+00
      5.539  0.8259E-03  0.5333E+00
      5.621  0.2401E-03  0.5333E+00
      5.704  0.7799E-04  0.5333E+00
      5.786  0.1761E-03  0.5333E+00
      5.869  0.7386E-03  0.5334E+00
      5.951  0.2353E-02  0.5336E+00
      6.034  0.5512E-02  0.5341E+00
      6.116  0.9683E-02  0.5349E+00
      6.199  0.1334E-01  0.5360E+00
      6.281  0.1591E-01  0.5373E+00
      6.364  0.1905E-01  0.5388E+00
      6.446  0.2461E-01  0.5409E+00
      6.529  0.3155E-01  0.5435E+00
      6.611  0.3686E-01  0.5465E+00
      6.694  0.3999E-01  0.5498E+00
      6.776  0.4369E-01  0.5534E+00
      6.859  0.4926E-01  0.5575E+00
      6.941  0.5451E-01  0.5620E+00
      7.024  0.5747E-01  0.5667E+00
      7.106  0.5903E-01  0.5716E+00
      7.189  0.6193E-01  0.5767E+00
      7.271  0.6968E-01  0.5825E+00
      7.354  0.8464E-01  0.5894E+00
      7.437  0.1038E+00  0.5980E+00
      7.519  0.1177E+00  0.6077E+00
      7.602  0.1182E+00  0.6175E+00
      7.684  0.1069E+00  0.6263E+00
      7.767  0.9329E-01  0.6340E+00
      7.849  0.8553E-01  0.6411E+00
      7.932  0.8485E-01  0.6481E+00
      8.014  0.8598E-01  0.6552E+00
      8.097  0.8319E-01  0.6620E+00
      8.179  0.7662E-01  0.6684E+00
      8.262  0.7137E-01  0.6742E+00
      8.344  0.7281E-01  0.6802E+00
      8.427  0.8417E-01  0.6872E+00
      8.509  0.1042E+00  0.6958E+00
      8.592  0.1252E+00  0.7061E+00
      8.674  0.1370E+00  0.7174E+00
      8.757  0.1359E+00  0.7287E+00
      8.839  0.1271E+00  0.7391E+00
      8.922  0.1188E+00  0.7490E+00
      9.004  0.1134E+00  0.7583E+00
      9.087  0.1081E+00  0.7672E+00
      9.169  0.1013E+00  0.7756E+00
      9.252  0.9478E-01  0.7834E+00
      9.335  0.9005E-01  0.7908E+00
      9.417  0.8741E-01  0.7981E+00
      9.500  0.8660E-01  0.8052E+00
      9.582  0.8638E-01  0.8123E+00
      9.665  0.8582E-01  0.8194E+00
      9.747  0.8589E-01  0.8265E+00
      9.830  0.8725E-01  0.8337E+00
      9.912  0.8854E-01  0.8410E+00
      9.995  0.8978E-01  0.8484E+00
     10.077  0.9366E-01  0.8561E+00
     10.160  0.9974E-01  0.8644E+00
     10.242  0.1016E+00  0.8728E+00
     10.325  0.9404E-01  0.8805E+00
     10.407  0.8049E-01  0.8872E+00
     10.490  0.6867E-01  0.8928E+00
     10.572  0.6265E-01  0.8980E+00
     10.655  0.6089E-01  0.9030E+00
     10.737  0.6158E-01  0.9081E+00
     10.820  0.6693E-01  0.9136E+00
     10.902  0.7882E-01  0.9201E+00
     10.985  0.9282E-01  0.9278E+00
     11.068  0.1015E+00  0.9362E+00
     11.150  0.1011E+00  0.9445E+00
     11.233  0.9204E-01  0.9521E+00
     11.315  0.7672E-01  0.9584E+00
     11.398  0.6023E-01  0.9634E+00
     11.480  0.4890E-01  0.9674E+00
     11.563  0.4608E-01  0.9712E+00
     11.645  0.4871E-01  0.9753E+00
     11.728  0.4995E-01  0.9794E+00
     11.810  0.4670E-01  0.9832E+00
     11.893  0.4285E-01  0.9868E+00
     11.975  0.4500E-01  0.9905E+00
     12.058  0.5672E-01  0.9952E+00
     12.140  0.7439E-01  0.1001E+01
     12.223  0.8706E-01  0.1008E+01
     12.305  0.8477E-01  0.1015E+01
     12.388  0.6808E-01  0.1021E+01
     12.470  0.4662E-01  0.1025E+01
     12.553  0.3057E-01  0.1027E+01
     12.635  0.2485E-01  0.1030E+01
     12.718  0.2719E-01  0.1032E+01
     12.800  0.3056E-01  0.1034E+01
     12.883  0.3038E-01  0.1037E+01
     12.966  0.2865E-01  0.1039E+01
     13.048  0.2911E-01  0.1042E+01
     13.131  0.3187E-01  0.1044E+01
     13.213  0.3511E-01  0.1047E+01
     13.296  0.3807E-01  0.1050E+01
     13.378  0.3933E-01  0.1053E+01
     13.461  0.3558E-01  0.1056E+01
     13.543  0.2590E-01  0.1059E+01
     13.626  0.1438E-01  0.1060E+01
     13.708  0.5960E-02  0.1060E+01
     13.791  0.1998E-02  0.1060E+01
     13.873  0.1251E-02  0.1061E+01
     13.956  0.2574E-02  0.1061E+01
     14.038  0.5302E-02  0.1061E+01
     14.121  0.8108E-02  0.1062E+01
     14.203  0.9303E-02  0.1063E+01
     14.286  0.8818E-02  0.1063E+01
     14.368  0.8400E-02  0.1064E+01
     14.451  0.8906E-02  0.1065E+01
     14.533  0.8974E-02  0.1065E+01
     14.616  0.7243E-02  0.1066E+01
     14.699  0.4364E-02  0.1066E+01
     14.781  0.1921E-02  0.1067E+01
     14.864  0.6146E-03  0.1067E+01
     14.946  0.1425E-03  0.1067E+01
     15.029  0.2390E-04  0.1067E+01
     15.111  0.2897E-05  0.1067E+01
     15.194  0.2534E-06  0.1067E+01
     15.276  0.1597E-07  0.1067E+01
     15.359  0.7244E-09  0.1067E+01
     15.441  0.2362E-10  0.1067E+01
     15.524  0.5529E-12  0.1067E+01
     15.606  0.9285E-14  0.1067E+01
     15.689  0.1114E-15  0.1067E+01
     15.771  0.0000E+00  0.1067E+01
     15.854  0.0000E+00  0.1067E+01
     15.936  0.0000E+00  0.1067E+01
     16.019  0.0000E+00  0.1067E+01
     16.101  0.0000E+00  0.1067E+01
     16.184  0.0000E+00  0.1067E+01
     16.266  0.0000E+00  0.1067E+01
     16.349  0.0000E+00  0.1067E+01
     16.431  0.0000E+00  0.1067E+01
     16.514  0.0000E+00  0.1067E+01
