    2    2   15    1
  0.2105112E+02  0.3904871E-09  0.3904871E-09  0.3904871E-09  0.5000000E-15
  1.000000000000000E-004
  CAR 
 unknown system                          
      8     60      8
 
  0.6250000E-01  0.6250000E-01  0.6250000E-01  0.3906250E-02
    1       -6.242758   1.000000
    2        4.793161   1.000000
    3        5.248965   0.998783
    4        5.248965   0.998783
    5        7.863419   0.000000
    6        7.991588   0.000000
    7        7.991588   0.000000
    8        8.594633   0.000000
 
  0.1875000E+00  0.6250000E-01  0.6250000E-01  0.1171875E-01
    1       -5.983188   1.000000
    2        3.303562   1.000000
    3        4.472186   1.000000
    4        5.132229   0.999943
    5        7.881039   0.000000
    6        8.230616   0.000000
    7        8.495441   0.000000
    8       10.115996   0.000000
 
  0.3125000E+00  0.6250000E-01  0.6250000E-01  0.1171875E-01
    1       -5.357703   1.000000
    2        1.139554   1.000000
    3        3.993337   1.000000
    4        4.683996   1.000000
    5        7.428265   0.000000
    6        8.721911   0.000000
    7        8.998101   0.000000
    8       11.723280   0.000000
 
  0.4375000E+00  0.6250000E-01  0.6250000E-01  0.1171875E-01
    1       -4.489718   1.000000
    2       -0.685984   1.000000
    3        3.778515   1.000000
    4        4.289518   1.000000
    5        7.115389   0.000000
    6        8.804210   0.000000
    7        8.817868   0.000000
    8       13.021941   0.000000
 
 -0.4375000E+00  0.6250000E-01  0.6250000E-01  0.1171875E-01
    1       -4.063523   1.000000
    2       -1.357521   1.000000
    3        3.823359   1.000000
    4        4.079402   1.000000
    5        7.037043   0.000000
    6        8.621087   0.000000
    7        8.883169   0.000000
    8       13.122404   0.000000
 
 -0.3125000E+00  0.6250000E-01  0.6250000E-01  0.1171875E-01
    1       -4.786010   1.000000
    2       -0.147613   1.000000
    3        4.100724   1.000000
    4        4.102213   1.000000
    5        7.205134   0.000000
    6        8.615609   0.000000
    7        9.122906   0.000000
    8       12.160953   0.000000
 
 -0.1875000E+00  0.6250000E-01  0.6250000E-01  0.1171875E-01
    1       -5.602714   1.000000
    2        1.848485   1.000000
    3        4.372644   1.000000
    4        4.552745   1.000000
    5        7.569659   0.000000
    6        8.444832   0.000000
    7        9.154149   0.000000
    8       10.954665   0.000000
 
 -0.6250000E-01  0.6250000E-01  0.6250000E-01  0.1171875E-01
    1       -6.112267   1.000000
    2        4.041176   1.000000
    3        4.840083   1.000000
    4        4.984648   1.000000
    5        7.710220   0.000000
    6        8.204911   0.000000
    7        8.549886   0.000000
    8        9.366795   0.000000
 
  0.1875000E+00  0.1875000E+00  0.6250000E-01  0.1171875E-01
    1       -5.852513   1.000000
    2        3.146604   1.000000
    3        4.302291   1.000000
    4        4.372731   1.000000
    5        7.305283   0.000000
    6        8.928308   0.000000
    7        9.381733   0.000000
    8        9.841938   0.000000
 
  0.3125000E+00  0.1875000E+00  0.6250000E-01  0.2343750E-01
    1       -5.345001   1.000000
    2        1.679907   1.000000
    3        3.362421   1.000000
    4        4.123475   1.000000
    5        7.467706   0.000000
    6        9.032455   0.000000
    7        9.776565   0.000000
    8       10.160050   0.000000
 
  0.4375000E+00  0.1875000E+00  0.6250000E-01  0.2343750E-01
    1       -4.530006   1.000000
    2       -0.112642   1.000000
    3        2.869300   1.000000
    4        3.730782   1.000000
    5        7.645174   0.000000
    6        9.020191   0.000000
    7       10.187788   0.000000
    8       10.492716   0.000000
 
 -0.4375000E+00  0.1875000E+00  0.6250000E-01  0.2343750E-01
    1       -3.802755   1.000000
    2       -1.272329   1.000000
    3        2.585220   1.000000
    4        3.642202   1.000000
    5        7.696760   0.000000
    6        8.755321   0.000000
    7       10.052191   0.000000
    8       12.441053   0.000000
 
 -0.3125000E+00  0.1875000E+00  0.6250000E-01  0.2343750E-01
    1       -4.238856   1.000000
    2       -0.611999   1.000000
    3        2.520078   1.000000
    4        3.915073   1.000000
    5        7.945403   0.000000
    6        8.690187   0.000000
    7        9.992421   0.000000
    8       11.716727   0.000000
 
 -0.1875000E+00  0.1875000E+00  0.6250000E-01  0.2343750E-01
    1       -5.105660   1.000000
    2        1.052096   1.000000
    3        2.825729   1.000000
    4        4.402967   1.000000
    5        8.258466   0.000000
    6        8.581266   0.000000
    7        9.865197   0.000000
    8       10.360905   0.000000
 
 -0.6250000E-01  0.1875000E+00  0.6250000E-01  0.2343750E-01
    1       -5.726429   1.000000
    2        2.497575   1.000000
    3        3.914399   1.000000
    4        4.762164   1.000000
    5        7.840280   0.000000
    6        8.425129   0.000000
    7        9.200726   0.000000
    8       10.379280   0.000000
 
  0.3125000E+00  0.3125000E+00  0.6250000E-01  0.1171875E-01
    1       -4.956902   1.000000
    2        1.167139   1.000000
    3        3.226031   1.000000
    4        3.343688   1.000000
    5        6.522409   0.000000
    6        8.157140   0.000000
    7       11.178672   0.000000
    8       11.333391   0.000000
 
  0.4375000E+00  0.3125000E+00  0.6250000E-01  0.2343750E-01
    1       -4.230278   1.000000
    2       -0.035201   1.000000
    3        2.468525   1.000000
    4        3.010089   1.000000
    5        6.830795   0.000000
    6        7.999547   0.000000
    7       11.144365   0.000000
    8       12.297278   0.000000
 
 -0.4375000E+00  0.3125000E+00  0.6250000E-01  0.2343750E-01
    1       -3.368003   1.000000
    2       -1.187054   1.000000
    3        1.657877   1.000000
    4        2.979147   1.000000
    5        7.064428   0.000000
    6        9.616079   0.000000
    7       10.729810   0.000000
    8       12.210119   0.000000
 
 -0.3125000E+00  0.3125000E+00  0.6250000E-01  0.2343750E-01
    1       -3.438775   1.000000
    2       -1.094830   1.000000
    3        1.321115   1.000000
    4        3.310306   1.000000
    5        7.449038   0.000000
    6       10.310866   0.000000
    7       11.556867   0.000000
    8       11.912602   0.000000
 
 -0.1875000E+00  0.3125000E+00  0.6250000E-01  0.2343750E-01
    1       -4.300556   1.000000
    2       -0.162778   1.000000
    3        1.898347   1.000000
    4        3.873171   1.000000
    5        8.038379   0.000000
    6        9.232669   0.000000
    7       10.605319   0.000000
    8       10.911686   0.000000
 
 -0.6250000E-01  0.3125000E+00  0.6250000E-01  0.2343750E-01
    1       -4.996841   1.000000
    2        0.481177   1.000000
    3        3.463763   1.000000
    4        4.306099   1.000000
    5        7.706413   0.000000
    6        8.620534   0.000000
    7        9.460806   0.000000
    8       11.118914   0.000000
 
  0.4375000E+00  0.4375000E+00  0.6250000E-01  0.1171875E-01
    1       -3.596891   1.000000
    2       -0.875715   1.000000
    3        2.561810   1.000000
    4        2.768165   1.000000
    5        6.147970   0.000441
    6        6.853080   0.000000
    7       13.411990   0.000000
    8       13.440100   0.000000
 
 -0.4375000E+00  0.4375000E+00  0.6250000E-01  0.2343750E-01
    1       -2.718447   1.000000
    2       -1.835734   1.000000
    3        2.029158   1.000000
    4        2.536178   1.000000
    5        6.571688   0.000000
    6        7.279428   0.000000
    7       13.181807   0.000000
    8       14.140696   0.000000
 
 -0.3125000E+00  0.4375000E+00  0.6250000E-01  0.2343750E-01
    1       -2.820462   1.000000
    2       -1.669563   1.000000
    3        1.331125   1.000000
    4        2.840235   1.000000
    5        6.923375   0.000000
    6        9.460094   0.000000
    7       11.697133   0.000000
    8       12.797920   0.000000
 
 -0.1875000E+00  0.4375000E+00  0.6250000E-01  0.2343750E-01
    1       -3.554530   1.000000
    2       -1.243463   1.000000
    3        1.841674   1.000000
    4        3.419678   1.000000
    5        7.559496   0.000000
    6        9.473042   0.000000
    7       10.970830   0.000000
    8       12.198639   0.000000
 
 -0.6250000E-01  0.4375000E+00  0.6250000E-01  0.2343750E-01
    1       -4.141577   1.000000
    2       -1.077238   1.000000
    3        3.287486   1.000000
    4        3.983717   1.000000
    5        7.497380   0.000000
    6        8.555626   0.000000
    7        9.297922   0.000000
    8       12.762439   0.000000
 
 -0.4375000E+00 -0.4375000E+00  0.6250000E-01  0.1171875E-01
    1       -2.766077   1.000000
    2       -1.851272   1.000000
    3        2.428522   1.000000
    4        2.650520   1.000000
    5        6.150523   0.000414
    6        6.501793   0.000000
    7       14.461380   0.000000
    8       14.513999   0.000000
 
 -0.3125000E+00 -0.4375000E+00  0.6250000E-01  0.2343750E-01
    1       -3.515524   1.000000
    2       -0.938189   1.000000
    3        2.179573   1.000000
    4        2.691032   1.000000
    5        6.652464   0.000000
    6        7.528033   0.000000
    7       12.137223   0.000000
    8       13.421358   0.000000
 
 -0.1875000E+00 -0.4375000E+00  0.6250000E-01  0.2343750E-01
    1       -3.975022   1.000000
    2       -0.658182   1.000000
    3        2.223760   1.000000
    4        3.268890   1.000000
    5        7.328117   0.000000
    6        9.794199   0.000000
    7        9.961740   0.000000
    8       11.181404   0.000000
 
 -0.3125000E+00 -0.3125000E+00  0.6250000E-01  0.1171875E-01
    1       -4.331057   1.000000
    2        0.139454   1.000000
    3        2.828078   1.000000
    4        3.001064   1.000000
    5        6.270519   0.000014
    6        7.417902   0.000000
    7       12.278918   0.000000
    8       12.373483   0.000000
 
 -0.1875000E+00 -0.3125000E+00  0.6250000E-01  0.2343750E-01
    1       -4.843807   1.000000
    2        0.840337   1.000000
    3        2.871615   1.000000
    4        3.499187   1.000000
    5        7.109331   0.000000
    6        8.648682   0.000000
    7       10.225477   0.000000
    8       11.199028   0.000000
 
 -0.1875000E+00 -0.1875000E+00  0.6250000E-01  0.1171875E-01
    1       -5.466042   1.000000
    2        2.178964   1.000000
    3        3.749849   1.000000
    4        3.785056   1.000000
    5        6.881582   0.000000
    6        8.957170   0.000000
    7       10.172796   0.000000
    8       10.329472   0.000000
 
  0.1875000E+00  0.1875000E+00  0.1875000E+00  0.3906250E-02
    1       -5.855786   1.000000
    2        2.603050   1.000000
    3        4.822130   1.000000
    4        4.822130   1.000000
    5        7.429198   0.000000
    6        8.592223   0.000000
    7        8.592223   0.000000
    8       10.741751   0.000000
 
  0.3125000E+00  0.1875000E+00  0.1875000E+00  0.1171875E-01
    1       -5.476144   1.000000
    2        1.767943   1.000000
    3        3.360742   1.000000
    4        4.835491   1.000000
    5        8.081756   0.000000
    6        8.714885   0.000000
    7        8.989698   0.000000
    8       10.901642   0.000000
 
  0.4375000E+00  0.1875000E+00  0.1875000E+00  0.1171875E-01
    1       -4.754019   1.000000
    2        0.427284   1.000000
    3        2.315180   1.000000
    4        4.347999   1.000000
    5        7.976018   0.000000
    6        9.454331   0.000000
    7        9.639162   0.000000
    8       11.187196   0.000000
 
 -0.4375000E+00  0.1875000E+00  0.1875000E+00  0.1171875E-01
    1       -3.894921   1.000000
    2       -1.004081   1.000000
    3        2.155468   1.000000
    4        3.835560   1.000000
    5        7.513971   0.000000
    6        9.599903   0.000000
    7        9.853688   0.000000
    8       13.018530   0.000000
 
 -0.3125000E+00  0.1875000E+00  0.1875000E+00  0.1171875E-01
    1       -3.879453   1.000000
    2       -1.031819   1.000000
    3        2.441437   1.000000
    4        3.529444   1.000000
    5        7.257284   0.000000
    6        9.658964   0.000000
    7       10.191538   0.000000
    8       11.138240   0.000000
 
 -0.1875000E+00  0.1875000E+00  0.1875000E+00  0.1171875E-01
    1       -4.736979   1.000000
    2        0.424124   1.000000
    3        3.037109   1.000000
    4        3.508322   1.000000
    5        7.194906   0.000000
    6        9.319549   0.000000
    7        9.949276   0.000000
    8       10.540604   0.000000
 
  0.3125000E+00  0.3125000E+00  0.1875000E+00  0.1171875E-01
    1       -5.227653   1.000000
    2        1.124077   1.000000
    3        3.833240   1.000000
    4        3.913473   1.000000
    5        7.557719   0.000000
    6        8.851220   0.000000
    7        9.811943   0.000000
    8       10.208980   0.000000
 
  0.4375000E+00  0.3125000E+00  0.1875000E+00  0.2343750E-01
    1       -4.621867   1.000000
    2        0.354697   1.000000
    3        2.370406   1.000000
    4        3.722537   1.000000
    5        8.052746   0.000000
    6        9.033374   0.000000
    7        9.578675   0.000000
    8       11.027514   0.000000
 
 -0.4375000E+00  0.3125000E+00  0.1875000E+00  0.2343750E-01
    1       -3.762682   1.000000
    2       -0.721979   1.000000
    3        1.610673   1.000000
    4        3.178319   1.000000
    5        8.495901   0.000000
    6        8.973432   0.000000
    7       10.219939   0.000000
    8       12.097799   0.000000
 
 -0.3125000E+00  0.3125000E+00  0.1875000E+00  0.2343750E-01
    1       -3.295770   1.000000
    2       -1.309889   1.000000
    3        1.608449   1.000000
    4        2.878575   1.000000
    5        8.044716   0.000000
    6        9.292994   0.000000
    7       10.984695   0.000000
    8       12.214076   0.000000
 
 -0.1875000E+00  0.3125000E+00  0.1875000E+00  0.2343750E-01
    1       -4.035645   1.000000
    2       -0.345951   1.000000
    3        2.021050   1.000000
    4        3.050113   1.000000
    5        7.780929   0.000000
    6        8.980767   0.000000
    7        9.787831   0.000000
    8       12.215013   0.000000
 
  0.4375000E+00  0.4375000E+00  0.1875000E+00  0.1171875E-01
    1       -4.141058   1.000000
    2       -0.285259   1.000000
    3        2.339579   1.000000
    4        3.187824   1.000000
    5        6.832856   0.000000
    6        8.816262   0.000000
    7       10.972269   0.000000
    8       11.345057   0.000000
 
 -0.4375000E+00  0.4375000E+00  0.1875000E+00  0.2343750E-01
    1       -3.364462   1.000000
    2       -1.073396   1.000000
    3        1.789839   1.000000
    4        2.534419   1.000000
    5        7.586367   0.000000
    6        8.581665   0.000000
    7       10.663285   0.000000
    8       13.384177   0.000000
 
 -0.3125000E+00  0.4375000E+00  0.1875000E+00  0.2343750E-01
    1       -2.586654   1.000000
    2       -1.809442   1.000000
    3        1.488013   1.000000
    4        2.053422   1.000000
    5        8.684629   0.000000
    6        9.605797   0.000000
    7       10.216394   0.000000
    8       11.211543   0.000000
 
 -0.1875000E+00  0.4375000E+00  0.1875000E+00  0.2343750E-01
    1       -3.169391   1.000000
    2       -1.271617   1.000000
    3        1.475926   1.000000
    4        2.510955   1.000000
    5        8.780493   0.000000
    6        9.187663   0.000000
    7        9.916632   0.000000
    8       12.349343   0.000000
 
 -0.4375000E+00 -0.4375000E+00  0.1875000E+00  0.1171875E-01
    1       -2.742089   1.000000
    2       -1.784655   1.000000
    3        1.587753   1.000000
    4        2.855789   1.000000
    5        6.418637   0.000000
    6        8.268179   0.000000
    7       13.109615   0.000000
    8       13.271204   0.000000
 
 -0.3125000E+00 -0.4375000E+00  0.1875000E+00  0.2343750E-01
    1       -2.644668   1.000000
    2       -1.817847   1.000000
    3        1.678170   1.000000
    4        2.257284   1.000000
    5        7.486849   0.000000
    6        8.380665   0.000000
    7       11.645564   0.000000
    8       12.730784   0.000000
 
 -0.3125000E+00 -0.3125000E+00  0.1875000E+00  0.1171875E-01
    1       -3.458202   1.000000
    2       -1.033277   1.000000
    3        1.841036   1.000000
    4        2.967623   1.000000
    5        6.561839   0.000000
    6        8.449925   0.000000
    7       12.105728   0.000000
    8       12.227213   0.000000
 
  0.3125000E+00  0.3125000E+00  0.3125000E+00  0.3906250E-02
    1       -5.124662   1.000000
    2        0.458996   1.000000
    3        4.419335   1.000000
    4        4.419335   1.000000
    5        6.976273   0.000000
    6        8.838582   0.000000
    7        8.838582   0.000000
    8       12.779784   0.000000
 
  0.4375000E+00  0.3125000E+00  0.3125000E+00  0.1171875E-01
    1       -4.661499   1.000000
    2       -0.110020   1.000000
    3        2.994227   1.000000
    4        4.333175   1.000000
    5        7.709642   0.000000
    6        9.051706   0.000000
    7        9.104200   0.000000
    8       12.193255   0.000000
 
 -0.4375000E+00  0.3125000E+00  0.3125000E+00  0.1171875E-01
    1       -3.896826   1.000000
    2       -0.652779   1.000000
    3        1.532705   1.000000
    4        3.774079   1.000000
    5        7.452293   0.000000
    6       10.452152   0.000000
    7       10.598258   0.000000
    8       11.933948   0.000000
 
 -0.3125000E+00  0.3125000E+00  0.3125000E+00  0.1171875E-01
    1       -3.106270   1.000000
    2       -1.419440   1.000000
    3        1.213154   1.000000
    4        3.246314   1.000000
    5        6.867318   0.000000
    6       10.677974   0.000000
    7       11.690500   0.000000
    8       11.898786   0.000000
 
  0.4375000E+00  0.4375000E+00  0.3125000E+00  0.1171875E-01
    1       -4.359359   1.000000
    2       -0.648848   1.000000
    3        3.311733   1.000000
    4        3.791378   1.000000
    5        7.462381   0.000000
    6        8.807550   0.000000
    7        9.579193   0.000000
    8       11.565140   0.000000
 
 -0.4375000E+00  0.4375000E+00  0.3125000E+00  0.2343750E-01
    1       -3.761782   1.000000
    2       -1.012744   1.000000
    3        2.053578   1.000000
    4        3.336686   1.000000
    5        8.235294   0.000000
    6        8.605658   0.000000
    7       11.042279   0.000000
    8       11.326539   0.000000
 
 -0.3125000E+00  0.4375000E+00  0.3125000E+00  0.2343750E-01
    1       -2.971774   1.000000
    2       -1.488293   1.000000
    3        1.302341   1.000000
    4        2.650619   1.000000
    5        7.922513   0.000000
    6       10.122500   0.000000
    7       10.871901   0.000000
    8       11.375985   0.000000
 
 -0.4375000E+00 -0.4375000E+00  0.3125000E+00  0.1171875E-01
    1       -3.416974   1.000000
    2       -1.289833   1.000000
    3        1.681768   1.000000
    4        3.342864   1.000000
    5        7.008419   0.000000
    6       10.635067   0.000000
    7       10.932951   0.000000
    8       10.950337   0.000000
 
  0.4375000E+00  0.4375000E+00  0.4375000E+00  0.3906250E-02
    1       -4.270983   1.000000
    2       -1.130756   1.000000
    3        4.203038   1.000000
    4        4.203038   1.000000
    5        6.724368   0.000000
    6        8.718280   0.000000
    7        8.718280   0.000000
    8       13.026127   0.000000
 
 -0.4375000E+00  0.4375000E+00  0.4375000E+00  0.1171875E-01
    1       -3.933986   1.000000
    2       -1.305294   1.000000
    3        3.007002   1.000000
    4        3.945789   1.000000
    5        7.474386   0.000000
    6        8.819703   0.000000
    7        9.279703   0.000000
    8       13.354180   0.000000
