       N       E                     dE             d eps       ncg     rms          rms(c)
DAV:   1     0.523081491300E+01    0.52308E+01   -0.28208E+03   968   0.593E+02
DAV:   2    -0.107898310328E+02   -0.16021E+02   -0.15196E+02  1504   0.723E+01
DAV:   3    -0.109895775392E+02   -0.19975E+00   -0.19975E+00  1192   0.108E+01
DAV:   4    -0.109905287682E+02   -0.95123E-03   -0.95123E-03  1624   0.766E-01
DAV:   5    -0.109905291563E+02   -0.38814E-06   -0.38790E-06  1224   0.140E-02    0.288E+00
DAV:   6    -0.108863113467E+02    0.10422E+00   -0.66441E-02  1176   0.134E+00    0.172E+00
DAV:   7    -0.108369240508E+02    0.49387E-01   -0.12844E-01  1208   0.199E+00    0.143E-01
DAV:   8    -0.108382558682E+02   -0.13318E-02   -0.37834E-03  1104   0.452E-01    0.250E-02
DAV:   9    -0.108383603047E+02   -0.10444E-03   -0.10663E-04   808   0.827E-02
   1 F= -.10838360E+02 E0= -.10838350E+02  d E =-.108384E+02
