 running on    8 total cores
 distrk:  each k-point on    8 cores,    1 groups
 distr:  one band on    1 cores,    8 groups
 using from now: INCAR     
 vasp.5.4.4.18Apr17-6-g9f103f2a35 (build Dec 09 2018 21:25:21) complex          
  
 POSCAR found type information on POSCAR  Si
 POSCAR found :  1 types and       2 ions
 scaLAPACK will be used

 ----------------------------------------------------------------------------- 
|                                                                             |
|           W    W    AA    RRRRR   N    N  II  N    N   GGGG   !!!           |
|           W    W   A  A   R    R  NN   N  II  NN   N  G    G  !!!           |
|           W    W  A    A  R    R  N N  N  II  N N  N  G       !!!           |
|           W WW W  AAAAAA  RRRRR   N  N N  II  N  N N  G  GGG   !            |
|           WW  WW  A    A  R   R   N   NN  II  N   NN  G    G                |
|           W    W  A    A  R    R  N    N  II  N    N   GGGG   !!!           |
|                                                                             |
|      For optimal performance we recommend to set                            |
|        NCORE= 4 - approx SQRT( number of cores)                             |
|      NCORE specifies how many cores store one orbital (NPAR=cpu/NCORE).     |
|      This setting can  greatly improve the performance of VASP for DFT.     |
|      The default,   NCORE=1            might be grossly inefficient         |
|      on modern multi-core architectures or massively parallel machines.     |
|      Do your own testing !!!!                                               |
|      Unfortunately you need to use the default for GW and RPA calculations. |
|      (for HF NCORE is supported but not extensively tested yet)             |
|                                                                             |
 ----------------------------------------------------------------------------- 

 LDA part: xc-table for Pade appr. of Perdew
 POSCAR, INCAR and KPOINTS ok, starting setup
 FFT: planning ...
 WAVECAR not read
 entering main loop
       N       E                     dE             d eps       ncg     rms          rms(c)
DAV:   1     0.523081491300E+01    0.52308E+01   -0.28208E+03   968   0.593E+02
DAV:   2    -0.107898310328E+02   -0.16021E+02   -0.15196E+02  1504   0.723E+01
DAV:   3    -0.109895775392E+02   -0.19975E+00   -0.19975E+00  1192   0.108E+01
DAV:   4    -0.109905287682E+02   -0.95123E-03   -0.95123E-03  1624   0.766E-01
DAV:   5    -0.109905291563E+02   -0.38814E-06   -0.38790E-06  1224   0.140E-02    0.288E+00
DAV:   6    -0.108863113467E+02    0.10422E+00   -0.66441E-02  1176   0.134E+00    0.172E+00
DAV:   7    -0.108369240508E+02    0.49387E-01   -0.12844E-01  1208   0.199E+00    0.143E-01
DAV:   8    -0.108382558682E+02   -0.13318E-02   -0.37834E-03  1104   0.452E-01    0.250E-02
DAV:   9    -0.108383603047E+02   -0.10444E-03   -0.10663E-04   808   0.827E-02
   1 F= -.10838360E+02 E0= -.10838350E+02  d E =-.108384E+02
 curvature:   0.00 expect dE= 0.000E+00 dE for cont linesearch  0.000E+00
 trial: gam= 0.00000 g(F)=  0.251E-45 g(S)=  0.000E+00 ort = 0.000E+00 (trialstep = 0.100E+01)
 search vector abs. value=  0.100E-09
 reached required accuracy - stopping structural energy minimisation
 writing wavefunctions
