unknown system                          
   1.00000000000000     
     0.000000    2.715000    2.715000
     2.715000    0.000000    2.715000
     2.715000    2.715000    0.000000
   Si
     2
Direct
  0.500000  0.500000  0.500000
  0.750000  0.750000  0.750000
 
   28   28   28
 0.70336     0.73101     0.81618     0.96593      1.1926      1.5128      1.9432      2.4942      3.1621      3.9222    
  4.7250      5.4968      6.1469      6.5839      6.7382      6.5838      6.1469      5.4967      4.7249      3.9222    
  3.1621      2.4943      1.9432      1.5129      1.1927     0.96593     0.81614     0.73098     0.73101     0.77815    
 0.87570      1.0307      1.2539      1.5582      1.9543      2.4450      3.0192      3.6470      4.2788      4.8487    
  5.2839      5.5205      5.5205      5.2839      4.8487      4.2788      3.6470      3.0192      2.4451      1.9543    
  1.5582      1.2539      1.0307     0.87567     0.77812     0.73100     0.81618     0.87570     0.97913      1.1331    
  1.3462      1.6275      1.9822      2.4069      2.8855      3.3865      3.8642      4.2634      4.5300      4.6239    
  4.5300      4.2634      3.8642      3.3866      2.8855      2.4069      1.9822      1.6276      1.3462      1.1330    
 0.97910     0.87568     0.81617     0.79674     0.96593      1.0307      1.1331      1.2789      1.4746      1.7253    
  2.0316      2.3861      2.7703      3.1540      3.4978      3.7588      3.9002      3.9002      3.7588      3.4978    
  3.1540      2.7703      2.3862      2.0317      1.7253      1.4745      1.2788      1.1330      1.0307     0.96594    
 0.93463     0.93462      1.1926      1.2539      1.3462      1.4746      1.6433      1.8544      2.1052      2.3861    
  2.6787      2.9565      3.1880      3.3421      3.3963      3.3421      3.1880      2.9566      2.6788      2.3861    
  2.1052      1.8543      1.6432      1.4745      1.3462      1.2539      1.1927      1.1580      1.1467      1.1579    
  1.5128      1.5582      1.6275      1.7253      1.8544      2.0148      2.2023      2.4069      2.6122      2.7969    
  2.9375      3.0138      3.0138      2.9375      2.7969      2.6122      2.4068      2.2022      2.0147      1.8543    
  1.7253      1.6275      1.5582      1.5128      1.4864      1.4745      1.4745      1.4863      1.9432      1.9543    
  1.9822      2.0316      2.1052      2.2023      2.3185      2.4450      2.5690      2.6747      2.7461      2.7714    
  2.7461      2.6747      2.5690      2.4450      2.3184      2.2023      2.1052      2.0317      1.9822      1.9543    
  1.9432      1.9426      1.9457      1.9474      1.9457      1.9426      2.4942      2.4450      2.4069      2.3861    
  2.3861      2.4069      2.4450      2.4942      2.5454      2.5879      2.6121      2.6121      2.5879      2.5454    
  2.4942      2.4450      2.4069      2.3862      2.3862      2.4069      2.4450      2.4942      2.5454      2.5879    
  2.6121      2.6121      2.5879      2.5454      3.1621      3.0192      2.8855      2.7703      2.6787      2.6122    
  2.5690      2.5454      2.5355      2.5332      2.5331      2.5332      2.5356      2.5454      2.5691      2.6123    
  2.6789      2.7704      2.8855      3.0192      3.1621      3.3005      3.4178      3.4970      3.5250      3.4970    
  3.4178      3.3006      3.9222      3.6470      3.3865      3.1540      2.9565      2.7969      2.6747      2.5879    
  2.5332      2.5070      2.5070      2.5332      2.5879      2.6748      2.7970      2.9567      3.1541      3.3865    
  3.6469      3.9221      4.1921      4.4313      4.6118      4.7093      4.7093      4.6118      4.4313      4.1921    
  4.7250      4.2788      3.8642      3.4978      3.1880      2.9375      2.7461      2.6121      2.5331      2.5070    
  2.5331      2.6122      2.7462      2.9376      3.1881      3.4978      3.8641      4.2787      4.7248      5.1754    
  5.5935      5.9364      6.1627      6.2418      6.1627      5.9365      5.5936      5.1755      5.4968      4.8487    
  4.2634      3.7588      3.3421      3.0138      2.7714      2.6121      2.5332      2.5332      2.6122      2.7716    
  3.0139      3.3423      3.7589      4.2633      4.8485      5.4966      6.1743      6.8327      7.4106      7.8432    
  8.0754      8.0754      7.8431      7.4106      6.8328      6.1745      6.1469      5.2839      4.5300      3.9002    
  3.3963      3.0138      2.7461      2.5879      2.5356      2.5879      2.7462      3.0139      3.3965      3.9003    
  4.5299      5.2837      6.1467      7.0840      8.0370      8.9255      9.6560      10.139      10.308      10.139    
  9.6558      8.9254      8.0371      7.0842      6.5839      5.5205      4.6239      3.9002      3.3421      2.9375    
  2.6747      2.5454      2.5454      2.6748      2.9376      3.3423      3.9003      4.6238      5.5203      6.5836    
  7.7845      9.0623      10.322      11.443      12.289      12.747      12.747      12.289      11.442      10.322    
  9.0623      7.7847      6.7382      5.5205      4.5300      3.7588      3.1880      2.7969      2.5690      2.4942    
  2.5691      2.7970      3.1881      3.7589      4.5299      5.5203      6.7379      8.1675      9.7572      11.411    
  12.985      14.303      15.186      15.497      15.186      14.303      12.984      11.410      9.7573      8.1677    
  6.5838      5.2839      4.2634      3.4978      2.9566      2.6122      2.4450      2.4450      2.6123      2.9567    
  3.4978      4.2633      5.2837      6.5836      8.1675      10.004      12.010      14.041      15.891      17.304    
  18.067      18.067      17.305      15.891      14.041      12.010      10.004      8.1676      6.1469      4.8487    
  3.8642      3.1540      2.6788      2.4068      2.3184      2.4069      2.6789      3.1541      3.8641      4.8485    
  6.1467      7.7845      9.7572      12.010      14.418      16.770      18.746      20.057      20.514      20.057    
  18.747      16.770      14.418      12.010      9.7572      7.7846      5.4967      4.2788      3.3866      2.7703    
  2.3861      2.2022      2.2023      2.3862      2.7704      3.3865      4.2787      5.4966      7.0840      9.0623    
  11.411      14.041      16.770      19.258      21.143      22.156      22.156      21.143      19.258      16.770    
  14.041      11.410      9.0622      7.0840      4.7249      3.6470      2.8855      2.3862      2.1052      2.0147    
  2.1052      2.3862      2.8855      3.6469      4.7248      6.1743      8.0370      10.322      12.985      15.891    
  18.746      21.143      22.733      23.290      22.734      21.143      18.747      15.891      12.984      10.322    
  8.0369      6.1744      3.9222      3.0192      2.4069      2.0317      1.8543      1.8543      2.0317      2.4069    
  3.0192      3.9221      5.1754      6.8327      8.9255      11.443      14.303      17.304      20.057      22.156    
  23.290      23.290      22.156      20.057      17.304      14.303      11.442      8.9253      6.8327      5.1754    
  3.1621      2.4451      1.9822      1.7253      1.6432      1.7253      1.9822      2.4450      3.1621      4.1921    
  5.5935      7.4106      9.6560      12.289      15.186      18.067      20.514      22.156      22.734      22.156    
  20.515      18.067      15.186      12.289      9.6558      7.4105      5.5935      4.1921      2.4943      1.9543    
  1.6276      1.4745      1.4745      1.6275      1.9543      2.4942      3.3005      4.4313      5.9364      7.8432    
  10.139      12.747      15.497      18.067      20.057      21.143      21.143      20.057      18.067      15.497    
  12.747      10.139      7.8430      5.9363      4.4312      3.3006      1.9432      1.5582      1.3462      1.2788    
  1.3462      1.5582      1.9432      2.5454      3.4178      4.6118      6.1627      8.0754      10.308      12.747    
  15.186      17.305      18.747      19.258      18.747      17.304      15.186      12.747      10.308      8.0753    
  6.1626      4.6117      3.4178      2.5454      1.5129      1.2539      1.1330      1.1330      1.2539      1.5128    
  1.9426      2.5879      3.4970      4.7093      6.2418      8.0754      10.139      12.289      14.303      15.891    
  16.770      16.770      15.891      14.303      12.289      10.139      8.0753      6.2417      4.7092      3.4969    
  2.5879      1.9426      1.1927      1.0307     0.97910      1.0307      1.1927      1.4864      1.9457      2.6121    
  3.5250      4.7093      6.1627      7.8431      9.6558      11.442      12.984      14.041      14.418      14.041    
  12.984      11.442      9.6558      7.8430      6.1626      4.7092      3.5249      2.6121      1.9458      1.4864    
 0.96593     0.87567     0.87568     0.96594      1.1580      1.4745      1.9474      2.6121      3.4970      4.6118    
  5.9365      7.4106      8.9254      10.322      11.410      12.010      12.010      11.410      10.322      8.9253    
  7.4105      5.9363      4.6117      3.4969      2.6121      1.9475      1.4745      1.1580     0.81614     0.77812    
 0.81617     0.93463      1.1467      1.4745      1.9457      2.5879      3.4178      4.4313      5.5936      6.8328    
  8.0371      9.0623      9.7573      10.004      9.7572      9.0622      8.0369      6.8327      5.5935      4.4312    
  3.4178      2.5879      1.9458      1.4745      1.1468     0.93461     0.73098     0.73100     0.79674     0.93462    
  1.1579      1.4863      1.9426      2.5454      3.3006      4.1921      5.1755      6.1745      7.0842      7.7847    
  8.1677      8.1676      7.7846      7.0840      6.1744      5.1754      4.1921      3.3006      2.5454      1.9426    
  1.4864      1.1580     0.93461     0.79671     0.73101     0.77815     0.87570      1.0307      1.2539      1.5582    
  1.9543      2.4450      3.0192      3.6470      4.2788      4.8487      5.2839      5.5205      5.5205      5.2839    
  4.8487      4.2788      3.6470      3.0192      2.4451      1.9543      1.5582      1.2539      1.0307     0.87567    
 0.77812     0.73100     0.77815     0.83592     0.93613      1.0850      1.2912      1.5634      1.9068      2.3185    
  2.7826      3.2685      3.7316      4.1186      4.3770      4.4679      4.3770      4.1186      3.7316      3.2685    
  2.7826      2.3185      1.9069      1.5634      1.2912      1.0850     0.93610     0.83590     0.77814     0.75926    
 0.87570     0.93613      1.0313      1.1667      1.3488      1.5828      1.8696      2.2023      2.5633      2.9238    
  3.2467      3.4917      3.6242      3.6242      3.4917      3.2467      2.9238      2.5633      2.2023      1.8697    
  1.5828      1.3488      1.1667      1.0313     0.93612     0.87570     0.84637     0.84637      1.0307      1.0850    
  1.1667      1.2807      1.4315      1.6217      1.8492      2.1052      2.3723      2.6258      2.8367      2.9770    
  3.0263      2.9770      2.8367      2.6258      2.3723      2.1053      1.8493      1.6217      1.4314      1.2806    
  1.1667      1.0850      1.0307     0.99979     0.98976     0.99977      1.2539      1.2912      1.3488      1.4315    
  1.5426      1.6831      1.8492      2.0316      2.2151      2.3798      2.5050      2.5728      2.5728      2.5050    
  2.3798      2.2151      2.0317      1.8493      1.6831      1.5426      1.4314      1.3488      1.2912      1.2539    
  1.2323      1.2226      1.2226      1.2323      1.5582      1.5634      1.5828      1.6217      1.6831      1.7671    
  1.8696      1.9822      2.0926      2.1864      2.2496      2.2719      2.2496      2.1864      2.0926      1.9822    
  1.8696      1.7671      1.6831      1.6216      1.5828      1.5634      1.5582      1.5610      1.5657      1.5678    
  1.5656      1.5610      1.9543      1.9068      1.8696      1.8492      1.8492      1.8696      1.9068      1.9543    
  2.0030      2.0430      2.0656      2.0656      2.0430      2.0030      1.9543      1.9068      1.8696      1.8493    
  1.8493      1.8696      1.9068      1.9543      2.0030      2.0430      2.0656      2.0656      2.0430      2.0030    
  2.4450      2.3185      2.2023      2.1052      2.0316      1.9822      1.9543      1.9432      1.9426      1.9457    
  1.9474      1.9457      1.9426      1.9432      1.9543      1.9822      2.0317      2.1052      2.2023      2.3184    
  2.4450      2.5690      2.6747      2.7461      2.7714      2.7461      2.6747      2.5690      3.0192      2.7826    
  2.5633      2.3723      2.2151      2.0926      2.0030      1.9426      1.9064      1.8899      1.8899      1.9065    
  1.9426      2.0030      2.0926      2.2151      2.3723      2.5632      2.7825      3.0192      3.2553      3.4672    
  3.6285      3.7161      3.7161      3.6285      3.4672      3.2553      3.6470      3.2685      2.9238      2.6258    
  2.3798      2.1864      2.0430      1.9457      1.8899      1.8718      1.8899      1.9458      2.0431      2.1864    
  2.3799      2.6257      2.9237      3.2684      3.6469      4.0365      4.4041      4.7097      4.9134      4.9850    
  4.9134      4.7098      4.4041      4.0365      4.2788      3.7316      3.2467      2.8367      2.5050      2.2496    
  2.0656      1.9474      1.8899      1.8899      1.9475      2.0657      2.2497      2.5050      2.8366      3.2465    
  3.7314      4.2787      4.8619      5.4391      5.9540      6.3445      6.5560      6.5561      6.3446      5.9540    
  5.4391      4.8620      4.8487      4.1186      3.4917      2.9770      2.5728      2.2719      2.0656      1.9457    
  1.9065      1.9458      2.0657      2.2720      2.5728      2.9769      3.4915      4.1183      4.8485      5.6559    
  6.4918      7.2845      7.9461      8.3880      8.5436      8.3880      7.9460      7.2845      6.4918      5.6559    
  5.2839      4.3770      3.6242      3.0263      2.5728      2.2496      2.0430      1.9426      1.9426      2.0431    
  2.2497      2.5728      3.0262      3.6240      4.3767      5.2837      6.3248      7.4513      8.5806      9.5992    
  10.378      10.802      10.802      10.378      9.5991      8.5805      7.4513      6.3249      5.5205      4.4679    
  3.6242      2.9770      2.5050      2.1864      2.0030      1.9432      2.0030      2.1864      2.5050      2.9769    
  3.6240      4.4677      5.5203      6.7745      8.1908      9.6859      11.128      12.350      13.175      13.467    
  13.175      12.350      11.128      9.6857      8.1908      6.7746      5.5205      4.3770      3.4917      2.8367    
  2.3798      2.0926      1.9543      1.9543      2.0926      2.3799      2.8366      3.4915      4.3767      5.5203    
  6.9334      8.5952      10.436      12.322      14.057      15.406      16.148      16.148      15.406      14.057    
  12.322      10.436      8.5951      6.9335      5.2839      4.1186      3.2467      2.6258      2.2151      1.9822    
  1.9068      1.9822      2.2151      2.6257      3.2465      4.1183      5.2837      6.7745      8.5952      10.702    
  12.980      15.229      17.171      18.502      18.977      18.502      17.172      15.229      12.980      10.702    
  8.5951      6.7746      4.8487      3.7316      2.9238      2.3723      2.0317      1.8696      1.8696      2.0317    
  2.3723      2.9237      3.7314      4.8485      6.3248      8.1908      10.436      12.980      15.648      18.154    
  20.133      21.230      21.230      20.133      18.154      15.648      12.980      10.435      8.1907      6.3249    
  4.2788      3.2685      2.5633      2.1053      1.8493      1.7671      1.8493      2.1052      2.5632      3.2684    
  4.2787      5.6559      7.4513      9.6859      12.322      15.229      18.154      20.718      22.483      23.113    
  22.483      20.718      18.154      15.229      12.322      9.6856      7.4512      5.6559      3.6470      2.7826    
  2.2023      1.8493      1.6831      1.6831      1.8493      2.2023      2.7825      3.6469      4.8619      6.4918    
  8.5806      11.128      14.057      17.171      20.133      22.483      23.786      23.786      22.483      20.133    
  17.171      14.057      11.128      8.5805      6.4917      4.8620      3.0192      2.3185      1.8697      1.6217    
  1.5426      1.6216      1.8696      2.3184      3.0192      4.0365      5.4391      7.2845      9.5992      12.350    
  15.406      18.502      21.230      23.113      23.786      23.113      21.230      18.502      15.406      12.350    
  9.5991      7.2844      5.4390      4.0365      2.4451      1.9069      1.5828      1.4314      1.4314      1.5828    
  1.9068      2.4450      3.2553      4.4041      5.9540      7.9461      10.378      13.175      16.148      18.977    
  21.230      22.483      22.483      21.230      18.977      16.148      13.174      10.378      7.9460      5.9539    
  4.4041      3.2553      1.9543      1.5634      1.3488      1.2806      1.3488      1.5634      1.9543      2.5690    
  3.4672      4.7097      6.3445      8.3880      10.802      13.467      16.148      18.502      20.133      20.718    
  20.133      18.502      16.148      13.467      10.802      8.3880      6.3445      4.7097      3.4672      2.5691    
  1.5582      1.2912      1.1667      1.1667      1.2912      1.5582      2.0030      2.6747      3.6285      4.9134    
  6.5560      8.5436      10.802      13.175      15.406      17.172      18.154      18.154      17.171      15.406    
  13.174      10.802      8.5436      6.5560      4.9134      3.6286      2.6748      2.0031      1.2539      1.0850    
  1.0313      1.0850      1.2539      1.5610      2.0430      2.7461      3.7161      4.9850      6.5561      8.3880    
  10.378      12.350      14.057      15.229      15.648      15.229      14.057      12.350      10.378      8.3880    
  6.5560      4.9850      3.7162      2.7462      2.0431      1.5610      1.0307     0.93610     0.93612      1.0307    
  1.2323      1.5657      2.0656      2.7714      3.7161      4.9134      6.3446      7.9460      9.5991      11.128    
  12.322      12.980      12.980      12.322      11.128      9.5991      7.9460      6.3445      4.9134      3.7162    
  2.7716      2.0657      1.5657      1.2323     0.87567     0.83590     0.87570     0.99979      1.2226      1.5678    
  2.0656      2.7461      3.6285      4.7098      5.9540      7.2845      8.5805      9.6857      10.436      10.702    
  10.435      9.6856      8.5805      7.2844      5.9539      4.7097      3.6286      2.7462      2.0657      1.5679    
  1.2226     0.99976     0.77812     0.77814     0.84637     0.98976      1.2226      1.5656      2.0430      2.6747    
  3.4672      4.4041      5.4391      6.4918      7.4513      8.1908      8.5951      8.5951      8.1907      7.4512    
  6.4917      5.4390      4.4041      3.4672      2.6748      2.0431      1.5657      1.2226     0.98975     0.84633    
 0.73100     0.75926     0.84637     0.99977      1.2323      1.5610      2.0030      2.5690      3.2553      4.0365    
  4.8620      5.6559      6.3249      6.7746      6.9335      6.7746      6.3249      5.6559      4.8620      4.0365    
  3.2553      2.5691      2.0031      1.5610      1.2323     0.99976     0.84633     0.75923     0.81618     0.87570    
 0.97913      1.1331      1.3462      1.6275      1.9822      2.4069      2.8855      3.3865      3.8642      4.2634    
  4.5300      4.6239      4.5300      4.2634      3.8642      3.3866      2.8855      2.4069      1.9822      1.6276    
  1.3462      1.1330     0.97909     0.87568     0.81617     0.79674     0.87570     0.93613      1.0313      1.1667    
  1.3488      1.5828      1.8696      2.2023      2.5633      2.9238      3.2467      3.4917      3.6243      3.6243    
  3.4917      3.2467      2.9238      2.5633      2.2023      1.8697      1.5828      1.3488      1.1667      1.0313    
 0.93612     0.87570     0.84637     0.84637     0.97913      1.0313      1.1097      1.2190      1.3639      1.5472    
  1.7671      2.0148      2.2733      2.5187      2.7227      2.8583      2.9060      2.8583      2.7227      2.5187    
  2.2733      2.0148      1.7672      1.5473      1.3639      1.2189      1.1096      1.0313     0.97915     0.94937    
 0.93970     0.94936      1.1331      1.1667      1.2190      1.2944      1.3969      1.5276      1.6831      1.8544    
  2.0266      2.1812      2.2985      2.3619      2.3619      2.2985      2.1812      2.0266      1.8544      1.6832    
  1.5276      1.3969      1.2944      1.2189      1.1667      1.1331      1.1135      1.1046      1.1046      1.1135    
  1.3462      1.3488      1.3639      1.3969      1.4514      1.5276      1.6217      1.7253      1.8268      1.9128    
  1.9704      1.9908      1.9704      1.9128      1.8268      1.7253      1.6217      1.5276      1.4514      1.3969    
  1.3639      1.3488      1.3463      1.3502      1.3551      1.3572      1.3551      1.3502      1.6275      1.5828    
  1.5472      1.5276      1.5276      1.5472      1.5828      1.6275      1.6728      1.7096      1.7301      1.7301    
  1.7096      1.6728      1.6275      1.5828      1.5472      1.5276      1.5276      1.5472      1.5828      1.6275    
  1.6728      1.7096      1.7301      1.7301      1.7096      1.6728      1.9822      1.8696      1.7671      1.6831    
  1.6217      1.5828      1.5634      1.5582      1.5610      1.5656      1.5678      1.5657      1.5610      1.5582    
  1.5634      1.5828      1.6216      1.6831      1.7671      1.8696      1.9822      2.0926      2.1864      2.2496    
  2.2719      2.2496      2.1864      2.0926      2.4069      2.2023      2.0148      1.8544      1.7253      1.6275    
  1.5582      1.5128      1.4863      1.4745      1.4745      1.4864      1.5128      1.5582      1.6276      1.7253    
  1.8543      2.0147      2.2022      2.4068      2.6122      2.7969      2.9375      3.0138      3.0138      2.9375    
  2.7969      2.6122      2.8855      2.5633      2.2733      2.0266      1.8268      1.6728      1.5610      1.4863    
  1.4441      1.4305      1.4441      1.4864      1.5610      1.6728      1.8268      2.0265      2.2732      2.5632    
  2.8855      3.2199      3.5371      3.8016      3.9781      4.0402      3.9781      3.8016      3.5371      3.2199    
  3.3865      2.9238      2.5187      2.1812      1.9128      1.7096      1.5656      1.4745      1.4305      1.4305    
  1.4745      1.5657      1.7096      1.9127      2.1811      2.5185      2.9237      3.3865      3.8844      4.3804    
  4.8251      5.1634      5.3469      5.3469      5.1634      4.8251      4.3804      3.8844      3.8642      3.2467    
  2.7227      2.2985      1.9704      1.7301      1.5678      1.4745      1.4441      1.4745      1.5678      1.7302    
  1.9704      2.2983      2.7225      3.2465      3.8641      4.5534      5.2724      5.9580      6.5323      6.9169    
  7.0526      6.9170      6.5323      5.9579      5.2723      4.5534      4.2634      3.4917      2.8583      2.3619    
  1.9908      1.7301      1.5657      1.4864      1.4864      1.5657      1.7302      1.9907      2.3617      2.8581    
  3.4915      4.2633      5.1572      6.1312      7.1127      8.0013      8.6827      9.0541      9.0541      8.6827    
  8.0013      7.1126      6.1311      5.1572      4.5300      3.6243      2.9060      2.3619      1.9704      1.7096    
  1.5610      1.5128      1.5610      1.7096      1.9704      2.3617      2.9057      3.6240      4.5299      5.6185    
  6.8555      8.1671      9.4364      10.513      11.241      11.498      11.241      10.513      9.4364      8.1670    
  6.8554      5.6185      4.6239      3.6243      2.8583      2.2985      1.9128      1.6728      1.5582      1.5582    
  1.6728      1.9127      2.2983      2.8581      3.6240      4.6238      5.8694      7.3427      8.9807      10.663    
  12.212      13.415      14.077      14.077      13.415      12.212      10.663      8.9806      7.3426      5.8693    
  4.5300      3.4917      2.7227      2.1812      1.8268      1.6275      1.5634      1.6276      1.8268      2.1811    
  2.7225      3.4915      4.5299      5.8694      7.5149      9.4260      11.496      13.540      15.303      16.510    
  16.940      16.510      15.303      13.540      11.496      9.4258      7.5147      5.8693      4.2634      3.2467    
  2.5187      2.0266      1.7253      1.5828      1.5828      1.7253      2.0265      2.5185      3.2465      4.2633    
  5.6185      7.3427      9.4260      11.792      14.273      16.601      18.437      19.456      19.456      18.437    
  16.601      14.273      11.792      9.4258      7.3426      5.6185      3.8642      2.9238      2.2733      1.8544    
  1.6217      1.5472      1.6216      1.8543      2.2732      2.9237      3.8641      5.1572      6.8555      8.9807    
  11.496      14.273      17.064      19.509      21.201      21.807      21.201      19.510      17.065      14.273    
  11.496      8.9806      6.8554      5.1572      3.3866      2.5633      2.0148      1.6832      1.5276      1.5276    
  1.6831      2.0147      2.5632      3.3865      4.5534      6.1312      8.1671      10.663      13.540      16.601    
  19.509      21.827      23.122      23.122      21.827      19.509      16.601      13.540      10.663      8.1670    
  6.1311      4.5534      2.8855      2.2023      1.7672      1.5276      1.4514      1.5276      1.7671      2.2022    
  2.8855      3.8844      5.2724      7.1127      9.4364      12.212      15.303      18.437      21.201      23.122    
  23.813      23.122      21.201      18.437      15.303      12.212      9.4364      7.1126      5.2723      3.8844    
  2.4069      1.8697      1.5473      1.3969      1.3969      1.5472      1.8696      2.4068      3.2199      4.3804    
  5.9580      8.0013      10.513      13.415      16.510      19.456      21.807      23.122      23.122      21.807    
  19.456      16.510      13.415      10.513      8.0013      5.9579      4.3804      3.2200      1.9822      1.5828    
  1.3639      1.2944      1.3639      1.5828      1.9822      2.6122      3.5371      4.8251      6.5323      8.6827    
  11.241      14.077      16.940      19.456      21.201      21.827      21.201      19.456      16.940      14.077    
  11.241      8.6827      6.5323      4.8251      3.5372      2.6123      1.6276      1.3488      1.2189      1.2189    
  1.3488      1.6275      2.0926      2.7969      3.8016      5.1634      6.9169      9.0541      11.498      14.077    
  16.510      18.437      19.510      19.509      18.437      16.510      14.077      11.498      9.0542      6.9170    
  5.1635      3.8017      2.7970      2.0926      1.3462      1.1667      1.1096      1.1667      1.3463      1.6728    
  2.1864      2.9375      3.9781      5.3469      7.0526      9.0541      11.241      13.415      15.303      16.601    
  17.065      16.601      15.303      13.415      11.241      9.0542      7.0526      5.3470      3.9782      2.9376    
  2.1865      1.6729      1.1330      1.0313      1.0313      1.1331      1.3502      1.7096      2.2496      3.0138    
  4.0402      5.3469      6.9170      8.6827      10.513      12.212      13.540      14.273      14.273      13.540    
  12.212      10.513      8.6827      6.9170      5.3470      4.0403      3.0139      2.2497      1.7096      1.3501    
 0.97909     0.93612     0.97915      1.1135      1.3551      1.7301      2.2719      3.0138      3.9781      5.1634    
  6.5323      8.0013      9.4364      10.663      11.496      11.792      11.496      10.663      9.4364      8.0013    
  6.5323      5.1635      3.9782      3.0139      2.2721      1.7302      1.3551      1.1134     0.87568     0.87570    
 0.94937      1.1046      1.3572      1.7301      2.2496      2.9375      3.8016      4.8251      5.9579      7.1126    
  8.1670      8.9806      9.4258      9.4258      8.9806      8.1670      7.1126      5.9579      4.8251      3.8017    
  2.9376      2.2497      1.7302      1.3572      1.1045     0.94931     0.81617     0.84637     0.93970      1.1046    
  1.3551      1.7096      2.1864      2.7969      3.5371      4.3804      5.2723      6.1311      6.8554      7.3426    
  7.5147      7.3426      6.8554      6.1311      5.2723      4.3804      3.5372      2.7970      2.1865      1.7096    
  1.3551      1.1045     0.93965     0.84634     0.79674     0.84637     0.94936      1.1135      1.3502      1.6728    
  2.0926      2.6122      3.2199      3.8844      4.5534      5.1572      5.6185      5.8693      5.8693      5.6185    
  5.1572      4.5534      3.8844      3.2200      2.6123      2.0926      1.6729      1.3501      1.1134     0.94931    
 0.84634     0.79673     0.96593      1.0307      1.1331      1.2789      1.4746      1.7253      2.0316      2.3861    
  2.7703      3.1540      3.4978      3.7588      3.9002      3.9002      3.7588      3.4978      3.1540      2.7703    
  2.3862      2.0317      1.7253      1.4745      1.2788      1.1330      1.0307     0.96595     0.93463     0.93462    
  1.0307      1.0850      1.1667      1.2807      1.4315      1.6217      1.8492      2.1052      2.3723      2.6258    
  2.8367      2.9770      3.0263      2.9770      2.8367      2.6258      2.3723      2.1053      1.8493      1.6217    
  1.4314      1.2806      1.1667      1.0850      1.0307     0.99979     0.98976     0.99978      1.1331      1.1667    
  1.2190      1.2944      1.3969      1.5276      1.6831      1.8544      2.0266      2.1812      2.2985      2.3619    
  2.3619      2.2985      2.1812      2.0266      1.8544      1.6832      1.5276      1.3969      1.2944      1.2189    
  1.1667      1.1331      1.1135      1.1046      1.1046      1.1135      1.2789      1.2807      1.2944      1.3256    
  1.3778      1.4514      1.5426      1.6433      1.7418      1.8250      1.8808      1.9005      1.8808      1.8250    