unknown system                          
   1.00000000000000     
     0.000000    2.715000    2.715000
     2.715000    0.000000    2.715000
     2.715000    2.715000    0.000000
   Si
     2
Direct
  0.500000  0.500000  0.500000
  0.750000  0.750000  0.750000
 
   28   28   28
 0.70276     0.73047     0.81582     0.96586      1.1929      1.5133      1.9439      2.4951      3.1630      3.9230    
  4.7256      5.4973      6.1473      6.5841      6.7384      6.5841      6.1473      5.4973      4.7257      3.9230    
  3.1629      2.4950      1.9439      1.5133      1.1929     0.96587     0.81582     0.73047     0.73047     0.77773    
 0.87549      1.0307      1.2542      1.5587      1.9550      2.4458      3.0200      3.6477      4.2794      4.8492    
  5.2843      5.5208      5.5208      5.2843      4.8492      4.2794      3.6477      3.0199      2.4458      1.9550    
  1.5587      1.2543      1.0308     0.87548     0.77772     0.73047     0.81582     0.87549     0.97913      1.1333    
  1.3467      1.6281      1.9828      2.4076      2.8862      3.3872      3.8647      4.2638      4.5304      4.6242    
  4.5304      4.2638      3.8647      3.3872      2.8862      2.4076      1.9829      1.6281      1.3467      1.1333    
 0.97912     0.87548     0.81582     0.79634     0.96586      1.0307      1.1333      1.2792      1.4751      1.7259    
  2.0323      2.3868      2.7710      3.1546      3.4983      3.7593      3.9007      3.9007      3.7593      3.4983    
  3.1546      2.7710      2.3868      2.0324      1.7259      1.4751      1.2792      1.1333      1.0307     0.96586    
 0.93447     0.93446      1.1929      1.2542      1.3467      1.4751      1.6439      1.8550      2.1059      2.3868    
  2.6794      2.9572      3.1886      3.3427      3.3969      3.3427      3.1886      2.9572      2.6794      2.3868    
  2.1059      1.8550      1.6438      1.4751      1.3467      1.2542      1.1929      1.1581      1.1469      1.1581    
  1.5133      1.5587      1.6281      1.7259      1.8550      2.0155      2.2030      2.4076      2.6129      2.7976    
  2.9382      3.0145      3.0145      2.9382      2.7976      2.6129      2.4076      2.2030      2.0154      1.8550    
  1.7259      1.6281      1.5587      1.5133      1.4868      1.4749      1.4749      1.4868      1.9439      1.9550    
  1.9828      2.0323      2.1059      2.2030      2.3192      2.4458      2.5698      2.6755      2.7470      2.7723    
  2.7470      2.6755      2.5698      2.4458      2.3192      2.2030      2.1059      2.0324      1.9829      1.9550    
  1.9439      1.9433      1.9465      1.9482      1.9465      1.9433      2.4951      2.4458      2.4076      2.3868    
  2.3868      2.4076      2.4458      2.4951      2.5463      2.5889      2.6131      2.6131      2.5889      2.5463    
  2.4950      2.4458      2.4076      2.3869      2.3869      2.4076      2.4458      2.4950      2.5463      2.5889    
  2.6131      2.6131      2.5889      2.5463      3.1630      3.0200      2.8862      2.7710      2.6794      2.6129    
  2.5698      2.5463      2.5365      2.5342      2.5342      2.5342      2.5365      2.5462      2.5698      2.6129    
  2.6795      2.7710      2.8862      3.0199      3.1629      3.3015      3.4189      3.4981      3.5261      3.4981    
  3.4189      3.3015      3.9230      3.6477      3.3872      3.1546      2.9572      2.7976      2.6755      2.5889    
  2.5342      2.5081      2.5081      2.5342      2.5888      2.6755      2.7976      2.9572      3.1547      3.3872    
  3.6477      3.9229      4.1931      4.4324      4.6130      4.7105      4.7105      4.6130      4.4324      4.1931    
  4.7256      4.2794      3.8647      3.4983      3.1886      2.9382      2.7470      2.6131      2.5342      2.5081    
  2.5341      2.6131      2.7470      2.9383      3.1886      3.4984      3.8647      4.2794      4.7256      5.1763    
  5.5945      5.9375      6.1637      6.2429      6.1637      5.9375      5.5945      5.1763      5.4973      4.8492    
  4.2638      3.7593      3.3427      3.0145      2.7723      2.6131      2.5342      2.5342      2.6131      2.7723    
  3.0146      3.3428      3.7594      4.2638      4.8491      5.4973      6.1751      6.8335      7.4114      7.8439    
  8.0762      8.0762      7.8439      7.4114      6.8335      6.1751      6.1473      5.2843      4.5304      3.9007    
  3.3969      3.0145      2.7470      2.5889      2.5365      2.5888      2.7470      3.0146      3.3970      3.9007    
  4.5304      5.2842      6.1472      7.0845      8.0375      8.9259      9.6563      10.139      10.308      10.139    
  9.6563      8.9259      8.0375      7.0845      6.5841      5.5208      4.6242      3.9007      3.3427      2.9382    
  2.6755      2.5463      2.5462      2.6755      2.9383      3.3428      3.9007      4.6243      5.5207      6.5840    
  7.7848      9.0625      10.322      11.442      12.289      12.747      12.747      12.289      11.442      10.322    
  9.0625      7.7849      6.7384      5.5208      4.5304      3.7593      3.1886      2.7976      2.5698      2.4950    
  2.5698      2.7976      3.1886      3.7594      4.5304      5.5207      6.7383      8.1677      9.7573      11.410    
  12.984      14.302      15.186      15.496      15.186      14.302      12.984      11.410      9.7572      8.1678    
  6.5841      5.2843      4.2638      3.4983      2.9572      2.6129      2.4458      2.4458      2.6129      2.9572    
  3.4984      4.2638      5.2842      6.5840      8.1677      10.004      12.010      14.041      15.890      17.303    
  18.065      18.065      17.303      15.890      14.040      12.010      10.004      8.1677      6.1473      4.8492    
  3.8647      3.1546      2.6794      2.4076      2.3192      2.4076      2.6795      3.1547      3.8647      4.8491    
  6.1472      7.7848      9.7573      12.010      14.418      16.769      18.745      20.055      20.513      20.055    
  18.745      16.769      14.418      12.009      9.7572      7.7849      5.4973      4.2794      3.3872      2.7710    
  2.3868      2.2030      2.2030      2.3869      2.7710      3.3872      4.2794      5.4973      7.0845      9.0625    
  11.410      14.041      16.769      19.256      21.141      22.153      22.153      21.141      19.257      16.769    
  14.040      11.410      9.0625      7.0845      4.7257      3.6477      2.8862      2.3868      2.1059      2.0154    
  2.1059      2.3869      2.8862      3.6477      4.7256      6.1751      8.0375      10.322      12.984      15.890    
  18.745      21.141      22.731      23.288      22.731      21.141      18.745      15.890      12.984      10.322    
  8.0375      6.1751      3.9230      3.0199      2.4076      2.0324      1.8550      1.8550      2.0324      2.4076    
  3.0199      3.9229      5.1763      6.8335      8.9259      11.442      14.302      17.303      20.055      22.153    
  23.288      23.288      22.154      20.055      17.303      14.302      11.442      8.9258      6.8335      5.1764    
  3.1629      2.4458      1.9829      1.7259      1.6438      1.7259      1.9829      2.4458      3.1629      4.1931    
  5.5945      7.4114      9.6563      12.289      15.186      18.065      20.513      22.153      22.731      22.154    
  20.513      18.065      15.185      12.289      9.6563      7.4114      5.5946      4.1931      2.4950      1.9550    
  1.6281      1.4751      1.4751      1.6281      1.9550      2.4950      3.3015      4.4324      5.9375      7.8439    
  10.139      12.747      15.496      18.065      20.055      21.141      21.141      20.055      18.065      15.496    
  12.747      10.139      7.8440      5.9375      4.4324      3.3015      1.9439      1.5587      1.3467      1.2792    
  1.3467      1.5587      1.9439      2.5463      3.4189      4.6130      6.1637      8.0762      10.308      12.747    
  15.186      17.303      18.745      19.257      18.745      17.303      15.185      12.747      10.308      8.0762    
  6.1638      4.6130      3.4189      2.5462      1.5133      1.2543      1.1333      1.1333      1.2542      1.5133    
  1.9433      2.5889      3.4981      4.7105      6.2429      8.0762      10.139      12.289      14.302      15.890    
  16.769      16.769      15.890      14.302      12.289      10.139      8.0762      6.2430      4.7105      3.4981    
  2.5888      1.9433      1.1929      1.0308     0.97912      1.0307      1.1929      1.4868      1.9465      2.6131    
  3.5261      4.7105      6.1637      7.8439      9.6563      11.442      12.984      14.040      14.418      14.040    
  12.984      11.442      9.6563      7.8440      6.1638      4.7105      3.5261      2.6131      1.9465      1.4868    
 0.96587     0.87548     0.87548     0.96586      1.1581      1.4749      1.9482      2.6131      3.4981      4.6130    
  5.9375      7.4114      8.9259      10.322      11.410      12.010      12.009      11.410      10.322      8.9258    
  7.4114      5.9375      4.6130      3.4981      2.6131      1.9482      1.4749      1.1581     0.81582     0.77772    
 0.81582     0.93447      1.1469      1.4749      1.9465      2.5889      3.4189      4.4324      5.5945      6.8335    
  8.0375      9.0625      9.7572      10.004      9.7572      9.0625      8.0375      6.8335      5.5946      4.4324    
  3.4189      2.5888      1.9465      1.4749      1.1469     0.93447     0.73047     0.73047     0.79634     0.93446    
  1.1581      1.4868      1.9433      2.5463      3.3015      4.1931      5.1763      6.1751      7.0845      7.7849    
  8.1678      8.1677      7.7849      7.0845      6.1751      5.1764      4.1931      3.3015      2.5462      1.9433    
  1.4868      1.1581     0.93447     0.79634     0.73047     0.77773     0.87549      1.0307      1.2542      1.5587    
  1.9550      2.4458      3.0200      3.6477      4.2794      4.8492      5.2843      5.5208      5.5208      5.2843    
  4.8492      4.2794      3.6477      3.0199      2.4458      1.9550      1.5587      1.2543      1.0308     0.87548    
 0.77772     0.73047     0.77773     0.83565     0.93606      1.0852      1.2916      1.5639      1.9075      2.3192    
  2.7833      3.2692      3.7322      4.1191      4.3774      4.4683      4.3774      4.1191      3.7322      3.2692    
  2.7833      2.3192      1.9075      1.5640      1.2916      1.0852     0.93606     0.83564     0.77772     0.75879    
 0.87549     0.93606      1.0314      1.1670      1.3493      1.5834      1.8703      2.2030      2.5640      2.9245    
  3.2472      3.4922      3.6247      3.6247      3.4922      3.2472      2.9244      2.5639      2.2030      1.8703    
  1.5834      1.3493      1.1670      1.0314     0.93606     0.87549     0.84608     0.84608      1.0307      1.0852    
  1.1670      1.2811      1.4320      1.6223      1.8499      2.1059      2.3730      2.6264      2.8373      2.9776    
  3.0268      2.9776      2.8373      2.6264      2.3730      2.1059      1.8499      1.6223      1.4320      1.2811    
  1.1670      1.0852      1.0308     0.99975     0.98970     0.99975      1.2542      1.2916      1.3493      1.4320    
  1.5432      1.6838      1.8499      2.0323      2.2157      2.3805      2.5056      2.5734      2.5734      2.5057    
  2.3805      2.2157      2.0323      1.8499      1.6838      1.5432      1.4320      1.3493      1.2916      1.2542    
  1.2326      1.2228      1.2228      1.2326      1.5587      1.5639      1.5834      1.6223      1.6838      1.7678    
  1.8703      1.9828      2.0932      2.1871      2.2503      2.2726      2.2503      2.1871      2.0932      1.9828    
  1.8703      1.7678      1.6838      1.6223      1.5834      1.5639      1.5587      1.5615      1.5661      1.5683    
  1.5662      1.5615      1.9550      1.9075      1.8703      1.8499      1.8499      1.8703      1.9075      1.9550    
  2.0037      2.0437      2.0664      2.0664      2.0437      2.0037      1.9550      1.9075      1.8703      1.8499    
  1.8499      1.8703      1.9075      1.9550      2.0037      2.0437      2.0664      2.0664      2.0437      2.0037    
  2.4458      2.3192      2.2030      2.1059      2.0323      1.9828      1.9550      1.9439      1.9433      1.9465    
  1.9482      1.9465      1.9433      1.9439      1.9550      1.9829      2.0324      2.1059      2.2030      2.3192    
  2.4458      2.5698      2.6755      2.7470      2.7723      2.7470      2.6755      2.5698      3.0200      2.7833    
  2.5640      2.3730      2.2157      2.0932      2.0037      1.9433      1.9072      1.8907      1.8906      1.9072    
  1.9433      2.0037      2.0933      2.2158      2.3730      2.5639      2.7833      3.0200      3.2561      3.4680    
  3.6295      3.7171      3.7171      3.6294      3.4680      3.2561      3.6477      3.2692      2.9245      2.6264    
  2.3805      2.1871      2.0437      1.9465      1.8907      1.8725      1.8906      1.9465      2.0437      2.1871    
  2.3805      2.6264      2.9244      3.2691      3.6477      4.0373      4.4049      4.7106      4.9142      4.9859    
  4.9142      4.7106      4.4049      4.0373      4.2794      3.7322      3.2472      2.8373      2.5056      2.2503    
  2.0664      1.9482      1.8906      1.8906      1.9482      2.0664      2.2503      2.5057      2.8373      3.2472    
  3.7321      4.2794      4.8626      5.4397      5.9546      6.3452      6.5567      6.5567      6.3452      5.9546    
  5.4397      4.8626      4.8492      4.1191      3.4922      2.9776      2.5734      2.2726      2.0664      1.9465    
  1.9072      1.9465      2.0664      2.2727      2.5735      2.9776      3.4921      4.1190      4.8491      5.6564    
  6.4922      7.2849      7.9464      8.3883      8.5440      8.3884      7.9464      7.2849      6.4922      5.6564    
  5.2843      4.3774      3.6247      3.0268      2.5734      2.2503      2.0437      1.9433      1.9433      2.0437    
  2.2503      2.5735      3.0268      3.6247      4.3773      5.2842      6.3252      7.4516      8.5807      9.5992    
  10.378      10.802      10.802      10.378      9.5992      8.5807      7.4515      6.3252      5.5208      4.4683    
  3.6247      2.9776      2.5057      2.1871      2.0037      1.9439      2.0037      2.1871      2.5057      2.9776    
  3.6247      4.4683      5.5207      6.7748      8.1909      9.6857      11.128      12.350      13.174      13.466    
  13.174      12.350      11.128      9.6856      8.1908      6.7748      5.5208      4.3774      3.4922      2.8373    
  2.3805      2.0932      1.9550      1.9550      2.0933      2.3805      2.8373      3.4921      4.3773      5.5207    
  6.9336      8.5952      10.435      12.321      14.056      15.405      16.147      16.147      15.405      14.057    
  12.321      10.435      8.5951      6.9336      5.2843      4.1191      3.2472      2.6264      2.2157      1.9828    
  1.9075      1.9829      2.2158      2.6264      3.2472      4.1190      5.2842      6.7748      8.5952      10.702    
  12.979      15.228      17.170      18.501      18.976      18.501      17.170      15.228      12.979      10.701    
  8.5951      6.7748      4.8492      3.7322      2.9244      2.3730      2.0323      1.8703      1.8703      2.0324    
  2.3730      2.9244      3.7321      4.8491      6.3252      8.1909      10.435      12.979      15.647      18.153    
  20.132      21.228      21.228      20.132      18.153      15.647      12.979      10.435      8.1908      6.3252    
  4.2794      3.2692      2.5639      2.1059      1.8499      1.7678      1.8499      2.1059      2.5639      3.2691    
  4.2794      5.6564      7.4516      9.6857      12.321      15.228      18.153      20.716      22.481      23.111    
  22.481      20.716      18.153      15.228      12.321      9.6856      7.4515      5.6564      3.6477      2.7833    
  2.2030      1.8499      1.6838      1.6838      1.8499      2.2030      2.7833      3.6477      4.8626      6.4922    
  8.5807      11.128      14.056      17.170      20.132      22.481      23.783      23.783      22.481      20.132    
  17.170      14.057      11.128      8.5807      6.4922      4.8626      3.0199      2.3192      1.8703      1.6223    
  1.5432      1.6223      1.8703      2.3192      3.0200      4.0373      5.4397      7.2849      9.5992      12.350    
  15.405      18.501      21.228      23.111      23.783      23.111      21.228      18.501      15.405      12.350    
  9.5993      7.2849      5.4397      4.0373      2.4458      1.9075      1.5834      1.4320      1.4320      1.5834    
  1.9075      2.4458      3.2561      4.4049      5.9546      7.9464      10.378      13.174      16.147      18.976    
  21.228      22.481      22.481      21.228      18.975      16.147      13.174      10.378      7.9465      5.9546    
  4.4049      3.2561      1.9550      1.5640      1.3493      1.2811      1.3493      1.5639      1.9550      2.5698    
  3.4680      4.7106      6.3452      8.3883      10.802      13.466      16.147      18.501      20.132      20.716    
  20.132      18.501      16.147      13.466      10.803      8.3884      6.3452      4.7105      3.4680      2.5698    
  1.5587      1.2916      1.1670      1.1670      1.2916      1.5587      2.0037      2.6755      3.6295      4.9142    
  6.5567      8.5440      10.802      13.174      15.405      17.170      18.153      18.153      17.170      15.405    
  13.174      10.803      8.5441      6.5567      4.9142      3.6294      2.6755      2.0037      1.2543      1.0852    
  1.0314      1.0852      1.2542      1.5615      2.0437      2.7470      3.7171      4.9859      6.5567      8.3884    
  10.378      12.350      14.057      15.228      15.647      15.228      14.057      12.350      10.378      8.3884    
  6.5567      4.9858      3.7170      2.7470      2.0437      1.5615      1.0308     0.93606     0.93606      1.0308    
  1.2326      1.5661      2.0664      2.7723      3.7171      4.9142      6.3452      7.9464      9.5992      11.128    
  12.321      12.979      12.979      12.321      11.128      9.5993      7.9465      6.3452      4.9142      3.7170    
  2.7723      2.0664      1.5662      1.2326     0.87548     0.83564     0.87549     0.99975      1.2228      1.5683    
  2.0664      2.7470      3.6294      4.7106      5.9546      7.2849      8.5807      9.6856      10.435      10.701    
  10.435      9.6856      8.5807      7.2849      5.9546      4.7105      3.6294      2.7470      2.0664      1.5683    
  1.2228     0.99975     0.77772     0.77772     0.84608     0.98970      1.2228      1.5662      2.0437      2.6755    
  3.4680      4.4049      5.4397      6.4922      7.4515      8.1908      8.5951      8.5951      8.1908      7.4515    
  6.4922      5.4397      4.4049      3.4680      2.6755      2.0437      1.5662      1.2228     0.98971     0.84607    
 0.73047     0.75879     0.84608     0.99975      1.2326      1.5615      2.0037      2.5698      3.2561      4.0373    
  4.8626      5.6564      6.3252      6.7748      6.9336      6.7748      6.3252      5.6564      4.8626      4.0373    
  3.2561      2.5698      2.0037      1.5615      1.2326     0.99975     0.84607     0.75878     0.81583     0.87549    
 0.97913      1.1333      1.3467      1.6281      1.9828      2.4076      2.8862      3.3872      3.8647      4.2638    
  4.5304      4.6242      4.5304      4.2638      3.8647      3.3872      2.8862      2.4076      1.9829      1.6281    
  1.3467      1.1333     0.97911     0.87548     0.81582     0.79634     0.87549     0.93606      1.0314      1.1670    
  1.3493      1.5834      1.8703      2.2030      2.5640      2.9245      3.2472      3.4922      3.6247      3.6247    
  3.4922      3.2472      2.9244      2.5639      2.2030      1.8703      1.5834      1.3493      1.1670      1.0314    
 0.93606     0.87549     0.84608     0.84608     0.97913      1.0314      1.1099      1.2193      1.3644      1.5478    
  1.7678      2.0155      2.2740      2.5193      2.7233      2.8589      2.9066      2.8589      2.7233      2.5193    
  2.2740      2.0155      1.7678      1.5479      1.3644      1.2193      1.1099      1.0314     0.97913     0.94927    
 0.93957     0.94927      1.1333      1.1670      1.2193      1.2949      1.3975      1.5282      1.6838      1.8550    
  2.0273      2.1819      2.2991      2.3625      2.3625      2.2991      2.1818      2.0273      1.8550      1.6838    
  1.5283      1.3975      1.2949      1.2193      1.1670      1.1333      1.1136      1.1047      1.1047      1.1136    
  1.3467      1.3493      1.3644      1.3975      1.4520      1.5282      1.6223      1.7259      1.8274      1.9134    
  1.9710      1.9914      1.9710      1.9134      1.8274      1.7259      1.6223      1.5282      1.4520      1.3975    
  1.3644      1.3493      1.3467      1.3505      1.3554      1.3575      1.3554      1.3505      1.6281      1.5834    
  1.5478      1.5282      1.5282      1.5478      1.5834      1.6281      1.6734      1.7101      1.7307      1.7307    
  1.7101      1.6734      1.6281      1.5834      1.5478      1.5282      1.5282      1.5478      1.5834      1.6281    
  1.6734      1.7101      1.7307      1.7307      1.7101      1.6734      1.9828      1.8703      1.7678      1.6838    
  1.6223      1.5834      1.5639      1.5587      1.5615      1.5662      1.5683      1.5661      1.5615      1.5587    
  1.5639      1.5834      1.6223      1.6838      1.7678      1.8703      1.9828      2.0932      2.1871      2.2503    
  2.2726      2.2503      2.1871      2.0932      2.4076      2.2030      2.0155      1.8550      1.7259      1.6281    
  1.5587      1.5133      1.4868      1.4749      1.4749      1.4868      1.5133      1.5587      1.6281      1.7259    
  1.8550      2.0154      2.2030      2.4076      2.6129      2.7976      2.9382      3.0145      3.0145      2.9382    
  2.7976      2.6129      2.8862      2.5640      2.2740      2.0273      1.8274      1.6734      1.5615      1.4868    
  1.4445      1.4309      1.4445      1.4868      1.5615      1.6734      1.8274      2.0273      2.2740      2.5639    
  2.8862      3.2206      3.5378      3.8023      3.9788      4.0409      3.9788      3.8023      3.5378      3.2206    
  3.3872      2.9245      2.5193      2.1819      1.9134      1.7101      1.5662      1.4749      1.4309      1.4309    
  1.4749      1.5662      1.7102      1.9134      2.1818      2.5193      2.9244      3.3872      3.8850      4.3810    
  4.8256      5.1639      5.3474      5.3475      5.1639      4.8256      4.3810      3.8850      3.8647      3.2472    
  2.7233      2.2991      1.9710      1.7307      1.5683      1.4749      1.4445      1.4749      1.5683      1.7307    
  1.9710      2.2990      2.7232      3.2472      3.8647      4.5539      5.2728      5.9583      6.5326      6.9172    
  7.0528      6.9172      6.5326      5.9583      5.2727      4.5539      4.2638      3.4922      2.8589      2.3625    
  1.9914      1.7307      1.5661      1.4868      1.4868      1.5662      1.7307      1.9914      2.3624      2.8589    
  3.4921      4.2638      5.1576      6.1314      7.1128      8.0013      8.6826      9.0541      9.0541      8.6827    
  8.0013      7.1128      6.1313      5.1575      4.5304      3.6247      2.9066      2.3625      1.9710      1.7101    
  1.5615      1.5133      1.5615      1.7102      1.9710      2.3624      2.9065      3.6247      4.5304      5.6188    
  6.8555      8.1669      9.4362      10.513      11.240      11.498      11.240      10.513      9.4362      8.1669    
  6.8555      5.6187      4.6242      3.6247      2.8589      2.2991      1.9134      1.6734      1.5587      1.5587    
  1.6734      1.9134      2.2990      2.8589      3.6247      4.6242      5.8695      7.3426      8.9804      10.662    
  12.211      13.415      14.076      14.076      13.415      12.211      10.662      8.9804      7.3426      5.8695    
  4.5304      3.4922      2.7233      2.1818      1.8274      1.6281      1.5639      1.6281      1.8274      2.1818    
  2.7232      3.4921      4.5304      5.8695      7.5148      9.4256      11.495      13.539      15.302      16.509    
  16.939      16.509      15.302      13.539      11.495      9.4255      7.5147      5.8695      4.2638      3.2472    
  2.5193      2.0273      1.7259      1.5834      1.5834      1.7259      2.0273      2.5193      3.2472      4.2638    
  5.6188      7.3426      9.4256      11.791      14.272      16.600      18.435      19.455      19.455      18.435    
  16.600      14.272      11.791      9.4256      7.3426      5.6187      3.8647      2.9244      2.2740      1.8550    
  1.6223      1.5478      1.6223      1.8550      2.2740      2.9244      3.8647      5.1576      6.8555      8.9804    
  11.495      14.272      17.063      19.508      21.199      21.805      21.199      19.508      17.063      14.272    
  11.496      8.9804      6.8555      5.1575      3.3872      2.5639      2.0155      1.6838      1.5282      1.5282    
  1.6838      2.0154      2.5639      3.3872      4.5539      6.1314      8.1669      10.662      13.539      16.600    
  19.508      21.826      23.120      23.120      21.825      19.508      16.600      13.539      10.662      8.1670    
  6.1313      4.5539      2.8862      2.2030      1.7678      1.5283      1.4520      1.5282      1.7678      2.2030    
  2.8862      3.8850      5.2728      7.1128      9.4362      12.211      15.302      18.435      21.199      23.120    
  23.811      23.120      21.199      18.435      15.302      12.211      9.4363      7.1128      5.2727      3.8850    
  2.4076      1.8703      1.5479      1.3975      1.3975      1.5478      1.8703      2.4076      3.2206      4.3810    
  5.9583      8.0013      10.513      13.415      16.509      19.455      21.805      23.120      23.120      21.805    
  19.454      16.509      13.415      10.513      8.0013      5.9582      4.3809      3.2206      1.9829      1.5834    
  1.3644      1.2949      1.3644      1.5834      1.9828      2.6129      3.5378      4.8256      6.5326      8.6826    
  11.240      14.076      16.939      19.455      21.199      21.825      21.199      19.454      16.939      14.077    
  11.240      8.6827      6.5326      4.8256      3.5378      2.6129      1.6281      1.3493      1.2193      1.2193    
  1.3493      1.6281      2.0932      2.7976      3.8023      5.1639      6.9172      9.0541      11.498      14.076    
  16.509      18.435      19.508      19.508      18.435      16.509      14.077      11.498      9.0541      6.9172    
  5.1639      3.8023      2.7976      2.0933      1.3467      1.1670      1.1099      1.1670      1.3467      1.6734    
  2.1871      2.9382      3.9788      5.3474      7.0528      9.0541      11.240      13.415      15.302      16.600    
  17.063      16.600      15.302      13.415      11.240      9.0541      7.0528      5.3474      3.9788      2.9383    
  2.1871      1.6734      1.1333      1.0314      1.0314      1.1333      1.3505      1.7101      2.2503      3.0145    
  4.0409      5.3475      6.9172      8.6827      10.513      12.211      13.539      14.272      14.272      13.539    
  12.211      10.513      8.6827      6.9172      5.3474      4.0408      3.0146      2.2503      1.7101      1.3505    
 0.97911     0.93606     0.97913      1.1136      1.3554      1.7307      2.2726      3.0145      3.9788      5.1639    
  6.5326      8.0013      9.4362      10.662      11.495      11.791      11.496      10.662      9.4363      8.0013    
  6.5326      5.1639      3.9788      3.0146      2.2727      1.7307      1.3554      1.1136     0.87548     0.87549    
 0.94927      1.1047      1.3575      1.7307      2.2503      2.9382      3.8023      4.8256      5.9583      7.1128    
  8.1669      8.9804      9.4255      9.4256      8.9804      8.1670      7.1128      5.9582      4.8256      3.8023    
  2.9383      2.2503      1.7307      1.3575      1.1047     0.94926     0.81582     0.84608     0.93957      1.1047    
  1.3554      1.7101      2.1871      2.7976      3.5378      4.3810      5.2727      6.1313      6.8555      7.3426    
  7.5147      7.3426      6.8555      6.1313      5.2727      4.3809      3.5378      2.7976      2.1871      1.7101    
  1.3554      1.1047     0.93956     0.84607     0.79634     0.84608     0.94927      1.1136      1.3505      1.6734    
  2.0932      2.6129      3.2206      3.8850      4.5539      5.1575      5.6187      5.8695      5.8695      5.6187    
  5.1575      4.5539      3.8850      3.2206      2.6129      2.0933      1.6734      1.3505      1.1136     0.94926    
 0.84607     0.79634     0.96586      1.0308      1.1333      1.2792      1.4751      1.7259      2.0323      2.3868    
  2.7710      3.1546      3.4983      3.7593      3.9007      3.9007      3.7593      3.4983      3.1546      2.7710    
  2.3868      2.0323      1.7259      1.4751      1.2792      1.1333      1.0307     0.96586     0.93447     0.93447    
  1.0308      1.0852      1.1670      1.2811      1.4320      1.6223      1.8499      2.1059      2.3730      2.6264    
  2.8373      2.9776      3.0268      2.9776      2.8373      2.6264      2.3730      2.1059      1.8499      1.6223    
  1.4320      1.2811      1.1670      1.0852      1.0308     0.99976     0.98970     0.99975      1.1333      1.1670    
  1.2193      1.2949      1.3975      1.5282      1.6838      1.8550      2.0273      2.1819      2.2991      2.3625    
  2.3625      2.2991      2.1818      2.0273      1.8550      1.6838      1.5283      1.3975      1.2949      1.2193    
  1.1670      1.1333      1.1136      1.1047      1.1047      1.1136      1.2792      1.2811      1.2949      1.3261    
  1.3784      1.4520      1.5432      1.6439      1.7424      1.8256      1.8814      1.9010      1.8814      1.8256    