unknown system                          
   1.00000000000000     
     0.000000    2.715000    2.715000
     2.715000    0.000000    2.715000
     2.715000    2.715000    0.000000
   Si
     2
Direct
  0.500000  0.500000  0.500000
  0.750000  0.750000  0.750000
 
   28   28   28
 0.70335996993E+00 0.73101322901E+00 0.81617545453E+00 0.96592947673E+00 0.11926204342E+01
 0.15127727094E+01 0.19431824072E+01 0.24942368034E+01 0.31621263578E+01 0.39221717779E+01
 0.47249523897E+01 0.54967782813E+01 0.61469437908E+01 0.65838928838E+01 0.67381977067E+01
 0.65838247840E+01 0.61468605205E+01 0.54967250041E+01 0.47249273104E+01 0.39221535804E+01
 0.31621175771E+01 0.24942613691E+01 0.19432473658E+01 0.15128501241E+01 0.11926696538E+01
 0.96593131347E+00 0.81614482338E+00 0.73098442524E+00 0.73101322901E+00 0.77814888930E+00
 0.87569626115E+00 0.10306891294E+01 0.12539067380E+01 0.15581727059E+01 0.19542737077E+01
 0.24450391954E+01 0.30192134606E+01 0.36470009280E+01 0.42788180166E+01 0.48487152839E+01
 0.52839420709E+01 0.55204852809E+01 0.55204667977E+01 0.52839073122E+01 0.48486974677E+01
 0.42788219319E+01 0.36470111572E+01 0.30192311572E+01 0.24450841896E+01 0.19543490506E+01
 0.15582485298E+01 0.12539472902E+01 0.10306854986E+01 0.87566757105E+00 0.77812084418E+00
 0.73100224274E+00 0.81617545453E+00 0.87569626115E+00 0.97913076576E+00 0.11330590592E+01
 0.13462372765E+01 0.16275346765E+01 0.19821625510E+01 0.24068619341E+01 0.28854803451E+01
 0.33865438161E+01 0.38641685983E+01 0.42633593532E+01 0.45300101558E+01 0.46238727995E+01
 0.45300006492E+01 0.42633551873E+01 0.38641794917E+01 0.33865689902E+01 0.28855218204E+01
 0.24069239489E+01 0.19822321462E+01 0.16275805166E+01 0.13462387222E+01 0.11330279110E+01
 0.97909652010E+00 0.87567715156E+00 0.81616988246E+00 0.79674277401E+00 0.96592947673E+00
 0.10306891294E+01 0.11330590592E+01 0.12788624531E+01 0.14745755994E+01 0.17253006108E+01
 0.20316470670E+01 0.23861274777E+01 0.27702976252E+01 0.31540012248E+01 0.34977652848E+01
 0.37588306977E+01 0.39001909132E+01 0.39001887503E+01 0.37588305813E+01 0.34977787129E+01
 0.31540337881E+01 0.27703470278E+01 0.23861823648E+01 0.20316833660E+01 0.17252927861E+01
 0.14745230631E+01 0.12787978706E+01 0.11330200970E+01 0.10306856321E+01 0.96594302664E+00
 0.93462583679E+00 0.93461824817E+00 0.11926204342E+01 0.12539067380E+01 0.13462372765E+01
 0.14745755994E+01 0.16432692391E+01 0.18543536062E+01 0.21052122974E+01 0.23861259484E+01
 0.26787451457E+01 0.29565447809E+01 0.31879505674E+01 0.33421401499E+01 0.33963435435E+01
 0.33421399605E+01 0.31879616426E+01 0.29565729768E+01 0.26787801962E+01 0.23861474246E+01
 0.21052010652E+01 0.18543026708E+01 0.16431937629E+01 0.14745107498E+01 0.13462138917E+01
 0.12539257342E+01 0.11926558079E+01 0.11579537805E+01 0.11467447675E+01 0.11579295177E+01
 0.15127727094E+01 0.15581727059E+01 0.16275346765E+01 0.17253006108E+01 0.18543536062E+01
 0.20147751708E+01 0.22022906518E+01 0.24068610876E+01 0.26121886155E+01 0.27968537066E+01
 0.29374989686E+01 0.30137920823E+01 0.30137917657E+01 0.29375023560E+01 0.27968635554E+01
 0.26121934030E+01 0.24068433179E+01 0.22022464838E+01 0.20147196906E+01 0.18543087753E+01
 0.17252828288E+01 0.16275490928E+01 0.15582113203E+01 0.15128176280E+01 0.14863778608E+01
 0.14744712810E+01 0.14744593423E+01 0.14863445258E+01 0.19431824072E+01 0.19542737077E+01
 0.19821625510E+01 0.20316470670E+01 0.21052122974E+01 0.22022906518E+01 0.23184841501E+01
 0.24450426788E+01 0.25690342446E+01 0.26746748181E+01 0.27461341485E+01 0.27714499266E+01
 0.27461371771E+01 0.26746741396E+01 0.25690191169E+01 0.24450091852E+01 0.23184463592E+01
 0.22022742029E+01 0.21052315383E+01 0.20316915931E+01 0.19822096041E+01 0.19543106975E+01
 0.19432121345E+01 0.19425792112E+01 0.19457310899E+01 0.19474395689E+01 0.19457132184E+01
 0.19425525887E+01 0.24942368034E+01 0.24450391954E+01 0.24068619341E+01 0.23861274777E+01
 0.23861259484E+01 0.24068610876E+01 0.24450426788E+01 0.24942406051E+01 0.25453640716E+01
 0.25878777777E+01 0.26120966873E+01 0.26121043658E+01 0.25878895195E+01 0.25453620293E+01
 0.24942279749E+01 0.24450470931E+01 0.24069075343E+01 0.23862085554E+01 0.23862106002E+01
 0.24069099760E+01 0.24450463069E+01 0.24942277093E+01 0.25453656629E+01 0.25878926315E+01
 0.26121026895E+01 0.26120939529E+01 0.25878780755E+01 0.25453640305E+01 0.31621263578E+01
 0.30192134606E+01 0.28854803451E+01 0.27702976252E+01 0.26787451457E+01 0.26121886155E+01
 0.25690342446E+01 0.25453640716E+01 0.25355212931E+01 0.25331560913E+01 0.25330598073E+01
 0.25331820611E+01 0.25355515794E+01 0.25453936222E+01 0.25690887741E+01 0.26122879031E+01
 0.26788656526E+01 0.27703861141E+01 0.28855012793E+01 0.30191765466E+01 0.31620709408E+01
 0.33005407182E+01 0.34178321026E+01 0.34969564559E+01 0.35249559580E+01 0.34969554258E+01
 0.34178449151E+01 0.33005796843E+01 0.39221717779E+01 0.36470009280E+01 0.33865438161E+01
 0.31540012248E+01 0.29565447809E+01 0.27968537066E+01 0.26746748181E+01 0.25878777777E+01
 0.25331560913E+01 0.25069802821E+01 0.25069996706E+01 0.25332035382E+01 0.25879418816E+01
 0.26747659383E+01 0.27969799586E+01 0.29566742397E+01 0.31540745531E+01 0.33865292459E+01
 0.36469210051E+01 0.39220741888E+01 0.41920620490E+01 0.44312614339E+01 0.46117936527E+01
 0.47092696604E+01 0.47092836713E+01 0.46118330698E+01 0.44313229158E+01 0.41921454080E+01
 0.47249523897E+01 0.42788180166E+01 0.38641685983E+01 0.34977652848E+01 0.31879505674E+01
 0.29374989686E+01 0.27461341485E+01 0.26120966873E+01 0.25330598073E+01 0.25069996706E+01
 0.25330992521E+01 0.26121716064E+01 0.27462456345E+01 0.29376402317E+01 0.31880815271E+01
 0.34978238635E+01 0.38641224836E+01 0.42786946090E+01 0.47248091751E+01 0.51753915809E+01
 0.55935400653E+01 0.59364201996E+01 0.61626655494E+01 0.62418423085E+01 0.61627005954E+01
 0.59364852772E+01 0.55936328052E+01 0.51755142943E+01 0.54967782813E+01 0.48487152839E+01
 0.42633593532E+01 0.37588306977E+01 0.33421401499E+01 0.30137920823E+01 0.27714499266E+01
 0.26121043658E+01 0.25331820611E+01 0.25332035382E+01 0.26121716064E+01 0.27715668892E+01
 0.30139465960E+01 0.33422838542E+01 0.37588913933E+01 0.42632925536E+01 0.48485438703E+01
 0.54965754857E+01 0.61743148410E+01 0.68327497294E+01 0.74105910189E+01 0.78431622577E+01
 0.80753999810E+01 0.80753864003E+01 0.78431410972E+01 0.74106052691E+01 0.68328350893E+01
 0.61744768584E+01 0.61469437908E+01 0.52839420709E+01 0.45300101558E+01 0.39001909132E+01
 0.33963435435E+01 0.30137917657E+01 0.27461371771E+01 0.25878895195E+01 0.25355515794E+01
 0.25879418816E+01 0.27462456345E+01 0.30139465960E+01 0.33964982497E+01 0.39002650730E+01
 0.45299386279E+01 0.52837323002E+01 0.61466823217E+01 0.70839534333E+01 0.80370318410E+01
 0.89254841448E+01 0.96559939693E+01 0.10138696339E+02 0.10307658580E+02 0.10138579969E+02
 0.96558434056E+01 0.89254065560E+01 0.80370954376E+01 0.70841537513E+01 0.65838928838E+01
 0.55204852809E+01 0.46238727995E+01 0.39001887503E+01 0.33421399605E+01 0.29375023560E+01
 0.26746741396E+01 0.25453620293E+01 0.25453936222E+01 0.26747659383E+01 0.29376402317E+01
 0.33422838542E+01 0.39002650730E+01 0.46238071064E+01 0.55202665091E+01 0.65836069482E+01
 0.77845024598E+01 0.90622974493E+01 0.10322428584E+02 0.11442504347E+02 0.12289459802E+02
 0.12747139117E+02 0.12747060937E+02 0.12289262903E+02 0.11442285510E+02 0.10322303114E+02
 0.90623451060E+01 0.77847184237E+01 0.67381977067E+01 0.55204667977E+01 0.45300006492E+01
 0.37588305813E+01 0.31879616426E+01 0.27968635554E+01 0.25690191169E+01 0.24942279749E+01
 0.25690887741E+01 0.27969799586E+01 0.31880815271E+01 0.37588913933E+01 0.45299386279E+01
 0.55202665091E+01 0.67379340893E+01 0.81674756324E+01 0.97572431925E+01 0.11410506626E+02
 0.12984532348E+02 0.14303031167E+02 0.15186318051E+02 0.15497194310E+02 0.15186265089E+02
 0.14302911637E+02 0.12984369949E+02 0.11410389818E+02 0.97572717934E+01 0.81676683222E+01
 0.65838247840E+01 0.52839073122E+01 0.42633551873E+01 0.34977787129E+01 0.29565729768E+01
 0.26121934030E+01 0.24450091852E+01 0.24450470931E+01 0.26122879031E+01 0.29566742397E+01
 0.34978238635E+01 0.42632925536E+01 0.52837323002E+01 0.65836069482E+01 0.81674756324E+01
 0.10003866552E+02 0.12009994637E+02 0.14041226233E+02 0.15891048288E+02 0.17304388896E+02
 0.18066717755E+02 0.18066778619E+02 0.17304505526E+02 0.15891095526E+02 0.14041157239E+02
 0.12009894740E+02 0.10003865185E+02 0.81676196346E+01 0.61468605205E+01 0.48486974677E+01
 0.38641794917E+01 0.31540337881E+01 0.26787801962E+01 0.24068433179E+01 0.23184463592E+01
 0.24069075343E+01 0.26788656526E+01 0.31540745531E+01 0.38641224836E+01 0.48485438703E+01
 0.61466823217E+01 0.77845024598E+01 0.97572431925E+01 0.12009994637E+02 0.14418486545E+02
 0.16769783538E+02 0.18746491728E+02 0.20056581878E+02 0.20514439009E+02 0.20056798388E+02
 0.18746762780E+02 0.16769927838E+02 0.14418452298E+02 0.12009884966E+02 0.97572051716E+01
 0.77845993241E+01 0.54967250041E+01 0.42788219319E+01 0.33865689902E+01 0.27703470278E+01
 0.23861474246E+01 0.22022464838E+01 0.22022742029E+01 0.23862085554E+01 0.27703861141E+01
 0.33865292459E+01 0.42786946090E+01 0.54965754857E+01 0.70839534333E+01 0.90622974493E+01
 0.11410506626E+02 0.14041226233E+02 0.16769783538E+02 0.19257990506E+02 0.21142562575E+02
 0.22155543000E+02 0.22155682060E+02 0.21142886469E+02 0.19258291919E+02 0.16769897630E+02
 0.14041141021E+02 0.11410351510E+02 0.90622240035E+01 0.70840199939E+01 0.47249273104E+01
 0.36470111572E+01 0.28855218204E+01 0.23861823648E+01 0.21052010652E+01 0.20147196906E+01
 0.21052315383E+01 0.23862106002E+01 0.28855012793E+01 0.36469210051E+01 0.47248091751E+01
 0.61743148410E+01 0.80370318410E+01 0.10322428584E+02 0.12984532348E+02 0.15891048288E+02
 0.18746491728E+02 0.21142562575E+02 0.22733287479E+02 0.23290327979E+02 0.22733538875E+02
 0.21142895716E+02 0.18746696047E+02 0.15891022296E+02 0.12984336499E+02 0.10322221896E+02
 0.80369442724E+01 0.61743676446E+01 0.39221535804E+01 0.30192311572E+01 0.24069239489E+01
 0.20316833660E+01 0.18543026708E+01 0.18543087753E+01 0.20316915931E+01 0.24069099760E+01
 0.30191765466E+01 0.39220741888E+01 0.51753915809E+01 0.68327497294E+01 0.89254841448E+01
 0.11442504347E+02 0.14303031167E+02 0.17304388896E+02 0.20056581878E+02 0.22155543000E+02
 0.23290327979E+02 0.23290450799E+02 0.22155814717E+02 0.20056793754E+02 0.17304391361E+02
 0.14302830898E+02 0.11442231688E+02 0.89252826205E+01 0.68326841998E+01 0.51754355473E+01
 0.31621175771E+01 0.24450841896E+01 0.19822321462E+01 0.17252927861E+01 0.16431937629E+01
 0.17252828288E+01 0.19822096041E+01 0.24450463069E+01 0.31620709408E+01 0.41920620490E+01
 0.55935400653E+01 0.74105910189E+01 0.96559939693E+01 0.12289459802E+02 0.15186318051E+02
 0.18066717755E+02 0.20514439009E+02 0.22155682060E+02 0.22733538875E+02 0.22155814717E+02
 0.20514568378E+02 0.18066703531E+02 0.15186134031E+02 0.12289193413E+02 0.96557622299E+01
 0.74104591033E+01 0.55935081894E+01 0.41920912680E+01 0.24942613691E+01 0.19543490506E+01
 0.16275805166E+01 0.14745230631E+01 0.14745107498E+01 0.16275490928E+01 0.19543106975E+01
 0.24942277093E+01 0.33005407182E+01 0.44312614339E+01 0.59364201996E+01 0.78431622577E+01
 0.10138696339E+02 0.12747139117E+02 0.15497194310E+02 0.18066778619E+02 0.20056798388E+02
 0.21142886469E+02 0.21142895716E+02 0.20056793754E+02 0.18066703531E+02 0.15497034427E+02
 0.12746935818E+02 0.10138510331E+02 0.78430303530E+01 0.59363496751E+01 0.44312428077E+01
 0.33005565155E+01 0.19432473658E+01 0.15582485298E+01 0.13462387222E+01 0.12787978706E+01
 0.13462138917E+01 0.15582113203E+01 0.19432121345E+01 0.25453656629E+01 0.34178321026E+01
 0.46117936527E+01 0.61626655494E+01 0.80753999810E+01 0.10307658580E+02 0.12747060937E+02
 0.15186265089E+02 0.17304505526E+02 0.18746762780E+02 0.19258291919E+02 0.18746696047E+02
 0.17304391361E+02 0.15186134031E+02 0.12746935818E+02 0.10307545803E+02 0.80752972007E+01
 0.61625802962E+01 0.46117430571E+01 0.34178220357E+01 0.25453858747E+01 0.15128501241E+01
 0.12539472902E+01 0.11330279110E+01 0.11330200970E+01 0.12539257342E+01 0.15128176280E+01
 0.19425792112E+01 0.25878926315E+01 0.34969564559E+01 0.47092696604E+01 0.62418423085E+01
 0.80753864003E+01 0.10138579969E+02 0.12289262903E+02 0.14302911637E+02 0.15891095526E+02
 0.16769927838E+02 0.16769897630E+02 0.15891022296E+02 0.14302830898E+02 0.12289193413E+02
 0.10138510331E+02 0.80752972007E+01 0.62417423545E+01 0.47091964671E+01 0.34969361461E+01
 0.25879156484E+01 0.19426167192E+01 0.11926696538E+01 0.10306854986E+01 0.97909652010E+00
 0.10306856321E+01 0.11926558079E+01 0.14863778608E+01 0.19457310899E+01 0.26121026895E+01
 0.35249559580E+01 0.47092836713E+01 0.61627005954E+01 0.78431410972E+01 0.96558434056E+01
 0.11442285510E+02 0.12984369949E+02 0.14041157239E+02 0.14418452298E+02 0.14041141021E+02
 0.12984336499E+02 0.11442231688E+02 0.96557622299E+01 0.78430303530E+01 0.61625802962E+01
 0.47091964671E+01 0.35249358973E+01 0.26121436361E+01 0.19457917042E+01 0.14864195412E+01
 0.96593131347E+00 0.87566757105E+00 0.87567715156E+00 0.96594302664E+00 0.11579537805E+01
 0.14744712810E+01 0.19474395689E+01 0.26120939529E+01 0.34969554258E+01 0.46118330698E+01
 0.59364852772E+01 0.74106052691E+01 0.89254065560E+01 0.10322303114E+02 0.11410389818E+02
 0.12009894740E+02 0.12009884966E+02 0.11410351510E+02 0.10322221896E+02 0.89252826205E+01
 0.74104591033E+01 0.59363496751E+01 0.46117430571E+01 0.34969361461E+01 0.26121436361E+01
 0.19475217858E+01 0.14745357401E+01 0.11579735286E+01 0.81614482338E+00 0.77812084418E+00
 0.81616988246E+00 0.93462583679E+00 0.11467447675E+01 0.14744593423E+01 0.19457132184E+01
 0.25878780755E+01 0.34178449151E+01 0.44313229158E+01 0.55936328052E+01 0.68328350893E+01
 0.80370954376E+01 0.90623451060E+01 0.97572717934E+01 0.10003865185E+02 0.97572051716E+01
 0.90622240035E+01 0.80369442724E+01 0.68326841998E+01 0.55935081894E+01 0.44312428077E+01
 0.34178220357E+01 0.25879156484E+01 0.19457917042E+01 0.14745357401E+01 0.11467786917E+01
 0.93461291432E+00 0.73098442524E+00 0.73100224274E+00 0.79674277401E+00 0.93461824817E+00
 0.11579295177E+01 0.14863445258E+01 0.19425525887E+01 0.25453640305E+01 0.33005796843E+01
 0.41921454080E+01 0.51755142943E+01 0.61744768584E+01 0.70841537513E+01 0.77847184237E+01
 0.81676683222E+01 0.81676196346E+01 0.77845993241E+01 0.70840199939E+01 0.61743676446E+01
 0.51754355473E+01 0.41920912680E+01 0.33005565155E+01 0.25453858747E+01 0.19426167192E+01
 0.14864195412E+01 0.11579735286E+01 0.93461291432E+00 0.79671024817E+00 0.73101340730E+00
 0.77815044715E+00 0.87569801688E+00 0.10306904805E+01 0.12539084075E+01 0.15581747800E+01
 0.19542749472E+01 0.24450390554E+01 0.30192128222E+01 0.36470001395E+01 0.42788162727E+01
 0.48487126987E+01 0.52839402741E+01 0.55204850932E+01 0.55204672446E+01 0.52839076785E+01
 0.48486983375E+01 0.42788234650E+01 0.36470123719E+01 0.30192317086E+01 0.24450848742E+01
 0.19543498158E+01 0.15582480238E+01 0.12539451750E+01 0.10306832317E+01 0.87566614557E+00
 0.77811973728E+00 0.73100128600E+00 0.77815044715E+00 0.83592456065E+00 0.93612551751E+00
 0.10850292322E+01 0.12911800815E+01 0.15633630755E+01 0.19068242704E+01 0.23184822246E+01
 0.27826036913E+01 0.32685192632E+01 0.37316218476E+01 0.41185745249E+01 0.43769924841E+01
 0.44679454985E+01 0.43769828659E+01 0.41185695867E+01 0.37316273399E+01 0.32685291557E+01
 0.27826218692E+01 0.23185254547E+01 0.19068938749E+01 0.15634300317E+01 0.12912111962E+01
 0.10850201487E+01 0.93609877371E+00 0.83590277212E+00 0.77814065949E+00 0.75925938965E+00
 0.87569801688E+00 0.93612551751E+00 0.10313166147E+01 0.11667411245E+01 0.13488035273E+01
 0.15827785685E+01 0.18696039947E+01 0.22022932541E+01 0.25632597640E+01 0.29238139117E+01
 0.32466584796E+01 0.34916599168E+01 0.36242495946E+01 0.36242480822E+01 0.34916563020E+01
 0.32466550633E+01 0.29238165808E+01 0.25632804022E+01 0.22023396295E+01 0.18696621998E+01
 0.15828161682E+01 0.13487998730E+01 0.11667090715E+01 0.10312868502E+01 0.93611527337E+00
 0.87570158082E+00 0.84637243399E+00 0.84636910661E+00 0.10306904805E+01 0.10850292322E+01
 0.11667411245E+01 0.12806699884E+01 0.14314538679E+01 0.16216527720E+01 0.18492446317E+01
 0.21052151778E+01 0.23723057279E+01 0.26257919548E+01 0.28366637252E+01 0.29769719860E+01
 0.30262543222E+01 0.29769705974E+01 0.28366608552E+01 0.26257943019E+01 0.23723260953E+01
 0.21052561281E+01 0.18492838565E+01 0.16216563168E+01 0.14314113488E+01 0.12806101021E+01
 0.11667041941E+01 0.10850291733E+01 0.10307100982E+01 0.99978952321E+00 0.98976067396E+00
 0.99977374792E+00 0.12539084075E+01 0.12911800815E+01 0.13488035273E+01 0.14314538679E+01
 0.15426276628E+01 0.16831083758E+01 0.18492434208E+01 0.20316472073E+01 0.22150591878E+01
 0.23798181433E+01 0.25050005043E+01 0.25727643998E+01 0.25727642964E+01 0.25050003834E+01
 0.23798208843E+01 0.22150705593E+01 0.20316667767E+01 0.18492558077E+01 0.16830923702E+01
 0.15425801237E+01 0.14314001408E+01 0.13487765967E+01 0.12911900492E+01 0.12539374437E+01
 0.12323212503E+01 0.12225664123E+01 0.12225576494E+01 0.12322967253E+01 0.15581747800E+01
 0.15633630755E+01 0.15827785685E+01 0.16216527720E+01 0.16831083758E+01 0.17671120113E+01
 0.18696034665E+01 0.19821637785E+01 0.20925613580E+01 0.21863624162E+01 0.22495815336E+01
 0.22719237894E+01 0.22495826067E+01 0.21863630161E+01 0.20925608961E+01 0.19821618252E+01
 0.18695968043E+01 0.17670969292E+01 0.16830878094E+01 0.16216376238E+01 0.15827790024E+01
 0.15633795614E+01 0.15581986098E+01 0.15609758270E+01 0.15656520848E+01 0.15677588359E+01
 0.15656405128E+01 0.15609549471E+01 0.19542749472E+01 0.19068242704E+01 0.18696039947E+01
 0.18492446317E+01 0.18492434208E+01 0.18696034665E+01 0.19068274354E+01 0.19542784306E+01
 0.20029771579E+01 0.20430087660E+01 0.20656267616E+01 0.20656305347E+01 0.20430150825E+01
 0.20029787584E+01 0.19542766196E+01 0.19068296014E+01 0.18696133538E+01 0.18492586241E+01
 0.18492603506E+01 0.18696154772E+01 0.19068291334E+01 0.19542766723E+01 0.20029820736E+01
 0.20430178762E+01 0.20656291768E+01 0.20656243456E+01 0.20430087454E+01 0.20029767984E+01
 0.24450390554E+01 0.23184822246E+01 0.22022932541E+01 0.21052151778E+01 0.20316472073E+01
 0.19821637785E+01 0.19542784306E+01 0.19431860689E+01 0.19425519914E+01 0.19457121321E+01
 0.19474405595E+01 0.19457301810E+01 0.19425743024E+01 0.19432083132E+01 0.19543114101E+01
 0.19822107566E+01 0.20316900211E+01 0.21052310265E+01 0.22022774624E+01 0.23184493524E+01
 0.24450090835E+01 0.25690196165E+01 0.26746772672E+01 0.27461381739E+01 0.27714459835E+01
 0.27461299886E+01 0.26746740090E+01 0.25690332467E+01 0.30192128222E+01 0.27826036913E+01
 0.25632597640E+01 0.23723057279E+01 0.22150591878E+01 0.20925613580E+01 0.20029771579E+01
 0.19425519914E+01 0.19064323332E+01 0.18898813511E+01 0.18898990660E+01 0.19064750282E+01
 0.19426055140E+01 0.20030416024E+01 0.20926330560E+01 0.22151079787E+01 0.23722955686E+01
 0.25631912764E+01 0.27825181717E+01 0.30191516714E+01 0.32552644236E+01 0.34671567387E+01
 0.36285282060E+01 0.37161188667E+01 0.37161191864E+01 0.36285293916E+01 0.34671635910E+01
 0.32552913745E+01 0.36470001395E+01 0.32685192632E+01 0.29238139117E+01 0.26257919548E+01
 0.23798181433E+01 0.21863624162E+01 0.20430087660E+01 0.19457121321E+01 0.18898813511E+01
 0.18717737240E+01 0.18899245882E+01 0.19457851340E+01 0.20430970129E+01 0.21864452027E+01
 0.23798551037E+01 0.26257436222E+01 0.29236884500E+01 0.32683792110E+01 0.36469077616E+01
 0.40364814170E+01 0.44041109165E+01 0.47097342243E+01 0.49133781807E+01 0.49850070963E+01
 0.49133970009E+01 0.47097535534E+01 0.44041249414E+01 0.40365173164E+01 0.42788162727E+01
 0.37316218476E+01 0.32466584796E+01 0.28366637252E+01 0.25050005043E+01 0.22495815336E+01
 0.20656267616E+01 0.19474405595E+01 0.18898990660E+01 0.18899245882E+01 0.19475123135E+01
 0.20657280729E+01 0.22496764262E+01 0.25050328558E+01 0.28365873583E+01 0.32464849864E+01
 0.37314273127E+01 0.42786823025E+01 0.48619447166E+01 0.54390603246E+01 0.59539600300E+01
 0.63445366446E+01 0.65560395846E+01 0.65560507472E+01 0.63445574719E+01 0.59539707392E+01
 0.54390689921E+01 0.48619963630E+01 0.48487126987E+01 0.41185745249E+01 0.34916599168E+01
 0.29769719860E+01 0.25727643998E+01 0.22719237894E+01 0.20656305347E+01 0.19457301810E+01
 0.19064750282E+01 0.19457851340E+01 0.20657280729E+01 0.22720257668E+01 0.25728048019E+01
 0.29768911218E+01 0.34914589058E+01 0.41183310497E+01 0.48485276266E+01 0.56558611919E+01
 0.64917703741E+01 0.72845295929E+01 0.79460824289E+01 0.83880021622E+01 0.85436145467E+01
 0.83879856108E+01 0.79460491512E+01 0.72844907222E+01 0.64917629447E+01 0.56559385974E+01
 0.52839402741E+01 0.43769924841E+01 0.36242495946E+01 0.30262543222E+01 0.25727642964E+01
 0.22495826067E+01 0.20430150825E+01 0.19425743024E+01 0.19426055140E+01 0.20430970129E+01
 0.22496764262E+01 0.25728048019E+01 0.30261771399E+01 0.36240416758E+01 0.43767204351E+01
 0.52837160743E+01 0.63248347790E+01 0.74513384229E+01 0.85806366593E+01 0.95992279603E+01
 0.10378339120E+02 0.10802447218E+02 0.10802423777E+02 0.10378270879E+02 0.95991271515E+01
 0.85805393308E+01 0.74513083855E+01 0.63249315438E+01 0.55204850932E+01 0.44679454985E+01
 0.36242480822E+01 0.29769705974E+01 0.25050003834E+01 0.21863630161E+01 0.20029787584E+01
 0.19432083132E+01 0.20030416024E+01 0.21864452027E+01 0.25050328558E+01 0.29768911218E+01
 0.36240416758E+01 0.44676702132E+01 0.55202535225E+01 0.67745358898E+01 0.81908304564E+01
 0.96858502789E+01 0.11128460633E+02 0.12349945197E+02 0.13174627649E+02 0.13466676063E+02
 0.13174621925E+02 0.12349895100E+02 0.11128343424E+02 0.96857105718E+01 0.81907671147E+01
 0.67746261128E+01 0.55204672446E+01 0.43769828659E+01 0.34916563020E+01 0.28366608552E+01
 0.23798208843E+01 0.20925608961E+01 0.19542766196E+01 0.19543114101E+01 0.20926330560E+01
 0.23798551037E+01 0.28365873583E+01 0.34914589058E+01 0.43767204351E+01 0.55202535225E+01
 0.69333928612E+01 0.85952403544E+01 0.10435690161E+02 0.12321854271E+02 0.14057204618E+02
 0.15405962657E+02 0.16147901727E+02 0.16147962349E+02 0.15406078604E+02 0.14057244811E+02
 0.12321753631E+02 0.10435516235E+02 0.85951351979E+01 0.69334544648E+01 0.52839076785E+01
 0.41185695867E+01 0.32466550633E+01 0.26257943019E+01 0.22150705593E+01 0.19821618252E+01
 0.19068296014E+01 0.19822107566E+01 0.22151079787E+01 0.26257436222E+01 0.32464849864E+01
 0.41183310497E+01 0.52837160743E+01 0.67745358898E+01 0.85952403544E+01 0.10701905523E+02
 0.12979997473E+02 0.15229074943E+02 0.17171413214E+02 0.18502062475E+02 0.18976975586E+02
 0.18502259540E+02 0.17171649170E+02 0.15229169047E+02 0.12979892613E+02 0.10701701698E+02
 0.85951037096E+01 0.67745719854E+01 0.48486983375E+01 0.37316273399E+01 0.29238165808E+01
 0.23723260953E+01 0.20316667767E+01 0.18695968043E+01 0.18696133538E+01 0.20316900211E+01
 0.23722955686E+01 0.29236884500E+01 0.37314273127E+01 0.48485276266E+01 0.63248347790E+01
 0.81908304564E+01 0.10435690161E+02 0.12979997473E+02 0.15647731145E+02 0.18153832174E+02
 0.20133217046E+02 0.21229797342E+02 0.21229910147E+02 0.20133478676E+02 0.18154067404E+02
 0.15647790941E+02 0.12979860961E+02 0.10435470614E+02 0.81906885757E+01 0.63248641358E+01
 0.42788234650E+01 0.32685291557E+01 0.25632804022E+01 0.21052561281E+01 0.18492558077E+01
 0.17670969292E+01 0.18492586241E+01 0.21052310265E+01 0.25631912764E+01 0.32683792110E+01
 0.42786823025E+01 0.56558611919E+01 0.74513384229E+01 0.96858502789E+01 0.12321854271E+02
 0.15229074943E+02 0.18153832174E+02 0.20717755674E+02 0.22482813458E+02 0.23112701614E+02
 0.22482959342E+02 0.20717960080E+02 0.18153967478E+02 0.15229050504E+02 0.12321679901E+02
 0.96856344095E+01 0.74512155855E+01 0.56558936065E+01 0.36470123719E+01 0.27826218692E+01
 0.22023396295E+01 0.18492838565E+01 0.16830923702E+01 0.16830878094E+01 0.18492603506E+01
 0.22022774624E+01 0.27825181717E+01 0.36469077616E+01 0.48619447166E+01 0.64917703741E+01
 0.85806366593E+01 0.11128460633E+02 0.14057204618E+02 0.17171413214E+02 0.20133217046E+02
 0.22482813458E+02 0.23785626706E+02 0.23785665542E+02 0.22482905359E+02 0.20133299621E+02
 0.17171415582E+02 0.14057092296E+02 0.11128266489E+02 0.85804500798E+01 0.64916812247E+01
 0.48619773162E+01 0.30192317086E+01 0.23185254547E+01 0.18696621998E+01 0.16216563168E+01
 0.15425801237E+01 0.16216376238E+01 0.18696154772E+01 0.23184493524E+01 0.30191516714E+01
 0.40364814170E+01 0.54390603246E+01 0.72845295929E+01 0.95992279603E+01 0.12349945197E+02
 0.15405962657E+02 0.18502062475E+02 0.21229797342E+02 0.23112701614E+02 0.23785665542E+02
 0.23112693382E+02 0.21229767783E+02 0.18501995810E+02 0.15405849481E+02 0.12349792480E+02
 0.95990637651E+01 0.72844023250E+01 0.54390127296E+01 0.40365167875E+01 0.24450848742E+01
 0.19068938749E+01 0.15828161682E+01 0.14314113488E+01 0.14314001408E+01 0.15827790024E+01
 0.19068291334E+01 0.24450090835E+01 0.32552644236E+01 0.44041109165E+01 0.59539600300E+01
 0.79460824289E+01 0.10378339120E+02 0.13174627649E+02 0.16147901727E+02 0.18976975586E+02
 0.21229910147E+02 0.22482959342E+02 0.22482905359E+02 0.21229767783E+02 0.18976794130E+02
 0.16147730889E+02 0.13174490767E+02 0.10378229399E+02 0.79459908888E+01 0.59539013117E+01
 0.44041075470E+01 0.32553158417E+01 0.19543498158E+01 0.15634300317E+01 0.13487998730E+01
 0.12806101021E+01 0.13487765967E+01 0.15633795614E+01 0.19542766723E+01 0.25690196165E+01
 0.34671567387E+01 0.47097342243E+01 0.63445366446E+01 0.83880021622E+01 0.10802447218E+02
 0.13466676063E+02 0.16147962349E+02 0.18502259540E+02 0.20133478676E+02 0.20717960080E+02
 0.20133299621E+02 0.18501995810E+02 0.16147730889E+02 0.13466537054E+02 0.10802382395E+02
 0.83879621456E+01 0.63445038065E+01 0.47097286850E+01 0.34671965245E+01 0.25690921474E+01
 0.15582480238E+01 0.12912111962E+01 0.11667090715E+01 0.11667041941E+01 0.12911900492E+01
 0.15581986098E+01 0.20029820736E+01 0.26746772672E+01 0.36285282060E+01 0.49133781807E+01
 0.65560395846E+01 0.85436145467E+01 0.10802423777E+02 0.13174621925E+02 0.15406078604E+02
 0.17171649170E+02 0.18154067404E+02 0.18153967478E+02 0.17171415582E+02 0.15405849481E+02
 0.13174490767E+02 0.10802382395E+02 0.85436003750E+01 0.65560207831E+01 0.49133756454E+01
 0.36285693917E+01 0.26747540313E+01 0.20030585764E+01 0.12539451750E+01 0.10850201487E+01
 0.10312868502E+01 0.10850291733E+01 0.12539374437E+01 0.15609758270E+01 0.20430178762E+01
 0.27461381739E+01 0.37161188667E+01 0.49850070963E+01 0.65560507472E+01 0.83879856108E+01
 0.10378270879E+02 0.12349895100E+02 0.14057244811E+02 0.15229169047E+02 0.15647790941E+02
 0.15229050504E+02 0.14057092296E+02 0.12349792480E+02 0.10378229399E+02 0.83879621456E+01
 0.65560207831E+01 0.49849963468E+01 0.37161626736E+01 0.27462303451E+01 0.20431110902E+01
 0.15610278341E+01 0.10306832317E+01 0.93609877371E+00 0.93611527337E+00 0.10307100982E+01
 0.12323212503E+01 0.15656520848E+01 0.20656291768E+01 0.27714459835E+01 0.37161191864E+01
 0.49133970009E+01 0.63445574719E+01 0.79460491512E+01 0.95991271515E+01 0.11128343424E+02
 0.12321753631E+02 0.12979892613E+02 0.12979860961E+02 0.12321679901E+02 0.11128266489E+02
 0.95990637651E+01 0.79459908888E+01 0.63445038065E+01 0.49133756454E+01 0.37161626736E+01
 0.27715513783E+01 0.20657483688E+01 0.15657274599E+01 0.12323315510E+01 0.87566614557E+00
 0.83590277212E+00 0.87570158082E+00 0.99978952321E+00 0.12225664123E+01 0.15677588359E+01
 0.20656243456E+01 0.27461299886E+01 0.36285293916E+01 0.47097535534E+01 0.59539707392E+01
 0.72844907222E+01 0.85805393308E+01 0.96857105718E+01 0.10435516235E+02 0.10701701698E+02
 0.10435470614E+02 0.96856344095E+01 0.85804500798E+01 0.72844023250E+01 0.59539013117E+01
 0.47097286850E+01 0.36285693917E+01 0.27462303451E+01 0.20657483688E+01 0.15678538916E+01
 0.12225966850E+01 0.99976330995E+00 0.77811973728E+00 0.77814065949E+00 0.84637243399E+00
 0.98976067396E+00 0.12225576494E+01 0.15656405128E+01 0.20430087454E+01 0.26746740090E+01
 0.34671635910E+01 0.44041249414E+01 0.54390689921E+01 0.64917629447E+01 0.74513083855E+01
 0.81907671147E+01 0.85951351979E+01 0.85951037096E+01 0.81906885757E+01 0.74512155855E+01
 0.64916812247E+01 0.54390127296E+01 0.44041075470E+01 0.34671965245E+01 0.26747540313E+01
 0.20431110902E+01 0.15657274599E+01 0.12225966850E+01 0.98974533331E+00 0.84633172401E+00
 0.73100128600E+00 0.75925938965E+00 0.84636910661E+00 0.99977374792E+00 0.12322967253E+01
 0.15609549471E+01 0.20029767984E+01 0.25690332467E+01 0.32552913745E+01 0.40365173164E+01
 0.48619963630E+01 0.56559385974E+01 0.63249315438E+01 0.67746261128E+01 0.69334544648E+01
 0.67745719854E+01 0.63248641358E+01 0.56558936065E+01 0.48619773162E+01 0.40365167875E+01
 0.32553158417E+01 0.25690921474E+01 0.20030585764E+01 0.15610278341E+01 0.12323315510E+01
 0.99976330995E+00 0.84633172401E+00 0.75922777870E+00 0.81617753967E+00 0.87569992373E+00
 0.97913356987E+00 0.11330602598E+01 0.13462385804E+01 0.16275362185E+01 0.19821622020E+01
 0.24068593710E+01 0.28854777707E+01 0.33865419466E+01 0.38641660150E+01 0.42633564704E+01
 0.45300095760E+01 0.46238748667E+01 0.45300027254E+01 0.42633561459E+01 0.38641809083E+01
 0.33865711894E+01 0.28855228852E+01 0.24069234373E+01 0.19822317222E+01 0.16275801688E+01
 0.13462364774E+01 0.11330240624E+01 0.97909403456E+00 0.87567708179E+00 0.81617037270E+00
 0.79674323707E+00 0.87569992373E+00 0.93612762224E+00 0.10313176630E+01 0.11667409740E+01
 0.13488031616E+01 0.15827780363E+01 0.18696024062E+01 0.22022908310E+01 0.25632578280E+01
 0.29238128308E+01 0.32466576401E+01 0.34916596192E+01 0.36242508117E+01 0.36242503372E+01
 0.34916579313E+01 0.32466556557E+01 0.29238171277E+01 0.25632810683E+01 0.22023394796E+01
 0.18696611367E+01 0.15828150596E+01 0.13487987599E+01 0.11667073328E+01 0.10312851169E+01
 0.93611505473E+00 0.87570293653E+00 0.84637403114E+00 0.84637052641E+00 0.97913356987E+00
 0.10313176630E+01 0.11096644930E+01 0.12189517904E+01 0.13638978638E+01 0.15472278447E+01