 running on    8 total cores
 distrk:  each k-point on    8 cores,    1 groups
 distr:  one band on    1 cores,    8 groups
 using from now: INCAR     
 vasp.5.4.4.18Apr17-6-g9f103f2a35 (build Dec 09 2018 21:25:21) complex          
  
 POSCAR found type information on POSCAR  Si
 POSCAR found :  1 types and       2 ions
 scaLAPACK will be used

 ----------------------------------------------------------------------------- 
|                                                                             |
|           W    W    AA    RRRRR   N    N  II  N    N   GGGG   !!!           |
|           W    W   A  A   R    R  NN   N  II  NN   N  G    G  !!!           |
|           W    W  A    A  R    R  N N  N  II  N N  N  G       !!!           |
|           W WW W  AAAAAA  RRRRR   N  N N  II  N  N N  G  GGG   !            |
|           WW  WW  A    A  R   R   N   NN  II  N   NN  G    G                |
|           W    W  A    A  R    R  N    N  II  N    N   GGGG   !!!           |
|                                                                             |
|      For optimal performance we recommend to set                            |
|        NCORE= 4 - approx SQRT( number of cores)                             |
|      NCORE specifies how many cores store one orbital (NPAR=cpu/NCORE).     |
|      This setting can  greatly improve the performance of VASP for DFT.     |
|      The default,   NCORE=1            might be grossly inefficient         |
|      on modern multi-core architectures or massively parallel machines.     |
|      Do your own testing !!!!                                               |
|      Unfortunately you need to use the default for GW and RPA calculations. |
|      (for HF NCORE is supported but not extensively tested yet)             |
|                                                                             |
 ----------------------------------------------------------------------------- 

 LDA part: xc-table for Pade appr. of Perdew
 POSCAR, INCAR and KPOINTS ok, starting setup
 FFT: planning ...
 WAVECAR not read
 entering main loop
       N       E                     dE             d eps       ncg     rms          rms(c)
DAV:   1    -0.571398309248E+00   -0.57140E+00   -0.21135E+03    64   0.369E+02
DAV:   2    -0.103315968298E+02   -0.97602E+01   -0.96366E+01   112   0.566E+01
DAV:   3    -0.104132906620E+02   -0.81694E-01   -0.81693E-01    88   0.635E+00
DAV:   4    -0.104133823555E+02   -0.91693E-04   -0.91694E-04    96   0.186E-01
DAV:   5    -0.104133823894E+02   -0.33973E-07   -0.33572E-07    80   0.361E-03    0.334E+00
DAV:   6    -0.102469363698E+02    0.16645E+00   -0.10365E-01    80   0.169E+00    0.198E+00
DAV:   7    -0.101731728311E+02    0.73764E-01   -0.19702E-01    80   0.251E+00    0.180E-01
DAV:   8    -0.101759011052E+02   -0.27283E-02   -0.56699E-03    80   0.522E-01    0.294E-02
DAV:   9    -0.101760726603E+02   -0.17156E-03   -0.17332E-04    40   0.101E-01
   1 F= -.10176073E+02 E0= -.10175212E+02  d E =-.101761E+02
 curvature:   0.00 expect dE= 0.000E+00 dE for cont linesearch  0.000E+00
 trial: gam= 0.00000 g(F)=  0.100E-43 g(S)=  0.000E+00 ort = 0.000E+00 (trialstep = 0.100E+01)
 search vector abs. value=  0.100E-09
 reached required accuracy - stopping structural energy minimisation
 writing wavefunctions
