<?xml version="1.0" encoding="ISO-8859-1"?>
<modeling>
 <generator>
  <i name="program" type="string">vasp </i>
  <i name="version" type="string">5.4.4.18Apr17-6-g9f103f2a35  </i>
  <i name="subversion" type="string">(build Dec 09 2018 21:25:21) complex            parallel </i>
  <i name="platform" type="string">IFC18.0.1.163_CrayMPICH7.7.0_MKL18.0.1.163 </i>
  <i name="date" type="string">2019 03 18 </i>
  <i name="time" type="string">04:54:00 </i>
 </generator>
 <incar>
  <i type="string" name="PREC">normal</i>
  <i type="int" name="IBRION">     2</i>
  <i name="EDIFF">      0.00040000</i>
  <i name="EDIFFG">     -0.01000000</i>
  <i type="int" name="NSW">    15</i>
  <i type="int" name="ISIF">     2</i>
  <i name="ENCUT">    200.00000000</i>
  <i type="int" name="NBANDS">     8</i>
  <i type="logical" name="LREAL"> F  </i>
  <i type="int" name="ISMEAR">     0</i>
  <i name="SIGMA">      0.20000000</i>
  <v type="int" name="KPOINT_BSE">    -1     0     0     0</v>
 </incar>
 <structure name="primitive_cell" >
  <crystal>
   <varray name="basis" >
    <v>       0.00000000       2.71500000       2.71500000 </v>
    <v>       2.71500000       0.00000000       2.71500000 </v>
    <v>       2.71500000       2.71500000       0.00000000 </v>
   </varray>
   <i name="volume">     40.02575175 </i>
   <varray name="rec_basis" >
    <v>      -0.18416206       0.18416206       0.18416206 </v>
    <v>       0.18416206      -0.18416206       0.18416206 </v>
    <v>       0.18416206       0.18416206      -0.18416206 </v>
   </varray>
  </crystal>
  <varray name="positions" >
   <v>      -0.50000000      -0.50000000      -0.50000000 </v>
   <v>      -0.25000000      -0.25000000      -0.25000000 </v>
  </varray>
 </structure>
 <varray name="primitive_index" >
  <v type="int" >        1 </v>
  <v type="int" >        2 </v>
 </varray>
 <kpoints>
  <generation param="Monkhorst-Pack">
   <v type="int" name="divisions">       3        3        3 </v>
   <v name="usershift">      0.00000000       0.00000000       0.00000000 </v>
   <v name="genvec1">      0.33333333      -0.00000000       0.00000000 </v>
   <v name="genvec2">     -0.00000000       0.33333333      -0.00000000 </v>
   <v name="genvec3">      0.00000000       0.00000000       0.33333333 </v>
   <v name="shift">      0.00000000       0.00000000       0.00000000 </v>
  </generation>
  <varray name="kpointlist" >
   <v>       0.00000000       0.00000000       0.00000000 </v>
   <v>       0.33333333       0.00000000       0.00000000 </v>
   <v>       0.33333333       0.33333333       0.00000000 </v>
   <v>      -0.33333333       0.33333333       0.00000000 </v>
  </varray>
  <varray name="weights" >
   <v>       0.03703704 </v>
   <v>       0.29629630 </v>
   <v>       0.22222222 </v>
   <v>       0.44444444 </v>
  </varray>
 </kpoints>
 <parameters>
  <separator name="general" >
   <i type="string" name="SYSTEM">unknown system</i>
   <i type="logical" name="LCOMPAT"> F  </i>
  </separator>
  <separator name="electronic" >
   <i type="string" name="PREC">normal</i>
   <i name="ENMAX">    200.00000000</i>
   <i name="ENAUG">    322.06900000</i>
   <i name="EDIFF">      0.00040000</i>
   <i type="int" name="IALGO">    38</i>
   <i type="int" name="IWAVPR">    11</i>
   <i type="int" name="NBANDS">     8</i>
   <i name="NELECT">      8.00000000</i>
   <i type="int" name="TURBO">     0</i>
   <i type="int" name="IRESTART">     0</i>
   <i type="int" name="NREBOOT">     0</i>
   <i type="int" name="NMIN">     0</i>
   <i name="EREF">      0.00000000</i>
   <separator name="electronic smearing" >
    <i type="int" name="ISMEAR">     0</i>
    <i name="SIGMA">      0.20000000</i>
    <i name="KSPACING">      0.50000000</i>
    <i type="logical" name="KGAMMA"> T  </i>
   </separator>
   <separator name="electronic projectors" >
    <i type="logical" name="LREAL"> F  </i>
    <v name="ROPT">      0.00000000</v>
    <i type="int" name="LMAXPAW">  -100</i>
    <i type="int" name="LMAXMIX">     2</i>
    <i type="logical" name="NLSPLINE"> F  </i>
   </separator>
   <separator name="electronic startup" >
    <i type="int" name="ISTART">     0</i>
    <i type="int" name="ICHARG">     2</i>
    <i type="int" name="INIWAV">     1</i>
   </separator>
   <separator name="electronic spin" >
    <i type="int" name="ISPIN">     1</i>
    <i type="logical" name="LNONCOLLINEAR"> F  </i>
    <v name="MAGMOM">      1.00000000      1.00000000</v>
    <i name="NUPDOWN">     -1.00000000</i>
    <i type="logical" name="LSORBIT"> F  </i>
    <v name="SAXIS">      0.00000000      0.00000000      1.00000000</v>
    <i type="logical" name="LSPIRAL"> F  </i>
    <v name="QSPIRAL">      0.00000000      0.00000000      0.00000000</v>
    <i type="logical" name="LZEROZ"> F  </i>
   </separator>
   <separator name="electronic exchange-correlation" >
    <i type="logical" name="LASPH"> F  </i>
    <i type="logical" name="LMETAGGA"> F  </i>
   </separator>
   <separator name="electronic convergence" >
    <i type="int" name="NELM">    60</i>
    <i type="int" name="NELMDL">    -5</i>
    <i type="int" name="NELMIN">     2</i>
    <i name="ENINI">    200.00000000</i>
    <separator name="electronic convergence detail" >
     <i type="logical" name="LDIAG"> T  </i>
     <i type="logical" name="LSUBROT"> F  </i>
     <i name="WEIMIN">      0.00100000</i>
     <i name="EBREAK">      0.00001250</i>
     <i name="DEPER">      0.30000000</i>
     <i type="int" name="NRMM">     4</i>
     <i name="TIME">      0.40000000</i>
    </separator>
   </separator>
   <separator name="electronic mixer" >
    <i name="AMIX">      0.40000000</i>
    <i name="BMIX">      1.00000000</i>
    <i name="AMIN">      0.10000000</i>
    <i name="AMIX_MAG">      1.60000000</i>
    <i name="BMIX_MAG">      1.00000000</i>
    <separator name="electronic mixer details" >
     <i type="int" name="IMIX">     4</i>
     <i type="logical" name="MIXFIRST"> F  </i>
     <i type="int" name="MAXMIX">   -45</i>
     <i name="WC">    100.00000000</i>
     <i type="int" name="INIMIX">     1</i>
     <i type="int" name="MIXPRE">     1</i>
     <i type="int" name="MREMOVE">     5</i>
    </separator>
   </separator>
   <separator name="electronic dipolcorrection" >
    <i type="logical" name="LDIPOL"> F  </i>
    <i type="logical" name="LMONO"> F  </i>
    <i type="int" name="IDIPOL">     0</i>
    <i name="EPSILON">      1.00000000</i>
    <v name="DIPOL">   -100.00000000   -100.00000000   -100.00000000</v>
    <i name="EFIELD">      0.00000000</i>
   </separator>
  </separator>
  <separator name="grids" >
   <i type="int" name="NGX">    14</i>
   <i type="int" name="NGY">    14</i>
   <i type="int" name="NGZ">    14</i>
   <i type="int" name="NGXF">    28</i>
   <i type="int" name="NGYF">    28</i>
   <i type="int" name="NGZF">    28</i>
   <i type="logical" name="ADDGRID"> F  </i>
  </separator>
  <separator name="ionic" >
   <i type="int" name="NSW">    15</i>
   <i type="int" name="IBRION">     2</i>
   <i type="int" name="MDALGO">     0</i>
   <i type="int" name="ISIF">     2</i>
   <i name="PSTRESS">      0.00000000</i>
   <i name="EDIFFG">     -0.01000000</i>
   <i type="int" name="NFREE">     1</i>
   <i name="POTIM">      0.50000000</i>
   <i name="SMASS">     -3.00000000</i>
   <i name="SCALEE">      1.00000000</i>
  </separator>
  <separator name="ionic md" >
   <i name="TEBEG">      0.00010000</i>
   <i name="TEEND">      0.00010000</i>
   <i type="int" name="NBLOCK">     1</i>
   <i type="int" name="KBLOCK">    15</i>
   <i type="int" name="NPACO">   256</i>
   <i name="APACO">     16.00000000</i>
  </separator>
  <separator name="symmetry" >
   <i type="int" name="ISYM">     2</i>
   <i name="SYMPREC">      0.00001000</i>
  </separator>
  <separator name="dos" >
   <i type="int" name="LORBIT">     0</i>
   <v name="RWIGS">     -1.00000000</v>
   <i type="int" name="NEDOS">   301</i>
   <i name="EMIN">     10.00000000</i>
   <i name="EMAX">    -10.00000000</i>
   <i name="EFERMI">      0.00000000</i>
  </separator>
  <separator name="writing" >
   <i type="int" name="NWRITE">     2</i>
   <i type="logical" name="LWAVE"> T  </i>
   <i type="logical" name="LDOWNSAMPLE"> F  </i>
   <i type="logical" name="LCHARG"> T  </i>
   <i type="logical" name="LPARD"> F  </i>
   <i type="logical" name="LVTOT"> F  </i>
   <i type="logical" name="LVHAR"> F  </i>
   <i type="logical" name="LELF"> F  </i>
   <i type="logical" name="LOPTICS"> F  </i>
   <v name="STM">      0.00000000      0.00000000      0.00000000      0.00000000      0.00000000      0.00000000      0.00000000</v>
  </separator>
  <separator name="performance" >
   <i type="int" name="NPAR">     8</i>
   <i type="int" name="NSIM">     4</i>
   <i type="int" name="NBLK">    -1</i>
   <i type="logical" name="LPLANE"> T  </i>
   <i type="logical" name="LSCALAPACK"> T  </i>
   <i type="logical" name="LSCAAWARE"> F  </i>
   <i type="logical" name="LSCALU"> F  </i>
   <i type="logical" name="LASYNC"> F  </i>
   <i type="logical" name="LORBITALREAL"> F  </i>
  </separator>
  <separator name="miscellaneous" >
   <i type="int" name="IDIOT">     3</i>
   <i type="int" name="ISPECIAL">     0</i>
   <i type="logical" name="LMUSIC"> F  </i>
   <v name="POMASS">     28.08500000</v>
   <v name="DARWINR">      0.00000000</v>
   <v name="DARWINV">      1.00000000</v>
   <i type="logical" name="LCORR"> T  </i>
  </separator>
  <i type="logical" name="GGA_COMPAT"> T  </i>
  <i type="logical" name="LBERRY"> F  </i>
  <i type="int" name="ICORELEVEL">     0</i>
  <i type="logical" name="LDAU"> F  </i>
  <i type="int" name="I_CONSTRAINED_M">     0</i>
  <separator name="electronic exchange-correlation" >
   <i type="string" name="GGA">--</i>
   <i type="int" name="VOSKOWN">     0</i>
   <i type="logical" name="LHFCALC"> F  </i>
   <i type="string" name="PRECFOCK"></i>
   <i type="logical" name="LSYMGRAD"> F  </i>
   <i type="logical" name="LHFONE"> F  </i>
   <i type="logical" name="LRHFCALC"> F  </i>
   <i type="logical" name="LTHOMAS"> F  </i>
   <i type="logical" name="LMODELHF"> F  </i>
   <i name="ENCUT4O">     -1.00000000</i>
   <i type="int" name="EXXOEP">     0</i>
   <i type="int" name="FOURORBIT">     0</i>
   <i name="AEXX">      0.00000000</i>
   <i name="HFALPHA">      0.00000000</i>
   <i name="MCALPHA">      0.00000000</i>
   <i name="ALDAX">      1.00000000</i>
   <i name="AGGAX">      1.00000000</i>
   <i name="ALDAC">      1.00000000</i>
   <i name="AGGAC">      1.00000000</i>
   <i type="int" name="NKREDX">     1</i>
   <i type="int" name="NKREDY">     1</i>
   <i type="int" name="NKREDZ">     1</i>
   <i type="logical" name="SHIFTRED"> F  </i>
   <i type="logical" name="ODDONLY"> F  </i>
   <i type="logical" name="EVENONLY"> F  </i>
   <i type="int" name="LMAXFOCK">     0</i>
   <i type="int" name="NMAXFOCKAE">     0</i>
   <i type="logical" name="LFOCKAEDFT"> F  </i>
   <i name="HFSCREEN">      0.00000000</i>
   <i name="HFSCREENC">      0.00000000</i>
   <i type="int" name="NBANDSGWLOW">     0</i>
  </separator>
  <separator name="vdW DFT" >
   <i type="logical" name="LUSE_VDW"> F  </i>
   <i name="Zab_VDW">     -0.84910000</i>
   <i name="PARAM1">      0.12340000</i>
   <i name="PARAM2">      1.00000000</i>
   <i name="PARAM3">      0.00000000</i>
  </separator>
  <separator name="model GW" >
   <i type="int" name="MODEL_GW">     0</i>
   <i name="MODEL_EPS0">     12.00772552</i>
   <i name="MODEL_ALPHA">      1.00000000</i>
  </separator>
  <separator name="linear response parameters" >
   <i type="logical" name="LEPSILON"> F  </i>
   <i type="logical" name="LRPA"> F  </i>
   <i type="logical" name="LNABLA"> F  </i>
   <i type="logical" name="LVEL"> F  </i>
   <i type="int" name="KINTER">     0</i>
   <i name="CSHIFT">      0.10000000</i>
   <i name="OMEGAMAX">     -1.00000000</i>
   <i name="DEG_THRESHOLD">      0.00200000</i>
   <i name="RTIME">     -0.10000000</i>
   <i name="WPLASMAI">      0.00000000</i>
   <v name="DFIELD">      0.00000000      0.00000000      0.00000000</v>
   <v name="WPLASMA">      0.00000000      0.00000000      0.00000000      0.00000000      0.00000000      0.00000000      0.00000000      0.00000000      0.00000000</v>
  </separator>
  <separator name="orbital magnetization" >
   <i type="logical" name="NUCIND"> F  </i>
   <v name="MAGPOS">      0.00000000      0.00000000      0.00000000</v>
   <i type="logical" name="LNICSALL"> T  </i>
   <i type="logical" name="ORBITALMAG"> F  </i>
   <i type="logical" name="LMAGBLOCH"> F  </i>
   <i type="logical" name="LCHIMAG"> F  </i>
   <i type="logical" name="LGAUGE"> T  </i>
   <i type="int" name="MAGATOM">     0</i>
   <v name="MAGDIPOL">      0.00000000      0.00000000      0.00000000</v>
   <v name="AVECCONST">      0.00000000      0.00000000      0.00000000</v>
  </separator>
  <separator name="response functions" >
   <i type="logical" name="LADDER"> F  </i>
   <i type="logical" name="LRPAFORCE"> F  </i>
   <i type="logical" name="LFXC"> F  </i>
   <i type="logical" name="LHARTREE"> T  </i>
   <i type="int" name="IBSE">     0</i>
   <v type="int" name="KPOINT">    -1     0     0     0</v>
   <i type="logical" name="LTCTE"> F  </i>
   <i type="logical" name="LTETE"> F  </i>
   <i type="logical" name="LTRIPLET"> F  </i>
   <i type="logical" name="LFXCEPS"> F  </i>
   <i type="logical" name="LFXHEG"> F  </i>
   <i type="int" name="NATURALO">     2</i>
   <i type="logical" name="L2ORDER"> F  </i>
   <i type="logical" name="LMP2LT"> F  </i>
   <i type="logical" name="LUSEW"> F  </i>
   <i name="ENCUTGW">     -2.00000000</i>
   <i name="ENCUTGWSOFT">     -2.00000000</i>
   <i name="ENCUTLF">     -1.00000000</i>
   <i type="int" name="LMAXMP2">    -1</i>
   <i name="SCISSOR">      0.00000000</i>
   <i type="int" name="NOMEGA">     0</i>
   <i type="int" name="NOMEGAR">     0</i>
   <i type="int" name="NBANDSGW">    -1</i>
   <i type="int" name="NBANDSO">    -1</i>
   <i type="int" name="NBANDSV">    -1</i>
   <i type="int" name="NELM">     1</i>
   <i type="int" name="NELMHF">     1</i>
   <i type="int" name="DIM">     3</i>
   <i type="int" name="ANTIRES">     0</i>
   <i name="OMEGAMAX">    -30.00000000</i>
   <i name="OMEGAMIN">    -30.00000000</i>
   <i name="OMEGATL">   -200.00000000</i>
   <i type="int" name="OMEGAGRID">   140</i>
   <i name="CSHIFT">     -0.10000000</i>
   <i type="logical" name="SELFENERGY"> F  </i>
   <i type="logical" name="LSPECTRAL"> F  </i>
   <i type="logical" name="LSPECTRALGW"> F  </i>
   <i type="logical" name="LSINGLES"> F  </i>
   <i type="logical" name="LFERMIGW"> F  </i>
   <i type="logical" name="ODDONLYGW"> F  </i>
   <i type="logical" name="EVENONLYGW"> F  </i>
   <i type="int" name="NKREDLFX">     1</i>
   <i type="int" name="NKREDLFY">     1</i>
   <i type="int" name="NKREDLFZ">     1</i>
   <i type="int" name="MAXMEM">  2800</i>
   <i type="int" name="TELESCOPE">     0</i>
   <i type="int" name="TAUPAR">     1</i>
   <i type="int" name="OMEGAPAR">    -1</i>
   <i name="LAMBDA">      1.00000000</i>
  </separator>
  <separator name="External order field" >
   <i name="OFIELD_KAPPA">      0.00000000</i>
   <v name="OFIELD_K">      0.00000000      0.00000000      0.00000000</v>
   <i name="OFIELD_Q6_NEAR">      0.00000000</i>
   <i name="OFIELD_Q6_FAR">      0.00000000</i>
   <i name="OFIELD_A">      0.00000000</i>
  </separator>
 </parameters>
 <atominfo>
  <atoms>       2 </atoms>
  <types>       1 </types>
  <array name="atoms" >
   <dimension dim="1">ion</dimension>
   <field type="string">element</field>
   <field type="int">atomtype</field>
   <set>
    <rc><c>Si</c><c>   1</c></rc>
    <rc><c>Si</c><c>   1</c></rc>
   </set>
  </array>
  <array name="atomtypes" >
   <dimension dim="1">type</dimension>
   <field type="int">atomspertype</field>
   <field type="string">element</field>
   <field>mass</field>
   <field>valence</field>
   <field type="string">pseudopotential</field>
   <set>
    <rc><c>   2</c><c>Si</c><c>     28.08500000</c><c>      4.00000000</c><c> PAW_PBE Si 05Jan2001                   </c></rc>
   </set>
  </array>
 </atominfo>
 <structure name="initialpos" >
  <crystal>
   <varray name="basis" >
    <v>       0.00000000       2.71500000       2.71500000 </v>
    <v>       2.71500000       0.00000000       2.71500000 </v>
    <v>       2.71500000       2.71500000       0.00000000 </v>
   </varray>
   <i name="volume">     40.02575175 </i>
   <varray name="rec_basis" >
    <v>      -0.18416206       0.18416206       0.18416206 </v>
    <v>       0.18416206      -0.18416206       0.18416206 </v>
    <v>       0.18416206       0.18416206      -0.18416206 </v>
   </varray>
  </crystal>
  <varray name="positions" >
   <v>       0.50000000       0.50000000       0.50000000 </v>
   <v>       0.75000000       0.75000000       0.75000000 </v>
  </varray>
 </structure>
 <calculation>
  <scstep>
   <time name="dav">    0.04    0.04</time>
   <time name="total">    0.07    0.09</time>
   <energy>
    <i name="alphaZ">      3.36414203 </i>
    <i name="ewald">   -228.56352493 </i>
    <i name="hartreedc">    -11.00108243 </i>
    <i name="XCdc">    -18.60172597 </i>
    <i name="pawpsdc">     65.95520812 </i>
    <i name="pawaedc">    -30.76852678 </i>
    <i name="eentropy">     -0.02308096 </i>
    <i name="bandstr">     12.95471999 </i>
    <i name="atom">    206.11247263 </i>
    <i name="e_fr_energy">     -0.57139831 </i>
    <i name="e_wo_entrp">     -0.54831734 </i>
    <i name="e_0_energy">     -0.55985783 </i>
   </energy>
  </scstep>
  <scstep>
   <time name="dav">    0.07    0.08</time>
   <time name="total">    0.07    0.08</time>
   <energy>
    <i name="e_fr_energy">    -10.33159683 </i>
    <i name="e_wo_entrp">    -10.33152916 </i>
    <i name="e_0_energy">    -10.33156299 </i>
   </energy>
  </scstep>
  <scstep>
   <time name="dav">    0.05    0.06</time>
   <time name="total">    0.05    0.06</time>
   <energy>
    <i name="e_fr_energy">    -10.41329066 </i>
    <i name="e_wo_entrp">    -10.41324149 </i>
    <i name="e_0_energy">    -10.41326608 </i>
   </energy>
  </scstep>
  <scstep>
   <time name="dav">    0.06    0.06</time>
   <time name="total">    0.06    0.06</time>
   <energy>
    <i name="e_fr_energy">    -10.41338236 </i>
    <i name="e_wo_entrp">    -10.41333323 </i>
    <i name="e_0_energy">    -10.41335779 </i>
   </energy>
  </scstep>
  <scstep>
   <time name="dav">    0.05    0.06</time>
   <time name="total">    0.06    0.07</time>
   <energy>
    <i name="e_fr_energy">    -10.41338239 </i>
    <i name="e_wo_entrp">    -10.41333327 </i>
    <i name="e_0_energy">    -10.41335783 </i>
   </energy>
  </scstep>
  <scstep>
   <time name="dav">    0.04    0.04</time>
   <time name="total">    0.08    0.08</time>
   <energy>
    <i name="e_fr_energy">    -10.24693637 </i>
    <i name="e_wo_entrp">    -10.24661231 </i>
    <i name="e_0_energy">    -10.24677434 </i>
   </energy>
  </scstep>
  <scstep>
   <time name="dav">    0.04    0.04</time>
   <time name="total">    0.08    0.08</time>
   <energy>
    <i name="e_fr_energy">    -10.17317283 </i>
    <i name="e_wo_entrp">    -10.17093602 </i>
    <i name="e_0_energy">    -10.17205442 </i>
   </energy>
  </scstep>
  <scstep>
   <time name="dav">    0.04    0.04</time>
   <time name="total">    0.08    0.08</time>
   <energy>
    <i name="e_fr_energy">    -10.17590111 </i>
    <i name="e_wo_entrp">    -10.17416998 </i>
    <i name="e_0_energy">    -10.17503554 </i>
   </energy>
  </scstep>
  <scstep>
   <time name="dav">    0.02    0.02</time>
   <time name="total">    0.05    0.05</time>
   <energy>
    <i name="alphaZ">      3.36414203 </i>
    <i name="ewald">   -228.56352493 </i>
    <i name="hartreedc">    -15.68964689 </i>
    <i name="XCdc">    -17.84149515 </i>
    <i name="pawpsdc">     76.50531998 </i>
    <i name="pawaedc">    -41.57744111 </i>
    <i name="eentropy">     -0.00172120 </i>
    <i name="bandstr">      7.51582198 </i>
    <i name="atom">    206.11247263 </i>
    <i name="e_fr_energy">    -10.17607266 </i>
    <i name="e_wo_entrp">    -10.17435146 </i>
    <i name="e_0_energy">    -10.17521206 </i>
   </energy>
  </scstep>
  <structure>
   <crystal>
    <varray name="basis" >
     <v>       0.00000000       2.71500000       2.71500000 </v>
     <v>       2.71500000       0.00000000       2.71500000 </v>
     <v>       2.71500000       2.71500000       0.00000000 </v>
    </varray>
    <i name="volume">     40.02575175 </i>
    <varray name="rec_basis" >
     <v>      -0.18416206       0.18416206       0.18416206 </v>
     <v>       0.18416206      -0.18416206       0.18416206 </v>
     <v>       0.18416206       0.18416206      -0.18416206 </v>
    </varray>
   </crystal>
   <varray name="positions" >
    <v>       0.50000000       0.50000000       0.50000000 </v>
    <v>       0.75000000       0.75000000       0.75000000 </v>
   </varray>
  </structure>
  <varray name="forces" >
   <v>       0.00000000       0.00000000      -0.00000000 </v>
   <v>      -0.00000000      -0.00000000       0.00000000 </v>
  </varray>
  <varray name="stress" >
   <v>      38.51552115      -0.00000000      -0.00000000 </v>
   <v>       0.00000000      38.51552115       0.00000000 </v>
   <v>      -0.00000000       0.00000000      38.51552115 </v>
  </varray>
  <energy>
   <i name="e_fr_energy">    -10.17607266 </i>
   <i name="e_wo_entrp">    -10.17521206 </i>
   <i name="e_0_energy">     -0.00172120 </i>
  </energy>
  <time name="totalsc">    1.16    1.52</time>
  <eigenvalues>
   <array>
    <dimension dim="1">band</dimension>
    <dimension dim="2">kpoint</dimension>
    <dimension dim="3">spin</dimension>
    <field>eigene</field>
    <field>occ</field>
    <set>
     <set comment="spin 1">
      <set comment="kpoint 1">
       <r>   -6.0457    1.0000 </r>
       <r>    5.9602    0.9902 </r>
       <r>    5.9603    0.9902 </r>
       <r>    5.9603    0.9902 </r>
       <r>    8.4877    0.0000 </r>
       <r>    8.4877    0.0000 </r>
       <r>    8.4877    0.0000 </r>
       <r>    9.3193    0.0000 </r>
      </set>
      <set comment="kpoint 2">
       <r>   -4.6649    1.0000 </r>
       <r>    0.5880    1.0000 </r>
       <r>    4.9403    1.0000 </r>
       <r>    4.9404    1.0000 </r>
       <r>    7.7098    0.0000 </r>
       <r>    9.4487    0.0000 </r>
       <r>    9.4488    0.0000 </r>
       <r>   13.8054    0.0000 </r>
      </set>
      <set comment="kpoint 3">
       <r>   -4.1368    1.0000 </r>
       <r>    0.9274    1.0000 </r>
       <r>    3.5058    1.0000 </r>
       <r>    3.5058    1.0000 </r>
       <r>    6.6552    0.0049 </r>
       <r>    7.9265    0.0000 </r>
       <r>   13.2603    0.0000 </r>
       <r>   13.2603    0.0000 </r>
      </set>
      <set comment="kpoint 4">
       <r>   -2.7701    1.0000 </r>
       <r>   -0.8418    1.0000 </r>
       <r>    1.4935    1.0000 </r>
       <r>    3.8154    1.0000 </r>
       <r>    7.5004    0.0000 </r>
       <r>   11.7893    0.0000 </r>
       <r>   12.4385    0.0000 </r>
       <r>   13.0640    0.0000 </r>
      </set>
     </set>
    </set>
   </array>
  </eigenvalues>
  <separator name="orbital magnetization" >
   <v name="MAGDIPOLOUT">      0.00000000      0.00000000      0.00000000</v>
  </separator>
  <dos>
   <i name="efermi">      6.29013478 </i>
   <total>
    <array>
     <dimension dim="1">gridpoints</dimension>
     <dimension dim="2">spin</dimension>
     <field>energy</field>
     <field>total</field>
     <field>integrated</field>
     <set>
      <set comment="spin 1">
       <r>    -8.0457     0.0000     0.0000 </r>
       <r>    -7.9662     0.0000     0.0000 </r>
       <r>    -7.8867     0.0000     0.0000 </r>
       <r>    -7.8072     0.0000     0.0000 </r>
       <r>    -7.7277     0.0000     0.0000 </r>
       <r>    -7.6482     0.0000     0.0000 </r>
       <r>    -7.5686     0.0000     0.0000 </r>
       <r>    -7.4891     0.0000     0.0000 </r>
       <r>    -7.4096     0.0000     0.0000 </r>
       <r>    -7.3301     0.0000     0.0000 </r>
       <r>    -7.2506     0.0000     0.0000 </r>
       <r>    -7.1711     0.0000     0.0000 </r>
       <r>    -7.0916     0.0000     0.0000 </r>
       <r>    -7.0121     0.0000     0.0000 </r>
       <r>    -6.9326     0.0000     0.0000 </r>
       <r>    -6.8531     0.0000     0.0000 </r>
       <r>    -6.7736     0.0000     0.0000 </r>
       <r>    -6.6941     0.0000     0.0000 </r>
       <r>    -6.6146     0.0000     0.0000 </r>
       <r>    -6.5351     0.0002     0.0000 </r>
       <r>    -6.4556     0.0015     0.0001 </r>
       <r>    -6.3761     0.0073     0.0007 </r>
       <r>    -6.2966     0.0263     0.0028 </r>
       <r>    -6.2171     0.0696     0.0084 </r>
       <r>    -6.1376     0.1352     0.0191 </r>
       <r>    -6.0581     0.1930     0.0344 </r>
       <r>    -5.9786     0.2025     0.0505 </r>
       <r>    -5.8991     0.1562     0.0630 </r>
       <r>    -5.8196     0.0885     0.0700 </r>
       <r>    -5.7401     0.0369     0.0729 </r>
       <r>    -5.6606     0.0113     0.0738 </r>
       <r>    -5.5811     0.0025     0.0740 </r>
       <r>    -5.5016     0.0004     0.0741 </r>
       <r>    -5.4220     0.0001     0.0741 </r>
       <r>    -5.3425     0.0000     0.0741 </r>
       <r>    -5.2630     0.0001     0.0741 </r>
       <r>    -5.1835     0.0008     0.0741 </r>
       <r>    -5.1040     0.0062     0.0746 </r>
       <r>    -5.0245     0.0339     0.0773 </r>
       <r>    -4.9450     0.1364     0.0882 </r>
       <r>    -4.8655     0.4039     0.1203 </r>
       <r>    -4.7860     0.8785     0.1901 </r>
       <r>    -4.7065     1.4043     0.3018 </r>
       <r>    -4.6270     1.6511     0.4330 </r>
       <r>    -4.5475     1.4336     0.5470 </r>
       <r>    -4.4680     0.9477     0.6224 </r>
       <r>    -4.3885     0.5782     0.6683 </r>
       <r>    -4.3090     0.5589     0.7128 </r>
       <r>    -4.2295     0.8435     0.7798 </r>
       <r>    -4.1500     1.1624     0.8722 </r>
       <r>    -4.0705     1.2173     0.9690 </r>
       <r>    -3.9910     0.9412     1.0439 </r>
       <r>    -3.9115     0.5352     1.0864 </r>
       <r>    -3.8320     0.2237     1.1042 </r>
       <r>    -3.7525     0.0687     1.1096 </r>
       <r>    -3.6730     0.0155     1.1109 </r>
       <r>    -3.5935     0.0026     1.1111 </r>
       <r>    -3.5140     0.0003     1.1111 </r>
       <r>    -3.4345     0.0000     1.1111 </r>
       <r>    -3.3550     0.0002     1.1111 </r>
       <r>    -3.2755     0.0018     1.1113 </r>
       <r>    -3.1959     0.0126     1.1123 </r>
       <r>    -3.1164     0.0655     1.1175 </r>
       <r>    -3.0369     0.2507     1.1374 </r>
       <r>    -2.9574     0.7048     1.1934 </r>
       <r>    -2.8779     1.4560     1.3092 </r>
       <r>    -2.7984     2.2107     1.4850 </r>
       <r>    -2.7189     2.4670     1.6811 </r>
       <r>    -2.6394     2.0237     1.8420 </r>
       <r>    -2.5599     1.2202     1.9390 </r>
       <r>    -2.4804     0.5407     1.9820 </r>
       <r>    -2.4009     0.1760     1.9960 </r>
       <r>    -2.3214     0.0421     1.9993 </r>
       <r>    -2.2419     0.0074     1.9999 </r>
       <r>    -2.1624     0.0010     2.0000 </r>
       <r>    -2.0829     0.0001     2.0000 </r>
       <r>    -2.0034     0.0000     2.0000 </r>
       <r>    -1.9239     0.0000     2.0000 </r>
       <r>    -1.8444     0.0000     2.0000 </r>
       <r>    -1.7649     0.0000     2.0000 </r>
       <r>    -1.6854     0.0000     2.0000 </r>
       <r>    -1.6059     0.0000     2.0000 </r>
       <r>    -1.5264     0.0000     2.0000 </r>
       <r>    -1.4469     0.0001     2.0000 </r>
       <r>    -1.3674     0.0010     2.0001 </r>
       <r>    -1.2879     0.0079     2.0007 </r>
       <r>    -1.2084     0.0444     2.0042 </r>
       <r>    -1.1289     0.1836     2.0188 </r>
       <r>    -1.0493     0.5581     2.0632 </r>
       <r>    -0.9698     1.2468     2.1623 </r>
       <r>    -0.8903     2.0470     2.3251 </r>
       <r>    -0.8108     2.4702     2.5215 </r>
       <r>    -0.7313     2.1911     2.6957 </r>
       <r>    -0.6518     1.4286     2.8093 </r>
       <r>    -0.5723     0.6845     2.8637 </r>
       <r>    -0.4928     0.2410     2.8828 </r>
       <r>    -0.4133     0.0623     2.8878 </r>
       <r>    -0.3338     0.0118     2.8887 </r>
       <r>    -0.2543     0.0017     2.8889 </r>
       <r>    -0.1748     0.0002     2.8889 </r>
       <r>    -0.0953     0.0000     2.8889 </r>
       <r>    -0.0158     0.0001     2.8889 </r>
       <r>     0.0637     0.0007     2.8890 </r>
       <r>     0.1432     0.0054     2.8894 </r>
       <r>     0.2227     0.0303     2.8918 </r>
       <r>     0.3022     0.1249     2.9017 </r>
       <r>     0.3817     0.3782     2.9318 </r>
       <r>     0.4612     0.8424     2.9988 </r>
       <r>     0.5407     1.3869     3.1090 </r>
       <r>     0.6202     1.7136     3.2453 </r>
       <r>     0.6997     1.6710     3.3781 </r>
       <r>     0.7792     1.4670     3.4947 </r>
       <r>     0.8587     1.3792     3.6044 </r>
       <r>     0.9382     1.3705     3.7134 </r>
       <r>     1.0177     1.2071     3.8093 </r>
       <r>     1.0972     0.8514     3.8770 </r>
       <r>     1.1768     0.5376     3.9198 </r>
       <r>     1.2563     0.5436     3.9630 </r>
       <r>     1.3358     1.0023     4.0427 </r>
       <r>     1.4153     1.7723     4.1836 </r>
       <r>     1.4948     2.3885     4.3735 </r>
       <r>     1.5743     2.3758     4.5623 </r>
       <r>     1.6538     1.7379     4.7005 </r>
       <r>     1.7333     0.9344     4.7748 </r>
       <r>     1.8128     0.3692     4.8042 </r>
       <r>     1.8923     0.1072     4.8127 </r>
       <r>     1.9718     0.0229     4.8145 </r>
       <r>     2.0513     0.0036     4.8148 </r>
       <r>     2.1308     0.0004     4.8148 </r>
       <r>     2.2103     0.0000     4.8148 </r>
       <r>     2.2898     0.0000     4.8148 </r>
       <r>     2.3693     0.0000     4.8148 </r>
       <r>     2.4488     0.0000     4.8148 </r>
       <r>     2.5283     0.0000     4.8148 </r>
       <r>     2.6078     0.0000     4.8148 </r>
       <r>     2.6873     0.0000     4.8148 </r>
       <r>     2.7668     0.0000     4.8148 </r>
       <r>     2.8463     0.0000     4.8148 </r>
       <r>     2.9258     0.0002     4.8148 </r>
       <r>     3.0053     0.0020     4.8150 </r>
       <r>     3.0848     0.0141     4.8161 </r>
       <r>     3.1643     0.0719     4.8218 </r>
       <r>     3.2438     0.2700     4.8433 </r>
       <r>     3.3234     0.7464     4.9026 </r>
       <r>     3.4029     1.5246     5.0238 </r>
       <r>     3.4824     2.3296     5.2090 </r>
       <r>     3.5619     2.7635     5.4288 </r>
       <r>     3.6414     2.7923     5.6508 </r>
       <r>     3.7209     2.7663     5.8707 </r>
       <r>     3.8004     2.8096     6.0941 </r>
       <r>     3.8799     2.6008     6.3008 </r>
       <r>     3.9594     1.9375     6.4549 </r>
       <r>     4.0389     1.0941     6.5419 </r>
       <r>     4.1184     0.4584     6.5783 </r>
       <r>     4.1979     0.1416     6.5896 </r>
       <r>     4.2774     0.0322     6.5921 </r>
       <r>     4.3569     0.0056     6.5926 </r>
       <r>     4.4364     0.0031     6.5928 </r>
       <r>     4.5159     0.0174     6.5942 </r>
       <r>     4.5954     0.0897     6.6013 </r>
       <r>     4.6749     0.3414     6.6285 </r>
       <r>     4.7544     0.9545     6.7043 </r>
       <r>     4.8339     1.9610     6.8603 </r>
       <r>     4.9134     2.9612     7.0957 </r>
       <r>     4.9929     3.2867     7.3570 </r>
       <r>     5.0724     2.6814     7.5702 </r>
       <r>     5.1519     1.6079     7.6980 </r>
       <r>     5.2314     0.7086     7.7543 </r>
       <r>     5.3109     0.2295     7.7726 </r>
       <r>     5.3904     0.0547     7.7769 </r>
       <r>     5.4699     0.0102     7.7777 </r>
       <r>     5.5495     0.0056     7.7782 </r>
       <r>     5.6290     0.0217     7.7799 </r>
       <r>     5.7085     0.0781     7.7861 </r>
       <r>     5.7880     0.2070     7.8026 </r>
       <r>     5.8675     0.4034     7.8346 </r>
       <r>     5.9470     0.5777     7.8806 </r>
       <r>     6.0265     0.6083     7.9289 </r>
       <r>     6.1060     0.4710     7.9664 </r>
       <r>     6.1855     0.2700     7.9878 </r>
       <r>     6.2650     0.1256     7.9978 </r>
       <r>     6.3445     0.0965     8.0055 </r>
       <r>     6.4240     0.2147     8.0226 </r>
       <r>     6.5035     0.5080     8.0630 </r>
       <r>     6.5830     0.9120     8.1355 </r>
       <r>     6.6625     1.2061     8.2314 </r>
       <r>     6.7420     1.1725     8.3246 </r>
       <r>     6.8215     0.8379     8.3912 </r>
       <r>     6.9010     0.4402     8.4262 </r>
       <r>     6.9805     0.1711     8.4398 </r>
       <r>     7.0600     0.0572     8.4443 </r>
       <r>     7.1395     0.0598     8.4491 </r>
       <r>     7.2190     0.2039     8.4653 </r>
       <r>     7.2985     0.6087     8.5137 </r>
       <r>     7.3780     1.3621     8.6220 </r>
       <r>     7.4575     2.3047     8.8052 </r>
       <r>     7.5370     3.0377     9.0467 </r>
       <r>     7.6165     3.2829     9.3077 </r>
       <r>     7.6961     3.1178     9.5556 </r>
       <r>     7.7756     2.7754     9.7762 </r>
       <r>     7.8551     2.3949     9.9666 </r>
       <r>     7.9346     1.9804    10.1241 </r>
       <r>     8.0141     1.4821    10.2419 </r>
       <r>     8.0936     0.9341    10.3162 </r>
       <r>     8.1731     0.4869    10.3549 </r>
       <r>     8.2526     0.2699    10.3764 </r>
       <r>     8.3321     0.2923    10.3996 </r>
       <r>     8.4116     0.4562    10.4359 </r>
       <r>     8.4911     0.6007    10.4836 </r>
       <r>     8.5706     0.5914    10.5306 </r>
       <r>     8.6501     0.4289    10.5647 </r>
       <r>     8.7296     0.2287    10.5829 </r>
       <r>     8.8091     0.0898    10.5900 </r>
       <r>     8.8886     0.0272    10.5922 </r>
       <r>     8.9681     0.0149    10.5934 </r>
       <r>     9.0476     0.0492    10.5973 </r>
       <r>     9.1271     0.1928    10.6126 </r>
       <r>     9.2066     0.5936    10.6598 </r>
       <r>     9.2861     1.3983    10.7710 </r>
       <r>     9.3656     2.4906    10.9690 </r>
       <r>     9.4451     3.3242    11.2333 </r>
       <r>     9.5246     3.3024    11.4959 </r>
       <r>     9.6041     2.4306    11.6891 </r>
       <r>     9.6836     1.3214    11.7942 </r>
       <r>     9.7631     0.5295    11.8363 </r>
       <r>     9.8426     0.1562    11.8487 </r>
       <r>     9.9222     0.0339    11.8514 </r>
       <r>    10.0017     0.0054    11.8518 </r>
       <r>    10.0812     0.0006    11.8518 </r>
       <r>    10.1607     0.0001    11.8519 </r>
       <r>    10.2402     0.0000    11.8519 </r>
       <r>    10.3197     0.0000    11.8519 </r>
       <r>    10.3992     0.0000    11.8519 </r>
       <r>    10.4787     0.0000    11.8519 </r>
       <r>    10.5582     0.0000    11.8519 </r>
       <r>    10.6377     0.0000    11.8519 </r>
       <r>    10.7172     0.0000    11.8519 </r>
       <r>    10.7967     0.0000    11.8519 </r>
       <r>    10.8762     0.0000    11.8519 </r>
       <r>    10.9557     0.0000    11.8519 </r>
       <r>    11.0352     0.0000    11.8519 </r>
       <r>    11.1147     0.0000    11.8519 </r>
       <r>    11.1942     0.0001    11.8519 </r>
       <r>    11.2737     0.0013    11.8520 </r>
       <r>    11.3532     0.0099    11.8528 </r>
       <r>    11.4327     0.0539    11.8570 </r>
       <r>    11.5122     0.2147    11.8741 </r>
       <r>    11.5917     0.6279    11.9240 </r>
       <r>    11.6712     1.3495    12.0313 </r>
       <r>    11.7507     2.1316    12.2008 </r>
       <r>    11.8302     2.4749    12.3976 </r>
       <r>    11.9097     2.1129    12.5655 </r>
       <r>    11.9892     1.3321    12.6714 </r>
       <r>    12.0688     0.6524    12.7233 </r>
       <r>    12.1483     0.3814    12.7536 </r>
       <r>    12.2278     0.5886    12.8004 </r>
       <r>    12.3073     1.2241    12.8978 </r>
       <r>    12.3868     2.0202    13.0584 </r>
       <r>    12.4663     2.4665    13.2545 </r>
       <r>    12.5458     2.2159    13.4306 </r>
       <r>    12.6253     1.4711    13.5476 </r>
       <r>    12.7048     0.7607    13.6081 </r>
       <r>    12.7843     0.4626    13.6448 </r>
       <r>    12.8638     0.6991    13.7004 </r>
       <r>    12.9433     1.4464    13.8154 </r>
       <r>    13.0228     2.4922    14.0136 </r>
       <r>    13.1023     3.4295    14.2862 </r>
       <r>    13.1818     3.8940    14.5958 </r>
       <r>    13.2613     3.7383    14.8930 </r>
       <r>    13.3408     3.0100    15.1323 </r>
       <r>    13.4203     1.9764    15.2895 </r>
       <r>    13.4998     1.0813    15.3754 </r>
       <r>    13.5793     0.6756    15.4291 </r>
       <r>    13.6588     0.8173    15.4941 </r>
       <r>    13.7383     1.2726    15.5953 </r>
       <r>    13.8178     1.6238    15.7244 </r>
       <r>    13.8973     1.5446    15.8472 </r>
       <r>    13.9768     1.0818    15.9332 </r>
       <r>    14.0563     0.5570    15.9775 </r>
       <r>    14.1358     0.2108    15.9942 </r>
       <r>    14.2153     0.0586    15.9989 </r>
       <r>    14.2949     0.0120    15.9998 </r>
       <r>    14.3744     0.0018    16.0000 </r>
       <r>    14.4539     0.0002    16.0000 </r>
       <r>    14.5334     0.0000    16.0000 </r>
       <r>    14.6129     0.0000    16.0000 </r>
       <r>    14.6924     0.0000    16.0000 </r>
       <r>    14.7719     0.0000    16.0000 </r>
       <r>    14.8514     0.0000    16.0000 </r>
       <r>    14.9309     0.0000    16.0000 </r>
       <r>    15.0104     0.0000    16.0000 </r>
       <r>    15.0899     0.0000    16.0000 </r>
       <r>    15.1694     0.0000    16.0000 </r>
       <r>    15.2489     0.0000    16.0000 </r>
       <r>    15.3284     0.0000    16.0000 </r>
       <r>    15.4079     0.0000    16.0000 </r>
       <r>    15.4874     0.0000    16.0000 </r>
       <r>    15.5669     0.0000    16.0000 </r>
       <r>    15.6464     0.0000    16.0000 </r>
       <r>    15.7259     0.0000    16.0000 </r>
       <r>    15.8054     0.0000    16.0000 </r>
      </set>
     </set>
    </array>
   </total>
  </dos>
 </calculation>
 <structure name="finalpos" >
  <crystal>
   <varray name="basis" >
    <v>       0.00000000       2.71500000       2.71500000 </v>
    <v>       2.71500000       0.00000000       2.71500000 </v>
    <v>       2.71500000       2.71500000       0.00000000 </v>
   </varray>
   <i name="volume">     40.02575175 </i>
   <varray name="rec_basis" >
    <v>      -0.18416206       0.18416206       0.18416206 </v>
    <v>       0.18416206      -0.18416206       0.18416206 </v>
    <v>       0.18416206       0.18416206      -0.18416206 </v>
   </varray>
  </crystal>
  <varray name="positions" >
   <v>       0.50000000       0.50000000       0.50000000 </v>
   <v>       0.75000000       0.75000000       0.75000000 </v>
  </varray>
 </structure>
</modeling>
