    2    2   15    1
  0.1529437E+02  0.3691622E-09  0.3691622E-09  0.3691622E-09  0.5000000E-15
  1.000000000000000E-004
  CAR 
 unknown system                          
      8     75      8
 
  0.0000000E+00  0.0000000E+00  0.0000000E+00  0.1371742E-02
    1       -4.615109   1.000000
    2        6.183676   1.000000
    3        6.299280   1.000000
    4        6.299286   1.000000
    5       10.526063   0.000000
    6       16.773401   0.000000
    7       17.367653   0.000000
    8       17.367660   0.000000
 
  0.1111111E+00 -0.9377698E-17  0.9377698E-17  0.1097394E-01
    1       -4.266538   1.000000
    2        5.307096   1.000000
    3        6.242298   1.000000
    4        7.783477   1.000000
    5       11.234964   0.000000
    6       15.162696   0.000000
    7       15.962637   0.000000
    8       17.321430   0.000000
 
  0.2222222E+00  0.6918512E-17 -0.6918512E-17  0.1097394E-01
    1       -3.225072   1.000000
    2        5.018852   1.000000
    3        6.318589   1.000000
    4        9.610675   0.000152
    5       12.131829   0.000000
    6       12.912352   0.000000
    7       13.019689   0.000000
    8       15.161489   0.000000
 
  0.3333333E+00 -0.3591853E-16  0.3591853E-16  0.1097394E-01
    1       -1.504612   1.000000
    2        5.358002   1.000000
    3        6.789222   1.000000
    4        7.464553   1.000000
    5       10.264268   0.000000
    6       12.651932   0.000000
    7       13.028349   0.000000
    8       14.009167   0.000000
 
  0.4444444E+00  0.1383702E-16 -0.1383702E-16  0.1097394E-01
    1        0.860090   1.000000
    2        3.898009   1.000000
    3        6.376767   1.000000
    4        7.566503   1.000000
    5        8.190081   1.000000
    6       10.728212   0.000000
    7       13.542600   0.000000
    8       14.503571   0.000000
 
  0.1111111E+00  0.1111111E+00  0.1875540E-16  0.1097394E-01
    1       -3.371043   1.000000
    2        5.335560   1.000000
    3        7.349177   1.000000
    4        8.538715   0.999964
    5       12.293754   0.000000
    6       12.581112   0.000000
    7       13.000971   0.000000
    8       15.642326   0.000000
 
  0.2222222E+00  0.1111111E+00 -0.2719765E-16  0.2194787E-01
    1       -1.793239   1.000000
    2        5.612886   1.000000
    3        7.892114   1.000000
    4        8.295308   1.000000
    5        9.742813   0.000003
    6       11.393161   0.000000
    7       13.013467   0.000000
    8       14.021151   0.000000
 
  0.3333333E+00  0.1111111E+00  0.2951719E-16  0.2194787E-01
    1        0.439897   1.000000
    2        4.704927   1.000000
    3        6.484797   1.000000
    4        6.927651   1.000000
    5        9.042033   0.658467
    6       11.101020   0.000000
    7       12.635258   0.000000
    8       14.524037   0.000000
 
  0.4444444E+00  0.1111111E+00  0.7517205E-17  0.2194787E-01
    1        1.548978   1.000000
    2        3.352788   1.000000
    3        5.229149   1.000000
    4        7.462548   1.000000
    5        8.678621   0.998549
    6       11.470837   0.000000
    7       12.407021   0.000000
    8       15.811584   0.000000
 
 -0.4444444E+00  0.1111111E+00  0.4279628E-16  0.2194787E-01
    1       -0.929508   1.000000
    2        3.995706   1.000000
    3        6.693525   1.000000
    4        6.998516   1.000000
    5       10.097294   0.000000
    6       12.385595   0.000000
    7       13.559666   0.000000
    8       14.488641   0.000000
 
 -0.3333333E+00  0.1111111E+00 -0.1456430E-16  0.2194787E-01
    1       -2.788058   1.000000
    2        3.474906   1.000000
    3        6.334951   1.000000
    4       10.136550   0.000000
    5       11.916514   0.000000
    6       12.031550   0.000000
    7       13.937859   0.000000
    8       15.137012   0.000000
 
 -0.2222222E+00  0.1111111E+00  0.1629621E-16  0.2194787E-01
    1       -3.973128   1.000000
    2        3.590283   1.000000
    3        6.298599   1.000000
    4        8.907504   0.913013
    5       12.758661   0.000000
    6       13.421344   0.000000
    7       15.303073   0.000000
    8       16.663890   0.000000
 
 -0.1111111E+00  0.1111111E+00  0.7914115E-18  0.5486968E-02
    1       -4.468046   1.000000
    2        4.319524   1.000000
    3        6.435451   1.000000
    4        7.645210   1.000000
    5       11.429649   0.000000
    6       14.872246   0.000000
    7       16.323961   0.000000
    8       19.215064   0.000000
 
  0.2222222E+00  0.2222222E+00 -0.4159260E-16  0.1097394E-01
    1        0.298967   1.000000
    2        5.713573   1.000000
    3        5.772968   1.000000
    4        6.433094   1.000000
    5        9.963305   0.000000
    6       11.599986   0.000000
    7       12.540719   0.000000
    8       12.821236   0.000000
 
  0.3333333E+00  0.2222222E+00  0.4287781E-16  0.2194787E-01
    1        2.439714   1.000000
    2        3.102460   1.000000
    3        3.883713   1.000000
    4        7.513391   1.000000
    5        9.252082   0.140743
    6       10.780646   0.000000
    7       13.569097   0.000000
    8       15.640253   0.000000
 
  0.4444444E+00  0.2222222E+00  0.2087783E-16  0.2194787E-01
    1       -0.073217   1.000000
    2        2.431947   1.000000
    3        6.398227   1.000000
    4        7.569702   1.000000
    5        9.473565   0.004107
    6       11.306611   0.000000
    7       14.754578   0.000000
    8       15.793282   0.000000
 
 -0.4444444E+00  0.2222222E+00  0.6918512E-17  0.2194787E-01
    1       -2.063076   1.000000
    2        1.752953   1.000000
    3        6.951134   1.000000
    4        9.931189   0.000000
    5       10.617372   0.000000
    6       12.496106   0.000000
    7       13.390133   0.000000
    8       15.818031   0.000000
 
 -0.3333333E+00  0.2222222E+00 -0.1251408E-16  0.2194787E-01
    1       -3.388179   1.000000
    2        1.730509   1.000000
    3        6.824313   1.000000
    4        9.736533   0.000003
    5       11.634130   0.000000
    6       14.181855   0.000000
    7       15.116562   0.000000
    8       15.846040   0.000000
 
 -0.2222222E+00  0.2222222E+00  0.1582823E-17  0.5486968E-02
    1       -4.027667   1.000000
    2        2.360709   1.000000
    3        6.843752   1.000000
    4        8.513145   0.999983
    5       12.905137   0.000000
    6       13.665092   0.000000
    7       14.679468   0.000000
    8       19.208642   0.000000
 
  0.3333333E+00  0.3333333E+00  0.7183707E-16  0.1097394E-01
    1        1.044985   1.000000
    2        1.063641   1.000000
    3        6.272882   1.000000
    4        8.233878   1.000000
    5        8.801095   0.982655
    6       10.940118   0.000000
    7       15.467601   0.000000
    8       16.506759   0.000000
 
  0.4444444E+00  0.3333333E+00  0.4983708E-16  0.2194787E-01
    1       -1.055896   1.000000
    2        0.223017   1.000000
    3        7.860922   1.000000
    4        8.991563   0.777910
    5       10.047763   0.000000
    6       13.019447   0.000000
    7       13.385540   0.000000
    8       14.688137   0.000000
 
 -0.4444444E+00  0.3333333E+00  0.6553460E-16  0.2194787E-01
    1       -2.515600   1.000000
    2        0.060719   1.000000
    3        7.636800   1.000000
    4       10.050883   0.000000
    5       10.644827   0.000000
    6       12.959145   0.000000
    7       15.144524   0.000000
    8       15.958981   0.000000
 
 -0.3333333E+00  0.3333333E+00  0.1438931E-16  0.5486968E-02
    1       -3.296841   1.000000
    2        0.569397   1.000000
    3        7.523560   1.000000
    4        9.356383   0.034800
    5       11.171360   0.000000
    6       13.069079   0.000000
    7       16.428437   0.000000
    8       18.929945   0.000000
 
  0.4444444E+00  0.4444444E+00 -0.8318520E-16  0.1097394E-01
    1       -1.362494   1.000000
    2       -1.361480   1.000000
    3        8.702300   0.997527
    4        8.733917   0.995159
    5       11.611133   0.000000
    6       11.833898   0.000000
    7       14.993472   0.000000
    8       15.892466   0.000000
 
 -0.4444444E+00  0.4444444E+00  0.3165646E-17  0.5486968E-02
    1       -2.280593   1.000000
    2       -0.986880   1.000000
    3        8.473371   0.999995
    4        9.690345   0.000015
    5       10.378840   0.000000
    6       11.619850   0.000000
    7       18.792476   0.000000
    8       18.836605   0.000000
 
  0.1111111E+00  0.1111111E+00  0.1111111E+00  0.1097394E-01
    1       -2.933199   1.000000
    2        3.406245   1.000000
    3        7.730731   1.000000
    4        9.336896   0.046799
    5       11.905947   0.000000
    6       12.063501   0.000000
    7       14.441705   0.000000
    8       15.107010   0.000000
 
  0.2222222E+00  0.1111111E+00  0.1111111E+00  0.2194787E-01
    1       -1.215424   1.000000
    2        3.816292   1.000000
    3        7.612067   1.000000
    4        8.212580   1.000000
    5        9.679892   0.000020
    6       12.036420   0.000000
    7       13.802155   0.000000
    8       14.677157   0.000000
 
  0.3333333E+00  0.1111111E+00  0.1111111E+00  0.2194787E-01
    1        1.144237   1.000000
    2        4.127747   1.000000
    3        4.937407   1.000000
    4        6.517224   1.000000
    5        9.993909   0.000000
    6       12.297394   0.000000
    7       13.861352   0.000000
    8       14.326199   0.000000
 
 -0.1111111E+00  0.1111111E+00  0.1111111E+00  0.5486968E-02
    1       -4.321280   1.000000
    2        3.993237   1.000000
    3        5.343873   1.000000
    4        8.969012   0.822418
    5       12.043320   0.000000
    6       13.332474   0.000000
    7       17.609101   0.000000
    8       18.057679   0.000000
 
  0.2222222E+00  0.2222222E+00  0.1111111E+00  0.1097394E-01
    1        1.007040   1.000000
    2        4.646712   1.000000
    3        5.272231   1.000000
    4        5.363431   1.000000
    5       11.100038   0.000000
    6       13.265512   0.000000
    7       13.511293   0.000000
    8       13.675991   0.000000
 
  0.3333333E+00  0.2222222E+00  0.1111111E+00  0.2194787E-01
    1        2.114357   1.000000
    2        3.302714   1.000000
    3        4.033397   1.000000
    4        6.296411   1.000000
    5       10.938874   0.000000
    6       12.414953   0.000000
    7       14.240175   0.000000
    8       15.186649   0.000000
 
  0.4444444E+00  0.2222222E+00  0.1111111E+00  0.2194787E-01
    1       -0.354103   1.000000
    2        2.182386   1.000000
    3        7.286177   1.000000
    4        8.187012   1.000000
    5       10.123308   0.000000
    6       12.411802   0.000000
    7       12.930601   0.000000
    8       14.899102   0.000000
 
 -0.4444444E+00  0.2222222E+00  0.1111111E+00  0.1097394E-01
    1       -2.206485   1.000000
    2        1.632996   1.000000
    3        8.349240   1.000000
    4        9.967776   0.000000
    5       11.276389   0.000000
    6       11.642503   0.000000
    7       13.235236   0.000000
    8       14.220362   0.000000
 
 -0.2222222E+00  0.2222222E+00  0.1111111E+00  0.1097394E-01
    1       -3.881781   1.000000
    2        2.428818   1.000000
    3        5.355879   1.000000
    4       10.143767   0.000000
    5       11.405995   0.000000
    6       13.972757   0.000000
    7       16.238941   0.000000
    8       18.709710   0.000000
 
 -0.1111111E+00  0.2222222E+00  0.1111111E+00  0.1097394E-01
    1       -3.680920   1.000000
    2        3.328089   1.000000
    3        4.865139   1.000000
    4       10.630814   0.000000
    5       11.571887   0.000000
    6       13.719575   0.000000
    7       14.840168   0.000000
    8       17.562215   0.000000
 
  0.3333333E+00  0.3333333E+00  0.1111111E+00  0.1097394E-01
    1        0.780107   1.000000
    2        0.786098   1.000000
    3        7.169471   1.000000
    4        8.145713   1.000000
    5       10.769431   0.000000
    6       11.496827   0.000000
    7       13.578532   0.000000
    8       14.259565   0.000000
 
  0.4444444E+00  0.3333333E+00  0.1111111E+00  0.1097394E-01
    1       -1.196263   1.000000
    2        0.088695   1.000000
    3        9.155622   0.346453
    4        9.957482   0.000000
    5       11.135934   0.000000
    6       11.383746   0.000000
    7       12.620383   0.000000
    8       13.103725   0.000000
 
 -0.3333333E+00  0.3333333E+00  0.1111111E+00  0.1097394E-01
    1       -3.152684   1.000000
    2        0.689865   1.000000
    3        5.990667   1.000000
    4        9.667684   0.000030
    5       11.066418   0.000000
    6       14.698150   0.000000
    7       16.616858   0.000000
    8       18.530976   0.000000
 
 -0.2222222E+00  0.3333333E+00  0.1111111E+00  0.2194787E-01
    1       -3.098590   1.000000
    2        1.916016   1.000000
    3        4.931270   1.000000
    4        9.735814   0.000003
    5       11.774347   0.000000
    6       14.286681   0.000000
    7       15.863467   0.000000
    8       17.209048   0.000000
 
 -0.1111111E+00  0.3333333E+00  0.1111111E+00  0.1097394E-01
    1       -2.353864   1.000000
    2        3.326775   1.000000
    3        4.945910   1.000000
    4        9.791616   0.000000
    5       10.457841   0.000000
    6       13.443373   0.000000
    7       14.811248   0.000000
    8       15.464582   0.000000
 
 -0.4444444E+00  0.4444444E+00  0.1111111E+00  0.1097394E-01
    1       -2.139392   1.000000
    2       -0.851885   1.000000
    3        6.942227   1.000000
    4        8.173551   1.000000
    5       12.090256   0.000000
    6       13.300936   0.000000
    7       18.200680   0.000000
    8       18.320432   0.000000
 
 -0.3333333E+00  0.4444444E+00  0.1111111E+00  0.2194787E-01
    1       -2.230633   1.000000
    2        0.315469   1.000000
    3        5.683250   1.000000
    4        8.125120   1.000000
    5       12.492824   0.000000
    6       14.091655   0.000000
    7       16.037620   0.000000
    8       17.158955   0.000000
 
 -0.2222222E+00  0.4444444E+00  0.1111111E+00  0.2194787E-01
    1       -1.634672   1.000000
    2        2.069438   1.000000
    3        5.108815   1.000000
    4        8.593654   0.999827
    5        9.570350   0.000438
    6       14.415470   0.000000
    7       14.946606   0.000000
    8       17.032298   0.000000
 
 -0.1111111E+00  0.4444444E+00  0.1111111E+00  0.1097394E-01
    1       -0.360832   1.000000
    2        3.965537   1.000000
    3        5.619728   1.000000
    4        6.194440   1.000000
    5        9.538076   0.000970
    6       12.273513   0.000000
    7       13.620516   0.000000
    8       16.170201   0.000000
 
 -0.4444444E+00 -0.4444444E+00  0.1111111E+00  0.1097394E-01
    1       -1.087900   1.000000
    2       -1.084967   1.000000
    3        6.760236   1.000000
    4        6.769578   1.000000
    5       12.772323   0.000000
    6       14.210456   0.000000
    7       15.365524   0.000000
    8       17.152089   0.000000
 
 -0.3333333E+00 -0.4444444E+00  0.1111111E+00  0.2194787E-01
    1       -0.638466   1.000000
    2        0.616330   1.000000
    3        5.977428   1.000000
    4        7.169349   1.000000
    5        9.299362   0.079076
    6       14.418229   0.000000
    7       15.766185   0.000000
    8       17.095178   0.000000
 
 -0.2222222E+00 -0.4444444E+00  0.1111111E+00  0.2194787E-01
    1        0.483010   1.000000
    2        2.876338   1.000000
    3        5.673943   1.000000
    4        6.004600   1.000000
    5        8.173240   1.000000
    6       12.227020   0.000000
    7       14.894705   0.000000
    8       17.252542   0.000000
 
 -0.1111111E+00 -0.4444444E+00  0.1111111E+00  0.1097394E-01
    1        2.157850   1.000000
    2        2.884332   1.000000
    3        5.362073   1.000000
    4        6.825384   1.000000
    5        8.828355   0.972521
    6       11.102452   0.000000
    7       11.684266   0.000000
    8       16.581327   0.000000
 
 -0.3333333E+00 -0.3333333E+00  0.1111111E+00  0.1097394E-01
    1        1.565891   1.000000
    2        1.600333   1.000000
    3        5.595430   1.000000
    4        6.836438   1.000000
    5        6.991666   1.000000
    6       12.141075   0.000000
    7       16.456907   0.000000
    8       16.736063   0.000000
 
 -0.2222222E+00 -0.3333333E+00  0.1111111E+00  0.2194787E-01
    1        2.374037   1.000000
    2        3.325642   1.000000
    3        4.427456   1.000000
    4        7.198245   1.000000
    5        8.168722   1.000000
    6       10.653648   0.000000
    7       13.033056   0.000000
    8       15.175987   0.000000
 
 -0.1111111E+00 -0.3333333E+00  0.1111111E+00  0.1097394E-01
    1        0.013954   1.000000
    2        5.495686   1.000000
    3        7.119252   1.000000
    4        8.058271   1.000000
    5        8.095186   1.000000
    6       10.875112   0.000000
    7       11.259408   0.000000
    8       13.551352   0.000000
 
 -0.2222222E+00 -0.2222222E+00  0.1111111E+00  0.1097394E-01
    1       -0.128496   1.000000
    2        6.440744   1.000000
    3        6.483413   1.000000
    4        7.808629   1.000000
    5        8.841717   0.965979
    6       10.490412   0.000000
    7       11.812882   0.000000
    8       12.188511   0.000000
 
 -0.1111111E+00 -0.2222222E+00  0.1111111E+00  0.1097394E-01
    1       -2.083156   1.000000
    2        7.205175   1.000000
    3        7.961691   1.000000
    4        8.646880   0.999319
    5        9.781556   0.000001
    6       10.716059   0.000000
    7       12.392635   0.000000
    8       13.057105   0.000000
 
 -0.1111111E+00 -0.1111111E+00  0.1111111E+00  0.2743484E-02
    1       -3.517352   1.000000
    2        7.180190   1.000000
    3        7.220618   1.000000
    4        7.220623   1.000000
    5       11.627998   0.000000
    6       12.869388   0.000000
    7       13.230014   0.000000
    8       15.426282   0.000000
 
  0.2222222E+00  0.2222222E+00  0.2222222E+00  0.1097394E-01
    1        1.987270   1.000000
    2        3.221406   1.000000
    3        5.023999   1.000000
    4        5.043615   1.000000
    5       12.272365   0.000000
    6       13.429287   0.000000
    7       14.579475   0.000000
    8       14.613191   0.000000
 
 -0.2222222E+00  0.2222222E+00  0.2222222E+00  0.5486968E-02
    1       -3.445236   1.000000
    2        2.274184   1.000000
    3        3.934184   1.000000
    4        9.461379   0.005280
    5       12.081490   0.000000
    6       15.138861   0.000000
    7       17.445145   0.000000
    8       18.327185   0.000000
 
 -0.3333333E+00  0.3333333E+00  0.2222222E+00  0.1097394E-01
    1       -2.721855   1.000000
    2        1.006734   1.000000
    3        4.095516   1.000000
    4        7.706581   1.000000
    5       13.394964   0.000000
    6       16.599382   0.000000
    7       17.272434   0.000000
    8       18.280025   0.000000
 
 -0.2222222E+00  0.3333333E+00  0.2222222E+00  0.1097394E-01
    1       -2.522112   1.000000
    2        1.888898   1.000000
    3        3.609816   1.000000
    4        7.885330   1.000000
    5       12.742829   0.000000
    6       14.915512   0.000000
    7       17.123003   0.000000
    8       18.425860   0.000000
 
 -0.4444444E+00  0.4444444E+00  0.2222222E+00  0.1097394E-01
    1       -1.719549   1.000000
    2       -0.456718   1.000000
    3        4.978449   1.000000
    4        6.201891   1.000000
    5       14.460644   0.000000
    6       15.535393   0.000000
    7       17.822679   0.000000
    8       17.971353   0.000000
 
 -0.3333333E+00  0.4444444E+00  0.2222222E+00  0.2194787E-01
    1       -1.666188   1.000000
    2        0.770312   1.000000
    3        3.887739   1.000000
    4        6.257136   1.000000
    5       12.681393   0.000000
    6       16.006014   0.000000
    7       18.325723   0.000000
    8       18.546119   0.000000
 
 -0.2222222E+00  0.4444444E+00  0.2222222E+00  0.1097394E-01
    1       -0.927538   1.000000
    2        2.178594   1.000000
    3        3.917998   1.000000
    4        6.920648   1.000000
    5        9.047545   0.644049
    6       15.633242   0.000000
    7       17.054885   0.000000
    8       17.214745   0.000000
 
 -0.4444444E+00 -0.4444444E+00  0.2222222E+00  0.1097394E-01
    1       -0.551048   1.000000
    2       -0.546007   1.000000
    3        4.901873   1.000000
    4        4.902050   1.000000
    5       12.610554   0.000000
    6       16.787300   0.000000
    7       17.576862   0.000000
    8       18.563358   0.000000
 
 -0.3333333E+00 -0.4444444E+00  0.2222222E+00  0.2194787E-01
    1        0.041187   1.000000
    2        1.210905   1.000000
    3        4.320509   1.000000
    4        5.457926   1.000000
    5        8.787266   0.986439
    6       15.990978   0.000000
    7       17.969475   0.000000
    8       18.627459   0.000000
 
 -0.2222222E+00 -0.4444444E+00  0.2222222E+00  0.1097394E-01
    1        1.297554   1.000000
    2        3.112726   1.000000
    3        4.856245   1.000000
    4        5.383041   1.000000
    5        6.671712   1.000000
    6       13.511144   0.000000
    7       14.992891   0.000000
    8       17.676662   0.000000
 
 -0.3333333E+00 -0.3333333E+00  0.2222222E+00  0.1097394E-01
    1        2.278231   1.000000
    2        2.338424   1.000000
    3        5.104174   1.000000
    4        5.383057   1.000000
    5        5.567427   1.000000
    6       13.824395   0.000000
    7       16.065096   0.000000
    8       16.649135   0.000000
 
 -0.2222222E+00 -0.3333333E+00  0.2222222E+00  0.1097394E-01
    1        2.144038   1.000000
    2        4.148899   1.000000
    3        4.826223   1.000000
    4        6.373376   1.000000
    5        7.012476   1.000000
    6       11.899161   0.000000
    7       12.998282   0.000000
    8       14.223616   0.000000
 
 -0.2222222E+00 -0.2222222E+00  0.2222222E+00  0.2743484E-02
    1       -0.271298   1.000000
    2        6.913017   1.000000
    3        7.063993   1.000000
    4        8.111037   1.000000
    5        8.111041   1.000000
    6       10.640679   0.000000
    7       11.575936   0.000000
    8       11.575940   0.000000
 
 -0.3333333E+00  0.3333333E+00  0.3333333E+00  0.5486968E-02
    1       -2.010498   1.000000
    2        1.111915   1.000000
    3        2.890453   1.000000
    4        5.941577   1.000000
    5       15.156938   0.000000
    6       16.733777   0.000000
    7       18.074705   0.000000
    8       18.926668   0.000000
 
 -0.4444444E+00  0.4444444E+00  0.3333333E+00  0.1097394E-01
    1       -1.036232   1.000000
    2        0.139746   1.000000
    3        3.293786   1.000000
    4        4.445947   1.000000
    5       15.991590   0.000000
    6       16.398711   0.000000
    7       18.477007   0.000000
    8       19.201014   0.000000
 
 -0.3333333E+00  0.4444444E+00  0.3333333E+00  0.1097394E-01
    1       -0.838491   1.000000
    2        1.015362   1.000000
    3        2.814317   1.000000
    4        4.634484   1.000000
    5       12.423217   0.000000
    6       18.050731   0.000000
    7       19.575441   0.000000
    8       19.951676   0.000000
 
 -0.4444444E+00 -0.4444444E+00  0.3333333E+00  0.1097394E-01
    1        0.187385   1.000000
    2        0.195036   1.000000
    3        3.348115   1.000000
    4        3.349957   1.000000
    5       12.319630   0.000000
    6       19.144082   0.000000
    7       19.809730   0.000000
    8       19.933564   0.000000
 
 -0.3333333E+00 -0.4444444E+00  0.3333333E+00  0.1097394E-01
    1        0.922396   1.000000
    2        1.599196   1.000000
    3        3.386788   1.000000
    4        4.052546   1.000000
    5        8.525853   0.999975
    6       17.301759   0.000000
    7       18.668032   0.000000
    8       19.245424   0.000000
 
 -0.3333333E+00 -0.3333333E+00  0.3333333E+00  0.2743484E-02
    1        2.777937   1.000000
    2        2.874537   1.000000
    3        4.595417   1.000000
    4        4.595418   1.000000
    5        5.172658   1.000000
    6       15.149767   0.000000
    7       15.928513   0.000000
    8       15.928518   0.000000
 
 -0.4444444E+00  0.4444444E+00  0.4444444E+00  0.5486968E-02
    1       -0.151146   1.000000
    2        0.525937   1.000000
    3        2.353227   1.000000
    4        3.022152   1.000000
    5       16.243503   0.000000
    6       16.323037   0.000000
    7       20.100692   0.000000
    8       20.790843   0.000000
 
 -0.4444444E+00 -0.4444444E+00  0.4444444E+00  0.2743484E-02
    1        0.717212   1.000000
    2        0.727819   1.000000
    3        2.544902   1.000000
    4        2.544902   1.000000
    5       12.210688   0.000000
    6       20.218052   0.000000
    7       20.607517   0.000000
    8       20.964528   0.000000
