unknown system                          
   1.00000000000000     
    -2.450000    2.450000    1.274000
     2.450000   -2.450000    1.274000
     2.450000    2.450000   -1.274000
   Si
     2
Direct
  0.250000  0.750000  0.500000
  0.000000  0.000000  0.000000
 
   28   28   28
 -.55818236992E+01 -.40487342310E+01 -.53620512102E-01 0.48930409120E+01 0.91008739844E+01
 0.11437173618E+02 0.11699787784E+02 0.10499420519E+02 0.87887311002E+01 0.71666192591E+01
 0.58111583590E+01 0.47827965612E+01 0.40783614437E+01 0.36714967713E+01 0.35387889252E+01
 0.36714915805E+01 0.40783712447E+01 0.47828210877E+01 0.58111735405E+01 0.71666173097E+01
 0.87887292284E+01 0.10499426754E+02 0.11699791375E+02 0.11437171814E+02 0.91008758256E+01
 0.48930425629E+01 -.53631990919E-01 -.40487511405E+01 -.40487511405E+01 -.48395083343E+01
 -.26883261960E+01 0.15515903715E+01 0.62906833183E+01 0.99576706080E+01 0.11660175831E+02
 0.11430498180E+02 0.10005009012E+02 0.82958779805E+01 0.67419125391E+01 0.54780609596E+01
 0.45435785176E+01 0.39259827556E+01 0.35978883368E+01 0.35387997781E+01 0.37439268876E+01
 0.42256011347E+01 0.50089370419E+01 0.61174139865E+01 0.75433823206E+01 0.92060821186E+01
 0.10878529402E+02 0.11847650700E+02 0.11198865978E+02 0.84821333600E+01 0.41121087829E+01
 -.62559835380E+00 -.53631990919E-01 -.26883369954E+01 -.27482757333E+01 -.21773783778E+00
 0.38851545369E+01 0.80185425536E+01 0.10841591261E+02 0.11755636880E+02 0.11014580954E+02
 0.94236666270E+01 0.77563443238E+01 0.62945197093E+01 0.51374707909E+01 0.43046614984E+01
 0.37766976004E+01 0.35270049565E+01 0.35388287672E+01 0.38112626735E+01 0.43594117352E+01
 0.52087003238E+01 0.63781743677E+01 0.78489651547E+01 0.95232004143E+01 0.11131049548E+02
 0.11913337050E+02 0.11048858961E+02 0.82568551352E+01 0.41121087829E+01 0.48930425629E+01
 0.15515847835E+01 -.21773857569E+00 0.31702157682E+00 0.29222597165E+01 0.65218391104E+01
 0.97397987524E+01 0.11543220506E+02 0.11638715379E+02 0.10456993444E+02 0.87951858201E+01
 0.72006982488E+01 0.58495419992E+01 0.48078563622E+01 0.40785306454E+01 0.36381141013E+01
 0.34624434103E+01 0.35388677181E+01 0.38698596021E+01 0.44721945085E+01 0.53701351180E+01
 0.65771805598E+01 0.80641405112E+01 0.97212756802E+01 0.11256244062E+02 0.11930809250E+02
 0.11048858961E+02 0.84821333600E+01 0.91008758256E+01 0.62906811954E+01 0.38851564748E+01
 0.29222694715E+01 0.38304131459E+01 0.62033385984E+01 0.90161928904E+01 0.11148875995E+02
 0.11909206550E+02 0.11279559226E+02 0.97998741183E+01 0.81546320513E+01 0.66587870640E+01
 0.54299567958E+01 0.45054452782E+01 0.38759105429E+01 0.35167174492E+01 0.34072720698E+01
 0.35389069664E+01 0.39166139442E+01 0.45575584950E+01 0.54834881224E+01 0.67018642855E+01
 0.81752597999E+01 0.97886194519E+01 0.11256244062E+02 0.11913337050E+02 0.11198865978E+02
 0.11437171814E+02 0.99576661528E+01 0.80185367359E+01 0.65218476563E+01 0.62033556948E+01
 0.72346278045E+01 0.91279929685E+01 0.11001741927E+02 0.12040346893E+02 0.11879105706E+02
 0.10714221892E+02 0.91127698000E+01 0.75358978113E+01 0.61575886065E+01 0.50551841076E+01
 0.42433682730E+01 0.37052854120E+01 0.34176090220E+01 0.33639071893E+01 0.35389387448E+01
 0.39491266649E+01 0.46107305410E+01 0.55419201992E+01 0.67443228411E+01 0.81752597999E+01
 0.97212756802E+01 0.11131049548E+02 0.11847650700E+02 0.11699791375E+02 0.11660179076E+02
 0.10841581978E+02 0.97397907970E+01 0.90162049841E+01 0.91280119227E+01 0.10060786025E+02
 0.11332255619E+02 0.12263658174E+02 0.12347704410E+02 0.11495348615E+02 0.10036221047E+02
 0.84475425748E+01 0.69704641775E+01 0.57197432024E+01 0.47403734924E+01 0.40313816509E+01
 0.35728142002E+01 0.33444733303E+01 0.33340868496E+01 0.35389587361E+01 0.39657854178E+01
 0.46287826464E+01 0.55419201992E+01 0.67018642855E+01 0.80641405112E+01 0.95232004143E+01
 0.10878529402E+02 0.10499426754E+02 0.11430515027E+02 0.11755644558E+02 0.11543209870E+02
 0.11148868321E+02 0.11001753552E+02 0.11332270692E+02 0.12017663234E+02 0.12647887840E+02
 0.12768468644E+02 0.12144366635E+02 0.10885605970E+02 0.93574452791E+01 0.78427000739E+01
 0.64855476304E+01 0.53629070326E+01 0.44963989915E+01 0.38760999510E+01 0.34825630263E+01
 0.32997129678E+01 0.33189124129E+01 0.35389654728E+01 0.39657854178E+01 0.46107305410E+01
 0.54834881224E+01 0.65771805598E+01 0.78489651547E+01 0.92060821186E+01 0.87887292284E+01
 0.10005022584E+02 0.11014605195E+02 0.11638725886E+02 0.11909198633E+02 0.12040341828E+02
 0.12263665867E+02 0.12647895123E+02 0.13030768100E+02 0.13112384708E+02 0.12647710408E+02
 0.11610466378E+02 0.10220849891E+02 0.87409724027E+01 0.73330383324E+01 0.61030514699E+01
 0.50998282472E+01 0.43303793902E+01 0.37815530170E+01 0.34369035866E+01 0.32846529793E+01
 0.33189124129E+01 0.35389587361E+01 0.39491266649E+01 0.45575584950E+01 0.53701351180E+01
 0.63781743677E+01 0.75433823206E+01 0.71666173097E+01 0.82958759937E+01 0.94236818937E+01
 0.10457017399E+02 0.11279570433E+02 0.11879103478E+02 0.12347703310E+02 0.12768470727E+02
 0.13112383370E+02 0.13227044764E+02 0.12930484908E+02 0.12145147516E+02 0.10975978194E+02
 0.96184233208E+01 0.82330077017E+01 0.69474063650E+01 0.58392128250E+01 0.49388807541E+01
 0.42464433087E+01 0.37498261026E+01 0.34369035866E+01 0.32997129678E+01 0.33340868496E+01
 0.35389387448E+01 0.39166139442E+01 0.44721945085E+01 0.52087003238E+01 0.61174139865E+01
 0.58111735405E+01 0.67419115908E+01 0.77563422510E+01 0.87951971428E+01 0.97998911141E+01
 0.10714231642E+02 0.11495352692E+02 0.12144369426E+02 0.12647707437E+02 0.12930477121E+02
 0.12875953009E+02 0.12403047885E+02 0.11542461104E+02 0.10408773874E+02 0.91398122256E+01
 0.78716942119E+01 0.67072411964E+01 0.57046705847E+01 0.48847345008E+01 0.42464433087E+01
 0.37815530170E+01 0.34825630263E+01 0.33444733303E+01 0.33639071893E+01 0.35389069664E+01
 0.38698596021E+01 0.43594117352E+01 0.50089370419E+01 0.47828210877E+01 0.54780771093E+01
 0.62945208927E+01 0.72006962245E+01 0.81546360175E+01 0.91127763838E+01 0.10036227544E+02
 0.10885614359E+02 0.11610471712E+02 0.12145141769E+02 0.12403037505E+02 0.12307148252E+02
 0.11835045350E+02 0.11028655038E+02 0.99861791756E+01 0.88324605838E+01 0.76840500599E+01
 0.66257073201E+01 0.57046705847E+01 0.49388807541E+01 0.43303793902E+01 0.38760999510E+01
 0.35728142002E+01 0.34176090220E+01 0.34072720698E+01 0.35388677181E+01 0.38112626735E+01
 0.42256011347E+01 0.40783712447E+01 0.45435964024E+01 0.51374841239E+01 0.58495455391E+01
 0.66587854096E+01 0.75358944634E+01 0.84475392636E+01 0.93574473334E+01 0.10220858890E+02
 0.10975984131E+02 0.11542455366E+02 0.11835036000E+02 0.11790325140E+02 0.11393050072E+02
 0.10686535972E+02 0.97610427725E+01 0.87265615796E+01 0.76840500599E+01 0.67072411964E+01
 0.58392128250E+01 0.50998282472E+01 0.44963989915E+01 0.40313816509E+01 0.37052854120E+01
 0.35167174492E+01 0.34624434103E+01 0.35388287672E+01 0.37439268876E+01 0.36714915805E+01
 0.39259821206E+01 0.43046677966E+01 0.48078644281E+01 0.54299617526E+01 0.61575878265E+01
 0.69704567097E+01 0.78426904408E+01 0.87409695539E+01 0.96184291946E+01 0.10408778766E+02
 0.11028651256E+02 0.11393043534E+02 0.11439933405E+02 0.11152447148E+02 0.10566699483E+02
 0.97610427725E+01 0.88324605838E+01 0.78716942119E+01 0.69474063650E+01 0.61030514699E+01
 0.53629070326E+01 0.47403734924E+01 0.42433682730E+01 0.38759105429E+01 0.36381141013E+01
 0.35270049565E+01 0.35387997781E+01 0.35387889252E+01 0.35978787991E+01 0.37766865138E+01
 0.40785256004E+01 0.45054473033E+01 0.50551886113E+01 0.57197438512E+01 0.64855407115E+01
 0.73330269655E+01 0.82330002667E+01 0.91398129111E+01 0.99861823550E+01 0.10686534436E+02
 0.11152442828E+02 0.11316230400E+02 0.11152447148E+02 0.10686535972E+02 0.99861791756E+01
 0.91398122256E+01 0.82330077017E+01 0.73330383324E+01 0.64855476304E+01 0.57197432024E+01
 0.50551841076E+01 0.45054452782E+01 0.40785306454E+01 0.37766976004E+01 0.35978883368E+01
 0.36714967713E+01 0.35387993766E+01 0.35269933122E+01 0.36380974801E+01 0.38758988678E+01
 0.42433648569E+01 0.47403754461E+01 0.53629095001E+01 0.61030489795E+01 0.69473966903E+01
 0.78716832377E+01 0.88324566067E+01 0.97610447185E+01 0.10566698909E+02 0.11152442828E+02
 0.11439933405E+02 0.11393050072E+02 0.11028655038E+02 0.10408773874E+02 0.96184233208E+01
 0.87409724027E+01 0.78427000739E+01 0.69704641775E+01 0.61575886065E+01 0.54299567958E+01
 0.48078563622E+01 0.43046614984E+01 0.39259827556E+01 0.40783614437E+01 0.37439273546E+01
 0.35388278122E+01 0.34624331925E+01 0.35167030300E+01 0.37052737359E+01 0.40313741388E+01
 0.44963969889E+01 0.50998325545E+01 0.58392160480E+01 0.67072341576E+01 0.76840371619E+01
 0.87265557478E+01 0.97610447185E+01 0.10686534436E+02 0.11393043534E+02 0.11790325140E+02
 0.11835045350E+02 0.11542461104E+02 0.10975978194E+02 0.10220849891E+02 0.93574452791E+01
 0.84475425748E+01 0.75358978113E+01 0.66587870640E+01 0.58495419992E+01 0.51374707909E+01
 0.45435785176E+01 0.47827965612E+01 0.42255857367E+01 0.38112596250E+01 0.35388659581E+01
 0.34072668429E+01 0.34176039540E+01 0.35728079242E+01 0.38760898300E+01 0.43303734191E+01
 0.49388864455E+01 0.57046777005E+01 0.66257014826E+01 0.76840371619E+01 0.88324566067E+01
 0.99861823550E+01 0.11028651256E+02 0.11835036000E+02 0.12307148252E+02 0.12403047885E+02
 0.12145147516E+02 0.11610466378E+02 0.10885605970E+02 0.10036221047E+02 0.91127698000E+01
 0.81546320513E+01 0.72006982488E+01 0.62945197093E+01 0.54780609596E+01 0.58111583590E+01
 0.50089144236E+01 0.43593981714E+01 0.38698549752E+01 0.35389041784E+01 0.33639091204E+01
 0.33444809860E+01 0.34825639900E+01 0.37815415430E+01 0.42464348694E+01 0.48847407085E+01
 0.57046777005E+01 0.67072341576E+01 0.78716832377E+01 0.91398129111E+01 0.10408778766E+02
 0.11542455366E+02 0.12403037505E+02 0.12875953009E+02 0.12930484908E+02 0.12647710408E+02
 0.12144366635E+02 0.11495348615E+02 0.10714221892E+02 0.97998741183E+01 0.87951858201E+01
 0.77563443238E+01 0.67419125391E+01 0.71666192591E+01 0.61174038657E+01 0.52086884712E+01
 0.44721895039E+01 0.39166094540E+01 0.35389348991E+01 0.33340957237E+01 0.32997313709E+01
 0.34369095176E+01 0.37498142230E+01 0.42464348694E+01 0.49388864455E+01 0.58392160480E+01
 0.69473966903E+01 0.82330002667E+01 0.96184291946E+01 0.10975984131E+02 0.12145141769E+02
 0.12930477121E+02 0.13227044764E+02 0.13112384708E+02 0.12768468644E+02 0.12347704410E+02
 0.11879105706E+02 0.11279559226E+02 0.10456993444E+02 0.94236666270E+01 0.82958779805E+01
 0.87887311002E+01 0.75433838327E+01 0.63781723237E+01 0.53701395652E+01 0.45575651545E+01
 0.39491231608E+01 0.35389540900E+01 0.33189255422E+01 0.32846755642E+01 0.34369095176E+01
 0.37815415430E+01 0.43303734191E+01 0.50998325545E+01 0.61030489795E+01 0.73330269655E+01
 0.87409695539E+01 0.10220858890E+02 0.11610471712E+02 0.12647707437E+02 0.13112383370E+02
 0.13030768100E+02 0.12647887840E+02 0.12263658174E+02 0.12040346893E+02 0.11909206550E+02
 0.11638715379E+02 0.11014580954E+02 0.10005009012E+02 0.10499420519E+02 0.92060838797E+01
 0.78489651559E+01 0.65771873399E+01 0.54835086461E+01 0.46107470227E+01 0.39657827377E+01
 0.35389605286E+01 0.33189255422E+01 0.32997313709E+01 0.34825639900E+01 0.38760898300E+01
 0.44963969889E+01 0.53629095001E+01 0.64855407115E+01 0.78426904408E+01 0.93574473334E+01
 0.10885614359E+02 0.12144369426E+02 0.12768470727E+02 0.12647895123E+02 0.12017663234E+02
 0.11332255619E+02 0.11001741927E+02 0.11148875995E+02 0.11543220506E+02 0.11755636880E+02
 0.11430498180E+02 0.11699787784E+02 0.10878533868E+02 0.95232020822E+01 0.80641387450E+01
 0.67018778829E+01 0.55419506312E+01 0.46288029416E+01 0.39657827377E+01 0.35389540900E+01
 0.33340957237E+01 0.33444809860E+01 0.35728079242E+01 0.40313741388E+01 0.47403754461E+01
 0.57197438512E+01 0.69704567097E+01 0.84475392636E+01 0.10036227544E+02 0.11495352692E+02
 0.12347703310E+02 0.12263665867E+02 0.11332270692E+02 0.10060786025E+02 0.91279929685E+01
 0.90161928904E+01 0.97397987524E+01 0.10841591261E+02 0.11660175831E+02 0.11437173618E+02
 0.11847662094E+02 0.11131064386E+02 0.97212772868E+01 0.81752568793E+01 0.67443390000E+01
 0.55419506312E+01 0.46107470227E+01 0.39491231608E+01 0.35389348991E+01 0.33639091204E+01
 0.34176039540E+01 0.37052737359E+01 0.42433648569E+01 0.50551886113E+01 0.61575878265E+01
 0.75358944634E+01 0.91127763838E+01 0.10714231642E+02 0.11879103478E+02 0.12040341828E+02
 0.11001753552E+02 0.91280119227E+01 0.72346278045E+01 0.62033385984E+01 0.65218391104E+01
 0.80185425536E+01 0.99576706080E+01 0.91008739844E+01 0.11198872184E+02 0.11913360161E+02
 0.11256265235E+02 0.97886210375E+01 0.81752568793E+01 0.67018778829E+01 0.54835086461E+01
 0.45575651545E+01 0.39166094540E+01 0.35389041784E+01 0.34072668429E+01 0.35167030300E+01
 0.38758988678E+01 0.45054473033E+01 0.54299617526E+01 0.66587854096E+01 0.81546360175E+01
 0.97998911141E+01 0.11279570433E+02 0.11909198633E+02 0.11148868321E+02 0.90162049841E+01
 0.62033556948E+01 0.38304131459E+01 0.29222597165E+01 0.38851545369E+01 0.62906833183E+01
 0.48930409120E+01 0.84821263263E+01 0.11048867733E+02 0.11930836780E+02 0.11256265235E+02
 0.97212772868E+01 0.80641387450E+01 0.65771873399E+01 0.53701395652E+01 0.44721895039E+01
 0.38698549752E+01 0.35388659581E+01 0.34624331925E+01 0.36380974801E+01 0.40785256004E+01
 0.48078644281E+01 0.58495455391E+01 0.72006962245E+01 0.87951971428E+01 0.10457017399E+02
 0.11638725886E+02 0.11543209870E+02 0.97397907970E+01 0.65218476563E+01 0.29222694715E+01
 0.31702157682E+00 -.21773783778E+00 0.15515903715E+01 -.53620512102E-01 0.41121047800E+01
 0.82568461046E+01 0.11048867733E+02 0.11913360161E+02 0.11131064386E+02 0.95232020822E+01
 0.78489651559E+01 0.63781723237E+01 0.52086884712E+01 0.43593981714E+01 0.38112596250E+01
 0.35388278122E+01 0.35269933122E+01 0.37766865138E+01 0.43046677966E+01 0.51374841239E+01
 0.62945208927E+01 0.77563422510E+01 0.94236818937E+01 0.11014605195E+02 0.11755644558E+02
 0.10841581978E+02 0.80185367359E+01 0.38851564748E+01 -.21773857569E+00 -.27482757333E+01
 -.26883261960E+01 -.40487342310E+01 -.62558465383E+00 0.41121047800E+01 0.84821263263E+01
 0.11198872184E+02 0.11847662094E+02 0.10878533868E+02 0.92060838797E+01 0.75433838327E+01
 0.61174038657E+01 0.50089144236E+01 0.42255857367E+01 0.37439273546E+01 0.35387993766E+01
 0.35978787991E+01 0.39259821206E+01 0.45435964024E+01 0.54780771093E+01 0.67419115908E+01
 0.82958759937E+01 0.10005022584E+02 0.11430515027E+02 0.11660179076E+02 0.99576661528E+01
 0.62906811954E+01 0.15515847835E+01 -.26883369954E+01 -.48395083343E+01 -.40486707495E+01
 -.29380559077E+01 0.55396648401E+00 0.50786235137E+01 0.90349153372E+01 0.11286668285E+02
 0.11564578925E+02 0.10400250053E+02 0.87001478937E+01 0.70729646161E+01 0.57026620436E+01
 0.46532019605E+01 0.39234738407E+01 0.34870263060E+01 0.33188461606E+01 0.34079875888E+01
 0.37610600611E+01 0.44001520492E+01 0.53529716717E+01 0.66298630777E+01 0.81866700915E+01
 0.98810411117E+01 0.11241264880E+02 0.11369446995E+02 0.96013980345E+01 0.59954122777E+01
 0.15001336577E+01 -.23389165886E+01 -.29380683859E+01 -.40486803182E+01 -.23389255854E+01
 0.15001118755E+01 0.59953827433E+01 0.96013744731E+01 0.11369424495E+02 0.11241233665E+02
 0.98810145122E+01 0.81866653353E+01 0.66298669408E+01 0.53529598757E+01 0.44001306627E+01
 0.37610525407E+01 0.34079932709E+01 0.33188485139E+01 0.34870305667E+01 0.39234973279E+01
 0.46532356392E+01 0.57026803774E+01 0.70729678321E+01 0.87001586374E+01 0.10400273909E+02
 0.11564602415E+02 0.11286689280E+02 0.90349412646E+01 0.50786455034E+01 0.55396839500E+00
 0.65463067662E+00 -.22316124463E+01 -.26882850881E+01 -.55009963657E+00 0.33009410814E+01
 0.73814683814E+01 0.10314940124E+02 0.11407336488E+02 0.10815558856E+02 0.92921754801E+01
 0.76393343092E+01 0.61749473311E+01 0.50064110983E+01 0.41585938409E+01 0.36139052403E+01
 0.33451247882E+01 0.33340412869E+01 0.35785593684E+01 0.40933625091E+01 0.49050000769E+01
 0.60368804765E+01 0.74798203641E+01 0.91517018022E+01 0.10825785605E+02 0.11809794223E+02
 0.11254550581E+02 0.87824439072E+01 0.48386661536E+01 0.53400022817E+01 0.17895580103E+01
 -.34890200483E+00 -.21771142240E+00 0.20953689651E+01 0.56073369602E+01 0.89405441881E+01
 0.10977282929E+02 0.11309201803E+02 0.10280698673E+02 0.86692170396E+01 0.70863433159E+01
 0.57316531522E+01 0.46803272613E+01 0.39402015467E+01 0.34889271488E+01 0.33014203888E+01
 0.33638943127E+01 0.36783862441E+01 0.42622603405E+01 0.51420695605E+01 0.63366785570E+01
 0.78265070147E+01 0.95148394173E+01 0.11143243793E+02 0.12001052567E+02 0.11339391810E+02
 0.89316045777E+01 0.94650438259E+01 0.64868199256E+01 0.37442706344E+01 0.23665430484E+01
 0.29222699934E+01 0.51269215993E+01 0.79981836931E+01 0.10362617030E+02 0.11413711311E+02
 0.11020021782E+02 0.96593329258E+01 0.80440670497E+01 0.65545118986E+01 0.53211328393E+01
 0.43897333541E+01 0.37547307870E+01 0.33917159780E+01 0.32790156640E+01 0.34073013267E+01
 0.37819396837E+01 0.44216198648E+01 0.53512807774E+01 0.65841465217E+01 0.80912453102E+01
 0.97664051221E+01 0.11341758232E+02 0.12146906883E+02 0.11554576159E+02 0.11853969732E+02
 0.10263984985E+02 0.80470720688E+01 0.61547775117E+01 0.54386860864E+01 0.62033323878E+01
 0.80458008756E+01 0.10079015645E+02 0.11399069140E+02 0.11519439511E+02 0.10541293877E+02
 0.90051541523E+01 0.74454575675E+01 0.60679923915E+01 0.49612419858E+01 0.41467195846E+01
 0.36097262696E+01 0.33263206973E+01 0.32790223938E+01 0.34625154073E+01 0.38843553009E+01
 0.45630459632E+01 0.55204267606E+01 0.67635578035E+01 0.82560675561E+01 0.98883689583E+01
 0.11409289669E+02 0.12232218610E+02 0.12221105448E+02 0.12145009497E+02 0.11140349461E+02
 0.97111389668E+01 0.85948602322E+01 0.83687620030E+01 0.91279724712E+01 0.10434547935E+02
 0.11567722398E+02 0.11917121790E+02 0.11284164272E+02 0.99335897636E+01 0.83715759388E+01
 0.69005586383E+01 0.56472910622E+01 0.46659850377E+01 0.39601631607E+01 0.35103565291E+01
 0.32951370098E+01 0.33014368997E+01 0.35271089279E+01 0.39805754560E+01 0.46786841850E+01
 0.56390263492E+01 0.68626491645E+01 0.83085286547E+01 0.98698196653E+01 0.11332456400E+02
 0.11101262943E+02 0.12069880772E+02 0.12317124515E+02 0.11887588842E+02 0.11168200817E+02
 0.10674211352E+02 0.10743783877E+02 0.11332226208E+02 0.12038555885E+02 0.12345832104E+02
 0.11920554200E+02 0.10789396539E+02 0.92979079356E+01 0.77922912549E+01 0.64336917716E+01
 0.53087359642E+01 0.44454302550E+01 0.38358240353E+01 0.34595217419E+01 0.32989549085E+01
 0.33451415489E+01 0.35980031917E+01 0.40655164796E+01 0.47616557171E+01 0.56991421888E+01
 0.68738552519E+01 0.82432774727E+01 0.97087953496E+01 0.94134487959E+01 0.10716911814E+02
 0.11745401242E+02 0.12276425295E+02 0.12335277965E+02 0.12179140122E+02 0.12121413568E+02
 0.12316197728E+02 0.12647856831E+02 0.12801276586E+02 0.12465252884E+02 0.11534239469E+02
 0.10181302406E+02 0.87085170463E+01 0.72986310517E+01 0.60653516146E+01 0.50644116344E+01
 0.43060342467E+01 0.37767350863E+01 0.34581465740E+01 0.33371220481E+01 0.34079987189E+01
 0.36715963660E+01 0.41343463638E+01 0.48065889212E+01 0.56962079136E+01 0.67953585200E+01
 0.80631776432E+01 0.77795896747E+01 0.90020125661E+01 0.10199257070E+02 0.11242226147E+02
 0.11975801178E+02 0.12391969917E+02 0.12626820582E+02 0.12831535639E+02 0.13037037816E+02
 0.13112358734E+02 0.12849156891E+02 0.12113674507E+02 0.10960368188E+02 0.96002931140E+01
 0.82091873467E+01 0.69185438126E+01 0.58116352887E+01 0.49224583731E+01 0.42512244843E+01
 0.37837409515E+01 0.35055459741E+01 0.34077567332E+01 0.34870113947E+01 0.37439883061E+01
 0.41828701204E+01 0.48102015011E+01 0.56297270530E+01 0.66316947525E+01 0.63936439743E+01
 0.74115312777E+01 0.85012858589E+01 0.95874084174E+01 0.10592371306E+02 0.11431340406E+02
 0.12065040016E+02 0.12532227374E+02 0.12869503513E+02 0.13039269347E+02 0.12930467482E+02
 0.12436321761E+02 0.11552446648E+02 0.10398649199E+02 0.91154812395E+01 0.78388603561E+01
 0.66747360341E+01 0.56840054328E+01 0.48875477474E+01 0.42820333905E+01 0.38560048071E+01
 0.35997348168E+01 0.35079339150E+01 0.35785080326E+01 0.38112683306E+01 0.42079631807E+01
 0.47718092575E+01 0.55036356415E+01 0.53261370570E+01 0.60972660796E+01 0.69837145293E+01
 0.79438089746E+01 0.89223656425E+01 0.98631957881E+01 0.10720533237E+02 0.11453591518E+02
 0.12035381688E+02 0.12433261251E+02 0.12581613165E+02 0.12403038700E+02 0.11867201483E+02
 0.11017438717E+02 0.99469684751E+01 0.87783166737E+01 0.76285350643E+01 0.65833190058E+01
 0.56892193983E+01 0.49613139815E+01 0.43975642334E+01 0.39913072496E+01 0.37375683858E+01
 0.36337805174E+01 0.36783086380E+01 0.38698107589E+01 0.42079520376E+01 0.46935996847E+01
 0.45805410999E+01 0.51089361154E+01 0.57621747958E+01 0.65238008169E+01 0.73643142780E+01
 0.82444568441E+01 0.91225977799E+01 0.99600223792E+01 0.10718234206E+02 0.11349529726E+02
 0.11790727539E+02 0.11971001108E+02 0.11835041613E+02 0.11369680870E+02 0.10617230171E+02
 0.96665818827E+01 0.86269702377E+01 0.75985093364E+01 0.66528520986E+01 0.58292518432E+01
 0.51425390200E+01 0.45951043628E+01 0.41860127000E+01 0.39146519044E+01 0.37804541345E+01
 0.37818477217E+01 0.39165228356E+01 0.41828375983E+01 0.41342952816E+01 0.44398946805E+01
 0.48659765259E+01 0.54093807349E+01 0.60594572875E+01 0.67962466747E+01 0.75924170316E+01
 0.84169825928E+01 0.92362592895E+01 0.10009264648E+02 0.10680820189E+02 0.11180773376E+02
 0.11436006164E+02 0.11393048754E+02 0.11040066006E+02 0.10415467435E+02 0.95978242523E+01
 0.86824584092E+01 0.77565788028E+01 0.68836826029E+01 0.61010810378E+01 0.54269525765E+01
 0.48697918254E+01 0.44346768741E+01 0.41250396381E+01 0.39420366086E+01 0.38842635618E+01
 0.39490109263E+01 0.39656628083E+01 0.40654517029E+01 0.42804187085E+01 0.46119434949E+01
 0.50591652724E+01 0.56158331060E+01 0.62690553160E+01 0.70004063766E+01 0.77872562023E+01
 0.86009709323E+01 0.94010680264E+01 0.10129470694E+02 0.10712111474E+02 0.11072286338E+02
 0.11152446380E+02 0.10934295400E+02 0.10446533031E+02 0.97559430754E+01 0.89465128971E+01
 0.80971135705E+01 0.72675242474E+01 0.64962727383E+01 0.58066190251E+01 0.52138811477E+01
 0.47293985704E+01 0.43608407367E+01 0.41114347826E+01 0.39804974282E+01 0.40654616025E+01
 0.39656711346E+01 0.39805038263E+01 0.41114485697E+01 0.43608607214E+01 0.47294165097E+01
 0.52138994487E+01 0.58066428696E+01 0.64962915685E+01 0.72675251822E+01 0.80971066547E+01
 0.89465179612E+01 0.97559577844E+01 0.10446539607E+02 0.10934292320E+02 0.11152445757E+02
 0.11072285523E+02 0.10712096871E+02 0.10129447168E+02 0.94010555004E+01 0.86009718128E+01
 0.77872527052E+01 0.70003903343E+01 0.62690358372E+01 0.56158153092E+01 0.50591460019E+01
 0.46119278948E+01 0.42804174624E+01 0.44399052956E+01 0.41343186224E+01 0.39490333439E+01
 0.38842851005E+01 0.39420619471E+01 0.41250614211E+01 0.44346888761E+01 0.48698049434E+01
 0.54269757506E+01 0.61011003419E+01 0.68836823715E+01 0.77565693095E+01 0.86824582927E+01
 0.95978295401E+01 0.10415463538E+02 0.11040056715E+02 0.11393045912E+02 0.11436002385E+02
 0.11180753400E+02 0.10680790527E+02 0.10009245117E+02 0.92362522382E+01 0.84169749139E+01
 0.75924051171E+01 0.67962361333E+01 0.60594460734E+01 0.54093655148E+01 0.48659680705E+01
 0.51089374139E+01 0.45805617020E+01 0.41828683423E+01 0.39165525246E+01 0.37818794972E+01
 0.37804879018E+01 0.39146729613E+01 0.41860161992E+01 0.45951090403E+01 0.51425573192E+01
 0.58292682401E+01 0.66528507385E+01 0.75985005369E+01 0.86269682124E+01 0.96665785879E+01
 0.10617214557E+02 0.11369663211E+02 0.11835034263E+02 0.11970993542E+02 0.11790704648E+02
 0.11349498788E+02 0.10718211482E+02 0.99600082949E+01 0.91225855974E+01 0.82444499628E+01
 0.73643154408E+01 0.65238003197E+01 0.57621681515E+01 0.60972702458E+01 0.53261497395E+01
 0.46936274426E+01 0.42079826527E+01 0.38698389419E+01 0.36783432987E+01 0.36338173708E+01
 0.37375859902E+01 0.39913022108E+01 0.43975605761E+01 0.49613248875E+01 0.56892290346E+01
 0.65833150338E+01 0.76285285955E+01 0.87783150330E+01 0.99469581212E+01 0.11017412438E+02
 0.11867175367E+02 0.12403024848E+02 0.12581600259E+02 0.12433237960E+02 0.12035355815E+02
 0.11453571892E+02 0.10720515968E+02 0.98631811317E+01 0.89223647190E+01 0.79438218410E+01
 0.69837252740E+01 0.74115498590E+01 0.63936581066E+01 0.55036593088E+01 0.47718404487E+01
 0.42079866852E+01 0.38112871426E+01 0.35785377079E+01 0.35079669284E+01 0.35997460070E+01
 0.38559932858E+01 0.42820243070E+01 0.48875506343E+01 0.56840052042E+01 0.66747273845E+01
 0.78388557125E+01 0.91154800576E+01 0.10398633502E+02 0.11552413669E+02 0.12436290462E+02
 0.12930447241E+02 0.13039250676E+02 0.12869482946E+02 0.12532212971E+02 0.12065030133E+02
 0.11431325595E+02 0.10592358432E+02 0.95874143888E+01 0.85013074743E+01 0.90020377322E+01
 0.77796099135E+01 0.66317150770E+01 0.56297585338E+01 0.48102316075E+01 0.41828818314E+01
 0.37439931912E+01 0.34870296987E+01 0.34077787968E+01 0.35055479320E+01 0.37837259639E+01
 0.42512140110E+01 0.49224541877E+01 0.58116242167E+01 0.69185293679E+01 0.82091825109E+01
 0.96002903732E+01 0.10960349041E+02 0.12113641387E+02 0.12849126968E+02 0.13112335424E+02
 0.13037015718E+02 0.12831521739E+02 0.12626822235E+02 0.12391974168E+02 0.11975794198E+02
 0.11242220160E+02 0.10199270373E+02 0.10716931663E+02 0.94134715219E+01 0.80631927781E+01
 0.67953793788E+01 0.56962413274E+01 0.48066130098E+01 0.41343448256E+01 0.36715871331E+01
 0.34080022071E+01 0.33371277231E+01 0.34581374695E+01 0.37767194139E+01 0.43060256175E+01
 0.50644022644E+01 0.60653317075E+01 0.72986119706E+01 0.87085099436E+01 0.10181295430E+02
 0.11534219294E+02 0.12465227471E+02 0.12801256288E+02 0.12647836607E+02 0.12316177562E+02
 0.12121410443E+02 0.12179158891E+02 0.12335296496E+02 0.12276429094E+02 0.11745405992E+02
 0.12069896959E+02 0.11101286829E+02 0.97088105504E+01 0.82432825283E+01 0.68738707589E+01
 0.56991700735E+01 0.47616691926E+01 0.40655033027E+01 0.35979834373E+01 0.33451303006E+01
 0.32989422260E+01 0.34595017918E+01 0.38358095057E+01 0.44454246117E+01 0.53087235851E+01
 0.64336678692E+01 0.77922713519E+01 0.92978979975E+01 0.10789384030E+02 0.11920536308E+02
 0.12345821491E+02 0.12038552400E+02 0.11332216071E+02 0.10743772504E+02 0.10674221870E+02
 0.11168233422E+02 0.11887617062E+02 0.12317138293E+02 0.12145028779E+02 0.12221129762E+02
 0.11332480169E+02 0.98698245501E+01 0.83085221298E+01 0.68626549468E+01 0.56390416037E+01
 0.46786838074E+01 0.39805543211E+01 0.35270842815E+01 0.33014141728E+01 0.32951085067E+01
 0.35103287563E+01 0.39601506597E+01 0.46659813218E+01 0.56472776783E+01 0.69005371759E+01
 0.83715608468E+01 0.99335788247E+01 0.11284147828E+02 0.11917110182E+02 0.11567730677E+02
 0.10434564508E+02 0.91279774349E+01 0.83687650541E+01 0.85948844628E+01 0.97111783311E+01
 0.11140379363E+02 0.10264007767E+02 0.11853987829E+02 0.12232244398E+02 0.11409308327E+02
 0.98883636493E+01 0.82560517864E+01 0.67635522437E+01 0.55204248343E+01 0.45630309261E+01
 0.38843306737E+01 0.34624914166E+01 0.32789935257E+01 0.33262831555E+01 0.36096964366E+01
 0.41467096147E+01 0.49612379779E+01 0.60679797231E+01 0.74454447018E+01 0.90051494745E+01
 0.10541285780E+02 0.11519423655E+02 0.11399067565E+02 0.10079042292E+02 0.80458350287E+01
 0.62033530388E+01 0.54387052640E+01 0.61548118416E+01 0.80471091410E+01 0.64868461849E+01
 0.94650528696E+01 0.11554586534E+02 0.12146926198E+02 0.11341767251E+02 0.97663923168E+01
 0.80912254364E+01 0.65841311244E+01 0.53512613338E+01 0.44215925385E+01 0.37819157723E+01
 0.34072818486E+01 0.32789865914E+01 0.33916787550E+01 0.37547062613E+01 0.43897267261E+01
 0.53211268067E+01 0.65545015179E+01 0.80440667373E+01 0.96593420010E+01 0.11020020769E+02
 0.11413701909E+02 0.10362627590E+02 0.79982232713E+01 0.51269653321E+01 0.29223016229E+01
 0.23665746987E+01 0.37443080443E+01 0.17895896214E+01 0.53400121305E+01 0.89315976977E+01
 0.11339390445E+02 0.12001058845E+02 0.11143240531E+02 0.95148233172E+01 0.78264889993E+01
 0.63366573021E+01 0.51420369297E+01 0.42622262978E+01 0.36783664836E+01 0.33638809303E+01
 0.33013962588E+01 0.34888996079E+01 0.39401893410E+01 0.46803253947E+01 0.57316451762E+01
 0.70863367502E+01 0.86692297555E+01 0.10280720922E+02 0.11309210437E+02 0.10977284704E+02
 0.89405661104E+01 0.56073803835E+01 0.20954109802E+01 -.21767767737E+00 -.34886634693E+00
 -.22315835794E+01 0.65464816431E+00 0.48386584037E+01 0.87824240352E+01 0.11254537440E+02
 0.11809784632E+02 0.10825770337E+02 0.91516867349E+01 0.74798088378E+01 0.60368584209E+01
 0.49049622298E+01 0.40933295878E+01 0.35785463797E+01 0.33340338217E+01 0.33451090921E+01
 0.36138941115E+01 0.41585983692E+01 0.50064156115E+01 0.61749396378E+01 0.76393329525E+01
 0.92921980539E+01 0.10815589470E+02 0.11407354115E+02 0.10314954379E+02 0.73814975426E+01
 0.33009780350E+01 -.55007044819E+00 -.26882594188E+01 -.53468896116E-01 0.65473917070E+00
 0.33507698924E+01 0.69441996382E+01 0.10075764028E+02 0.11752356012E+02 0.11726583471E+02
 0.10462721987E+02 0.87635920146E+01 0.71479513633E+01 0.57811510343E+01 0.47236001679E+01
 0.39743841162E+01 0.35080331094E+01 0.32997370990E+01 0.33371845931E+01 0.36238962419E+01
 0.41782234613E+01 0.50264077468E+01 0.61843325322E+01 0.76259491661E+01 0.92462421717E+01
 0.10751705798E+02 0.11409724511E+02 0.10549927141E+02 0.80684548791E+01 0.46349174985E+01
 0.15002132212E+01 0.55406858808E+00 -.62542097934E+00 0.55407085729E+00 0.35968824932E+01
 0.72713515135E+01 0.10221761297E+02 0.11582504309E+02 0.11274390641E+02 0.98805039308E+01
 0.82061474368E+01 0.66669375067E+01 0.53970016762E+01 0.44395750321E+01 0.37854350836E+01
 0.34078474888E+01 0.32846756914E+01 0.34078389968E+01 0.37854349625E+01 0.44395789778E+01
 0.53969871576E+01 0.66669077344E+01 0.82061328118E+01 0.98805141564E+01 0.11274402299E+02
 0.11582502195E+02 0.10221757101E+02 0.72713546493E+01 0.35968850153E+01 0.33507696893E+01
 0.65473879188E+00 -.53463700273E-01 0.15002149475E+01 0.46349108437E+01 0.80684549002E+01