 vasp.5.4.4.18Apr17-6-g9f103f2a35 (build Dec 09 2018 21:25:21) complex          
  
 executed on IFC18.0.1.163_CrayMP date 2019.03.19  13:05:41
 running on    8 total cores
 distrk:  each k-point on    8 cores,    1 groups
 distr:  one band on NCORES_PER_BAND=   1 cores,    8 groups


--------------------------------------------------------------------------------------------------------


 INCAR:
 POTCAR:   PAW_PBE Si 05Jan2001                   

 ----------------------------------------------------------------------------- 
|                                                                             |
|           W    W    AA    RRRRR   N    N  II  N    N   GGGG   !!!           |
|           W    W   A  A   R    R  NN   N  II  NN   N  G    G  !!!           |
|           W    W  A    A  R    R  N N  N  II  N N  N  G       !!!           |
|           W WW W  AAAAAA  RRRRR   N  N N  II  N  N N  G  GGG   !            |
|           WW  WW  A    A  R   R   N   NN  II  N   NN  G    G                |
|           W    W  A    A  R    R  N    N  II  N    N   GGGG   !!!           |
|                                                                             |
|      For optimal performance we recommend to set                            |
|        NCORE= 4 - approx SQRT( number of cores)                             |
|      NCORE specifies how many cores store one orbital (NPAR=cpu/NCORE).     |
|      This setting can  greatly improve the performance of VASP for DFT.     |
|      The default,   NCORE=1            might be grossly inefficient         |
|      on modern multi-core architectures or massively parallel machines.     |
|      Do your own testing !!!!                                               |
|      Unfortunately you need to use the default for GW and RPA calculations. |
|      (for HF NCORE is supported but not extensively tested yet)             |
|                                                                             |
 ----------------------------------------------------------------------------- 

 POTCAR:   PAW_PBE Si 05Jan2001                   
   VRHFIN =Si: s2p2                                                             
   LEXCH  = PE                                                                  
   EATOM  =   103.0669 eV,    7.5752 Ry                                         
                                                                                
   TITEL  = PAW_PBE Si 05Jan2001                                                
   LULTRA =        F    use ultrasoft PP ?                                      
   IUNSCR =        1    unscreen: 0-lin 1-nonlin 2-no                           
   RPACOR =    1.500    partial core radius                                     
   POMASS =   28.085; ZVAL   =    4.000    mass and valenz                      
   RCORE  =    1.900    outmost cutoff radius                                   
   RWIGS  =    2.480; RWIGS  =    1.312    wigner-seitz radius (au A)           
   ENMAX  =  245.345; ENMIN  =  184.009 eV                                      
   ICORE  =        2    local potential                                         
   LCOR   =        T    correct aug charges                                     
   LPAW   =        T    paw PP                                                  
   EAUG   =  322.069                                                            
   DEXC   =    -.007                                                            
   RMAX   =    2.944    core radius for proj-oper                               
   RAUG   =    1.300    factor for augmentation sphere                          
   RDEP   =    1.993    radius for radial grids                                 
   QCUT   =   -4.246; QGAM   =    8.493    optimization parameters              
                                                                                
   Description                                                                  
     l     E      TYP  RCUT    TYP  RCUT                                        
     0   .000     23  1.900                                                     
     0   .000     23  1.900                                                     
     1   .000     23  1.900                                                     
     1   .000     23  1.900                                                     
     2   .000      7  1.900                                                     
  local pseudopotential read in
  partial core-charges read in
  atomic valenz-charges read in
  non local Contribution for L=           0  read in
    real space projection operators read in
  non local Contribution for L=           0  read in
    real space projection operators read in
  non local Contribution for L=           1  read in
    real space projection operators read in
  non local Contribution for L=           1  read in
    real space projection operators read in
    PAW grid and wavefunctions read in
 
   number of l-projection  operators is LMAX  =           4
   number of lm-projection operators is LMMAX =           8
 
 PAW_PBE Si 05Jan2001                   :
 energy of atom  1       EATOM= -103.0669
 kinetic energy error for atom=    0.0107 (will be added to EATOM!!)
 
 
 POSCAR: Si2                                     
  positions in direct lattice
  No initial velocities read in
 exchange correlation table for  LEXCH =        8
   RHO(1)=    0.500       N(1)  =     2000
   RHO(2)=  100.500       N(2)  =     4000
 


--------------------------------------------------------------------------------------------------------


 ion  position               nearest neighbor table
   1  0.250  0.750  0.500-   2 2.53   2 2.53   2 2.53   2 2.53   2 3.11   2 3.11   2 3.11   2 3.11

   2  0.000  0.000  0.000-   1 2.53   1 2.53   1 2.53   1 2.53   1 3.11   1 3.11   1 3.11   1 3.11

 
  LATTYP: Found a body centered tetragonal cell.
 ALAT       =     4.9000000000
 C/A-ratio  =     0.5200000000
  
  Lattice vectors:
  
 A1 = (  -2.4500000000,   2.4500000000,   1.2740000000)
 A2 = (   2.4500000000,  -2.4500000000,   1.2740000000)
 A3 = (   2.4500000000,   2.4500000000,  -1.2740000000)


Analysis of symmetry for initial positions (statically):
=====================================================================
 Subroutine PRICEL returns:
 Original cell was already a primitive cell.
 

 Routine SETGRP: Setting up the symmetry group for a 
 body centered tetragonal supercell.


 Subroutine GETGRP returns: Found 16 space group operations
 (whereof  8 operations were pure point group operations)
 out of a pool of 16 trial point group operations.


The static configuration has the point symmetry D_2d.
 The point group associated with its full space group is D_4h.


Analysis of symmetry for dynamics (positions and initial velocities):
=====================================================================
 Subroutine PRICEL returns:
 Original cell was already a primitive cell.
 

 Routine SETGRP: Setting up the symmetry group for a 
 body centered tetragonal supercell.


 Subroutine GETGRP returns: Found 16 space group operations
 (whereof  8 operations were pure point group operations)
 out of a pool of 16 trial point group operations.


The dynamic configuration has the point symmetry D_2d.
 The point group associated with its full space group is D_4h.


 Subroutine INISYM returns: Found 16 space group operations
 (whereof  8 operations are pure point group operations),
 and found     1 'primitive' translations

 
 
 KPOINTS: Automatic kpoint scheme                 

Automatic generation of k-mesh.
Space group operators:
 irot       det(A)        alpha          n_x          n_y          n_z        tau_x        tau_y        tau_z
    1     1.000000     0.000000     1.000000     0.000000     0.000000     0.000000     0.000000     0.000000
    2    -1.000000    90.000000    -0.000000    -0.000000    -1.000000     0.000000     0.000000     0.000000
    3     1.000000   180.000000    -0.000000    -0.000000    -1.000000     0.000000     0.000000     0.000000
    4    -1.000000    90.000000    -0.000000     0.000000     1.000000     0.000000     0.000000     0.000000
    5    -1.000000   180.000000     0.000000    -1.000000     0.000000     0.000000     0.000000     0.000000
    6     1.000000   180.000000     0.707107     0.707107    -0.000000     0.000000     0.000000     0.000000
    7    -1.000000   180.000000     1.000000     0.000000     0.000000     0.000000     0.000000     0.000000
    8     1.000000   180.000000     0.707107    -0.707107     0.000000     0.000000     0.000000     0.000000
    9    -1.000000     0.000000     1.000000     0.000000     0.000000     0.250000     0.750000     0.500000
   10     1.000000    90.000000    -0.000000    -0.000000    -1.000000     0.250000     0.750000     0.500000
   11    -1.000000   180.000000    -0.000000    -0.000000    -1.000000     0.250000     0.750000     0.500000
   12     1.000000    90.000000    -0.000000     0.000000     1.000000     0.250000     0.750000     0.500000
   13     1.000000   180.000000     0.000000    -1.000000     0.000000     0.250000     0.750000     0.500000
   14    -1.000000   180.000000     0.707107     0.707107    -0.000000     0.250000     0.750000     0.500000
   15     1.000000   180.000000     1.000000     0.000000     0.000000     0.250000     0.750000     0.500000
   16    -1.000000   180.000000     0.707107    -0.707107     0.000000     0.250000     0.750000     0.500000
 
 Subroutine IBZKPT returns following result:
 ===========================================
 
 Found     99 irreducible k-points:
 
 Following reciprocal coordinates:
            Coordinates               Weight
  0.050000  0.050000  0.050000    128.000000
  0.150000  0.050000  0.050000    256.000000
  0.250000  0.050000  0.050000    256.000000
  0.350000  0.050000  0.050000    256.000000
  0.450000  0.050000  0.050000    128.000000
 -0.050000  0.050000  0.050000     64.000000
  0.150000  0.150000  0.050000    128.000000
  0.250000  0.150000  0.050000    256.000000
  0.350000  0.150000  0.050000    256.000000
  0.450000  0.150000  0.050000    256.000000
 -0.450000  0.150000  0.050000    256.000000
 -0.350000  0.150000  0.050000    256.000000
 -0.250000  0.150000  0.050000    128.000000
 -0.150000  0.150000  0.050000    128.000000
 -0.050000  0.150000  0.050000    128.000000
  0.250000  0.250000  0.050000    128.000000
  0.350000  0.250000  0.050000    256.000000
  0.450000  0.250000  0.050000    256.000000
 -0.450000  0.250000  0.050000    256.000000
 -0.350000  0.250000  0.050000    128.000000
 -0.250000  0.250000  0.050000    128.000000
 -0.150000  0.250000  0.050000    256.000000
 -0.050000  0.250000  0.050000    128.000000
  0.350000  0.350000  0.050000    128.000000
  0.450000  0.350000  0.050000    256.000000
 -0.450000  0.350000  0.050000    128.000000
 -0.350000  0.350000  0.050000    128.000000
 -0.250000  0.350000  0.050000    256.000000
 -0.150000  0.350000  0.050000    256.000000
 -0.050000  0.350000  0.050000    128.000000
  0.450000  0.450000  0.050000     64.000000
 -0.450000  0.450000  0.050000    128.000000
 -0.350000  0.450000  0.050000    256.000000
 -0.250000  0.450000  0.050000    256.000000
 -0.150000  0.450000  0.050000    256.000000
 -0.050000  0.450000  0.050000    128.000000
 -0.450000 -0.450000  0.050000    128.000000
 -0.350000 -0.450000  0.050000    256.000000
 -0.250000 -0.450000  0.050000    256.000000
 -0.150000 -0.450000  0.050000    256.000000
 -0.050000 -0.450000  0.050000    128.000000
 -0.350000 -0.350000  0.050000    128.000000
 -0.250000 -0.350000  0.050000    256.000000
 -0.150000 -0.350000  0.050000    256.000000
 -0.050000 -0.350000  0.050000    128.000000
 -0.250000 -0.250000  0.050000    128.000000
 -0.150000 -0.250000  0.050000    256.000000
 -0.050000 -0.250000  0.050000    128.000000
 -0.150000 -0.150000  0.050000    128.000000
 -0.050000 -0.150000  0.050000    128.000000
 -0.050000 -0.050000  0.050000     32.000000
  0.150000  0.150000  0.150000    128.000000
  0.250000  0.150000  0.150000    256.000000
  0.350000  0.150000  0.150000    128.000000
 -0.150000  0.150000  0.150000     64.000000
  0.250000  0.250000  0.150000    128.000000
  0.350000  0.250000  0.150000    256.000000
  0.450000  0.250000  0.150000    128.000000
 -0.250000  0.250000  0.150000    128.000000
 -0.150000  0.250000  0.150000    128.000000
  0.350000  0.350000  0.150000     64.000000
 -0.350000  0.350000  0.150000    128.000000
 -0.250000  0.350000  0.150000    256.000000
 -0.150000  0.350000  0.150000    128.000000
 -0.450000  0.450000  0.150000    128.000000
 -0.350000  0.450000  0.150000    256.000000
 -0.250000  0.450000  0.150000    256.000000
 -0.150000  0.450000  0.150000    128.000000
 -0.450000 -0.450000  0.150000    128.000000
 -0.350000 -0.450000  0.150000    256.000000
 -0.250000 -0.450000  0.150000    256.000000
 -0.150000 -0.450000  0.150000    128.000000
 -0.350000 -0.350000  0.150000    128.000000
 -0.250000 -0.350000  0.150000    256.000000
 -0.150000 -0.350000  0.150000    128.000000
 -0.250000 -0.250000  0.150000    128.000000
 -0.150000 -0.250000  0.150000    128.000000
 -0.150000 -0.150000  0.150000     32.000000
  0.250000  0.250000  0.250000     32.000000
 -0.250000  0.250000  0.250000     64.000000
 -0.350000  0.350000  0.250000    128.000000
 -0.250000  0.350000  0.250000    128.000000
 -0.450000  0.450000  0.250000    128.000000
 -0.350000  0.450000  0.250000    256.000000
 -0.250000  0.450000  0.250000    128.000000
 -0.450000 -0.450000  0.250000    128.000000
 -0.350000 -0.450000  0.250000    256.000000
 -0.250000 -0.450000  0.250000    128.000000
 -0.350000 -0.350000  0.250000    128.000000
 -0.250000 -0.350000  0.250000    128.000000
 -0.250000 -0.250000  0.250000     32.000000
 -0.350000  0.350000  0.350000     64.000000
 -0.450000  0.450000  0.350000    128.000000
 -0.350000  0.450000  0.350000    128.000000
 -0.450000 -0.450000  0.350000    128.000000
 -0.350000 -0.450000  0.350000    128.000000
 -0.350000 -0.350000  0.350000     32.000000
 -0.450000  0.450000  0.450000     64.000000
 -0.450000 -0.450000  0.450000     32.000000
 
 Following cartesian coordinates:
            Coordinates               Weight
  0.020408  0.020408  0.039246    128.000000
  0.020408  0.040816  0.078493    256.000000
  0.020408  0.061224  0.117739    256.000000
  0.020408  0.081633  0.156986    256.000000
  0.020408  0.102041  0.196232    128.000000
  0.020408  0.000000 -0.000000     64.000000
  0.040816  0.040816  0.117739    128.000000
  0.040816  0.061224  0.156986    256.000000
  0.040816  0.081633  0.196232    256.000000
  0.040816  0.102041  0.235479    256.000000
  0.040816 -0.081633 -0.117739    256.000000
  0.040816 -0.061224 -0.078493    256.000000
  0.040816 -0.040816 -0.039246    128.000000
  0.040816 -0.020408  0.000000    128.000000
  0.040816  0.000000  0.039246    128.000000
  0.061224  0.061224  0.196232    128.000000
  0.061224  0.081633  0.235479    256.000000
  0.061224  0.102041  0.274725    256.000000
  0.061224 -0.081633 -0.078493    256.000000
  0.061224 -0.061224 -0.039246    128.000000
  0.061224 -0.040816  0.000000    128.000000
  0.061224 -0.020408  0.039246    256.000000
  0.061224  0.000000  0.078493    128.000000
  0.081633  0.081633  0.274725    128.000000
  0.081633  0.102041  0.313972    256.000000
  0.081633 -0.081633 -0.039246    128.000000
  0.081633 -0.061224  0.000000    128.000000
  0.081633 -0.040816  0.039246    256.000000
  0.081633 -0.020408  0.078493    256.000000
  0.081633  0.000000  0.117739    128.000000
  0.102041  0.102041  0.353218     64.000000
  0.102041 -0.081633  0.000000    128.000000
  0.102041 -0.061224  0.039246    256.000000
  0.102041 -0.040816  0.078493    256.000000
  0.102041 -0.020408  0.117739    256.000000
  0.102041  0.000000  0.156986    128.000000
 -0.081633 -0.081633 -0.353218    128.000000
 -0.081633 -0.061224 -0.313972    256.000000
 -0.081633 -0.040816 -0.274725    256.000000
 -0.081633 -0.020408 -0.235479    256.000000
 -0.081633 -0.000000 -0.196232    128.000000
 -0.061224 -0.061224 -0.274725    128.000000
 -0.061224 -0.040816 -0.235479    256.000000
 -0.061224 -0.020408 -0.196232    256.000000
 -0.061224 -0.000000 -0.156986    128.000000
 -0.040816 -0.040816 -0.196232    128.000000
 -0.040816 -0.020408 -0.156986    256.000000
 -0.040816 -0.000000 -0.117739    128.000000
 -0.020408 -0.020408 -0.117739    128.000000
 -0.020408  0.000000 -0.078493    128.000000
 -0.000000  0.000000 -0.039246     32.000000
  0.061224  0.061224  0.117739    128.000000
  0.061224  0.081633  0.156986    256.000000
  0.061224  0.102041  0.196232    128.000000
  0.061224  0.000000  0.000000     64.000000
  0.081633  0.081633  0.196232    128.000000
  0.081633  0.102041  0.235479    256.000000
  0.081633  0.122449  0.274725    128.000000
  0.081633 -0.020408  0.000000    128.000000
  0.081633  0.000000  0.039246    128.000000
  0.102041  0.102041  0.274725     64.000000
  0.102041 -0.040816  0.000000    128.000000
  0.102041 -0.020408  0.039246    256.000000
  0.102041  0.000000  0.078493    128.000000
  0.122449 -0.061224 -0.000000    128.000000
  0.122449 -0.040816  0.039246    256.000000
  0.122449 -0.020408  0.078493    256.000000
  0.122449  0.000000  0.117739    128.000000
 -0.061224 -0.061224 -0.353218    128.000000
 -0.061224 -0.040816 -0.313972    256.000000
 -0.061224 -0.020408 -0.274725    256.000000
 -0.061224  0.000000 -0.235479    128.000000
 -0.040816 -0.040816 -0.274725    128.000000
 -0.040816 -0.020408 -0.235479    256.000000
 -0.040816  0.000000 -0.196232    128.000000
 -0.020408 -0.020408 -0.196232    128.000000
 -0.020408  0.000000 -0.156986    128.000000
  0.000000  0.000000 -0.117739     32.000000
  0.102041  0.102041  0.196232     32.000000
  0.102041  0.000000  0.000000     64.000000
  0.122449 -0.020408  0.000000    128.000000
  0.122449  0.000000  0.039246    128.000000
  0.142857 -0.040816 -0.000000    128.000000
  0.142857 -0.020408  0.039246    256.000000
  0.142857  0.000000  0.078493    128.000000
 -0.040816 -0.040816 -0.353218    128.000000
 -0.040816 -0.020408 -0.313972    256.000000
 -0.040816  0.000000 -0.274725    128.000000
 -0.020408 -0.020408 -0.274725    128.000000
 -0.020408  0.000000 -0.235479    128.000000
 -0.000000  0.000000 -0.196232     32.000000
  0.142857  0.000000  0.000000     64.000000
  0.163265 -0.020408  0.000000    128.000000
  0.163265  0.000000  0.039246    128.000000
 -0.020408 -0.020408 -0.353218    128.000000
 -0.020408  0.000000 -0.313972    128.000000
  0.000000  0.000000 -0.274725     32.000000
  0.183673  0.000000  0.000000     64.000000
 -0.000000 -0.000000 -0.353218     32.000000
 


--------------------------------------------------------------------------------------------------------




 Dimension of arrays:
   k-points           NKPTS =     99   k-points in BZ     NKDIM =     99   number of bands    NBANDS=      8
   number of dos      NEDOS =    301   number of ions     NIONS =      2
   non local maximal  LDIM  =      4   non local SUM 2l+1 LMDIM =      8
   total plane-waves  NPLWV =   2744
   max r-space proj   IRMAX =      1   max aug-charges    IRDMAX=   3198
   dimension x,y,z NGX =    14 NGY =   14 NGZ =   14
   dimension x,y,z NGXF=    28 NGYF=   28 NGZF=   28
   support grid    NGXF=    28 NGYF=   28 NGZF=   28
   ions per type =               2
   NGX,Y,Z   is equivalent  to a cutoff of   6.30,  6.30,  6.30 a.u.
   NGXF,Y,Z  is equivalent  to a cutoff of  12.61, 12.61, 12.61 a.u.

 SYSTEM =  unknown system                          
 POSCAR =  Si2                                     

 Startparameter for this run:
   NWRITE =      2    write-flag & timer
   PREC   = normal    normal or accurate (medium, high low for compatibility)
   ISTART =      1    job   : 0-new  1-cont  2-samecut
   ICHARG =      0    charge: 1-file 2-atom 10-const
   ISPIN  =      1    spin polarized calculation?
   LNONCOLLINEAR =      F non collinear calculations
   LSORBIT =      F    spin-orbit coupling
   INIWAV =      1    electr: 0-lowe 1-rand  2-diag
   LASPH  =      F    aspherical Exc in radial PAW
   METAGGA=      F    non-selfconsistent MetaGGA calc.

 Electronic Relaxation 1
   ENCUT  =  200.0 eV  14.70 Ry    3.83 a.u.   4.26  4.26  4.26*2*pi/ulx,y,z
   ENINI  =  200.0     initial cutoff
   ENAUG  =  322.1 eV  augmentation charge cutoff
   NELM   =     60;   NELMIN=  2; NELMDL=  0     # of ELM steps 
   EDIFF  = 0.4E-03   stopping-criterion for ELM
   LREAL  =      F    real-space projection
   NLSPLINE    = F    spline interpolate recip. space projectors
   LCOMPAT=      F    compatible to vasp.4.4
   GGA_COMPAT  = T    GGA compatible to vasp.4.4-vasp.4.6
   LMAXPAW     = -100 max onsite density
   LMAXMIX     =    2 max onsite mixed and CHGCAR
   VOSKOWN=      0    Vosko Wilk Nusair interpolation
   ROPT   =    0.00000
 Ionic relaxation
   EDIFFG = -.1E-01   stopping-criterion for IOM
   NSW    =     15    number of steps for IOM
   NBLOCK =      1;   KBLOCK =     15    inner block; outer block 
   IBRION =      2    ionic relax: 0-MD 1-quasi-New 2-CG
   NFREE  =      1    steps in history (QN), initial steepest desc. (CG)
   ISIF   =      2    stress and relaxation
   IWAVPR =     11    prediction:  0-non 1-charg 2-wave 3-comb
   ISYM   =      2    0-nonsym 1-usesym 2-fastsym
   LCORR  =      T    Harris-Foulkes like correction to forces

   POTIM  = 0.5000    time-step for ionic-motion
   TEIN   =    0.0    initial temperature
   TEBEG  =    0.0;   TEEND  =   0.0 temperature during run
   SMASS  =  -3.00    Nose mass-parameter (am)
   estimated Nose-frequenzy (Omega)   =  0.10E-29 period in steps =****** mass=  -0.311E-27a.u.
   SCALEE = 1.0000    scale energy and forces
   NPACO  =    256;   APACO  = 16.0  distance and # of slots for P.C.
   PSTRESS=    0.0 pullay stress

  Mass of Ions in am
   POMASS =  28.09
  Ionic Valenz
   ZVAL   =   4.00
  Atomic Wigner-Seitz radii
   RWIGS  =  -1.00
  virtual crystal weights 
   VCA    =   1.00
   NELECT =       8.0000    total number of electrons
   NUPDOWN=      -1.0000    fix difference up-down

 DOS related values:
   EMIN   =  10.00;   EMAX   =-10.00  energy-range for DOS
   EFERMI =   0.00
   ISMEAR =     0;   SIGMA  =   0.20  broadening in eV -4-tet -1-fermi 0-gaus

 Electronic relaxation 2 (details)
   IALGO  =     38    algorithm
   LDIAG  =      T    sub-space diagonalisation (order eigenvalues)
   LSUBROT=      F    optimize rotation matrix (better conditioning)
   TURBO    =      0    0=normal 1=particle mesh
   IRESTART =      0    0=no restart 2=restart with 2 vectors
   NREBOOT  =      0    no. of reboots
   NMIN     =      0    reboot dimension
   EREF     =   0.00    reference energy to select bands
   IMIX   =      4    mixing-type and parameters
     AMIX     =   0.40;   BMIX     =  1.00
     AMIX_MAG =   1.60;   BMIX_MAG =  1.00
     AMIN     =   0.10
     WC   =   100.;   INIMIX=   1;  MIXPRE=   1;  MAXMIX= -45

 Intra band minimization:
   WEIMIN = 0.0010     energy-eigenvalue tresh-hold
   EBREAK =  0.13E-04  absolut break condition
   DEPER  =   0.30     relativ break condition  

   TIME   =   0.40     timestep for ELM

  volume/ion in A,a.u.               =      15.29       103.21
  Fermi-wavevector in a.u.,A,eV,Ry     =   1.046930  1.978411 14.912834  1.096062
  Thomas-Fermi vector in A             =   2.181789
 
 Write flags
   LWAVE        =      T    write WAVECAR
   LDOWNSAMPLE  =      F    k-point downsampling of WAVECAR
   LCHARG       =      T    write CHGCAR
   LVTOT        =      F    write LOCPOT, total local potential
   LVHAR        =      F    write LOCPOT, Hartree potential only
   LELF         =      F    write electronic localiz. function (ELF)
   LORBIT       =      0    0 simple, 1 ext, 2 COOP (PROOUT), +10 PAW based schemes


 Dipole corrections
   LMONO  =      F    monopole corrections only (constant potential shift)
   LDIPOL =      F    correct potential (dipole corrections)
   IDIPOL =      0    1-x, 2-y, 3-z, 4-all directions 
   EPSILON=  1.0000000 bulk dielectric constant

 Exchange correlation treatment:
   GGA     =    --    GGA type
   LEXCH   =     8    internal setting for exchange type
   VOSKOWN=      0    Vosko Wilk Nusair interpolation
   LHFCALC =     F    Hartree Fock is set to
   LHFONE  =     F    Hartree Fock one center treatment
   AEXX    =    0.0000 exact exchange contribution

 Linear response parameters
   LEPSILON=     F    determine dielectric tensor
   LRPA    =     F    only Hartree local field effects (RPA)
   LNABLA  =     F    use nabla operator in PAW spheres
   LVEL    =     F    velocity operator in full k-point grid
   LINTERFAST=   F  fast interpolation
   KINTER  =     0    interpolate to denser k-point grid
   CSHIFT  =0.1000    complex shift for real part using Kramers Kronig
   OMEGAMAX=  -1.0    maximum frequency
   DEG_THRESHOLD= 0.2000000E-02 threshold for treating states as degnerate
   RTIME   =   -0.100 relaxation time in fs
  (WPLASMAI=    0.000 imaginary part of plasma frequency in eV, 0.658/RTIME)
   DFIELD  = 0.0000000 0.0000000 0.0000000 field for delta impulse in time
 
 Orbital magnetization related:
   ORBITALMAG=     F  switch on orbital magnetization
   LCHIMAG   =     F  perturbation theory with respect to B field
   DQ        =  0.001000  dq finite difference perturbation B field
   LLRAUG    =     F  two centre corrections for induced B field



--------------------------------------------------------------------------------------------------------


 conjugate gradient relaxation of ions
 charge density and potential will be updated during run
 non-spin polarized calculation
 Variant of blocked Davidson
 Davidson routine will perform the subspace rotation
 perform sub-space diagonalisation
    after iterative eigenvector-optimisation
 modified Broyden-mixing scheme, WC =      100.0
 initial mixing is a Kerker type mixing with AMIX =  0.4000 and BMIX =      1.0000
 Hartree-type preconditioning will be used
 using additional bands            4
 reciprocal scheme for non local part
 use partial core corrections
 calculate Harris-corrections to forces 
   (improved forces if not selfconsistent)
 use gradient corrections 
 use of overlap-Matrix (Vanderbilt PP)
 Gauss-broadening in eV      SIGMA  =   0.20


--------------------------------------------------------------------------------------------------------


  energy-cutoff  :      200.00
  volume of cell :       30.59
      direct lattice vectors                 reciprocal lattice vectors
    -2.450000000  2.450000000  1.274000000     0.000000000  0.204081633  0.392464678
     2.450000000 -2.450000000  1.274000000     0.204081633  0.000000000  0.392464678
     2.450000000  2.450000000 -1.274000000     0.204081633  0.204081633 -0.000000000

  length of vectors
     3.691622408  3.691622408  3.691622408     0.442354876  0.442354876  0.288615013


 
 old parameters found on file WAVECAR:
  energy-cutoff  :      200.00
  volume of cell :       30.59
      direct lattice vectors                 reciprocal lattice vectors
    -2.450000000  2.450000000  1.274000000     0.000000000  0.204081633  0.392464678
     2.450000000 -2.450000000  1.274000000     0.204081633  0.000000000  0.392464678
     2.450000000  2.450000000 -1.274000000     0.204081633  0.204081633 -0.000000000

  length of vectors

 
 k-points in units of 2pi/SCALE and weight: Automatic kpoint scheme                 
   0.02040816  0.02040816  0.03924647       0.008
   0.02040816  0.04081633  0.07849294       0.016
   0.02040816  0.06122449  0.11773940       0.016
   0.02040816  0.08163265  0.15698587       0.016
   0.02040816  0.10204082  0.19623234       0.008
   0.02040816  0.00000000  0.00000000       0.004
   0.04081633  0.04081633  0.11773940       0.008
   0.04081633  0.06122449  0.15698587       0.016
   0.04081633  0.08163265  0.19623234       0.016
   0.04081633  0.10204082  0.23547881       0.016
   0.04081633 -0.08163265 -0.11773940       0.016
   0.04081633 -0.06122449 -0.07849294       0.016
   0.04081633 -0.04081633 -0.03924647       0.008
   0.04081633 -0.02040816 -0.00000000       0.008
   0.04081633  0.00000000  0.03924647       0.008
   0.06122449  0.06122449  0.19623234       0.008
   0.06122449  0.08163265  0.23547881       0.016
   0.06122449  0.10204082  0.27472527       0.016
   0.06122449 -0.08163265 -0.07849294       0.016
   0.06122449 -0.06122449 -0.03924647       0.008
   0.06122449 -0.04081633 -0.00000000       0.008
   0.06122449 -0.02040816  0.03924647       0.016
   0.06122449  0.00000000  0.07849294       0.008
   0.08163265  0.08163265  0.27472527       0.008
   0.08163265  0.10204082  0.31397174       0.016
   0.08163265 -0.08163265 -0.03924647       0.008
   0.08163265 -0.06122449 -0.00000000       0.008
   0.08163265 -0.04081633  0.03924647       0.016
   0.08163265 -0.02040816  0.07849294       0.016
   0.08163265  0.00000000  0.11773940       0.008
   0.10204082  0.10204082  0.35321821       0.004
   0.10204082 -0.08163265  0.00000000       0.008
   0.10204082 -0.06122449  0.03924647       0.016
   0.10204082 -0.04081633  0.07849294       0.016
   0.10204082 -0.02040816  0.11773940       0.016
   0.10204082  0.00000000  0.15698587       0.008
  -0.08163265 -0.08163265 -0.35321821       0.008
  -0.08163265 -0.06122449 -0.31397174       0.016
  -0.08163265 -0.04081633 -0.27472527       0.016
  -0.08163265 -0.02040816 -0.23547881       0.016
  -0.08163265 -0.00000000 -0.19623234       0.008
  -0.06122449 -0.06122449 -0.27472527       0.008
  -0.06122449 -0.04081633 -0.23547881       0.016
  -0.06122449 -0.02040816 -0.19623234       0.016
  -0.06122449 -0.00000000 -0.15698587       0.008
  -0.04081633 -0.04081633 -0.19623234       0.008
  -0.04081633 -0.02040816 -0.15698587       0.016
  -0.04081633 -0.00000000 -0.11773940       0.008
  -0.02040816 -0.02040816 -0.11773940       0.008
  -0.02040816 -0.00000000 -0.07849294       0.008
   0.00000000  0.00000000 -0.03924647       0.002
   0.06122449  0.06122449  0.11773940       0.008
   0.06122449  0.08163265  0.15698587       0.016
   0.06122449  0.10204082  0.19623234       0.008
   0.06122449  0.00000000 -0.00000000       0.004
   0.08163265  0.08163265  0.19623234       0.008
   0.08163265  0.10204082  0.23547881       0.016
   0.08163265  0.12244898  0.27472527       0.008
   0.08163265 -0.02040816 -0.00000000       0.008
   0.08163265 -0.00000000  0.03924647       0.008
   0.10204082  0.10204082  0.27472527       0.004
   0.10204082 -0.04081633  0.00000000       0.008
   0.10204082 -0.02040816  0.03924647       0.016
   0.10204082  0.00000000  0.07849294       0.008
   0.12244898 -0.06122449  0.00000000       0.008
   0.12244898 -0.04081633  0.03924647       0.016
   0.12244898 -0.02040816  0.07849294       0.016
   0.12244898  0.00000000  0.11773940       0.008
  -0.06122449 -0.06122449 -0.35321821       0.008
  -0.06122449 -0.04081633 -0.31397174       0.016
  -0.06122449 -0.02040816 -0.27472527       0.016
  -0.06122449 -0.00000000 -0.23547881       0.008
  -0.04081633 -0.04081633 -0.27472527       0.008
  -0.04081633 -0.02040816 -0.23547881       0.016
  -0.04081633  0.00000000 -0.19623234       0.008
  -0.02040816 -0.02040816 -0.19623234       0.008
  -0.02040816 -0.00000000 -0.15698587       0.008
   0.00000000  0.00000000 -0.11773940       0.002
   0.10204082  0.10204082  0.19623234       0.002
   0.10204082  0.00000000 -0.00000000       0.004
   0.12244898 -0.02040816 -0.00000000       0.008
   0.12244898  0.00000000  0.03924647       0.008
   0.14285714 -0.04081633  0.00000000       0.008
   0.14285714 -0.02040816  0.03924647       0.016
   0.14285714  0.00000000  0.07849294       0.008
  -0.04081633 -0.04081633 -0.35321821       0.008
  -0.04081633 -0.02040816 -0.31397174       0.016
  -0.04081633  0.00000000 -0.27472527       0.008
  -0.02040816 -0.02040816 -0.27472527       0.008
  -0.02040816  0.00000000 -0.23547881       0.008
   0.00000000  0.00000000 -0.19623234       0.002
   0.14285714  0.00000000 -0.00000000       0.004
   0.16326531 -0.02040816 -0.00000000       0.008
   0.16326531  0.00000000  0.03924647       0.008
  -0.02040816 -0.02040816 -0.35321821       0.008
  -0.02040816 -0.00000000 -0.31397174       0.008
   0.00000000 -0.00000000 -0.27472527       0.002
   0.18367347  0.00000000 -0.00000000       0.004
  -0.00000000 -0.00000000 -0.35321821       0.002
 
 k-points in reciprocal lattice and weights: Automatic kpoint scheme                 
   0.05000000  0.05000000  0.05000000       0.008
   0.15000000  0.05000000  0.05000000       0.016
   0.25000000  0.05000000  0.05000000       0.016
   0.35000000  0.05000000  0.05000000       0.016
   0.45000000  0.05000000  0.05000000       0.008
  -0.05000000  0.05000000  0.05000000       0.004
   0.15000000  0.15000000  0.05000000       0.008
   0.25000000  0.15000000  0.05000000       0.016
   0.35000000  0.15000000  0.05000000       0.016
   0.45000000  0.15000000  0.05000000       0.016
  -0.45000000  0.15000000  0.05000000       0.016
  -0.35000000  0.15000000  0.05000000       0.016
  -0.25000000  0.15000000  0.05000000       0.008
  -0.15000000  0.15000000  0.05000000       0.008
  -0.05000000  0.15000000  0.05000000       0.008
   0.25000000  0.25000000  0.05000000       0.008
   0.35000000  0.25000000  0.05000000       0.016
   0.45000000  0.25000000  0.05000000       0.016
  -0.45000000  0.25000000  0.05000000       0.016
  -0.35000000  0.25000000  0.05000000       0.008
  -0.25000000  0.25000000  0.05000000       0.008
  -0.15000000  0.25000000  0.05000000       0.016
  -0.05000000  0.25000000  0.05000000       0.008
   0.35000000  0.35000000  0.05000000       0.008
   0.45000000  0.35000000  0.05000000       0.016
  -0.45000000  0.35000000  0.05000000       0.008
  -0.35000000  0.35000000  0.05000000       0.008
  -0.25000000  0.35000000  0.05000000       0.016
  -0.15000000  0.35000000  0.05000000       0.016
  -0.05000000  0.35000000  0.05000000       0.008
   0.45000000  0.45000000  0.05000000       0.004
  -0.45000000  0.45000000  0.05000000       0.008
  -0.35000000  0.45000000  0.05000000       0.016
  -0.25000000  0.45000000  0.05000000       0.016
  -0.15000000  0.45000000  0.05000000       0.016
  -0.05000000  0.45000000  0.05000000       0.008
  -0.45000000 -0.45000000  0.05000000       0.008
  -0.35000000 -0.45000000  0.05000000       0.016
  -0.25000000 -0.45000000  0.05000000       0.016
  -0.15000000 -0.45000000  0.05000000       0.016
  -0.05000000 -0.45000000  0.05000000       0.008
  -0.35000000 -0.35000000  0.05000000       0.008
  -0.25000000 -0.35000000  0.05000000       0.016
  -0.15000000 -0.35000000  0.05000000       0.016
  -0.05000000 -0.35000000  0.05000000       0.008
  -0.25000000 -0.25000000  0.05000000       0.008
  -0.15000000 -0.25000000  0.05000000       0.016
  -0.05000000 -0.25000000  0.05000000       0.008
  -0.15000000 -0.15000000  0.05000000       0.008
  -0.05000000 -0.15000000  0.05000000       0.008
  -0.05000000 -0.05000000  0.05000000       0.002
   0.15000000  0.15000000  0.15000000       0.008
   0.25000000  0.15000000  0.15000000       0.016
   0.35000000  0.15000000  0.15000000       0.008
  -0.15000000  0.15000000  0.15000000       0.004
   0.25000000  0.25000000  0.15000000       0.008
   0.35000000  0.25000000  0.15000000       0.016
   0.45000000  0.25000000  0.15000000       0.008
  -0.25000000  0.25000000  0.15000000       0.008
  -0.15000000  0.25000000  0.15000000       0.008
   0.35000000  0.35000000  0.15000000       0.004
  -0.35000000  0.35000000  0.15000000       0.008
  -0.25000000  0.35000000  0.15000000       0.016
  -0.15000000  0.35000000  0.15000000       0.008
  -0.45000000  0.45000000  0.15000000       0.008
  -0.35000000  0.45000000  0.15000000       0.016
  -0.25000000  0.45000000  0.15000000       0.016
  -0.15000000  0.45000000  0.15000000       0.008
  -0.45000000 -0.45000000  0.15000000       0.008
  -0.35000000 -0.45000000  0.15000000       0.016
  -0.25000000 -0.45000000  0.15000000       0.016
  -0.15000000 -0.45000000  0.15000000       0.008
  -0.35000000 -0.35000000  0.15000000       0.008
  -0.25000000 -0.35000000  0.15000000       0.016
  -0.15000000 -0.35000000  0.15000000       0.008
  -0.25000000 -0.25000000  0.15000000       0.008
  -0.15000000 -0.25000000  0.15000000       0.008
  -0.15000000 -0.15000000  0.15000000       0.002
   0.25000000  0.25000000  0.25000000       0.002
  -0.25000000  0.25000000  0.25000000       0.004
  -0.35000000  0.35000000  0.25000000       0.008
  -0.25000000  0.35000000  0.25000000       0.008
  -0.45000000  0.45000000  0.25000000       0.008
  -0.35000000  0.45000000  0.25000000       0.016
  -0.25000000  0.45000000  0.25000000       0.008
  -0.45000000 -0.45000000  0.25000000       0.008
  -0.35000000 -0.45000000  0.25000000       0.016
  -0.25000000 -0.45000000  0.25000000       0.008
  -0.35000000 -0.35000000  0.25000000       0.008
  -0.25000000 -0.35000000  0.25000000       0.008
  -0.25000000 -0.25000000  0.25000000       0.002
  -0.35000000  0.35000000  0.35000000       0.004
  -0.45000000  0.45000000  0.35000000       0.008
  -0.35000000  0.45000000  0.35000000       0.008
  -0.45000000 -0.45000000  0.35000000       0.008
  -0.35000000 -0.45000000  0.35000000       0.008
  -0.35000000 -0.35000000  0.35000000       0.002
  -0.45000000  0.45000000  0.45000000       0.004
  -0.45000000 -0.45000000  0.45000000       0.002
 
 position of ions in fractional coordinates (direct lattice) 
   0.25000000  0.75000000  0.50000000
   0.00000000  0.00000000  0.00000000
 
 position of ions in cartesian coordinates  (Angst):
   2.45000000  0.00000000  0.63700000
   0.00000000  0.00000000  0.00000000
 


--------------------------------------------------------------------------------------------------------


 k-point  1 :   0.0500 0.0500 0.0500  plane waves:     191
 k-point  2 :   0.1500 0.0500 0.0500  plane waves:     195
 k-point  3 :   0.2500 0.0500 0.0500  plane waves:     199
 k-point  4 :   0.3500 0.0500 0.0500  plane waves:     203
 k-point  5 :   0.4500 0.0500 0.0500  plane waves:     200
 k-point  6 :  -0.0500 0.0500 0.0500  plane waves:     189
 k-point  7 :   0.1500 0.1500 0.0500  plane waves:     200
 k-point  8 :   0.2500 0.1500 0.0500  plane waves:     199
 k-point  9 :   0.3500 0.1500 0.0500  plane waves:     202
 k-point 10 :   0.4500 0.1500 0.0500  plane waves:     201
 k-point 11 :  -0.4500 0.1500 0.0500  plane waves:     200
 k-point 12 :  -0.3500 0.1500 0.0500  plane waves:     197
 k-point 13 :  -0.2500 0.1500 0.0500  plane waves:     195
 k-point 14 :  -0.1500 0.1500 0.0500  plane waves:     193
 k-point 15 :  -0.0500 0.1500 0.0500  plane waves:     193
 k-point 16 :   0.2500 0.2500 0.0500  plane waves:     199
 k-point 17 :   0.3500 0.2500 0.0500  plane waves:     199
 k-point 18 :   0.4500 0.2500 0.0500  plane waves:     196
 k-point 19 :  -0.4500 0.2500 0.0500  plane waves:     197
 k-point 20 :  -0.3500 0.2500 0.0500  plane waves:     192
 k-point 21 :  -0.2500 0.2500 0.0500  plane waves:     189
 k-point 22 :  -0.1500 0.2500 0.0500  plane waves:     196
 k-point 23 :  -0.0500 0.2500 0.0500  plane waves:     197
 k-point 24 :   0.3500 0.3500 0.0500  plane waves:     192
 k-point 25 :   0.4500 0.3500 0.0500  plane waves:     197
 k-point 26 :  -0.4500 0.3500 0.0500  plane waves:     194
 k-point 27 :  -0.3500 0.3500 0.0500  plane waves:     190
 k-point 28 :  -0.2500 0.3500 0.0500  plane waves:     195
 k-point 29 :  -0.1500 0.3500 0.0500  plane waves:     198
 k-point 30 :  -0.0500 0.3500 0.0500  plane waves:     199
 k-point 31 :   0.4500 0.4500 0.0500  plane waves:     194
 k-point 32 :  -0.4500 0.4500 0.0500  plane waves:     191
 k-point 33 :  -0.3500 0.4500 0.0500  plane waves:     192
 k-point 34 :  -0.2500 0.4500 0.0500  plane waves:     195
 k-point 35 :  -0.1500 0.4500 0.0500  plane waves:     199
 k-point 36 :  -0.0500 0.4500 0.0500  plane waves:     204
 k-point 37 :  -0.4500-0.4500 0.0500  plane waves:     194
 k-point 38 :  -0.3500-0.4500 0.0500  plane waves:     192
 k-point 39 :  -0.2500-0.4500 0.0500  plane waves:     198
 k-point 40 :  -0.1500-0.4500 0.0500  plane waves:     198
 k-point 41 :  -0.0500-0.4500 0.0500  plane waves:     201
 k-point 42 :  -0.3500-0.3500 0.0500  plane waves:     198
 k-point 43 :  -0.2500-0.3500 0.0500  plane waves:     199
 k-point 44 :  -0.1500-0.3500 0.0500  plane waves:     199
 k-point 45 :  -0.0500-0.3500 0.0500  plane waves:     200
 k-point 46 :  -0.2500-0.2500 0.0500  plane waves:     199
 k-point 47 :  -0.1500-0.2500 0.0500  plane waves:     201
 k-point 48 :  -0.0500-0.2500 0.0500  plane waves:     200
 k-point 49 :  -0.1500-0.1500 0.0500  plane waves:     202
 k-point 50 :  -0.0500-0.1500 0.0500  plane waves:     199
 k-point 51 :  -0.0500-0.0500 0.0500  plane waves:     183
 k-point 52 :   0.1500 0.1500 0.1500  plane waves:     195
 k-point 53 :   0.2500 0.1500 0.1500  plane waves:     199
 k-point 54 :   0.3500 0.1500 0.1500  plane waves:     202
 k-point 55 :  -0.1500 0.1500 0.1500  plane waves:     197
 k-point 56 :   0.2500 0.2500 0.1500  plane waves:     199
 k-point 57 :   0.3500 0.2500 0.1500  plane waves:     195
 k-point 58 :   0.4500 0.2500 0.1500  plane waves:     195
 k-point 59 :  -0.2500 0.2500 0.1500  plane waves:     193
 k-point 60 :  -0.1500 0.2500 0.1500  plane waves:     193
 k-point 61 :   0.3500 0.3500 0.1500  plane waves:     190
 k-point 62 :  -0.3500 0.3500 0.1500  plane waves:     195
 k-point 63 :  -0.2500 0.3500 0.1500  plane waves:     192
 k-point 64 :  -0.1500 0.3500 0.1500  plane waves:     196
 k-point 65 :  -0.4500 0.4500 0.1500  plane waves:     190
 k-point 66 :  -0.3500 0.4500 0.1500  plane waves:     190
 k-point 67 :  -0.2500 0.4500 0.1500  plane waves:     192
 k-point 68 :  -0.1500 0.4500 0.1500  plane waves:     197
 k-point 69 :  -0.4500-0.4500 0.1500  plane waves:     191
 k-point 70 :  -0.3500-0.4500 0.1500  plane waves:     195
 k-point 71 :  -0.2500-0.4500 0.1500  plane waves:     195
 k-point 72 :  -0.1500-0.4500 0.1500  plane waves:     195
 k-point 73 :  -0.3500-0.3500 0.1500  plane waves:     196
 k-point 74 :  -0.2500-0.3500 0.1500  plane waves:     195
 k-point 75 :  -0.1500-0.3500 0.1500  plane waves:     193
 k-point 76 :  -0.2500-0.2500 0.1500  plane waves:     193
 k-point 77 :  -0.1500-0.2500 0.1500  plane waves:     206
 k-point 78 :  -0.1500-0.1500 0.1500  plane waves:     203
 k-point 79 :   0.2500 0.2500 0.2500  plane waves:     204
 k-point 80 :  -0.2500 0.2500 0.2500  plane waves:     194
 k-point 81 :  -0.3500 0.3500 0.2500  plane waves:     192
 k-point 82 :  -0.2500 0.3500 0.2500  plane waves:     193
 k-point 83 :  -0.4500 0.4500 0.2500  plane waves:     192
 k-point 84 :  -0.3500 0.4500 0.2500  plane waves:     195
 k-point 85 :  -0.2500 0.4500 0.2500  plane waves:     194
 k-point 86 :  -0.4500-0.4500 0.2500  plane waves:     196
 k-point 87 :  -0.3500-0.4500 0.2500  plane waves:     197
 k-point 88 :  -0.2500-0.4500 0.2500  plane waves:     199
 k-point 89 :  -0.3500-0.3500 0.2500  plane waves:     197
 k-point 90 :  -0.2500-0.3500 0.2500  plane waves:     191
 k-point 91 :  -0.2500-0.2500 0.2500  plane waves:     191
 k-point 92 :  -0.3500 0.3500 0.3500  plane waves:     192
 k-point 93 :  -0.4500 0.4500 0.3500  plane waves:     196
 k-point 94 :  -0.3500 0.4500 0.3500  plane waves:     197
 k-point 95 :  -0.4500-0.4500 0.3500  plane waves:     199
 k-point 96 :  -0.3500-0.4500 0.3500  plane waves:     201
 k-point 97 :  -0.3500-0.3500 0.3500  plane waves:     191
 k-point 98 :  -0.4500 0.4500 0.4500  plane waves:     198
 k-point 99 :  -0.4500-0.4500 0.4500  plane waves:     199

 maximum and minimum number of plane-waves per node :       206      183

 maximum number of plane-waves:       206
 maximum index in each direction: 
   IXMAX=    4   IYMAX=    4   IZMAX=    4
   IXMIN=   -4   IYMIN=   -4   IZMIN=   -4


 serial   3D FFT for wavefunctions
 parallel 3D FFT for charge:
    minimum data exchange during FFTs selected (reduces bandwidth)


 total amount of memory used by VASP MPI-rank0    32073. kBytes
=======================================================================

   base      :      30000. kBytes
   nonl-proj :       1324. kBytes
   fftplans  :        119. kBytes
   grid      :        270. kBytes
   one-center:          6. kBytes
   wavefun   :        354. kBytes
 
     INWAV:  cpu time    0.1880: real time    0.4561
 Broyden mixing: mesh for mixing (old mesh)
   NGX =  9   NGY =  9   NGZ =  9
  (NGX  = 28   NGY  = 28   NGZ  = 28)
  gives a total of    729 points

 charge density for first step will be calculated from the start-wavefunctions


--------------------------------------------------------------------------------------------------------


 Maximum index for augmentation-charges          442 (set IRDMAX)


--------------------------------------------------------------------------------------------------------


 initial charge from wavefunction
 First call to EWALD:  gamma=   0.567
 Maximum number of real-space cells 4x 4x 3
 Maximum number of reciprocal cells 3x 3x 3

    FEWALD:  cpu time    0.0080: real time    0.0096


--------------------------------------- Iteration      1(   1)  ---------------------------------------


    POTLOK:  cpu time    0.0280: real time    0.0775
    SETDIJ:  cpu time    0.0080: real time    0.0091
     EDDAV:  cpu time    0.5160: real time    0.5237
       DOS:  cpu time    0.0040: real time    0.0054
    CHARGE:  cpu time    0.0240: real time    0.0242
    MIXING:  cpu time    0.0000: real time    0.0020
    --------------------------------------------
      LOOP:  cpu time    0.5800: real time    0.6425

 eigenvalue-minimisations  :   912
 total energy-change (2. order) :-0.1019287E+02  (-0.1094820E-04)
 number of electron       7.9999993 magnetization 
 augmentation part       -0.4715514 magnetization 

 Broyden mixing:
  rms(total) = 0.70810E-03    rms(broyden)= 0.70808E-03
  rms(prec ) = 0.21604E-02
  weight for this iteration     100.00

 Free energy of the ion-electron system (eV)
  ---------------------------------------------------
  alpha Z        PSCENC =         4.40202223
  Ewald energy   TEWEN  =      -265.18101312
  -Hartree energ DENC   =        -2.50972925
  -exchange      EXHF   =         0.00000000
  -V(xc)+E(xc)   XCENC  =       -17.56024609
  PAW double counting   =        71.44121173      -36.36493124
  entropy T*S    EENTRO =        -0.01655262
  eigenvalues    EBANDS =        29.48389643
  atomic energy  EATOM  =       206.11247263
  Solvation  Ediel_sol  =         0.00000000
  ---------------------------------------------------
  free energy    TOTEN  =       -10.19286930 eV

  energy without entropy =      -10.17631668  energy(sigma->0) =      -10.18459299


--------------------------------------------------------------------------------------------------------




--------------------------------------- Iteration      1(   2)  ---------------------------------------


    POTLOK:  cpu time    0.0200: real time    0.0300
    SETDIJ:  cpu time    0.0080: real time    0.0092
     EDDAV:  cpu time    0.4600: real time    0.4573
       DOS:  cpu time    0.0040: real time    0.0047
    --------------------------------------------
      LOOP:  cpu time    0.4920: real time    0.5013

 eigenvalue-minimisations  :   824
 total energy-change (2. order) : 0.1290102E-05  (-0.4366641E-06)
 number of electron       7.9999993 magnetization 
 augmentation part       -0.4715514 magnetization 

 Free energy of the ion-electron system (eV)
  ---------------------------------------------------
  alpha Z        PSCENC =         4.40202223
  Ewald energy   TEWEN  =      -265.18101312
  -Hartree energ DENC   =        -2.51016102
  -exchange      EXHF   =         0.00000000
  -V(xc)+E(xc)   XCENC  =       -17.56021246
  PAW double counting   =        71.44145853      -36.36519012
  entropy T*S    EENTRO =        -0.01655502
  eigenvalues    EBANDS =        29.48431033
  atomic energy  EATOM  =       206.11247263
  Solvation  Ediel_sol  =         0.00000000
  ---------------------------------------------------
  free energy    TOTEN  =       -10.19286801 eV

  energy without entropy =      -10.17631299  energy(sigma->0) =      -10.18459050


--------------------------------------------------------------------------------------------------------




 average (electrostatic) potential at core
  the test charge radii are     0.9892
  (the norm of the test charge is              1.0000)
       1 -80.5475       2 -80.5475
 
 
 
 E-fermi :   9.0889     XC(G=0): -10.8924     alpha+bet :-15.6819


 k-point     1 :       0.0500    0.0500    0.0500
  band No.  band energies     occupation 
      1      -4.2715      2.00000
      2       4.7356      2.00000
      3       6.6060      2.00000
      4       7.7504      2.00000
      5      11.5469      0.00000
      6      15.0953      0.00000
      7      16.1359      0.00000
      8      17.0052      0.00000

 k-point     2 :       0.1500    0.0500    0.0500
  band No.  band energies     occupation 
      1      -3.4273      2.00000
      2       4.4614      2.00000
      3       6.8653      2.00000
      4       9.1523      0.65396
      5      12.6363      0.00000
      6      13.0813      0.00000
      7      13.4586      0.00000
      8      15.4033      0.00000

 k-point     3 :       0.2500    0.0500    0.0500
  band No.  band energies     occupation 
      1      -2.0301      2.00000
      2       4.6675      2.00000
      3       7.1821      2.00000
      4       8.5964      1.99950
      5      10.7165      0.00000
      6      12.0255      0.00000
      7      13.7287      0.00000
      8      14.4483      0.00000

 k-point     4 :       0.3500    0.0500    0.0500
  band No.  band energies     occupation 
      1      -0.0967      2.00000
      2       5.1205      2.00000
      3       5.6109      2.00000
      4       7.6033      2.00000
      5       8.9009      1.81633
      6      11.8259      0.00000
      7      13.7548      0.00000
      8      14.2027      0.00000

 k-point     5 :       0.4500    0.0500    0.0500
  band No.  band energies     occupation 
      1       2.0964      2.00000
      2       2.6454      2.00000
      3       6.5185      2.00000
      4       6.6731      2.00000
      5       8.8182      1.94443
      6      10.8068      0.00000
      7      13.5664      0.00000
      8      14.5794      0.00000

 k-point     6 :      -0.0500    0.0500    0.0500
  band No.  band energies     occupation 
      1      -4.5538      2.00000
      2       5.1763      2.00000
      3       6.0596      2.00000
      4       7.4289      2.00000
      5      10.9550      0.00000
      6      15.5430      0.00000
      7      17.4265      0.00000
      8      18.1320      0.00000

 k-point     7 :       0.1500    0.1500    0.0500
  band No.  band energies     occupation 
      1      -2.1473      2.00000
      2       4.6296      2.00000
      3       8.1658      2.00000
      4       9.0787      1.05732
      5      10.1521      0.00000
      6      11.0048      0.00000
      7      14.5478      0.00000
      8      14.5494      0.00000

 k-point     8 :       0.2500    0.1500    0.0500
  band No.  band energies     occupation 
      1      -0.3267      2.00000
      2       5.2265      2.00000
      3       6.2084      2.00000
      4       7.1362      2.00000
      5       9.7988      0.00000
      6      12.4096      0.00000
      7      12.8365      0.00000
      8      13.7158      0.00000

 k-point     9 :       0.3500    0.1500    0.0500
  band No.  band energies     occupation 
      1       1.9647      2.00000
      2       3.2195      2.00000
      3       5.3457      2.00000
      4       6.3772      2.00000
      5       9.8830      0.00000
      6      11.7842      0.00000
      7      12.8369      0.00000
      8      15.3204      0.00000

 k-point    10 :       0.4500    0.1500    0.0500
  band No.  band energies     occupation 
      1       0.5933      2.00000
      2       3.9053      2.00000
      3       4.9610      2.00000
      4       7.6470      2.00000
      5       9.2125      0.38217
      6      12.2040      0.00000
      7      13.4738      0.00000
      8      15.2029      0.00000

 k-point    11 :      -0.4500    0.1500    0.0500
  band No.  band energies     occupation 
      1      -1.4443      2.00000
      2       3.0977      2.00000
      3       7.5744      2.00000
      4       8.2101      2.00000
      5      10.3569      0.00000
      6      12.5749      0.00000
      7      12.8517      0.00000
      8      15.3297      0.00000

 k-point    12 :      -0.3500    0.1500    0.0500
  band No.  band energies     occupation 
      1      -2.9544      2.00000
      2       2.7698      2.00000
      3       7.2798      2.00000
      4       9.8329      0.00000
      5      12.0185      0.00000
      6      12.5251      0.00000
      7      14.0741      0.00000
      8      15.5495      0.00000

 k-point    13 :      -0.2500    0.1500    0.0500
  band No.  band energies     occupation 
      1      -3.9150      2.00000
      2       2.9594      2.00000
      3       6.9363      2.00000
      4       8.5728      1.99974
      5      13.2593      0.00000
      6      13.5449      0.00000
      7      15.0068      0.00000
      8      16.5067      0.00000

 k-point    14 :      -0.1500    0.1500    0.0500
  band No.  band energies     occupation 
      1      -4.3158      2.00000
      2       3.6241      2.00000
      3       6.0939      2.00000
      4       8.4830      1.99998
      5      12.2577      0.00000
      6      13.7446      0.00000
      7      16.2933      0.00000
      8      19.3788      0.00000

 k-point    15 :      -0.0500    0.1500    0.0500
  band No.  band energies     occupation 
      1      -4.1527      2.00000
      2       4.4130      2.00000
      3       5.6956      2.00000
      4       8.8711      1.87649
      5      12.0726      0.00000
      6      13.8636      0.00000
      7      15.9785      0.00000
      8      17.6689      0.00000

 k-point    16 :       0.2500    0.2500    0.0500
  band No.  band energies     occupation 
      1       1.8710      2.00000
      2       4.1437      2.00000
      3       4.2244      2.00000
      4       6.2995      2.00000
      5      10.5309      0.00000
      6      11.6994      0.00000
      7      13.5514      0.00000
      8      14.2030      0.00000

 k-point    17 :       0.3500    0.2500    0.0500
  band No.  band energies     occupation 
      1       1.5034      2.00000
      2       2.6207      2.00000
      3       4.7173      2.00000
      4       7.6219      2.00000
      5       9.8043      0.00000
      6      11.1882      0.00000
      7      14.8689      0.00000
      8      15.7795      0.00000

 k-point    18 :       0.4500    0.2500    0.0500
  band No.  band energies     occupation 
      1      -0.6291      2.00000
      2       1.6580      2.00000
      3       7.7448      2.00000
      4       8.3654      2.00000
      5       9.9512      0.00000
      6      11.6854      0.00000
      7      13.4428      0.00000
      8      15.4352      0.00000

 k-point    19 :      -0.4500    0.2500    0.0500
  band No.  band energies     occupation 
      1      -2.2482      2.00000
      2       1.2130      2.00000
      3       7.9168      2.00000
      4      10.3460      0.00000
      5      11.0750      0.00000
      6      12.1242      0.00000
      7      13.4755      0.00000
      8      14.4811      0.00000

 k-point    20 :      -0.3500    0.2500    0.0500
  band No.  band energies     occupation 
      1      -3.3226      2.00000
      2       1.3032      2.00000
      3       7.4872      2.00000
      4       9.3074      0.12239
      5      11.8349      0.00000
      6      13.6588      0.00000
      7      15.4734      0.00000
      8      16.1128      0.00000

 k-point    21 :      -0.2500    0.2500    0.0500
  band No.  band energies     occupation 
      1      -3.8407      2.00000
      2       1.9171      2.00000
      3       6.5211      2.00000
      4       9.2517      0.24963
      5      12.0386      0.00000
      6      14.4604      0.00000
      7      14.8000      0.00000
      8      19.0767      0.00000

 k-point    22 :      -0.1500    0.2500    0.0500
  band No.  band energies     occupation 
      1      -3.7966      2.00000
      2       2.9980      2.00000
      3       5.6667      2.00000
      4       9.9256      0.00000
      5      12.1637      0.00000
      6      13.6635      0.00000
      7      15.3628      0.00000
      8      16.9701      0.00000

 k-point    23 :      -0.0500    0.2500    0.0500
  band No.  band energies     occupation 
      1      -3.1909      2.00000
      2       4.1789      2.00000
      3       5.6452      2.00000
      4      10.3269      0.00000
      5      12.3561      0.00000
      6      12.6179      0.00000
      7      13.8334      0.00000
      8      15.0772      0.00000

 k-point    24 :       0.3500    0.3500    0.0500
  band No.  band energies     occupation 
      1       0.4045      2.00000
      2       0.4125      2.00000
      3       7.6867      2.00000
      4       8.7570      1.98106
      5       9.6451      0.00008
      6      11.2646      0.00000
      7      14.0642      0.00000
      8      14.8372      0.00000

 k-point    25 :       0.4500    0.3500    0.0500
  band No.  band energies     occupation 
      1      -1.3128      2.00000
      2      -0.1551      2.00000
      3       8.7526      1.98261
      4       9.7464      0.00000
      5      10.9523      0.00000
      6      12.1541      0.00000
      7      13.1937      0.00000
      8      13.5164      0.00000

 k-point    26 :      -0.4500    0.3500    0.0500
  band No.  band energies     occupation 
      1      -2.4979      2.00000
      2      -0.1744      2.00000
      3       8.2560      2.00000
      4      10.1449      0.00000
      5      10.4469      0.00000
      6      12.3475      0.00000
      7      15.8551      0.00000
      8      15.8673      0.00000

 k-point    27 :      -0.3500    0.3500    0.0500
  band No.  band energies     occupation 
      1      -3.1311      2.00000
      2       0.3484      2.00000
      3       7.1873      2.00000
      4      10.0408      0.00000
      5      10.5091      0.00000
      6      13.3741      0.00000
      7      16.9859      0.00000
      8      18.8856      0.00000

 k-point    28 :      -0.2500    0.3500    0.0500
  band No.  band energies     occupation 
      1      -3.2054      2.00000
      2       1.3944      2.00000
      3       6.1705      2.00000
      4      10.5446      0.00000
      5      10.7488      0.00000
      6      14.4703      0.00000
      7      15.7892      0.00000
      8      16.2431      0.00000

 k-point    29 :      -0.1500    0.3500    0.0500
  band No.  band energies     occupation 
      1      -2.7197      2.00000
      2       2.8968      2.00000
      3       5.6440      2.00000
      4      10.4988      0.00000
      5      11.1087      0.00000
      6      12.7208      0.00000
      7      14.6260      0.00000
      8      15.8480      0.00000

 k-point    30 :      -0.0500    0.3500    0.0500
  band No.  band energies     occupation 
      1      -1.6786      2.00000
      2       4.4706      2.00000
      3       6.0169      2.00000
      4       7.9550      2.00000
      5      10.9276      0.00000
      6      12.9848      0.00000
      7      13.7519      0.00000
      8      13.8307      0.00000

 k-point    31 :       0.4500    0.4500    0.0500
  band No.  band energies     occupation 
      1      -1.4458      2.00000
      2      -1.4458      2.00000
      3       9.2413      0.28121
      4       9.2413      0.28119
      5      11.1716      0.00000
      6      11.1716      0.00000
      7      15.7902      0.00000
      8      15.7902      0.00000

 k-point    32 :      -0.4500    0.4500    0.0500
  band No.  band energies     occupation 
      1      -2.1914      2.00000
      2      -1.0279      2.00000
      3       8.0763      2.00000
      4       9.1862      0.49143
      5      10.9765      0.00000
      6      12.0878      0.00000
      7      18.6124      0.00000
      8      18.6998      0.00000

 k-point    33 :      -0.3500    0.4500    0.0500
  band No.  band energies     occupation 
      1      -2.3824      2.00000
      2      -0.0680      2.00000
      3       6.9377      2.00000
      4       9.1478      0.67689
      5      11.5656      0.00000
      6      13.5697      0.00000
      7      15.3775      0.00000
      8      16.8280      0.00000

 k-point    34 :      -0.2500    0.4500    0.0500
  band No.  band energies     occupation 
      1      -2.0164      2.00000
      2       1.4096      2.00000
      3       6.2303      2.00000
      4       9.4262      0.01708
      5      10.5858      0.00000
      6      13.3237      0.00000
      7      14.3775      0.00000
      8      16.3672      0.00000

 k-point    35 :      -0.1500    0.4500    0.0500
  band No.  band energies     occupation 
      1      -1.0966      2.00000
      2       3.3246      2.00000
      3       6.0744      2.00000
      4       7.4582      2.00000
      5      10.0536      0.00000
      6      12.4551      0.00000
      7      14.4145      0.00000
      8      15.2038      0.00000

 k-point    36 :      -0.0500    0.4500    0.0500
  band No.  band energies     occupation 
      1       0.3619      2.00000
      2       4.5683      2.00000
      3       5.4417      2.00000
      4       6.7982      2.00000
      5       9.2718      0.19593
      6      11.7872      0.00000
      7      12.4330      0.00000
      8      15.6335      0.00000

 k-point    37 :      -0.4500   -0.4500    0.0500
  band No.  band energies     occupation 
      1      -1.3343      2.00000
      2      -1.3327      2.00000
      3       7.9249      2.00000
      4       7.9430      2.00000
      5      12.3448      0.00000
      6      12.7145      0.00000
      7      15.1997      0.00000
      8      16.7994      0.00000

 k-point    38 :      -0.3500   -0.4500    0.0500
  band No.  band energies     occupation 
      1      -1.0858      2.00000
      2       0.0628      2.00000
      3       7.0898      2.00000
      4       8.1706      2.00000
      5      10.4265      0.00000
      6      14.0901      0.00000
      7      14.2248      0.00000
      8      15.3751      0.00000

 k-point    39 :      -0.2500   -0.4500    0.0500
  band No.  band energies     occupation 
      1      -0.2879      2.00000
      2       1.9628      2.00000
      3       6.6778      2.00000
      4       7.1986      2.00000
      5       8.8676      1.88248
      6      12.1003      0.00000
      7      15.3922      0.00000
      8      16.4898      0.00000

 k-point    40 :      -0.1500   -0.4500    0.0500
  band No.  band energies     occupation 
      1       1.0428      2.00000
      2       3.9912      2.00000
      3       4.5615      2.00000
      4       6.9542      2.00000
      5       9.1510      0.66043
      6      11.2083      0.00000
      7      12.9009      0.00000
      8      16.7278      0.00000

 k-point    41 :      -0.0500   -0.4500    0.0500
  band No.  band energies     occupation 
      1       1.7373      2.00000
      2       2.9999      2.00000
      3       6.5949      2.00000
      4       7.7093      2.00000
      5       7.9031      2.00000
      6      10.5765      0.00000
      7      12.4882      0.00000
      8      15.5985      0.00000

 k-point    42 :      -0.3500   -0.3500    0.0500
  band No.  band energies     occupation 
      1       0.7299      2.00000
      2       0.7467      2.00000
      3       6.9240      2.00000
      4       7.6195      2.00000
      5       7.9059      2.00000
      6      11.9830      0.00000
      7      15.9775      0.00000
      8      16.9738      0.00000

 k-point    43 :      -0.2500   -0.3500    0.0500
  band No.  band energies     occupation 
      1       1.9329      2.00000
      2       3.0010      2.00000
      3       4.1036      2.00000
      4       7.5994      2.00000
      5       8.5653      1.99979
      6      10.5852      0.00000
      7      14.4740      0.00000
      8      16.2604      0.00000

 k-point    44 :      -0.1500   -0.3500    0.0500
  band No.  band energies     occupation 
      1       1.4216      2.00000
      2       3.7463      2.00000
      3       5.7928      2.00000
      4       7.5036      2.00000
      5       8.6969      1.99442
      6      10.9879      0.00000
      7      11.7320      0.00000
      8      15.1199      0.00000

 k-point    45 :      -0.0500   -0.3500    0.0500
  band No.  band energies     occupation 
      1      -0.5594      2.00000
      2       5.8930      2.00000
      3       6.6594      2.00000
      4       7.7301      2.00000
      5       8.6685      1.99705
      6      11.2191      0.00000
      7      12.8195      0.00000
      8      14.0712      0.00000

 k-point    46 :      -0.2500   -0.2500    0.0500
  band No.  band energies     occupation 
      1       1.3124      2.00000
      2       4.6818      2.00000
      3       4.7302      2.00000
      4       7.5098      2.00000
      5       9.1583      0.62375
      6      10.4553      0.00000
      7      12.8534      0.00000
      8      13.6949      0.00000

 k-point    47 :      -0.1500   -0.2500    0.0500
  band No.  band energies     occupation 
      1      -0.7921      2.00000
      2       6.6582      2.00000
      3       6.9267      2.00000
      4       7.6089      2.00000
      5       9.1330      0.75519
      6      11.6071      0.00000
      7      11.6468      0.00000
      8      12.7937      0.00000

 k-point    48 :      -0.0500   -0.2500    0.0500
  band No.  band energies     occupation 
      1      -2.3827      2.00000
      2       6.0329      2.00000
      3       7.2125      2.00000
      4       9.0075      1.43539
      5      10.6810      0.00000
      6      11.5063      0.00000
      7      13.0260      0.00000
      8      14.3561      0.00000

 k-point    49 :      -0.1500   -0.1500    0.0500
  band No.  band energies     occupation 
      1      -2.5005      2.00000
      2       6.3388      2.00000
      3       7.9775      2.00000
      4       8.8758      1.86816
      5      10.4865      0.00000
      6      11.0577      0.00000
      7      13.0954      0.00000
      8      13.7938      0.00000

 k-point    50 :      -0.0500   -0.1500    0.0500
  band No.  band energies     occupation 
      1      -3.6644      2.00000
      2       5.9875      2.00000
      3       6.8275      2.00000
      4       8.1609      2.00000
      5      11.8233      0.00000
      6      13.3789      0.00000
      7      13.7466      0.00000
      8      16.1059      0.00000

 k-point    51 :      -0.0500   -0.0500    0.0500
  band No.  band energies     occupation 
      1      -4.3905      2.00000
      2       6.4112      2.00000
      3       6.4959      2.00000
      4       6.4959      2.00000
      5      10.8245      0.00000
      6      16.3868      0.00000
      7      16.5796      0.00000
      8      17.3328      0.00000

 k-point    52 :       0.1500    0.1500    0.1500
  band No.  band energies     occupation 
      1      -1.5601      2.00000
      2       3.0078      2.00000
      3       8.3533      2.00000
      4       8.8777      1.86475
      5      10.0947      0.00000
      6      11.3505      0.00000
      7      14.0473      0.00000
      8      14.7497      0.00000

 k-point    53 :       0.2500    0.1500    0.1500
  band No.  band energies     occupation 
      1       0.3671      2.00000
      2       3.7424      2.00000
      3       5.7825      2.00000
      4       6.7822      2.00000
      5      10.5444      0.00000
      6      13.2279      0.00000
      7      13.6983      0.00000
      8      14.4987      0.00000

 k-point    54 :       0.3500    0.1500    0.1500
  band No.  band energies     occupation 
      1       2.5562      2.00000
      2       3.0722      2.00000
      3       4.9044      2.00000
      4       5.2238      2.00000
      5      11.1690      0.00000
      6      12.9327      0.00000
      7      14.0779      0.00000
      8      14.3812      0.00000

 k-point    55 :      -0.1500    0.1500    0.1500
  band No.  band energies     occupation 
      1      -4.0785      2.00000
      2       3.3374      2.00000
      3       4.8370      2.00000
      4      10.0457      0.00000
      5      12.0005      0.00000
      6      13.0837      0.00000
      7      18.0436      0.00000
      8      19.0679      0.00000

 k-point    56 :       0.2500    0.2500    0.1500
  band No.  band energies     occupation 
      1       2.6249      2.00000
      2       3.7732      2.00000
      3       3.9463      2.00000
      4       5.0116      2.00000
      5      11.9408      0.00000
      6      13.3386      0.00000
      7      14.4129      0.00000
      8      14.4671      0.00000

 k-point    57 :       0.3500    0.2500    0.1500
  band No.  band energies     occupation 
      1       1.2841      2.00000
      2       2.4151      2.00000
      3       5.5686      2.00000
      4       6.5954      2.00000
      5      11.4127      0.00000
      6      12.6954      0.00000
      7      13.9775      0.00000
      8      15.0426      0.00000

 k-point    58 :       0.4500    0.2500    0.1500
  band No.  band energies     occupation 
      1      -0.7436      2.00000
      2       1.5532      2.00000
      3       8.4303      2.00000
      4       8.6363      1.99863
      5      10.5098      0.00000
      6      11.8637      0.00000
      7      12.8002      0.00000
      8      14.0126      0.00000

 k-point    59 :      -0.2500    0.2500    0.1500
  band No.  band energies     occupation 
      1      -3.6049      2.00000
      2       2.0438      2.00000
      3       4.8334      2.00000
      4      10.2873      0.00000
      5      11.1808      0.00000
      6      14.9239      0.00000
      7      16.6272      0.00000
      8      18.5235      0.00000

 k-point    60 :      -0.1500    0.2500    0.1500
  band No.  band energies     occupation 
      1      -3.4424      2.00000
      2       2.7941      2.00000
      3       4.4067      2.00000
      4      10.4166      0.00000
      5      11.5443      0.00000
      6      14.7061      0.00000
      7      14.9485      0.00000
      8      18.1457      0.00000

 k-point    61 :       0.3500    0.3500    0.1500
  band No.  band energies     occupation 
      1       0.2975      2.00000
      2       0.2975      2.00000
      3       8.4897      1.99998
      4       8.4897      1.99998
      5      11.3129      0.00000
      6      11.3129      0.00000
      7      13.0836      0.00000
      8      13.0836      0.00000

 k-point    62 :      -0.3500    0.3500    0.1500
  band No.  band energies     occupation 
      1      -2.8983      2.00000
      2       0.5454      2.00000
      3       5.4281      2.00000
      4       8.7522      1.98272
      5      12.0788      0.00000
      6      15.3248      0.00000
      7      17.2483      0.00000
      8      18.3463      0.00000

 k-point    63 :      -0.2500    0.3500    0.1500
  band No.  band energies     occupation 
      1      -2.8546      2.00000
      2       1.6239      2.00000
      3       4.4717      2.00000
      4       8.8013      1.95803
      5      12.5372      0.00000
      6      14.6161      0.00000
      7      16.6839      0.00000
      8      17.6478      0.00000

 k-point    64 :      -0.1500    0.3500    0.1500
  band No.  band energies     occupation 
      1      -2.2520      2.00000
      2       2.7938      2.00000
      3       4.4617      2.00000
      4       9.2649      0.21343
      5      10.4419      0.00000
      6      14.1793      0.00000
      7      15.6478      0.00000
      8      16.3146      0.00000

 k-point    65 :      -0.4500    0.4500    0.1500
  band No.  band energies     occupation 
      1      -1.9634      2.00000
      2      -0.8094      2.00000
      3       6.3064      2.00000
      4       7.4212      2.00000
      5      13.0328      0.00000
      6      14.1171      0.00000
      7      18.0816      0.00000
      8      18.1647      0.00000

 k-point    66 :      -0.3500    0.4500    0.1500
  band No.  band energies     occupation 
      1      -2.0377      2.00000
      2       0.2405      2.00000
      3       5.1651      2.00000
      4       7.3698      2.00000
      5      13.0457      0.00000
      6      14.6872      0.00000
      7      16.6279      0.00000
      8      17.9688      0.00000

 k-point    67 :      -0.2500    0.4500    0.1500
  band No.  band energies     occupation 
      1      -1.5549      2.00000
      2       1.7478      2.00000
      3       4.6125      2.00000
      4       7.7924      2.00000
      5      10.0642      0.00000
      6      15.2929      0.00000
      7      15.7559      0.00000
      8      17.6967      0.00000

 k-point    68 :      -0.1500    0.4500    0.1500
  band No.  band energies     occupation 
      1      -0.5215      2.00000
      2       3.3261      2.00000
      3       5.0145      2.00000
      4       6.9199      2.00000
      5       8.7132      1.99211
      6      13.2137      0.00000
      7      14.8105      0.00000
      8      16.5864      0.00000

 k-point    69 :      -0.4500   -0.4500    0.1500
  band No.  band energies     occupation 
      1      -1.0016      2.00000
      2      -0.9985      2.00000
      3       6.1475      2.00000
      4       6.1503      2.00000
      5      13.1721      0.00000
      6      14.9960      0.00000
      7      15.9937      0.00000
      8      17.9868      0.00000

 k-point    70 :      -0.3500   -0.4500    0.1500
  band No.  band energies     occupation 
      1      -0.6368      2.00000
      2       0.4845      2.00000
      3       5.4063      2.00000
      4       6.4862      2.00000
      5       9.8686      0.00000
      6      15.5163      0.00000
      7      16.3652      0.00000
      8      17.5943      0.00000

 k-point    71 :      -0.2500   -0.4500    0.1500
  band No.  band energies     occupation 
      1       0.2740      2.00000
      2       2.4094      2.00000
      3       5.2523      2.00000
      4       6.5761      2.00000
      5       7.3935      2.00000
      6      13.3903      0.00000
      7      15.9146      0.00000
      8      17.6278      0.00000

 k-point    72 :      -0.1500   -0.4500    0.1500
  band No.  band energies     occupation 
      1       1.7032      2.00000
      2       3.6762      2.00000
      3       4.5772      2.00000
      4       6.0456      2.00000
      5       8.4669      1.99999
      6      11.5409      0.00000
      7      12.9027      0.00000
      8      17.0983      0.00000

 k-point    73 :      -0.3500   -0.3500    0.1500
  band No.  band energies     occupation 
      1       1.2578      2.00000
      2       1.2850      2.00000
      3       6.0229      2.00000
      4       6.1399      2.00000
      5       6.6719      2.00000
      6      13.3651      0.00000
      7      17.2836      0.00000
      8      17.3065      0.00000

 k-point    74 :      -0.2500   -0.3500    0.1500
  band No.  band energies     occupation 
      1       2.5300      2.00000
      2       3.3435      2.00000
      3       3.9261      2.00000
      4       6.4022      2.00000
      5       7.3572      2.00000
      6      11.6791      0.00000
      7      14.0915      0.00000
      8      15.9410      0.00000

 k-point    75 :      -0.1500   -0.3500    0.1500
  band No.  band energies     occupation 
      1       1.0862      2.00000
      2       4.4878      2.00000
      3       6.0364      2.00000
      4       7.4196      2.00000
      5       8.4198      2.00000
      6      10.6828      0.00000
      7      11.5382      0.00000
      8      14.2079      0.00000

 k-point    76 :      -0.2500   -0.2500    0.1500
  band No.  band energies     occupation 
      1       0.9734      2.00000
      2       5.3451      2.00000
      3       5.3961      2.00000
      4       7.6869      2.00000
      5       7.9443      2.00000
      6      10.6215      0.00000
      7      12.4399      0.00000
      8      13.0683      0.00000

 k-point    77 :      -0.1500   -0.2500    0.1500
  band No.  band energies     occupation 
      1      -1.0264      2.00000
      2       7.4763      2.00000
      3       7.7686      2.00000
      4       8.3715      2.00000
      5       8.4722      1.99999
      6      10.5563      0.00000
      7      11.4403      0.00000
      8      12.0163      0.00000

 k-point    78 :      -0.1500   -0.1500    0.1500
  band No.  band energies     occupation 
      1      -2.6185      2.00000
      2       7.9033      2.00000
      3       7.9034      2.00000
      4       7.9131      2.00000
      5      10.7070      0.00000
      6      11.1714      0.00000
      7      12.5920      0.00000
      8      13.4078      0.00000

 k-point    79 :       0.2500    0.2500    0.2500
  band No.  band energies     occupation 
      1       3.4073      2.00000
      2       3.4073      2.00000
      3       4.0658      2.00000
      4       4.0658      2.00000
      5      13.2537      0.00000
      6      13.2537      0.00000
      7      15.0474      0.00000
      8      15.0474      0.00000

 k-point    80 :      -0.2500    0.2500    0.2500
  band No.  band energies     occupation 
      1      -3.1350      2.00000
      2       1.9357      2.00000
      3       3.6329      2.00000
      4       8.5648      1.99979
      5      12.9384      0.00000
      6      16.1203      0.00000
      7      17.3666      0.00000
      8      18.3061      0.00000

 k-point    81 :      -0.3500    0.3500    0.2500
  band No.  band energies     occupation 
      1      -2.4351      2.00000
      2       0.8840      2.00000
      3       3.7828      2.00000
      4       7.0194      2.00000
      5      14.1637      0.00000
      6      16.7699      0.00000
      7      17.7837      0.00000
      8      18.4773      0.00000

 k-point    82 :      -0.2500    0.3500    0.2500
  band No.  band energies     occupation 
      1      -2.2736      2.00000
      2       1.6228      2.00000
      3       3.3649      2.00000
      4       7.1667      2.00000
      5      13.1353      0.00000
      6      15.5021      0.00000
      7      17.9347      0.00000
      8      18.9793      0.00000

 k-point    83 :      -0.4500    0.4500    0.2500
  band No.  band energies     occupation 
      1      -1.5129      2.00000
      2      -0.3862      2.00000
      3       4.5856      2.00000
      4       5.6836      2.00000
      5      15.1172      0.00000
      6      15.9932      0.00000
      7      17.8823      0.00000
      8      18.0913      0.00000

 k-point    84 :      -0.3500    0.4500    0.2500
  band No.  band energies     occupation 
      1      -1.4699      2.00000
      2       0.6917      2.00000
      3       3.6133      2.00000
      4       5.7271      2.00000
      5      13.0457      0.00000
      6      16.6021      0.00000
      7      18.7293      0.00000
      8      19.1657      0.00000

 k-point    85 :      -0.2500    0.4500    0.2500
  band No.  band energies     occupation 
      1      -0.8711      2.00000
      2       1.8593      2.00000
      3       3.6164      2.00000
      4       6.2793      2.00000
      5       9.6645      0.00005
      6      16.5194      0.00000
      7      17.4994      0.00000
      8      18.0696      0.00000

 k-point    86 :      -0.4500   -0.4500    0.2500
  band No.  band energies     occupation 
      1      -0.4632      2.00000
      2      -0.4582      2.00000
      3       4.5189      2.00000
      4       4.5216      2.00000
      5      12.9856      0.00000
      6      17.3208      0.00000
      7      18.0900      0.00000
      8      19.1968      0.00000

 k-point    87 :      -0.3500   -0.4500    0.2500
  band No.  band energies     occupation 
      1       0.0175      2.00000
      2       1.0494      2.00000
      3       3.9673      2.00000
      4       4.9762      2.00000
      5       9.4597      0.00874
      6      16.9271      0.00000
      7      18.4242      0.00000
      8      19.1092      0.00000

 k-point    88 :      -0.2500   -0.4500    0.2500
  band No.  band energies     occupation 
      1       1.0391      2.00000
      2       2.6307      2.00000
      3       4.3832      2.00000
      4       5.8648      2.00000
      5       6.3970      2.00000
      6      14.5680      0.00000
      7      16.0932      0.00000
      8      18.1788      0.00000

 k-point    89 :      -0.3500   -0.3500    0.2500
  band No.  band energies     occupation 
      1       1.9248      2.00000
      2       1.9674      2.00000
      3       4.8155      2.00000
      4       4.8401      2.00000
      5       6.2319      2.00000
      6      14.8900      0.00000
      7      16.9998      0.00000
      8      17.4036      0.00000

 k-point    90 :      -0.2500   -0.3500    0.2500
  band No.  band energies     occupation 
      1       2.9855      2.00000
      2       3.5841      2.00000
      3       4.1541      2.00000
      4       5.6446      2.00000
      5       6.2083      2.00000
      6      12.9613      0.00000
      7      14.0998      0.00000
      8      15.1122      0.00000

 k-point    91 :      -0.2500   -0.2500    0.2500
  band No.  band energies     occupation 
      1       0.8598      2.00000
      2       5.7855      2.00000
      3       5.8741      2.00000
      4       7.2794      2.00000
      5       7.2794      2.00000
      6      11.5921      0.00000
      7      12.3040      0.00000
      8      12.3040      0.00000

 k-point    92 :      -0.3500    0.3500    0.3500
  band No.  band energies     occupation 
      1      -1.7484      2.00000
      2       0.9922      2.00000
      3       2.7785      2.00000
      4       5.4714      2.00000
      5      15.5991      0.00000
      6      16.7470      0.00000
      7      18.1959      0.00000
      8      19.6516      0.00000

 k-point    93 :      -0.4500    0.4500    0.3500
  band No.  band energies     occupation 
      1      -0.8560      2.00000
      2       0.1798      2.00000
      3       3.1296      2.00000
      4       4.1485      2.00000
      5      16.1974      0.00000
      6      16.4830      0.00000
      7      18.7735      0.00000
      8      19.4984      0.00000

 k-point    94 :      -0.3500    0.4500    0.3500
  band No.  band energies     occupation 
      1      -0.6960      2.00000
      2       0.9139      2.00000
      3       2.7167      2.00000
      4       4.3022      2.00000
      5      12.8347      0.00000
      6      18.4139      0.00000
      7      19.8594      0.00000
      8      20.1993      0.00000

 k-point    95 :      -0.4500   -0.4500    0.3500
  band No.  band energies     occupation 
      1       0.2181      2.00000
      2       0.2253      2.00000
      3       3.1737      2.00000
      4       3.1754      2.00000
      5      12.7505      0.00000
      6      19.3351      0.00000
      7      20.0894      0.00000
      8      20.1420      0.00000

 k-point    96 :      -0.3500   -0.4500    0.3500
  band No.  band energies     occupation 
      1       0.8151      2.00000
      2       1.3881      2.00000
      3       3.1822      2.00000
      4       3.7488      2.00000
      5       9.2519      0.24919
      6      18.0193      0.00000
      7      19.3674      0.00000
      8      19.6704      0.00000

 k-point    97 :      -0.3500   -0.3500    0.3500
  band No.  band energies     occupation 
      1       2.3671      2.00000
      2       2.4291      2.00000
      3       4.1706      2.00000
      4       4.1706      2.00000
      5       6.1084      2.00000
      6      15.9603      0.00000
      7      16.8962      0.00000
      8      16.8962      0.00000

 k-point    98 :      -0.4500    0.4500    0.4500
  band No.  band energies     occupation 
      1      -0.0561      2.00000
      2       0.5172      2.00000
      3       2.3420      2.00000
      4       2.9092      2.00000
      5      16.3411      0.00000
      6      16.4019      0.00000
      7      20.2748      0.00000
      8      20.8586      0.00000

 k-point    99 :      -0.4500   -0.4500    0.4500
  band No.  band energies     occupation 
      1       0.6717      2.00000
      2       0.6814      2.00000
      3       2.4980      2.00000
      4       2.4980      2.00000
      5      12.6636      0.00000
      6      20.0014      0.00000
      7      20.9383      0.00000
      8      21.0244      0.00000


--------------------------------------------------------------------------------------------------------


 soft charge-density along one line, spin component           1
         0         1         2         3         4         5         6         7         8         9
 total charge-density along one line
 
 pseudopotential strength for first ion, spin component:           1
 18.067  -0.003   0.000  -0.000  -0.000  -0.000   0.000   0.000
 -0.003   0.005  -0.000   0.000   0.000   0.000  -0.000  -0.000
  0.000  -0.000   4.117   0.000   0.000  -0.006  -0.000  -0.000
 -0.000   0.000   0.000   4.118   0.000  -0.000  -0.006  -0.000
 -0.000   0.000   0.000   0.000   4.117  -0.000  -0.000  -0.006
 -0.000   0.000  -0.006  -0.000  -0.000   0.005   0.000   0.000
  0.000  -0.000  -0.000  -0.006  -0.000   0.000   0.005   0.000
  0.000  -0.000  -0.000  -0.000  -0.006   0.000   0.000   0.005
 total augmentation occupancy for first ion, spin component:           1
  1.614  -0.639  -0.000   0.000  -0.000   0.000   0.000   0.000
 -0.639   1.068  -0.000   0.000  -0.000   0.000   0.000  -0.000
  0.000   0.000   0.890   0.000  -0.000  -0.632   0.000   0.000
  0.000   0.000   0.000   0.860   0.000   0.000  -0.641   0.000
 -0.000  -0.000  -0.000   0.000   0.890   0.000   0.000  -0.632
  0.000   0.000  -0.632   0.000   0.000   0.532   0.000  -0.000
  0.000   0.000   0.000  -0.641   0.000   0.000   0.578  -0.000
  0.000   0.000   0.000   0.000  -0.632  -0.000  -0.000   0.532


------------------------ aborting loop because EDIFF is reached ----------------------------------------


    CHARGE:  cpu time    0.0240: real time    0.0233
    FORLOC:  cpu time    0.0000: real time    0.0005
    FORNL :  cpu time    0.0160: real time    0.0159
    STRESS:  cpu time    0.1680: real time    0.1660
    FORCOR:  cpu time    0.0120: real time    0.0127
    FORHAR:  cpu time    0.0040: real time    0.0036
    MIXING:  cpu time    0.0000: real time    0.0012
    OFIELD:  cpu time    0.0000: real time    0.0007

  FORCE on cell =-STRESS in cart. coord.  units (eV):
  Direction    XX          YY          ZZ          XY          YZ          ZX
  --------------------------------------------------------------------------------------
  Alpha Z     4.40202     4.40202     4.40202
  Ewald     -90.96023   -90.96023   -83.26083    -0.00000     0.00000     0.00000
  Hartree     0.55247     0.55247     1.40594     0.00000     0.00000     0.00000
  E(xc)     -25.44137   -25.44137   -25.39875     0.00003     0.00001     0.00001
  Local     -11.26771   -11.26771   -17.75772    -0.00005    -0.00005    -0.00005
  n-local    77.15838    77.16971    76.87000     1.07649    -0.31742    -0.56166
  augment   -12.03231   -12.03231   -11.94175     0.00004     0.00005     0.00005
  Kinetic    57.23358    57.51740    56.29314     3.24614    -1.77728    -3.49051
  Fock        0.00000     0.00000     0.00000     0.00000     0.00000     0.00000
  -------------------------------------------------------------------------------------
  Total      -0.20760    -0.20760     0.61205    -0.00000     0.00000     0.00000
  in kB     -10.87349   -10.87349    32.05790    -0.00000     0.00000     0.00000
  external pressure =        3.44 kB  Pullay stress =        0.00 kB


 VOLUME and BASIS-vectors are now :
 -----------------------------------------------------------------------------
  energy-cutoff  :      200.00
  volume of cell :       30.59
      direct lattice vectors                 reciprocal lattice vectors
    -2.450000000  2.450000000  1.274000000     0.000000000  0.204081633  0.392464678
     2.450000000 -2.450000000  1.274000000     0.204081633  0.000000000  0.392464678
     2.450000000  2.450000000 -1.274000000     0.204081633  0.204081633 -0.000000000

  length of vectors
     3.691622408  3.691622408  3.691622408     0.442354876  0.442354876  0.288615013


 FORCES acting on ions
    electron-ion (+dipol)            ewald-force                    non-local-force                 convergence-correction
 -----------------------------------------------------------------------------------------------
   0.126E-05 -.126E-05 -.108E-13   0.198E-14 0.156E-15 0.342E-17   -.725E-16 0.177E-16 0.398E-17   0.331E-08 -.331E-08 -.110E-15
   -.126E-05 0.126E-05 0.178E-13   -.185E-14 0.943E-16 0.891E-15   0.742E-16 -.507E-16 0.650E-17   -.331E-08 0.331E-08 -.237E-15
 -----------------------------------------------------------------------------------------------
   -.176E-13 0.109E-13 0.697E-14   0.139E-15 0.250E-15 0.894E-15   0.173E-17 -.330E-16 0.105E-16   -.616E-16 -.328E-16 -.347E-15
 
 
 POSITION                                       TOTAL-FORCE (eV/Angst)
 -----------------------------------------------------------------------------------
      2.45000      0.00000      0.63700         0.000000     -0.000000     -0.000000
      0.00000      0.00000      0.00000        -0.000000      0.000000      0.000000
 -----------------------------------------------------------------------------------
    total drift:                               -0.000000      0.000000      0.000000


--------------------------------------------------------------------------------------------------------



  FREE ENERGIE OF THE ION-ELECTRON SYSTEM (eV)
  ---------------------------------------------------
  free  energy   TOTEN  =       -10.19286801 eV

  energy  without entropy=      -10.17631299  energy(sigma->0) =      -10.18459050
 


--------------------------------------------------------------------------------------------------------


    POTLOK:  cpu time    0.0320: real time    0.0522


--------------------------------------------------------------------------------------------------------




--------------------------------------------------------------------------------------------------------


  
 reached required accuracy - stopping structural energy minimisation
 writing wavefunctions
     LOOP+:  cpu time    2.1080: real time    3.1668
    4ORBIT:  cpu time    0.0000: real time    0.0000

 total amount of memory used by VASP MPI-rank0    32073. kBytes
=======================================================================

   base      :      30000. kBytes
   nonl-proj :       1324. kBytes
   fftplans  :        119. kBytes
   grid      :        270. kBytes
   one-center:          6. kBytes
   wavefun   :        354. kBytes
 
  
  
 General timing and accounting informations for this job:
 ========================================================
  
                  Total CPU time used (sec):        7.140
                            User time (sec):        5.164
                          System time (sec):        1.976
                         Elapsed time (sec):        9.861
  
                   Maximum memory used (kb):        9104.
                   Average memory used (kb):           0.
  
                          Minor page faults:        37934
                          Major page faults:           26
                 Voluntary context switches:        30498
