unknown system                          
   1.00000000000000     
    -2.596335    2.596335    1.481573
     2.596335   -2.596335    1.481573
     2.596335    2.596335   -1.481573
   Si
     2
Direct
  0.000000  0.000000  0.000000
  0.250000  0.750000  0.500000
 
   36   36   36
 -6.4025     -5.0581     -1.4165      3.5026      8.4304      12.267      14.374      14.674      13.572      11.748    
  9.8330      8.0786      6.5915      5.4100      4.5215      3.8883      3.4686      3.2296      3.1520      3.2296    
  3.4686      3.8883      4.5215      5.4100      6.5915      8.0786      9.8330      11.748      13.572      14.674    
  14.374      12.267      8.4304      3.5027     -1.4165     -5.0582     -5.0582     -5.6516     -3.6532     0.35152    
  5.2526      9.8179      13.081      14.574      14.374      12.982      11.095      9.2271      7.5577      6.1714    
  5.0889      4.2876      3.7272      3.3681      3.1815      3.1522      3.2777      3.5680      4.0461      4.7480    
  5.7158      6.9828      8.5503      10.363      12.295      14.009      14.823      14.111      11.585      7.4717    
  2.5418     -2.0415     -1.4165     -3.6532     -3.5231     -1.0759      2.9657      7.4859      11.369      13.831    
  14.596      13.880      12.248      10.360      8.5690      7.0084      5.7389      4.7643      4.0543      3.5680    
  3.2695      3.1346      3.1525      3.3244      3.6632      4.1954      4.9587      5.9941      7.3291      8.9533    
  10.797      12.716      14.302      14.877      13.897      11.198      7.1296      2.5418      3.5027     0.35151    
 -1.0759     -.36250      2.2594      6.0035      9.8289      12.796      14.336      14.353      13.181      11.406    
  9.5696      7.8847      6.4525      5.3102      4.4472      3.8287      3.4151      3.1753      3.0902      3.1530    
  3.3679      3.7509      4.3305      5.1452      6.2334      7.6156      9.2713      11.119      12.999      14.466    
  14.888      13.816      11.198      7.4717      8.4304      5.2526      2.9657      2.2594      3.3382      5.8447    
  9.0044      11.917      13.855      14.463      13.811      12.305      10.502      8.7556      7.2009      5.9103    
  4.8996      4.1475      3.6171      3.2726      3.0880      3.0493      3.1533      3.4068      3.8278      4.4463    
  5.2998      6.4231      7.8300      9.4909      11.317      13.140      14.519      14.888      13.897      11.585    
  12.267      9.8179      7.4859      6.0035      5.8447      7.0423      9.1798      11.560      13.462      14.382    
  14.162      12.995      11.320      9.5753      7.9495      6.5431      5.4003      4.5196      3.8730      3.4247    
  3.1437      3.0097      3.0129      3.1533      3.4395      3.8911      4.5378      5.4156      6.5548      7.9626    
  9.6030      11.384      13.140      14.466      14.877      14.111      14.374      13.081      11.369      9.8289    
  9.0044      9.1798      10.271      11.863      13.381      14.302      14.329      13.466      11.989      10.304    
  8.6622      7.1820      5.9333      4.9372      4.1797      3.6301      3.2558      3.0316      2.9423      2.9821    
  3.1530      3.4651      3.9381      4.6012      5.4873      6.6222      8.0075      9.6030      11.317      12.999    
  14.302      14.823      14.674      14.574      13.831      12.796      11.917      11.560      11.863      12.681    
  13.650      14.338      14.413      13.754      12.485      10.911      9.3052      7.7987      6.4790      5.3889    
  4.5318      3.8866      3.4231      3.1136      2.9386      2.8877      2.9579      3.1526      3.4825      3.9672    
  4.6336      5.5116      6.6222      7.9626      9.4909      11.119      12.716      14.009      13.572      14.374    
  14.596      14.336      13.854      13.462      13.381      13.650      14.108      14.473      14.458      13.897    
  12.805      11.375      9.8500      8.3651      7.0153      5.8604      4.9217      4.1910      3.6444      3.2550    
  3.0006      2.8670      2.8474      2.9411      3.1522      3.4914      3.9770      4.6336      5.4873      6.5548    
  7.8300      9.2713      10.797      12.295      11.748      12.982      13.880      14.353      14.463      14.382    
  14.302      14.338      14.473      14.567      14.427      13.900      12.949      11.679      10.274      8.8553    
  7.5189      6.3346      5.3389      4.5382      3.9180      3.4554      3.1278      2.9186      2.8183      2.8228    
  2.9325      3.1520      3.4914      3.9672      4.6012      5.4156      6.4231      7.6156      8.9533      10.363    
  9.8330      11.095      12.248      13.181      13.811      14.162      14.329      14.413      14.458      14.427    
  14.218      13.727      12.907      11.809      10.556      9.2464      7.9675      6.7930      5.7710      4.9214    
  4.2411      3.7141      3.3203      3.0425      2.8690      2.7936      2.8144      2.9325      3.1522      3.4825    
  3.9381      4.5378      5.2998      6.2334      7.3291      8.5503      8.0786      9.2272      10.360      11.406    
  12.305      12.995      13.466      13.754      13.897      13.900      13.727      13.323      12.655      11.751    
  10.681      9.5188      8.3400      7.2169      6.2038      5.3319      4.6097      4.0303      3.5787      3.2393    
  2.9997      2.8523      2.7936      2.8228      2.9411      3.1526      3.4651      3.8911      4.4463      5.1452    
  5.9941      6.9828      6.5915      7.5577      8.5691      9.5696      10.502      11.320      11.989      12.485    
  12.805      12.949      12.907      12.655      12.180      11.495      10.637      9.6559      8.6179      7.5882    
  6.6227      5.7600      5.0192      4.4033      3.9046      3.5113      3.2123      2.9997      2.8690      2.8183    
  2.8474      2.9579      3.1530      3.4395      3.8278      4.3305      4.9587      5.7158      5.4100      6.1714    
  7.0085      7.8847      8.7556      9.5753      10.304      10.911      11.375      11.679      11.809      11.751    
  11.495      11.044      10.416      9.6464      8.7860      7.8905      7.0129      6.1952      5.4643      4.8326    
  4.3007      3.8629      3.5113      3.2393      3.0425      2.9186      2.8670      2.8877      2.9821      3.1533    
  3.4068      3.7509      4.1954      4.7480      4.5215      5.0888      5.7389      6.4525      7.2009      7.9495    
  8.6622      9.3052      9.8500      10.274      10.556      10.681      10.637      10.416      10.026      9.4869    
  8.8337      8.1095      7.3598      6.6257      5.9381      5.3168      4.7705      4.3007      3.9046      3.5787    
  3.3203      3.1278      3.0006      2.9386      2.9423      3.0129      3.1533      3.3679      3.6632      4.0461    
  3.8883      4.2876      4.7642      5.3102      5.9103      6.5431      7.1820      7.7987      8.3651      8.8553    
  9.2464      9.5188      9.6559      9.6464      9.4869      9.1843      8.7571      8.2340      7.6492      7.0381    
  6.4313      5.8524      5.3168      4.8326      4.4033      4.0303      3.7141      3.4554      3.2550      3.1136    
  3.0316      3.0097      3.0493      3.1530      3.3244      3.5680      3.4686      3.7273      4.0543      4.4472    
  4.8996      5.4003      5.9333      6.4790      7.0153      7.5189      7.9675      8.3400      8.6179      8.7860    
  8.8337      8.7571      8.5606      8.2573      7.8677      7.4169      6.9304      6.4313      5.9381      5.4643    
  5.0192      4.6097      4.2411      3.9180      3.6444      3.4231      3.2558      3.1437      3.0880      3.0902    
  3.1525      3.2777      3.2296      3.3681      3.5680      3.8287      4.1475      4.5196      4.9372      5.3889    
  5.8604      6.3346      6.7930      7.2169      7.5882      7.8905      8.1095      8.2340      8.2573      8.1788    
  8.0040      7.7448      7.4169      7.0381      6.6257      6.1952      5.7600      5.3319      4.9214      4.5382    
  4.1910      3.8866      3.6301      3.4247      3.2726      3.1753      3.1346      3.1522      3.1520      3.1814    
  3.2694      3.4151      3.6171      3.8730      4.1797      4.5318      4.9217      5.3389      5.7710      6.2038    
  6.6227      7.0129      7.3598      7.6492      7.8677      8.0040      8.0504      8.0040      7.8677      7.6492    
  7.3598      7.0129      6.6227      6.2038      5.7710      5.3389      4.9217      4.5318      4.1797      3.8730    
  3.6171      3.4151      3.2695      3.1815      3.2296      3.1521      3.1346      3.1753      3.2725      3.4247    
  3.6301      3.8866      4.1910      4.5382      4.9213      5.3319      5.7600      6.1952      6.6257      7.0381    
  7.4169      7.7448      8.0040      8.1788      8.2573      8.2340      8.1095      7.8905      7.5882      7.2169    
  6.7930      6.3346      5.8604      5.3889      4.9372      4.5196      4.1475      3.8287      3.5680      3.3681    
  3.4686      3.2777      3.1525      3.0902      3.0879      3.1437      3.2558      3.4231      3.6444      3.9180    
  4.2411      4.6097      5.0192      5.4643      5.9381      6.4313      6.9304      7.4169      7.8677      8.2573    
  8.5606      8.7571      8.8337      8.7860      8.6179      8.3400      7.9675      7.5189      7.0153      6.4790    
  5.9333      5.4003      4.8996      4.4472      4.0543      3.7272      3.8883      3.5680      3.3243      3.1529    
  3.0493      3.0096      3.0315      3.1136      3.2550      3.4554      3.7140      4.0303      4.4033      4.8326    
  5.3168      5.8524      6.4313      7.0381      7.6492      8.2340      8.7571      9.1843      9.4869      9.6464    
  9.6559      9.5188      9.2464      8.8553      8.3651      7.7987      7.1820      6.5431      5.9103      5.3102    
  4.7643      4.2876      4.5215      4.0461      3.6632      3.3679      3.1532      3.0129      2.9423      2.9386    
  3.0006      3.1278      3.3203      3.5787      3.9046      4.3007      4.7705      5.3168      5.9381      6.6257    
  7.3598      8.1095      8.8337      9.4869      10.026      10.416      10.637      10.681      10.556      10.274    
  9.8500      9.3052      8.6622      7.9495      7.2009      6.4525      5.7389      5.0889      5.4100      4.7480    
  4.1953      3.7509      3.4067      3.1533      2.9821      2.8877      2.8670      2.9187      3.0425      3.2393    
  3.5113      3.8628      4.3007      4.8326      5.4643      6.1952      7.0129      7.8905      8.7860      9.6464    
  10.416      11.044      11.495      11.751      11.809      11.679      11.375      10.911      10.304      9.5753    
  8.7556      7.8847      7.0084      6.1714      6.5915      5.7158      4.9587      4.3305      3.8278      3.4395    
  3.1530      2.9579      2.8475      2.8183      2.8690      2.9997      3.2123      3.5113      3.9046      4.4033    
  5.0192      5.7600      6.6227      7.5882      8.6179      9.6559      10.637      11.495      12.180      12.655    
  12.907      12.949      12.805      12.485      11.989      11.320      10.502      9.5696      8.5690      7.5577    
  8.0786      6.9828      5.9941      5.1452      4.4463      3.8911      3.4651      3.1526      2.9412      2.8228    
  2.7937      2.8524      2.9997      3.2393      3.5787      4.0303      4.6097      5.3319      6.2038      7.2169    
  8.3400      9.5188      10.681      11.751      12.655      13.323      13.727      13.900      13.897      13.754    
  13.466      12.995      12.305      11.406      10.360      9.2271      9.8330      8.5502      7.3290      6.2334    
  5.2998      4.5378      3.9382      3.4826      3.1522      2.9326      2.8145      2.7937      2.8690      3.0425    
  3.3203      3.7140      4.2411      4.9213      5.7710      6.7930      7.9675      9.2464      10.556      11.809    
  12.907      13.727      14.218      14.427      14.458      14.413      14.329      14.162      13.811      13.181    
  12.248      11.095      11.748      10.363      8.9533      7.6156      6.4231      5.4156      4.6013      3.9672    
  3.4915      3.1521      2.9326      2.8228      2.8183      2.9187      3.1278      3.4554      3.9180      4.5382    
  5.3389      6.3346      7.5189      8.8553      10.274      11.679      12.949      13.900      14.427      14.567    
  14.473      14.338      14.302      14.382      14.463      14.353      13.880      12.982      13.572      12.295    
  10.797      9.2713      7.8300      6.5548      5.4873      4.6337      3.9771      3.4915      3.1522      2.9412    
  2.8475      2.8670      3.0006      3.2550      3.6444      4.1910      4.9217      5.8604      7.0153      8.3651    
  9.8500      11.375      12.805      13.897      14.458      14.473      14.108      13.650      13.381      13.462    
  13.855      14.336      14.596      14.374      14.674      14.009      12.716      11.119      9.4909      7.9626    
  6.6222      5.5116      4.6337      3.9672      3.4826      3.1526      2.9579      2.8877      2.9386      3.1136    
  3.4231      3.8866      4.5318      5.3889      6.4790      7.7987      9.3052      10.911      12.485      13.754    
  14.413      14.338      13.650      12.681      11.863      11.560      11.917      12.796      13.831      14.574    
  14.374      14.823      14.302      12.999      11.317      9.6030      8.0075      6.6222      5.4873      4.6013    
  3.9382      3.4651      3.1530      2.9821      2.9423      3.0315      3.2558      3.6301      4.1797      4.9372    
  5.9333      7.1820      8.6622      10.304      11.989      13.466      14.329      14.302      13.381      11.863    
  10.271      9.1798      9.0044      9.8289      11.369      13.081      12.267      14.111      14.877      14.466    
  13.140      11.384      9.6030      7.9626      6.5548      5.4156      4.5378      3.8911      3.4395      3.1533    
  3.0129      3.0096      3.1437      3.4247      3.8730      4.5196      5.4003      6.5431      7.9495      9.5753    
  11.320      12.995      14.162      14.382      13.462      11.560      9.1798      7.0423      5.8447      6.0035    
  7.4859      9.8179      8.4304      11.585      13.897      14.888      14.519      13.140      11.317      9.4909    
  7.8300      6.4231      5.2998      4.4463      3.8278      3.4067      3.1532      3.0493      3.0879      3.2725    
  3.6171      4.1475      4.8996      5.9103      7.2009      8.7556      10.502      12.305      13.811      14.463    
  13.854      11.917      9.0044      5.8447      3.3382      2.2594      2.9657      5.2526      3.5026      7.4717    
  11.198      13.816      14.888      14.466      12.999      11.119      9.2713      7.6156      6.2334      5.1452    
  4.3305      3.7509      3.3679      3.1529      3.0902      3.1753      3.4151      3.8287      4.4472      5.3102    
  6.4525      7.8847      9.5696      11.406      13.181      14.353      14.336      12.796      9.8289      6.0035    
  2.2594     -.36250     -1.0759     0.35152     -1.4165      2.5418      7.1296      11.198      13.897      14.877    
  14.302      12.716      10.797      8.9533      7.3290      5.9941      4.9587      4.1953      3.6632      3.3243    
  3.1525      3.1346      3.2694      3.5680      4.0543      4.7642      5.7389      7.0085      8.5691      10.360    
  12.248      13.880      14.596      13.831      11.369      7.4859      2.9657     -1.0759     -3.5231     -3.6532    
 -5.0581     -2.0414      2.5418      7.4717      11.585      14.111      14.823      14.009      12.295      10.363    
  8.5502      6.9828      5.7158      4.7480      4.0461      3.5680      3.2777      3.1521      3.1814      3.3681    
  3.7273      4.2876      5.0888      6.1714      7.5577      9.2272      11.095      12.982      14.374      14.574    
  13.081      9.8179      5.2526     0.35151     -3.6532     -5.6516     -5.0580     -4.1196     -.94012      3.5833    
  8.2605      12.006      14.143      14.529      13.507      11.716      9.7982      8.0264      6.5141      5.3055    
  4.3914      3.7351      3.2939      3.0335      2.9325      2.9828      3.1888      3.5675      4.1496      4.9759    
  6.0869      7.5020      9.1943      11.071      12.931      14.224      14.271      12.627      9.2900      4.7950    
 0.13726     -3.4853     -4.1196     -5.0580     -3.4852     0.13728      4.7950      9.2900      12.627      14.271    
  14.224      12.931      11.071      9.1943      7.5020      6.0869      4.9759      4.1496      3.5675      3.1888    
  2.9828      2.9325      3.0335      3.2939      3.7351      4.3914      5.3055      6.5141      8.0264      9.7982    
  11.716      13.507      14.529      14.143      12.006      8.2605      3.5833     -.94014     -.84532     -3.3831    
 -3.6531     -1.5879      2.1988      6.6476      10.631      13.303      14.300      13.767      12.228      10.349    
  8.5423      6.9531      5.6520      4.6485      3.9145      3.4085      3.0928      2.9412      2.9411      3.0919    
  3.4054      3.9064      4.6323      5.6253      6.9173      8.5061      10.332      12.264      13.951      14.731    
  14.026      11.612      7.7572      3.2367      3.8239     0.40826     -1.3981     -1.0759      1.2575      4.8954    
  8.8109      12.014      13.848      14.131      13.132      11.418      9.5762      7.8661      6.4002      5.2246    
  4.3336      3.6930      3.2624      3.0082      2.9095      2.9578      3.1563      3.5197      4.0759      4.8635    
  5.9231      7.2804      8.9219      10.775      12.693      14.274      14.875      14.009      11.557      7.8912    
  8.6453      5.2439      2.6092      1.5098      2.2594      4.5973      7.7925      10.919      13.174      14.106    
  13.702      12.327      10.544      8.7787      7.1905      5.8628      4.8188      4.0404      3.4908      3.1323    
  2.9368      2.8882      2.9821      3.2247      3.6332      4.2375      5.0761      6.1867      7.5880      9.2568    
  11.111      12.994      14.485      14.997      14.133      11.874      12.500      9.8785      7.2488      5.3949    
  4.8824      5.8446      7.9333      10.459      12.647      13.905      13.982      13.007      11.397      9.6428    
  7.9860      6.5396      5.3583      4.4460      3.7762      3.3122      3.0210      2.8798      2.8775      3.0130    
  3.2947      3.7419      4.3850      5.2614      6.4047      7.8266      9.4963      11.326      13.157      14.587    
  15.099      14.387      14.703      13.298      11.358      9.4981      8.3285      8.2238      9.1797      10.820    
  12.546      13.768      14.098      13.463      12.096      10.417      8.7479      7.2267      5.9347      4.9010    
  4.1152      3.5465      3.1608      2.9305      2.8384      2.8775      3.0493      3.3641      3.8418      4.5126    
  5.4115      6.5673      7.9855      9.6297      11.410      13.177      14.572      15.157      15.123      14.977    
  14.088      12.809      11.630      10.986      11.094      11.863      12.938      13.848      14.186      13.755    
  12.621      11.071      9.4408      7.8931      6.5265      5.3931      4.5017      3.8328      3.3551      3.0390    
  2.8624      2.8134      2.8882      3.0902      3.4306      3.9293      4.6151      5.5196      6.6670      8.0572    
  9.6506      11.359      13.048      14.422      14.116      14.937      15.096      14.683      13.976      13.331    
  13.035      13.184      13.650      14.137      14.312      13.941      12.979      11.585      10.036      8.5089    
  7.1091      5.9057      4.9268      4.1671      3.6026      3.2046      2.9485      2.8181      2.8055      2.9095    
  3.1346      3.4921      4.0012      4.6882      5.5811      6.6992      8.0382      9.5570      11.172      12.765    
  12.335      13.640      14.552      14.963      14.937      14.668      14.393      14.280      14.349      14.473    
  14.435      14.036      13.183      11.942      10.509      9.0466      7.6573      6.4200      5.3786      4.5434    
  3.9008      3.4267      3.0962      2.8906      2.7985      2.8153      2.9413      3.1815      3.5467      4.0548    
  4.7290      5.5933      6.6624      7.9290      9.3523      10.855      10.420      11.771      12.994      13.944    
  14.526      14.770      14.794      14.737      14.682      14.613      14.427      13.992      13.221      12.129    
  10.840      9.4817      8.1464      6.9149      5.8423      4.9530      4.2459      3.7040      3.3055      3.0308    
  2.8661      2.8042      2.8427      2.9829      3.2296      3.5928      4.0882      4.7360      5.5559      6.5586    
  7.7344      9.0445      8.6467      9.8832      11.096      12.205      13.129      13.790      14.185      14.371    
  14.415      14.346      14.138      13.727      13.057      12.126      11.010      9.7921      8.5530      7.3693    
  6.3015      5.3854      4.6322      4.0347      3.5764      3.2392      3.0087      2.8755      2.8355      2.8876    
  3.0335      3.2777      3.6289      4.1003      4.7091      5.4709      6.3926      7.4631      7.1270      8.1756    
  9.2666      10.336      11.319      12.161      12.818      13.264      13.512      13.582      13.477      13.176    
  12.655      11.916      11.000      9.9581      8.8556      7.7621      6.7385      5.8281      5.0528      4.4160    
  3.9088      3.5170      3.2274      3.0299      2.9188      2.8919      2.9490      3.0919      3.3244      3.6536    
  4.0909      4.6497      5.3422      6.1719      5.9065      6.7409      7.6515      8.5961      9.5232      10.381    
  11.123      11.718      12.146      12.395      12.460      12.335      12.012      11.495      10.801      9.9647    
  9.0360      8.0740      7.1358      6.2677      5.4997      4.8449      4.3033      3.8668      3.5253      3.2698    
  3.0942      2.9954      2.9724      3.0255      3.1563      3.3679      3.6663      4.0604      4.5607      5.1758    
  4.9787      5.6076      6.3212      7.0966      7.9000      8.6913      9.4289      10.076      10.603      10.988    
  11.218      11.280      11.167      10.877      10.416      9.8057      9.0813      8.2884      7.4763      6.6898    
  5.9632      5.3174      4.7607      4.2927      3.9082      3.6010      3.3664      3.2012      3.1044      3.0755    
  3.1151      3.2246      3.4068      3.6663      4.0101      4.4458      4.3096      4.7589      5.2874      5.8851    
  6.5335      7.2069      7.8745      8.5041      9.0651      9.5314      9.8819      10.100      10.174      10.095    
  9.8632      9.4869      8.9865      8.3931      7.7444      7.0794      6.4320      5.8275      5.2811      4.7997    
  4.3842      4.0331      3.7445      3.5170      3.3501      3.2440      3.1988      3.2152      3.2947      3.4395    
  3.6537      3.9421      3.8588      4.1572      4.5248      4.9583      5.4493      5.9839      6.5430      7.1038    
  7.6413      8.1308      8.5495      8.8776      9.0991      9.2020      9.1786      9.0280      8.7571      8.3821    
  7.9270      7.4205      6.8916      6.3655      5.8612      5.3912      4.9624      4.5788      4.2427      3.9562    
  3.7212      3.5393      3.4118      3.3393      3.3229      3.3641      3.4651      3.6289      3.5929      3.7631    
  3.9941      4.2848      4.6320      5.0292      5.4666      5.9305      6.4042      6.8689      7.3047      7.6924    
  8.0150      8.2577      8.4088      8.4604      8.4090      8.2573      8.0149      7.6975      7.3245      6.9164    
  6.4917      6.0653      5.6487      5.2505      4.8781      4.5381      4.2364      3.9780      3.7666      3.6045    
  3.4934      3.4349      3.4306      3.4825      3.4914      3.5468      3.6584      3.8256      4.0467      4.3190    
  4.6378      4.9965      5.3858      5.7938      6.2064      6.6084      6.9847      7.3209      7.6041      7.8227    
  7.9665      8.0281      8.0040      7.8958      7.7105      7.4590      7.1546      6.8108      6.4403      6.0547    
  5.6653      5.2834      4.9198      4.5842      4.2850      4.0282      3.8179      3.6570      3.5478      3.4921    
  3.5468      3.4914      3.4921      3.5478      3.6570      3.8179      4.0282      4.2850      4.5842      4.9197    
  5.2834      5.6653      6.0547      6.4403      6.8108      7.1546      7.4590      7.7105      7.8958      8.0040    
  8.0281      7.9665      7.8227      7.6041      7.3209      6.9847      6.6084      6.2064      5.7938      5.3858    
  4.9965      4.6378      4.3189      4.0467      3.8256      3.6584      3.7631      3.5929      3.4825      3.4305    
  3.4348      3.4934      3.6044      3.7665      3.9780      4.2364      4.5381      4.8781      5.2505      5.6487    
  6.0653      6.4917      6.9164      7.3245      7.6975      8.0149      8.2573      8.4090      8.4604      8.4088    
  8.2577      8.0150      7.6925      7.3047      6.8689      6.4042      5.9305      5.4666      5.0292      4.6319    
  4.2848      3.9941      4.1572      3.8588      3.6289      3.4651      3.3640      3.3228      3.3392      3.4117    
  3.5393      3.7212      3.9562      4.2427      4.5788      4.9624      5.3912      5.8612      6.3655      6.8916    
  7.4205      7.9270      8.3821      8.7571      9.0280      9.1786      9.2020      9.0991      8.8776      8.5495    
  8.1308      7.6413      7.1038      6.5430      5.9839      5.4493      4.9583      4.5248      4.7589      4.3096    
  3.9420      3.6537      3.4395      3.2946      3.2152      3.1987      3.2439      3.3501      3.5169      3.7445    
  4.0331      4.3842      4.7997      5.2811      5.8275      6.4320      7.0794      7.7444      8.3931      8.9865    
  9.4869      9.8632      10.095      10.174      10.100      9.8819      9.5315      9.0651      8.5041      7.8745    
  7.2069      6.5335      5.8851      5.2874      5.6076      4.9787      4.4458      4.0101      3.6663      3.4067    
  3.2246      3.1151      3.0755      3.1043      3.2012      3.3664      3.6010      3.9082      4.2927      4.7607    
  5.3174      5.9632      6.6898      7.4763      8.2884      9.0813      9.8057      10.416      10.877      11.167    
  11.280      11.218      10.988      10.603      10.076      9.4289      8.6913      7.9000      7.0966      6.3212    
  6.7410      5.9065      5.1758      4.5607      4.0603      3.6663      3.3679      3.1563      3.0255      2.9724    
  2.9954      3.0942      3.2698      3.5253      3.8668      4.3033      4.8449      5.4997      6.2677      7.1358    
  8.0740      9.0360      9.9647      10.801      11.495      12.012      12.335      12.460      12.395      12.146    
  11.718      11.123      10.381      9.5232      8.5961      7.6515      8.1756      7.1270      6.1719      5.3422    
  4.6497      4.0909      3.6536      3.3243      3.0919      2.9490      2.8919      2.9188      3.0299      3.2274    
  3.5170      3.9088      4.4160      5.0528      5.8281      6.7385      7.7621      8.8556      9.9581      11.000    
  11.916      12.655      13.176      13.477      13.582      13.512      13.264      12.818      12.161      11.319    
  10.336      9.2666      9.8832      8.6467      7.4631      6.3926      5.4708      4.7090      4.1003      3.6289    
  3.2777      3.0335      2.8876      2.8355      2.8756      3.0087      3.2392      3.5764      4.0347      4.6322    
  5.3854      6.3015      7.3693      8.5530      9.7921      11.010      12.126      13.057      13.727      14.138    
  14.346      14.415      14.371      14.185      13.790      13.129      12.205      11.096      11.771      10.420    
  9.0445      7.7344      6.5586      5.5559      4.7359      4.0882      3.5928      3.2296      2.9829      2.8428    
  2.8043      2.8662      3.0308      3.3056      3.7040      4.2459      4.9530      5.8423      6.9149      8.1464    
  9.4817      10.840      12.129      13.221      13.992      14.427      14.613      14.682      14.737      14.794    
  14.770      14.526      13.944      12.994      13.640      12.335      10.855      9.3523      7.9289      6.6624    
  5.5933      4.7290      4.0548      3.5468      3.1815      2.9413      2.8153      2.7985      2.8906      3.0962    
  3.4267      3.9008      4.5434      5.3786      6.4200      7.6573      9.0466      10.509      11.942      13.183    
  14.036      14.435      14.473      14.349      14.280      14.393      14.668      14.937      14.963      14.552    
  14.937      14.116      12.765      11.172      9.5570      8.0381      6.6991      5.5811      4.6883      4.0012    
  3.4921      3.1346      2.9096      2.8056      2.8181      2.9485      3.2046      3.6026      4.1671      4.9268    
  5.9057      7.1091      8.5089      10.036      11.585      12.979      13.941      14.312      14.137      13.650    
  13.184      13.035      13.331      13.976      14.683      15.096      14.977      15.123      14.422      13.048    
  11.359      9.6506      8.0572      6.6669      5.5197      4.6152      3.9294      3.4306      3.0903      2.8882    
  2.8134      2.8624      3.0390      3.3552      3.8328      4.5017      5.3930      6.5265      7.8931      9.4408    
  11.071      12.621      13.755      14.186      13.848      12.938      11.863      11.094      10.986      11.630    
  12.809      14.088      13.298      14.703      15.157      14.572      13.177      11.410      9.6297      7.9855    
  6.5673      5.4115      4.5127      3.8419      3.3641      3.0494      2.8775      2.8384      2.9305      3.1608    
  3.5465      4.1152      4.9010      5.9347      7.2267      8.7479      10.417      12.096      13.463      14.098    
  13.768      12.546      10.820      9.1798      8.2238      8.3285      9.4981      11.358      9.8785      12.500    