unknown system                          
   1.00000000000000     
    -2.596335    2.596335    1.481573
     2.596335   -2.596335    1.481573
     2.596335    2.596335   -1.481573
   Si
     2
Direct
  0.000000  0.000000  0.000000
  0.250000  0.750000  0.500000
 
   36   36   36
 -.64024795291E+01 -.50581373181E+01 -.14164956046E+01 0.35026446457E+01 0.84303687969E+01
 0.12266876689E+02 0.14374042762E+02 0.14674460922E+02 0.13572175077E+02 0.11747776298E+02
 0.98330056021E+01 0.80785813209E+01 0.65915016255E+01 0.54099934134E+01 0.45215129401E+01
 0.38882555167E+01 0.34685569644E+01 0.32296006420E+01 0.31520071043E+01 0.32295982223E+01
 0.34685790897E+01 0.38882901287E+01 0.45215175751E+01 0.54099711057E+01 0.65914978975E+01
 0.80786029734E+01 0.98330133239E+01 0.11747759631E+02 0.13572165458E+02 0.14674467264E+02
 0.14374042118E+02 0.12266870035E+02 0.84303781883E+01 0.35026561592E+01 -.14165161993E+01
 -.50581734258E+01 -.50581734258E+01 -.56515752169E+01 -.36532045192E+01 0.35152157623E+00
 0.52525909938E+01 0.98179218089E+01 0.13080680581E+02 0.14574016967E+02 0.14374263305E+02
 0.12981882148E+02 0.11094767918E+02 0.92271457896E+01 0.75576570563E+01 0.61713836184E+01
 0.50888548064E+01 0.42876204595E+01 0.37272315373E+01 0.33680908333E+01 0.31814600870E+01
 0.31521642106E+01 0.32777380114E+01 0.35680083270E+01 0.40461193392E+01 0.47479818983E+01
 0.57157710667E+01 0.69827624080E+01 0.85502506382E+01 0.10363023404E+02 0.12294956587E+02
 0.14009230215E+02 0.14822926838E+02 0.14110695299E+02 0.11585104122E+02 0.74717081063E+01
 0.25417900942E+01 -.20414600952E+01 -.14165161993E+01 -.36532287290E+01 -.35231090832E+01
 -.10759084082E+01 0.29657325992E+01 0.74859088014E+01 0.11368567301E+02 0.13831287964E+02
 0.14595797014E+02 0.13880019748E+02 0.12248442894E+02 0.10359616840E+02 0.85690449356E+01
 0.70084490143E+01 0.57389354453E+01 0.47642516951E+01 0.40542615855E+01 0.35680256797E+01
 0.32694713286E+01 0.31346065544E+01 0.31525455437E+01 0.33243675224E+01 0.36632099866E+01
 0.41953653903E+01 0.49586643756E+01 0.59941328586E+01 0.73290574091E+01 0.89533353772E+01
 0.10797025034E+02 0.12715608078E+02 0.14301515449E+02 0.14876649629E+02 0.13897290881E+02
 0.11198105947E+02 0.71295982971E+01 0.25417900942E+01 0.35026561592E+01 0.35151260842E+00
 -.10759143654E+01 -.36250113530E+00 0.22594231674E+01 0.60034705321E+01 0.98288681577E+01
 0.12796354478E+02 0.14335616413E+02 0.14353001107E+02 0.13180581731E+02 0.11406145649E+02
 0.95696083951E+01 0.78847029922E+01 0.64524659501E+01 0.53101719551E+01 0.44472297618E+01
 0.38286523330E+01 0.34151484892E+01 0.31753172894E+01 0.30902009787E+01 0.31529816857E+01
 0.33679023402E+01 0.37508958188E+01 0.43305237347E+01 0.51452106518E+01 0.62334119053E+01
 0.76156461214E+01 0.92712629626E+01 0.11118879430E+02 0.12998627596E+02 0.14466277088E+02
 0.14888007007E+02 0.13816147477E+02 0.11198105947E+02 0.74717081063E+01 0.84303781883E+01
 0.52525952661E+01 0.29657360176E+01 0.22594343915E+01 0.33382384930E+01 0.58446818340E+01
 0.90043726857E+01 0.11916616773E+02 0.13854506025E+02 0.14463011971E+02 0.13810584891E+02
 0.12304835154E+02 0.10502482042E+02 0.87555520865E+01 0.72008845091E+01 0.59103181538E+01
 0.48996428197E+01 0.41474879753E+01 0.36170564207E+01 0.32725641740E+01 0.30879937088E+01
 0.30493050040E+01 0.31532725387E+01 0.34067664893E+01 0.38278352912E+01 0.44462697253E+01
 0.52997762343E+01 0.64231478473E+01 0.78300195440E+01 0.94908720204E+01 0.11316796769E+02
 0.13140384925E+02 0.14519140641E+02 0.14888007007E+02 0.13897290881E+02 0.11585104122E+02
 0.12266870035E+02 0.98179170781E+01 0.74859040953E+01 0.60034822617E+01 0.58447036965E+01
 0.70423266502E+01 0.91798219505E+01 0.11559590384E+02 0.13462118943E+02 0.14382138955E+02
 0.14161708774E+02 0.12994922682E+02 0.11320094197E+02 0.95753231598E+01 0.79495312712E+01
 0.65430517635E+01 0.54002899168E+01 0.45196417562E+01 0.38730382999E+01 0.34246978751E+01
 0.31437121954E+01 0.30096566338E+01 0.30129370671E+01 0.31532784474E+01 0.34395392473E+01
 0.38910786704E+01 0.45378087700E+01 0.54155551097E+01 0.65547614325E+01 0.79626397919E+01
 0.96030209659E+01 0.11383577213E+02 0.13140384925E+02 0.14466277088E+02 0.14876649629E+02
 0.14110695299E+02 0.14374042118E+02 0.13080677458E+02 0.11368551744E+02 0.98288562133E+01
 0.90043868079E+01 0.91798459816E+01 0.10270714939E+02 0.11863013336E+02 0.13381076582E+02
 0.14302083797E+02 0.14328836531E+02 0.13466192004E+02 0.11988869272E+02 0.10304011866E+02
 0.86621571088E+01 0.71820059503E+01 0.59333170432E+01 0.49372066662E+01 0.41797216798E+01
 0.36300773419E+01 0.32557784353E+01 0.30315518521E+01 0.29422874507E+01 0.29821182314E+01
 0.31529970684E+01 0.34650752652E+01 0.39381491393E+01 0.46012000625E+01 0.54872649648E+01
 0.66221533711E+01 0.80075262011E+01 0.96030209659E+01 0.11316796769E+02 0.12998627596E+02
 0.14301515449E+02 0.14822926838E+02 0.14674467264E+02 0.14574031666E+02 0.13831290905E+02
 0.12796335537E+02 0.11916601681E+02 0.11559601844E+02 0.11863032705E+02 0.12680981259E+02
 0.13649698657E+02 0.14338024682E+02 0.14412789254E+02 0.13754143476E+02 0.12485258134E+02
 0.10911042925E+02 0.93051591392E+01 0.77986940405E+01 0.64790377034E+01 0.53889373138E+01
 0.45318438648E+01 0.38865967403E+01 0.34230704139E+01 0.31135768877E+01 0.29386045962E+01
 0.28876930631E+01 0.29578627775E+01 0.31525667640E+01 0.34825428993E+01 0.39671739884E+01
 0.46336305056E+01 0.55115516252E+01 0.66221533711E+01 0.79626397919E+01 0.94908720204E+01
 0.11118879430E+02 0.12715608078E+02 0.14009230215E+02 0.13572165458E+02 0.14374272981E+02
 0.14595821817E+02 0.14335626063E+02 0.13854490629E+02 0.13462105021E+02 0.13381082952E+02
 0.13649710166E+02 0.14108257535E+02 0.14472680823E+02 0.14458174503E+02 0.13897062317E+02
 0.12805115671E+02 0.11374798096E+02 0.98500399297E+01 0.83650628231E+01 0.70152788147E+01
 0.58603902247E+01 0.49216904050E+01 0.41909820356E+01 0.36444266657E+01 0.32550150662E+01
 0.30005867914E+01 0.28669630884E+01 0.28474435760E+01 0.29410913824E+01 0.31521917289E+01
 0.34914067746E+01 0.39769820963E+01 0.46336305056E+01 0.54872649648E+01 0.65547614325E+01
 0.78300195440E+01 0.92712629626E+01 0.10797025034E+02 0.12294956587E+02 0.11747759631E+02
 0.12981864676E+02 0.13880027812E+02 0.14353027703E+02 0.14463025759E+02 0.14382130769E+02
 0.14302074285E+02 0.14338026397E+02 0.14472684697E+02 0.14566501685E+02 0.14426633552E+02
 0.13900151025E+02 0.12949437107E+02 0.11678995767E+02 0.10273535110E+02 0.88552743547E+01
 0.75189477651E+01 0.63345722869E+01 0.53389366216E+01 0.45382106869E+01 0.39180412799E+01
 0.34553772506E+01 0.31277900938E+01 0.29186336551E+01 0.28182586667E+01 0.28227661145E+01
 0.29325119793E+01 0.31520442765E+01 0.34914067746E+01 0.39671739884E+01 0.46012000625E+01
 0.54155551097E+01 0.64231478473E+01 0.76156461214E+01 0.89533353772E+01 0.10363023404E+02
 0.98330133239E+01 0.11094750084E+02 0.12248421701E+02 0.13180584054E+02 0.13810605400E+02
 0.14161722333E+02 0.14328835658E+02 0.14412785612E+02 0.14458173557E+02 0.14426631936E+02
 0.14217995417E+02 0.13727048783E+02 0.12906930327E+02 0.11808923530E+02 0.10556226576E+02
 0.92464466533E+01 0.79674850640E+01 0.67929939985E+01 0.57710085883E+01 0.49213514547E+01
 0.42410806233E+01 0.37140524806E+01 0.33202886766E+01 0.30424899716E+01 0.28689682859E+01
 0.27936163518E+01 0.28144491271E+01 0.29325119793E+01 0.31521917289E+01 0.34825428993E+01
 0.39381491393E+01 0.45378087700E+01 0.52997762343E+01 0.62334119053E+01 0.73290574091E+01
 0.85502506382E+01 0.80786029734E+01 0.92271562837E+01 0.10359603450E+02 0.11406125877E+02
 0.12304831063E+02 0.12994932652E+02 0.13466201352E+02 0.13754147685E+02 0.13897064210E+02
 0.13900149350E+02 0.13727044126E+02 0.13322825178E+02 0.12655161947E+02 0.11750752735E+02
 0.10681485387E+02 0.95187584211E+01 0.83399611618E+01 0.72168788091E+01 0.62038428382E+01
 0.53318500130E+01 0.46096937967E+01 0.40302724051E+01 0.35787100629E+01 0.32392981487E+01
 0.29997070958E+01 0.28523303965E+01 0.27936163518E+01 0.28227661145E+01 0.29410913824E+01
 0.31525667640E+01 0.34650752652E+01 0.38910786704E+01 0.44462697253E+01 0.51452106518E+01
 0.59941328586E+01 0.69827624080E+01 0.65914978975E+01 0.75576707340E+01 0.85690565937E+01
 0.95696035497E+01 0.10502468639E+02 0.11320085913E+02 0.11988868281E+02 0.12485261360E+02
 0.12805122293E+02 0.12949442971E+02 0.12906928834E+02 0.12655156037E+02 0.12179741644E+02
 0.11495241603E+02 0.10636513428E+02 0.96558535203E+01 0.86178623764E+01 0.75882153327E+01
 0.66227339182E+01 0.57599939357E+01 0.50192421690E+01 0.44033210718E+01 0.39045939961E+01
 0.35112916394E+01 0.32123188395E+01 0.29997070958E+01 0.28689682859E+01 0.28182586667E+01
 0.28474435760E+01 0.29578627775E+01 0.31529970684E+01 0.34395392473E+01 0.38278352912E+01
 0.43305237347E+01 0.49586643756E+01 0.57157710667E+01 0.54099711057E+01 0.61713690548E+01
 0.70084536267E+01 0.78847147629E+01 0.87555566179E+01 0.95753185782E+01 0.10304002608E+02
 0.10911033926E+02 0.11374795904E+02 0.11679002783E+02 0.11808931097E+02 0.11750751331E+02
 0.11495235497E+02 0.11044166023E+02 0.10415841717E+02 0.96464165283E+01 0.87859570472E+01
 0.78905157986E+01 0.70129259843E+01 0.61951705979E+01 0.54643121329E+01 0.48325695020E+01
 0.43006899181E+01 0.38628581501E+01 0.35112916394E+01 0.32392981487E+01 0.30424899716E+01
 0.29186336551E+01 0.28669630884E+01 0.28876930631E+01 0.29821182314E+01 0.31532784474E+01
 0.34067664893E+01 0.37508958188E+01 0.41953653903E+01 0.47479818983E+01 0.45215175751E+01
 0.50888360456E+01 0.57389176859E+01 0.64524640210E+01 0.72008946366E+01 0.79495424081E+01
 0.86621606350E+01 0.93051517872E+01 0.98500275573E+01 0.10273529889E+02 0.10556232644E+02
 0.10681492373E+02 0.10636511722E+02 0.10415836202E+02 0.10025731009E+02 0.94869077031E+01
 0.88336981649E+01 0.81094831147E+01 0.73598439666E+01 0.66256586281E+01 0.59381241491E+01
 0.53167846390E+01 0.47705410423E+01 0.43006899181E+01 0.39045939961E+01 0.35787100629E+01
 0.33202886766E+01 0.31277900938E+01 0.30005867914E+01 0.29386045962E+01 0.29422874507E+01
 0.30129370671E+01 0.31532725387E+01 0.33679023402E+01 0.36632099866E+01 0.40461193392E+01
 0.38882901287E+01 0.42876322151E+01 0.47642430444E+01 0.53101583607E+01 0.59103129013E+01
 0.65430582906E+01 0.71820190526E+01 0.77987026632E+01 0.83650589779E+01 0.88552630154E+01
 0.92464410724E+01 0.95187626905E+01 0.96558582529E+01 0.96464144620E+01 0.94869035995E+01
 0.91842963208E+01 0.87571393088E+01 0.82339679900E+01 0.76492414847E+01 0.70380590069E+01
 0.64312909066E+01 0.58524386589E+01 0.53167846390E+01 0.48325695020E+01 0.44033210718E+01
 0.40302724051E+01 0.37140524806E+01 0.34553772506E+01 0.32550150662E+01 0.31135768877E+01
 0.30315518521E+01 0.30096566338E+01 0.30493050040E+01 0.31529816857E+01 0.33243675224E+01
 0.35680083270E+01 0.34685790897E+01 0.37272526091E+01 0.40542750856E+01 0.44472323316E+01
 0.48996371661E+01 0.54002834186E+01 0.59333181658E+01 0.64790479928E+01 0.70152889707E+01
 0.75189480303E+01 0.79674779207E+01 0.83399569046E+01 0.86178641567E+01 0.87859588113E+01
 0.88336964384E+01 0.87571374832E+01 0.85606386470E+01 0.82573260864E+01 0.78677425492E+01
 0.74168593836E+01 0.69303532822E+01 0.64312909066E+01 0.59381241491E+01 0.54643121329E+01
 0.50192421690E+01 0.46096937967E+01 0.42410806233E+01 0.39180412799E+01 0.36444266657E+01
 0.34230704139E+01 0.32557784353E+01 0.31437121954E+01 0.30879937088E+01 0.30902009787E+01
 0.31525455437E+01 0.32777380114E+01 0.32295982223E+01 0.33680821464E+01 0.35680247226E+01
 0.38286617561E+01 0.41474984765E+01 0.45196426245E+01 0.49371984983E+01 0.53889317123E+01
 0.58603949716E+01 0.63345817827E+01 0.67929983566E+01 0.72168767432E+01 0.75882123703E+01
 0.78905147181E+01 0.81094826897E+01 0.82339679975E+01 0.82573270958E+01 0.81787710571E+01
 0.80040198108E+01 0.77447517648E+01 0.74168593836E+01 0.70380590069E+01 0.66256586281E+01
 0.61951705979E+01 0.57599939357E+01 0.53318500130E+01 0.49213514547E+01 0.45382106869E+01
 0.41909820356E+01 0.38865967403E+01 0.36300773419E+01 0.34246978751E+01 0.32725641740E+01
 0.31753172894E+01 0.31346065544E+01 0.31521642106E+01 0.31520071043E+01 0.31814317275E+01
 0.32694341766E+01 0.34151267388E+01 0.36170581221E+01 0.38730495817E+01 0.41797234318E+01
 0.45318328935E+01 0.49216794065E+01 0.53389362895E+01 0.57710163203E+01 0.62038496665E+01
 0.66227354214E+01 0.70129236103E+01 0.73598409982E+01 0.76492408288E+01 0.78677451052E+01
 0.80040229387E+01 0.80503628129E+01 0.80040198108E+01 0.78677425492E+01 0.76492414847E+01
 0.73598439666E+01 0.70129259843E+01 0.66227339182E+01 0.62038428382E+01 0.57710085883E+01
 0.53389366216E+01 0.49216904050E+01 0.45318438648E+01 0.41797216798E+01 0.38730382999E+01
 0.36170564207E+01 0.34151484892E+01 0.32694713286E+01 0.31814600870E+01 0.32296006420E+01
 0.31521445631E+01 0.31345620218E+01 0.31752651909E+01 0.32725294315E+01 0.34246900666E+01
 0.36300823702E+01 0.38865952182E+01 0.41909699404E+01 0.45381980542E+01 0.49213473477E+01
 0.53318542272E+01 0.57600004721E+01 0.61951738667E+01 0.66256570500E+01 0.70380559556E+01
 0.74168596308E+01 0.77447556029E+01 0.80040229387E+01 0.81787710571E+01 0.82573260864E+01
 0.82339679900E+01 0.81094831147E+01 0.78905157986E+01 0.75882153327E+01 0.72168788091E+01
 0.67929939985E+01 0.63345722869E+01 0.58603902247E+01 0.53889373138E+01 0.49372066662E+01
 0.45196417562E+01 0.41474879753E+01 0.38286523330E+01 0.35680256797E+01 0.33680908333E+01
 0.34685569644E+01 0.32777158113E+01 0.31525149504E+01 0.30901553149E+01 0.30879425601E+01
 0.31436753395E+01 0.32557645061E+01 0.34230692379E+01 0.36444236325E+01 0.39180318842E+01
 0.42410690135E+01 0.46096858422E+01 0.50192413414E+01 0.54643170239E+01 0.59381285837E+01
 0.64312903905E+01 0.69303506004E+01 0.74168596308E+01 0.78677451052E+01 0.82573270958E+01
 0.85606386470E+01 0.87571393088E+01 0.88336981649E+01 0.87859570472E+01 0.86178623764E+01
 0.83399611618E+01 0.79674850640E+01 0.75189477651E+01 0.70152788147E+01 0.64790377034E+01
 0.59333170432E+01 0.54002899168E+01 0.48996428197E+01 0.44472297618E+01 0.40542615855E+01
 0.37272315373E+01 0.38882555167E+01 0.35679654522E+01 0.33243310026E+01 0.31529497945E+01
 0.30492693801E+01 0.30096200165E+01 0.30315259976E+01 0.31135668953E+01 0.32550146072E+01
 0.34553774298E+01 0.37140481065E+01 0.40302620317E+01 0.44033092372E+01 0.48325644625E+01
 0.53167885104E+01 0.58524436809E+01 0.64312903905E+01 0.70380559556E+01 0.76492408288E+01
 0.82339679975E+01 0.87571374832E+01 0.91842963208E+01 0.94869077031E+01 0.96464165283E+01
 0.96558535203E+01 0.95187584211E+01 0.92464466533E+01 0.88552743547E+01 0.83650628231E+01
 0.77986940405E+01 0.71820059503E+01 0.65430517635E+01 0.59103181538E+01 0.53101719551E+01
 0.47642516951E+01 0.42876204595E+01 0.45215129401E+01 0.40460834737E+01 0.36631615704E+01
 0.33678631634E+01 0.31532471310E+01 0.30129198516E+01 0.29422772465E+01 0.29386031709E+01
 0.30005919048E+01 0.31277973235E+01 0.33202948445E+01 0.35787105264E+01 0.39045843694E+01
 0.43006757554E+01 0.47705344631E+01 0.53167885104E+01 0.59381285837E+01 0.66256570500E+01
 0.73598409982E+01 0.81094826897E+01 0.88336964384E+01 0.94869035995E+01 0.10025731009E+02
 0.10415841717E+02 0.10636513428E+02 0.10681485387E+02 0.10556226576E+02 0.10273535110E+02
 0.98500399297E+01 0.93051591392E+01 0.86621571088E+01 0.79495312712E+01 0.72008845091E+01
 0.64524659501E+01 0.57389354453E+01 0.50888548064E+01 0.54099934134E+01 0.47479849193E+01
 0.41953389498E+01 0.37508570596E+01 0.34067374739E+01 0.31532683588E+01 0.29821269427E+01
 0.28877173417E+01 0.28669935946E+01 0.29186591146E+01 0.30425071285E+01 0.32393098372E+01
 0.35112950912E+01 0.38628488322E+01 0.43006757554E+01 0.48325644625E+01 0.54643170239E+01
 0.61951738667E+01 0.70129236103E+01 0.78905147181E+01 0.87859588113E+01 0.96464144620E+01
 0.10415836202E+02 0.11044166023E+02 0.11495241603E+02 0.11750752735E+02 0.11808923530E+02
 0.11678995767E+02 0.11374798096E+02 0.10911042925E+02 0.10304011866E+02 0.95753231598E+01
 0.87555520865E+01 0.78847029922E+01 0.70084490143E+01 0.61713836184E+01 0.65915016255E+01
 0.57157880682E+01 0.49586730148E+01 0.43305147666E+01 0.38278201985E+01 0.34395334335E+01
 0.31530101016E+01 0.29579003688E+01 0.28475017822E+01 0.28183184399E+01 0.28690107749E+01
 0.29997311042E+01 0.32123327878E+01 0.35112950912E+01 0.39045843694E+01 0.44033092372E+01
 0.50192413414E+01 0.57600004721E+01 0.66227354214E+01 0.75882123703E+01 0.86178641567E+01
 0.96558582529E+01 0.10636511722E+02 0.11495235497E+02 0.12179741644E+02 0.12655161947E+02
 0.12906930327E+02 0.12949437107E+02 0.12805115671E+02 0.12485258134E+02 0.11988869272E+02
 0.11320094197E+02 0.10502482042E+02 0.95696083951E+01 0.85690449356E+01 0.75576570563E+01
 0.80785813209E+01 0.69827533288E+01 0.59941407935E+01 0.51452242958E+01 0.44462837570E+01
 0.38910964761E+01 0.34650996143E+01 0.31526044113E+01 0.29411534362E+01 0.28228487685E+01
 0.27936934714E+01 0.28523795193E+01 0.29997311042E+01 0.32393098372E+01 0.35787105264E+01
 0.40302620317E+01 0.46096858422E+01 0.53318542272E+01 0.62038496665E+01 0.72168767432E+01
 0.83399569046E+01 0.95187626905E+01 0.10681492373E+02 0.11750751331E+02 0.12655156037E+02
 0.13322825178E+02 0.13727048783E+02 0.13900151025E+02 0.13897062317E+02 0.13754143476E+02
 0.13466192004E+02 0.12994922682E+02 0.12304835154E+02 0.11406145649E+02 0.10359616840E+02
 0.92271457896E+01 0.98330056021E+01 0.85502277569E+01 0.73290419562E+01 0.62334134333E+01
 0.52997951044E+01 0.45378462636E+01 0.39381994197E+01 0.34825944196E+01 0.31522478546E+01
 0.29325879948E+01 0.28145406793E+01 0.27936934714E+01 0.28690107749E+01 0.30425071285E+01
 0.33202948445E+01 0.37140481065E+01 0.42410690135E+01 0.49213473477E+01 0.57710163203E+01
 0.67929983566E+01 0.79674779207E+01 0.92464410724E+01 0.10556232644E+02 0.11808931097E+02
 0.12906928834E+02 0.13727044126E+02 0.14217995417E+02 0.14426633552E+02 0.14458174503E+02
 0.14412789254E+02 0.14328836531E+02 0.14161708774E+02 0.13810584891E+02 0.13180581731E+02
 0.12248442894E+02 0.11094767918E+02 0.11747776298E+02 0.10363020066E+02 0.89533201390E+01
 0.76156336969E+01 0.64231472157E+01 0.54155783655E+01 0.46012558090E+01 0.39672473466E+01
 0.34914741879E+01 0.31521072493E+01 0.29325879948E+01 0.28228487685E+01 0.28183184399E+01
 0.29186591146E+01 0.31277973235E+01 0.34553774298E+01 0.39180318842E+01 0.45381980542E+01
 0.53389362895E+01 0.63345817827E+01 0.75189480303E+01 0.88552630154E+01 0.10273529889E+02
 0.11679002783E+02 0.12949442971E+02 0.13900149350E+02 0.14426631936E+02 0.14566501685E+02
 0.14472680823E+02 0.14338024682E+02 0.14302083797E+02 0.14382138955E+02 0.14463011971E+02
 0.14353001107E+02 0.13880019748E+02 0.12981882148E+02 0.13572175077E+02 0.12294965440E+02
 0.10797025008E+02 0.92712603539E+01 0.78300157074E+01 0.65547612166E+01 0.54872909654E+01
 0.46336960051E+01 0.39770637583E+01 0.34914741879E+01 0.31522478546E+01 0.29411534362E+01
 0.28475017822E+01 0.28669935946E+01 0.30005919048E+01 0.32550146072E+01 0.36444236325E+01
 0.41909699404E+01 0.49216794065E+01 0.58603949716E+01 0.70152889707E+01 0.83650589779E+01
 0.98500275573E+01 0.11374795904E+02 0.12805122293E+02 0.13897064210E+02 0.14458173557E+02
 0.14472684697E+02 0.14108257535E+02 0.13649698657E+02 0.13381076582E+02 0.13462118943E+02
 0.13854506025E+02 0.14335616413E+02 0.14595797014E+02 0.14374263305E+02 0.14674460922E+02
 0.14009228643E+02 0.12715602930E+02 0.11118879515E+02 0.94908813827E+01 0.79626443516E+01
 0.66221541761E+01 0.55115785804E+01 0.46336960051E+01 0.39672473466E+01 0.34825944196E+01
 0.31526044113E+01 0.29579003688E+01 0.28877173417E+01 0.29386031709E+01 0.31135668953E+01
 0.34230692379E+01 0.38865952182E+01 0.45318328935E+01 0.53889317123E+01 0.64790479928E+01
 0.77987026632E+01 0.93051517872E+01 0.10911033926E+02 0.12485261360E+02 0.13754147685E+02
 0.14412785612E+02 0.14338026397E+02 0.13649710166E+02 0.12680981259E+02 0.11863013336E+02
 0.11559590384E+02 0.11916616773E+02 0.12796354478E+02 0.13831287964E+02 0.14574016967E+02
 0.14374042762E+02 0.14822926982E+02 0.14301501653E+02 0.12998607019E+02 0.11316795191E+02
 0.96030375055E+01 0.80075342200E+01 0.66221541761E+01 0.54872909654E+01 0.46012558090E+01
 0.39381994197E+01 0.34650996143E+01 0.31530101016E+01 0.29821269427E+01 0.29422772465E+01
 0.30315259976E+01 0.32557645061E+01 0.36300823702E+01 0.41797234318E+01 0.49371984983E+01
 0.59333181658E+01 0.71820190526E+01 0.86621606350E+01 0.10304002608E+02 0.11988868281E+02
 0.13466201352E+02 0.14328835658E+02 0.14302074285E+02 0.13381082952E+02 0.11863032705E+02
 0.10270714939E+02 0.91798219505E+01 0.90043726857E+01 0.98288681577E+01 0.11368567301E+02
 0.13080680581E+02 0.12266876689E+02 0.14110712307E+02 0.14876657112E+02 0.14466254129E+02
 0.13140354478E+02 0.11383574770E+02 0.96030375055E+01 0.79626443516E+01 0.65547612166E+01
 0.54155783655E+01 0.45378462636E+01 0.38910964761E+01 0.34395334335E+01 0.31532683588E+01
 0.30129198516E+01 0.30096200165E+01 0.31436753395E+01 0.34246900666E+01 0.38730495817E+01
 0.45196426245E+01 0.54002834186E+01 0.65430582906E+01 0.79495424081E+01 0.95753185782E+01
 0.11320085913E+02 0.12994932652E+02 0.14161722333E+02 0.14382130769E+02 0.13462105021E+02
 0.11559601844E+02 0.91798459816E+01 0.70423266502E+01 0.58446818340E+01 0.60034705321E+01
 0.74859088014E+01 0.98179218089E+01 0.84303687969E+01 0.11585112599E+02 0.13897320981E+02
 0.14888019703E+02 0.14519114396E+02 0.13140354478E+02 0.11316795191E+02 0.94908813827E+01
 0.78300157074E+01 0.64231472157E+01 0.52997951044E+01 0.44462837570E+01 0.38278201985E+01
 0.34067374739E+01 0.31532471310E+01 0.30492693801E+01 0.30879425601E+01 0.32725294315E+01
 0.36170581221E+01 0.41474984765E+01 0.48996371661E+01 0.59103129013E+01 0.72008946366E+01
 0.87555566179E+01 0.10502468639E+02 0.12304831063E+02 0.13810605400E+02 0.14463025759E+02
 0.13854490629E+02 0.11916601681E+02 0.90043868079E+01 0.58447036965E+01 0.33382384930E+01
 0.22594231674E+01 0.29657325992E+01 0.52525909938E+01 0.35026446457E+01 0.74716876110E+01
 0.11198115525E+02 0.13816182745E+02 0.14888019703E+02 0.14466254129E+02 0.12998607019E+02
 0.11118879515E+02 0.92712603539E+01 0.76156336969E+01 0.62334134333E+01 0.51452242958E+01
 0.43305147666E+01 0.37508570596E+01 0.33678631634E+01 0.31529497945E+01 0.30901553149E+01
 0.31752651909E+01 0.34151267388E+01 0.38286617561E+01 0.44472323316E+01 0.53101583607E+01
 0.64524640210E+01 0.78847147629E+01 0.95696035497E+01 0.11406125877E+02 0.13180584054E+02
 0.14353027703E+02 0.14335626063E+02 0.12796335537E+02 0.98288562133E+01 0.60034822617E+01
 0.22594343915E+01 -.36250113530E+00 -.10759084082E+01 0.35152157623E+00 -.14164956046E+01
 0.25417750326E+01 0.71295737515E+01 0.11198115525E+02 0.13897320981E+02 0.14876657112E+02
 0.14301501653E+02 0.12715602930E+02 0.10797025008E+02 0.89533201390E+01 0.73290419562E+01
 0.59941407935E+01 0.49586730148E+01 0.41953389498E+01 0.36631615704E+01 0.33243310026E+01
 0.31525149504E+01 0.31345620218E+01 0.32694341766E+01 0.35680247226E+01 0.40542750856E+01
 0.47642430444E+01 0.57389176859E+01 0.70084536267E+01 0.85690565937E+01 0.10359603450E+02
 0.12248421701E+02 0.13880027812E+02 0.14595821817E+02 0.13831290905E+02 0.11368551744E+02
 0.74859040953E+01 0.29657360176E+01 -.10759143654E+01 -.35231090832E+01 -.36532045192E+01
 -.50581373181E+01 -.20414346595E+01 0.25417750326E+01 0.74716876110E+01 0.11585112599E+02
 0.14110712307E+02 0.14822926982E+02 0.14009228643E+02 0.12294965440E+02 0.10363020066E+02
 0.85502277569E+01 0.69827533288E+01 0.57157880682E+01 0.47479849193E+01 0.40460834737E+01
 0.35679654522E+01 0.32777158113E+01 0.31521445631E+01 0.31814317275E+01 0.33680821464E+01
 0.37272526091E+01 0.42876322151E+01 0.50888360456E+01 0.61713690548E+01 0.75576707340E+01
 0.92271562837E+01 0.11094750084E+02 0.12981864676E+02 0.14374272981E+02 0.14574031666E+02
 0.13080677458E+02 0.98179170781E+01 0.52525952661E+01 0.35151260842E+00 -.36532287290E+01
 -.56515752169E+01 -.50580496087E+01 -.41195684294E+01 -.94011547797E+00 0.35833392454E+01
 0.82604791918E+01 0.12006163595E+02 0.14143312612E+02 0.14529476557E+02 0.13506526628E+02
 0.11716272874E+02 0.97982132812E+01 0.80263900069E+01 0.65140977410E+01 0.53054746890E+01
 0.43914433552E+01 0.37350900397E+01 0.32939284951E+01 0.30334816455E+01 0.29324684823E+01
 0.29828323439E+01 0.31888116293E+01 0.35675045381E+01 0.41495623954E+01 0.49759424292E+01
 0.60869176763E+01 0.75019891083E+01 0.91943344070E+01 0.11070595717E+02 0.12931106873E+02
 0.14223702127E+02 0.14270620762E+02 0.12626639218E+02 0.92899632151E+01 0.47950054804E+01
 0.13725598116E+00 -.34852662892E+01 -.41196032717E+01 -.50580460829E+01 -.34852303677E+01
 0.13728057180E+00 0.47950071941E+01 0.92899653827E+01 0.12626648889E+02 0.14270627442E+02
 0.14223712848E+02 0.12931134823E+02 0.11070621182E+02 0.91943288128E+01 0.75019659045E+01
 0.60869111777E+01 0.49759495981E+01 0.41495549483E+01 0.35674847679E+01 0.31888054631E+01
 0.29828399379E+01 0.29324713574E+01 0.30334848194E+01 0.32939471230E+01 0.37351090350E+01
 0.43914397636E+01 0.53054642167E+01 0.65141106499E+01 0.80264149017E+01 0.97982146412E+01
 0.11716249949E+02 0.13506506004E+02 0.14529461922E+02 0.14143292205E+02 0.12006148038E+02
 0.82604823444E+01 0.35833397718E+01 -.94014455069E+00 -.84532470095E+00 -.33830671320E+01
 -.36531251735E+01 -.15879084107E+01 0.21987501820E+01 0.66475991050E+01 0.10631124255E+02
 0.13302731583E+02 0.14299633496E+02 0.13766668989E+02 0.12227598782E+02 0.10349205351E+02
 0.85422629015E+01 0.69530751135E+01 0.56519637350E+01 0.46484609770E+01 0.39144721686E+01
 0.34085404055E+01 0.30928209072E+01 0.29412342466E+01 0.29410620356E+01 0.30918809571E+01
 0.34053792932E+01 0.39064426059E+01 0.46322747707E+01 0.56253022492E+01 0.69173270200E+01
 0.85060995273E+01 0.10331662119E+02 0.12263534410E+02 0.13951181172E+02 0.14730568769E+02
 0.14026490212E+02 0.11611716891E+02 0.77571842669E+01 0.32367003439E+01 0.38239220547E+01
 0.40825765711E+00 -.13981170147E+01 -.10758581426E+01 0.12575458820E+01 0.48954079318E+01
 0.88108749952E+01 0.12014356658E+02 0.13848445209E+02 0.14130928571E+02 0.13131877431E+02
 0.11418012315E+02 0.95761546346E+01 0.78660692383E+01 0.64001627827E+01 0.52246484863E+01
 0.43335958253E+01 0.36930009127E+01 0.32623741590E+01 0.30082248456E+01 0.29095170327E+01
 0.29578497143E+01 0.31562982120E+01 0.35197367717E+01 0.40759116317E+01 0.48634724273E+01
 0.59231404476E+01 0.72803727970E+01 0.89219209678E+01 0.10774856182E+02 0.12693339896E+02
 0.14273906680E+02 0.14875417018E+02 0.14008503520E+02 0.11557441649E+02 0.78911902747E+01
 0.86453122831E+01 0.52439317960E+01 0.26092145940E+01 0.15097556529E+01 0.22594280702E+01
 0.45973305448E+01 0.77924823191E+01 0.10919463011E+02 0.13174272051E+02 0.14106053655E+02
 0.13702294896E+02 0.12326724776E+02 0.10544012267E+02 0.87787232829E+01 0.71905416243E+01
 0.58627503246E+01 0.48187791268E+01 0.40404133249E+01 0.34907724938E+01 0.31323106073E+01
 0.29367621151E+01 0.28881856706E+01 0.29821248763E+01 0.32246634204E+01 0.36332397090E+01
 0.42374805174E+01 0.50761001685E+01 0.61867419057E+01 0.75879652402E+01 0.92567579456E+01
 0.11110823732E+02 0.12993910055E+02 0.14484791186E+02 0.14996578655E+02 0.14132928018E+02
 0.11873633292E+02 0.12499632913E+02 0.98784631358E+01 0.72488173695E+01 0.53949109501E+01
 0.48824187669E+01 0.58446354024E+01 0.79333238464E+01 0.10458541540E+02 0.12647383868E+02
 0.13904880154E+02 0.13981500682E+02 0.13006771686E+02 0.11397121750E+02 0.96427715307E+01
 0.79860177294E+01 0.65396484694E+01 0.53582658828E+01 0.44459571069E+01 0.37762162498E+01
 0.33122447763E+01 0.30209833503E+01 0.28797880847E+01 0.28774810386E+01 0.30129601318E+01
 0.32946939073E+01 0.37419144350E+01 0.43850080438E+01 0.52614220691E+01 0.64047120367E+01
 0.78266262442E+01 0.94962814834E+01 0.11325903656E+02 0.13157433645E+02 0.14586869372E+02
 0.15099047722E+02 0.14386638754E+02 0.14702737008E+02 0.13298234729E+02 0.11357680158E+02
 0.94980633036E+01 0.83285125989E+01 0.82237669530E+01 0.91797371727E+01 0.10819625390E+02
 0.12546412645E+02 0.13767848003E+02 0.14097604991E+02 0.13463170264E+02 0.12096398448E+02
 0.10416890069E+02 0.87478575180E+01 0.72267248025E+01 0.59347448976E+01 0.49010388831E+01
 0.41151818541E+01 0.35465117293E+01 0.31608076402E+01 0.29304679330E+01 0.28383757465E+01
 0.28774863266E+01 0.30493344383E+01 0.33640694430E+01 0.38418356351E+01 0.45126256479E+01
 0.54114783502E+01 0.65672718683E+01 0.79855291826E+01 0.96297217255E+01 0.11410368001E+02
 0.13177267177E+02 0.14571991367E+02 0.15157464638E+02 0.15122919522E+02 0.14977414088E+02
 0.14087662914E+02 0.12809238740E+02 0.11629785122E+02 0.10986416143E+02 0.11094349540E+02
 0.11862919428E+02 0.12937840405E+02 0.13847670239E+02 0.14186037676E+02 0.13754892775E+02
 0.12620575151E+02 0.11071008729E+02 0.94407952303E+01 0.78931307236E+01 0.65264870423E+01
 0.53930540585E+01 0.45016974265E+01 0.38327731864E+01 0.33551429981E+01 0.30389521847E+01
 0.28624074796E+01 0.28133970887E+01 0.28881997082E+01 0.30902245563E+01 0.34305591573E+01
 0.39293373977E+01 0.46151080350E+01 0.55196479577E+01 0.66669560127E+01 0.80572230342E+01
 0.96505509537E+01 0.11359110745E+02 0.13047524835E+02 0.14422242827E+02 0.14116461588E+02
 0.14937408422E+02 0.15096270763E+02 0.14682947966E+02 0.13976060895E+02 0.13331328275E+02
 0.13034834288E+02 0.13183919293E+02 0.13649626140E+02 0.14136911331E+02 0.14312356216E+02
 0.13941327805E+02 0.12979164751E+02 0.11584877278E+02 0.10035709135E+02 0.85088636473E+01
 0.71090974240E+01 0.59057329265E+01 0.49268269796E+01 0.41671038055E+01 0.36026146750E+01
 0.32045664763E+01 0.29484661681E+01 0.28180981557E+01 0.28055438597E+01 0.29095344166E+01
 0.31346177064E+01 0.34920820512E+01 0.40011949000E+01 0.46882206534E+01 0.55811388443E+01
 0.66991557884E+01 0.80381590611E+01 0.95569898960E+01 0.11172241789E+02 0.12765274809E+02
 0.12334636061E+02 0.13639939959E+02 0.14552067091E+02 0.14963440086E+02 0.14936643813E+02
 0.14667892172E+02 0.14393302928E+02 0.14279562079E+02 0.14348872186E+02 0.14472644599E+02