    2    2   15    1
  0.1997444E+02  0.3959415E-09  0.3959415E-09  0.3959415E-09  0.5000000E-15
  1.000000000000000E-004
  CAR 
 unknown system                          
      8     56      8
 
  0.6250000E-01  0.6250000E-01  0.6250000E-01  0.1562500E-01
    1       -5.114693   1.000000
    2        2.208295   1.000000
    3        4.600624   1.000000
    4        5.531015   0.999946
    5        9.677549   0.000000
    6        9.977883   0.000000
    7       10.358708   0.000000
    8       12.248476   0.000000
 
  0.1875000E+00  0.6250000E-01  0.6250000E-01  0.3125000E-01
    1       -4.135100   1.000000
    2        1.919933   1.000000
    3        4.721397   1.000000
    4        6.494381   0.001646
    5        7.207290   0.000000
    6        7.847466   0.000000
    7       10.662098   0.000000
    8       10.969084   0.000000
 
  0.3125000E+00  0.6250000E-01  0.6250000E-01  0.3125000E-01
    1       -2.557592   1.000000
    2        1.784252   1.000000
    3        3.538929   1.000000
    4        4.959072   1.000000
    5        5.773054   0.984673
    6        9.146327   0.000000
    7        9.270970   0.000000
    8       10.383374   0.000000
 
  0.4375000E+00  0.6250000E-01  0.6250000E-01  0.1562500E-01
    1       -1.010207   1.000000
    2        0.494919   1.000000
    3        3.237079   1.000000
    4        4.189310   1.000000
    5        5.651015   0.998755
    6        8.388503   0.000000
    7        9.510378   0.000000
    8       10.685930   0.000000
 
 -0.6250000E-01  0.6250000E-01  0.6250000E-01  0.7812500E-02
    1       -5.444655   1.000000
    2        2.621261   1.000000
    3        3.999956   1.000000
    4        5.253865   1.000000
    5        9.158491   0.000000
    6       11.308420   0.000000
    7       12.477181   0.000000
    8       12.946329   0.000000
 
  0.1875000E+00  0.1875000E+00  0.6250000E-01  0.1562500E-01
    1       -2.708503   1.000000
    2        1.914792   1.000000
    3        3.967999   1.000000
    4        4.436455   1.000000
    5        6.915816   0.000000
    6        7.902247   0.000000
    7       10.059846   0.000000
    8       10.184988   0.000000
 
  0.3125000E+00  0.1875000E+00  0.6250000E-01  0.3125000E-01
    1       -0.959810   1.000000
    2        0.843901   1.000000
    3        2.269039   1.000000
    4        3.801574   1.000000
    5        6.928389   0.000000
    6        8.465748   0.000000
    7        9.770256   0.000000
    8       11.208670   0.000000
 
  0.4375000E+00  0.1875000E+00  0.6250000E-01  0.3125000E-01
    1       -1.797679   1.000000
    2        0.491924   1.000000
    3        2.859462   1.000000
    4        4.833506   1.000000
    5        6.438378   0.005495
    6        8.806744   0.000000
    7       10.541575   0.000000
    8       10.709070   0.000000
 
 -0.4375000E+00  0.1875000E+00  0.6250000E-01  0.3125000E-01
    1       -3.494443   1.000000
    2        0.217354   1.000000
    3        5.030238   1.000000
    4        6.168609   0.262566
    5        7.219659   0.000000
    6        8.445491   0.000000
    7        9.684151   0.000000
    8       11.427079   0.000000
 
 -0.3125000E+00  0.1875000E+00  0.6250000E-01  0.1562500E-01
    1       -4.627629   1.000000
    2        0.372149   1.000000
    3        5.029775   1.000000
    4        6.486203   0.001981
    5        8.834797   0.000000
    6        9.997076   0.000000
    7       11.206653   0.000000
    8       11.232335   0.000000
 
 -0.1875000E+00  0.1875000E+00  0.6250000E-01  0.1562500E-01
    1       -5.118849   1.000000
    2        1.044250   1.000000
    3        4.044841   1.000000
    4        6.416220   0.008509
    5        9.746455   0.000000
    6       10.671164   0.000000
    7       12.137594   0.000000
    8       12.278864   0.000000
 
 -0.6250000E-01  0.1875000E+00  0.6250000E-01  0.1562500E-01
    1       -4.952433   1.000000
    2        1.836828   1.000000
    3        3.603276   1.000000
    4        6.825508   0.000000
    5        9.144831   0.000000
    6       10.310419   0.000000
    7       10.399934   0.000000
    8       11.431659   0.000000
 
  0.3125000E+00  0.3125000E+00  0.6250000E-01  0.1562500E-01
    1       -0.865623   1.000000
    2       -0.650334   1.000000
    3        2.652855   1.000000
    4        4.749286   1.000000
    5        7.272518   0.000000
    6        7.723865   0.000000
    7       11.222586   0.000000
    8       11.687288   0.000000
 
  0.4375000E+00  0.3125000E+00  0.6250000E-01  0.3125000E-01
    1       -2.543064   1.000000
    2       -1.295362   1.000000
    3        5.215661   1.000000
    4        6.064038   0.541406
    5        7.420460   0.000000
    6        8.404066   0.000000
    7        9.409296   0.000000
    8       10.549605   0.000000
 
 -0.4375000E+00  0.3125000E+00  0.6250000E-01  0.1562500E-01
    1       -3.821070   1.000000
    2       -1.294776   1.000000
    3        5.728702   0.993341
    4        7.432363   0.000000
    5        7.745400   0.000000
    6        9.781385   0.000000
    7        9.861848   0.000000
    8       10.306937   0.000000
 
 -0.3125000E+00  0.3125000E+00  0.6250000E-01  0.1562500E-01
    1       -4.470300   1.000000
    2       -0.697934   1.000000
    3        4.616382   1.000000
    4        7.348183   0.000000
    5        8.127682   0.000000
    6       10.872454   0.000000
    7       12.045259   0.000000
    8       12.452454   0.000000
 
 -0.1875000E+00  0.3125000E+00  0.6250000E-01  0.3125000E-01
    1       -4.467362   1.000000
    2        0.422875   1.000000
    3        3.600519   1.000000
    4        7.741417   0.000000
    5        8.158868   0.000000
    6        9.540992   0.000000
    7       11.024367   0.000000
    8       12.211003   0.000000
 
 -0.6250000E-01  0.3125000E+00  0.6250000E-01  0.1562500E-01
    1       -3.816088   1.000000
    2        1.589425   1.000000
    3        3.570211   1.000000
    4        5.720283   0.994373
    5        7.962528   0.000000
    6        9.166689   0.000000
    7        9.739594   0.000000
    8       10.593467   0.000000
 
  0.4375000E+00  0.4375000E+00  0.6250000E-01  0.7812500E-02
    1       -2.704335   1.000000
    2       -2.704335   1.000000
    3        6.660980   0.000019
    4        6.660982   0.000019
    5        8.554299   0.000000
    6        8.554299   0.000000
    7        9.852585   0.000000
    8        9.852585   0.000000
 
 -0.4375000E+00  0.4375000E+00  0.6250000E-01  0.1562500E-01
    1       -3.505976   1.000000
    2       -2.239285   1.000000
    3        5.510579   0.999971
    4        6.692080   0.000007
    5        8.360364   0.000000
    6        9.549676   0.000000
    7       11.964573   0.000000
    8       12.091084   0.000000
 
 -0.3125000E+00  0.4375000E+00  0.6250000E-01  0.3125000E-01
    1       -3.665016   1.000000
    2       -1.169202   1.000000
    3        4.263348   1.000000
    4        6.527422   0.000755
    5        8.451957   0.000000
    6        9.448928   0.000000
    7       10.762007   0.000000
    8       11.930074   0.000000
 
 -0.1875000E+00  0.4375000E+00  0.6250000E-01  0.3125000E-01
    1       -3.182747   1.000000
    2        0.372797   1.000000
    3        3.570571   1.000000
    4        5.162359   1.000000
    5        7.222026   0.000000
    6        8.841839   0.000000
    7       10.577350   0.000000
    8       11.601196   0.000000
 
 -0.6250000E-01  0.4375000E+00  0.6250000E-01  0.1562500E-01
    1       -2.111495   1.000000
    2        1.323583   1.000000
    3        3.338818   1.000000
    4        3.970701   1.000000
    5        6.215880   0.166095
    6        8.702358   0.000000
    7        8.996925   0.000000
    8       11.127180   0.000000
 
 -0.4375000E+00 -0.4375000E+00  0.6250000E-01  0.1562500E-01
    1       -2.568061   1.000000
    2       -2.545997   1.000000
    3        5.195258   1.000000
    4        5.347817   1.000000
    5        8.423588   0.000000
    6        9.850805   0.000000
    7       10.711212   0.000000
    8       11.222658   0.000000
 
 -0.3125000E+00 -0.4375000E+00  0.6250000E-01  0.3125000E-01
    1       -2.247543   1.000000
    2       -1.031266   1.000000
    3        4.043184   1.000000
    4        4.978804   1.000000
    5        6.112725   0.405052
    6        8.553585   0.000000
    7       11.651444   0.000000
    8       12.454342   0.000000
 
 -0.1875000E+00 -0.4375000E+00  0.6250000E-01  0.3125000E-01
    1       -1.399791   1.000000
    2        0.585832   1.000000
    3        2.461161   1.000000
    4        4.331510   1.000000
    5        6.121009   0.382518
    6        7.477870   0.000000
    7       10.094706   0.000000
    8       12.371015   0.000000
 
 -0.6250000E-01 -0.4375000E+00  0.6250000E-01  0.1562500E-01
    1       -1.241975   1.000000
    2        0.761204   1.000000
    3        3.748034   1.000000
    4        4.590266   1.000000
    5        4.969333   1.000000
    6        8.081264   0.000000
    7        8.346005   0.000000
    8       11.646527   0.000000
 
 -0.3125000E+00 -0.3125000E+00  0.6250000E-01  0.1562500E-01
    1       -0.685720   1.000000
    2       -0.163030   1.000000
    3        2.108531   1.000000
    4        5.019706   1.000000
    5        5.478498   0.999989
    6        7.080910   0.000000
    7       11.645307   0.000000
    8       11.905867   0.000000
 
 -0.1875000E+00 -0.3125000E+00  0.6250000E-01  0.3125000E-01
    1       -1.437725   1.000000
    2        1.476613   1.000000
    3        2.780451   1.000000
    4        4.864283   1.000000
    5        5.625073   0.999332
    6        7.016290   0.000000
    7        9.101199   0.000000
    8       10.848484   0.000000
 
 -0.6250000E-01 -0.3125000E+00  0.6250000E-01  0.1562500E-01
    1       -3.021449   1.000000
    2        2.870264   1.000000
    3        4.708997   1.000000
    4        4.837404   1.000000
    5        5.465277   0.999993
    6        7.895562   0.000000
    7        8.600812   0.000000
    8       10.473860   0.000000
 
 -0.1875000E+00 -0.1875000E+00  0.6250000E-01  0.1562500E-01
    1       -3.177161   1.000000
    2        3.447828   1.000000
    3        4.536387   1.000000
    4        5.221864   1.000000
    5        6.072019   0.518960
    6        6.645630   0.000031
    7        9.234340   0.000000
    8        9.348890   0.000000
 
 -0.6250000E-01 -0.1875000E+00  0.6250000E-01  0.1562500E-01
    1       -4.457147   1.000000
    2        3.471201   1.000000
    3        4.709988   1.000000
    4        5.923493   0.863849
    5        7.366764   0.000000
    6        7.829258   0.000000
    7        9.894946   0.000000
    8       10.878845   0.000000
 
 -0.6250000E-01 -0.6250000E-01  0.6250000E-01  0.3906250E-02
    1       -5.277539   1.000000
    2        3.704754   1.000000
    3        4.456213   1.000000
    4        4.456214   1.000000
    5        8.989888   0.000000
    6       10.326918   0.000000
    7       10.568120   0.000000
    8       12.485022   0.000000
 
  0.1875000E+00  0.1875000E+00  0.1875000E+00  0.1562500E-01
    1       -1.936616   1.000000
    2        0.428469   1.000000
    3        3.638193   1.000000
    4        3.855556   1.000000
    5        7.882124   0.000000
    6        9.004894   0.000000
    7       10.401347   0.000000
    8       10.706524   0.000000
 
  0.3125000E+00  0.1875000E+00  0.1875000E+00  0.1562500E-01
    1       -0.430530   1.000000
    2        0.427131   1.000000
    3        2.062838   1.000000
    4        2.814026   1.000000
    5        8.417650   0.000000
    6       10.083958   0.000000
    7       10.227483   0.000000
    8       10.687312   0.000000
 
 -0.1875000E+00  0.1875000E+00  0.1875000E+00  0.7812500E-02
    1       -4.795554   1.000000
    2        0.733742   1.000000
    3        2.725592   1.000000
    4        7.989279   0.000000
    5        8.193424   0.000000
    6       11.643483   0.000000
    7       11.989248   0.000000
    8       12.011377   0.000000
 
  0.3125000E+00  0.3125000E+00  0.1875000E+00  0.7812500E-02
    1       -0.879179   1.000000
    2       -0.879179   1.000000
    3        3.591986   1.000000
    4        3.591987   1.000000
    5        9.029591   0.000000
    6        9.029593   0.000000
    7       10.091151   0.000000
    8       10.091152   0.000000
 
 -0.3125000E+00  0.3125000E+00  0.1875000E+00  0.1562500E-01
    1       -4.153029   1.000000
    2       -0.521673   1.000000
    3        2.783005   1.000000
    4        6.265571   0.093237
    5        9.453166   0.000000
    6       11.437065   0.000000
    7       11.768647   0.000000
    8       13.335742   0.000000
 
 -0.1875000E+00  0.3125000E+00  0.1875000E+00  0.1562500E-01
    1       -3.989090   1.000000
    2        0.233748   1.000000
    3        2.342132   1.000000
    4        6.292326   0.065488
    5        8.292085   0.000000
    6       10.308958   0.000000
    7       11.784066   0.000000
    8       12.918209   0.000000
 
 -0.4375000E+00  0.4375000E+00  0.1875000E+00  0.1562500E-01
    1       -3.201488   1.000000
    2       -1.965212   1.000000
    3        3.590004   1.000000
    4        4.777880   1.000000
    5       10.341542   0.000000
    6       10.947669   0.000000
    7       11.834239   0.000000
    8       12.437172   0.000000
 
 -0.3125000E+00  0.4375000E+00  0.1875000E+00  0.3125000E-01
    1       -3.201946   1.000000
    2       -0.851122   1.000000
    3        2.503790   1.000000
    4        4.743020   1.000000
    5        7.860292   0.000000
    6       11.355923   0.000000
    7       12.230671   0.000000
    8       13.668851   0.000000
 
 -0.1875000E+00  0.4375000E+00  0.1875000E+00  0.1562500E-01
    1       -2.568196   1.000000
    2        0.302827   1.000000
    3        2.522663   1.000000
    4        4.391596   1.000000
    5        5.803453   0.974208
    6        9.710725   0.000000
    7       11.731436   0.000000
    8       12.470679   0.000000
 
 -0.4375000E+00 -0.4375000E+00  0.1875000E+00  0.1562500E-01
    1       -2.153305   1.000000
    2       -2.105321   1.000000
    3        3.387718   1.000000
    4        3.486497   1.000000
    5        7.708382   0.000000
    6       11.541331   0.000000
    7       13.073444   0.000000
    8       13.092679   0.000000
 
 -0.3125000E+00 -0.4375000E+00  0.1875000E+00  0.3125000E-01
    1       -1.679997   1.000000
    2       -0.577907   1.000000
    3        2.735484   1.000000
    4        3.650450   1.000000
    5        4.865059   1.000000
    6        9.981810   0.000000
    7       12.846126   0.000000
    8       13.532324   0.000000
 
 -0.1875000E+00 -0.4375000E+00  0.1875000E+00  0.1562500E-01
    1       -0.839355   1.000000
    2        0.561187   1.000000
    3        2.482115   1.000000
    4        3.252761   1.000000
    5        5.065003   1.000000
    6        8.119575   0.000000
    7       10.172891   0.000000
    8       12.676310   0.000000
 
 -0.3125000E+00 -0.3125000E+00  0.1875000E+00  0.1562500E-01
    1       -0.496373   1.000000
    2        0.527240   1.000000
    3        2.108984   1.000000
    4        3.739217   1.000000
    5        3.958585   1.000000
    6        8.424871   0.000000
    7       11.253346   0.000000
    8       11.546431   0.000000
 
 -0.1875000E+00 -0.3125000E+00  0.1875000E+00  0.1562500E-01
    1       -1.699033   1.000000
    2        2.280831   1.000000
    3        3.230848   1.000000
    4        4.381774   1.000000
    5        5.036103   1.000000
    6        7.034587   0.000000
    7        9.094034   0.000000
    8        9.999919   0.000000
 
 -0.1875000E+00 -0.1875000E+00  0.1875000E+00  0.3906250E-02
    1       -3.334192   1.000000
    2        4.632480   1.000000
    3        5.219427   1.000000
    4        5.219428   1.000000
    5        5.320754   1.000000
    6        6.036489   0.617445
    7        9.010107   0.000000
    8        9.010109   0.000000
 
 -0.3125000E+00  0.3125000E+00  0.3125000E+00  0.7812500E-02
    1       -3.525900   1.000000
    2       -0.564277   1.000000
    3        1.619300   1.000000
    4        4.497597   1.000000
    5       10.581768   0.000000
    6       11.015119   0.000000
    7       12.315056   0.000000
    8       14.643685   0.000000
 
 -0.4375000E+00  0.4375000E+00  0.3125000E+00  0.1562500E-01
    1       -2.611489   1.000000
    2       -1.489684   1.000000
    3        1.916533   1.000000
    4        3.011232   1.000000
    5       10.628708   0.000000
    6       10.719851   0.000000
    7       13.507798   0.000000
    8       14.450592   0.000000
 
 -0.3125000E+00  0.4375000E+00  0.3125000E+00  0.1562500E-01
    1       -2.453663   1.000000
    2       -0.743805   1.000000
    3        1.486587   1.000000
    4        3.146551   1.000000
    5        7.405961   0.000000
    6       12.439970   0.000000
    7       13.871255   0.000000
    8       14.491557   0.000000
 
 -0.4375000E+00 -0.4375000E+00  0.3125000E+00  0.1562500E-01
    1       -1.541521   1.000000
    2       -1.456911   1.000000
    3        1.897680   1.000000
    4        1.940597   1.000000
    5        7.252308   0.000000
    6       12.644847   0.000000
    7       14.704932   0.000000
    8       14.888322   0.000000
 
 -0.3125000E+00 -0.4375000E+00  0.3125000E+00  0.1562500E-01
    1       -0.944854   1.000000
    2       -0.307631   1.000000
    3        1.956513   1.000000
    4        2.473814   1.000000
    5        4.325595   1.000000
    6       11.177767   0.000000
    7       13.053001   0.000000
    8       13.738451   0.000000
 
 -0.3125000E+00 -0.3125000E+00  0.3125000E+00  0.3906250E-02
    1       -0.429125   1.000000
    2        1.012646   1.000000
    3        2.560755   1.000000
    4        2.991567   1.000000
    5        2.991567   1.000000
    6        9.404127   0.000000
    7       11.106827   0.000000
    8       11.106832   0.000000
 
 -0.4375000E+00  0.4375000E+00  0.4375000E+00  0.7812500E-02
    1       -1.815448   1.000000
    2       -1.220562   1.000000
    3        1.032551   1.000000
    4        1.618654   1.000000
    5       10.457373   0.000000
    6       10.478637   0.000000
    7       15.257038   0.000000
    8       15.726187   0.000000
 
 -0.4375000E+00 -0.4375000E+00  0.4375000E+00  0.3906250E-02
    1       -1.133143   1.000000
    2       -1.011728   1.000000
    3        1.192095   1.000000
    4        1.192095   1.000000
    5        7.098707   0.000000
    6       12.950521   0.000000
    7       15.335989   0.000000
    8       15.335992   0.000000
