 running on    8 total cores
 distrk:  each k-point on    8 cores,    1 groups
 distr:  one band on    1 cores,    8 groups
 using from now: INCAR     
 vasp.5.4.4.18Apr17-6-g9f103f2a35 (build Dec 09 2018 21:25:21) complex          
  
 POSCAR found type information on POSCAR  Si
 POSCAR found :  1 types and       2 ions
 scaLAPACK will be used

 ----------------------------------------------------------------------------- 
|                                                                             |
|           W    W    AA    RRRRR   N    N  II  N    N   GGGG   !!!           |
|           W    W   A  A   R    R  NN   N  II  NN   N  G    G  !!!           |
|           W    W  A    A  R    R  N N  N  II  N N  N  G       !!!           |
|           W WW W  AAAAAA  RRRRR   N  N N  II  N  N N  G  GGG   !            |
|           WW  WW  A    A  R   R   N   NN  II  N   NN  G    G                |
|           W    W  A    A  R    R  N    N  II  N    N   GGGG   !!!           |
|                                                                             |
|      For optimal performance we recommend to set                            |
|        NCORE= 4 - approx SQRT( number of cores)                             |
|      NCORE specifies how many cores store one orbital (NPAR=cpu/NCORE).     |
|      This setting can  greatly improve the performance of VASP for DFT.     |
|      The default,   NCORE=1            might be grossly inefficient         |
|      on modern multi-core architectures or massively parallel machines.     |
|      Do your own testing !!!!                                               |
|      Unfortunately you need to use the default for GW and RPA calculations. |
|      (for HF NCORE is supported but not extensively tested yet)             |
|                                                                             |
 ----------------------------------------------------------------------------- 

 LDA part: xc-table for Pade appr. of Perdew
 POSCAR, INCAR and KPOINTS ok, starting setup
 FFT: planning ...
 WAVECAR not read
 entering main loop
       N       E                     dE             d eps       ncg     rms          rms(c)
DAV:   1     0.199050296814E+01    0.19905E+01   -0.26665E+03   896   0.567E+02
DAV:   2    -0.957051274222E+01   -0.11561E+02   -0.11148E+02  1408   0.638E+01
DAV:   3    -0.973868606915E+01   -0.16817E+00   -0.16792E+00  1144   0.907E+00
DAV:   4    -0.973931138086E+01   -0.62531E-03   -0.62530E-03  1352   0.585E-01
DAV:   5    -0.973931267263E+01   -0.12918E-05   -0.12912E-05  1136   0.177E-02    0.134E+00
DAV:   6    -0.973227653152E+01    0.70361E-02   -0.76919E-03  1152   0.527E-01    0.828E-01
DAV:   7    -0.972858931801E+01    0.36872E-02   -0.17798E-02  1112   0.807E-01    0.612E-02
DAV:   8    -0.972854859030E+01    0.40728E-04   -0.48808E-04   728   0.163E-01
   1 F= -.97285486E+01 E0= -.97186102E+01  d E =-.972855E+01
 curvature:   0.00 expect dE= 0.000E+00 dE for cont linesearch  0.000E+00
 trial: gam= 0.00000 g(F)=  0.291E-47 g(S)=  0.000E+00 ort = 0.000E+00 (trialstep = 0.100E+01)
 search vector abs. value=  0.100E-09
 reached required accuracy - stopping structural energy minimisation
 writing wavefunctions
