unknown system                          
   1.00000000000000     
    -2.215222    2.215222    1.264094
     2.215222   -2.215222    1.264094
     2.215222    2.215222   -1.264094
   Si
     2
Direct
  0.000000  0.000000  0.000000
  0.250000  0.750000  0.500000
 
   32   32   32
 -4.6944     -3.8329     -1.4756      1.7787      5.1664      7.9965      9.8263      10.532      10.275      9.4065    
  8.3233      7.2551      6.3031      5.5321      4.9743      4.6397      4.5284      4.6397      4.9743      5.5321    
  6.3031      7.2551      8.3233      9.4065      10.275      10.532      9.8263      7.9965      5.1664      1.7787    
 -1.4756     -3.8329     -3.8329     -4.2313     -2.9610     -.36188      2.9100      6.1048      8.6024      10.057    
  10.435      9.9594      9.0031      7.9278      6.9011      6.0114      5.3127      4.8296      4.5683      4.5285    
  4.7099      5.1145      5.7409      6.5748      7.5762      8.6711      9.7427      10.506      10.559      9.5932    
  7.5151      4.5344      1.1669     -1.8657     -1.4756     -2.9610     -2.9071     -1.3404      1.3155      4.3926    
  7.2001      9.2204      10.216      10.240      9.5604      8.5512      7.5008      6.5290      5.7118      5.0919    
  4.6866      4.4990      4.5285      4.7762      5.2443      5.9301      6.8145      7.8507      8.9573     10.0000    
  10.658      10.552      9.4226      7.2493      4.3117      1.1669      1.7787     -.36189     -1.3404     -.90672    
 0.80358      3.3218      6.0141      8.2853      9.7387      10.246      9.9325      9.0925      8.0695      7.0589    
  6.1541      5.4169      4.8789      4.5511      4.4344      4.5285      4.8357      5.3582      6.0915      7.0121    
  8.0671      9.1704      10.173      10.744      10.540      9.3603      7.2493      4.5344      5.1664      2.9100    
  1.3155     0.80358      1.4984      3.1846      5.3911      7.5571      9.2070      10.069      10.114      9.5189    
  8.5829      7.5762      6.6199      5.7913      5.1380      4.6817      4.4282      4.3770      4.5286      4.8860    
  5.4516      6.2185      7.1592      8.2163      9.3018      10.259      10.771      10.540      9.4226      7.5151    
  7.9965      6.1048      4.3926      3.3218      3.1846      3.9990      5.5070      7.2739      8.8391      9.8543    
  10.164      9.8193      9.0273      8.0617      7.0904      6.2009      5.4544      4.8855      4.5075      4.3223    
  4.3288      4.5285      4.9253      5.5208      6.3060      7.2498      8.2925      9.3462      10.259      10.744    
  10.552      9.5932      9.8263      8.6024      7.2001      6.0141      5.3911      5.5070      6.3041      7.5185    
  8.7807      9.7418      10.175      10.024      9.3949      8.5045      7.5508      6.6317      5.8178      5.1555    
  4.6679      4.3618      4.2366      4.2914      4.5285      4.9522      5.5634      6.3505      7.2804      8.2925    
  9.3018      10.173      10.658      10.559      10.532      10.057      9.2204      8.2853      7.5571      7.2739    
  7.5185      8.1904      9.0496      9.8077      10.225      10.181      9.6926      8.9008      7.9912      7.0725    
  6.2185      5.4849      4.9047      4.4920      4.2491      4.1738      4.2659      4.5284      4.9658      5.5777    
  6.3505      7.2498      8.2163      9.1704     10.0000      10.506      10.275      10.435      10.216      9.7387    
  9.2070      8.8391      8.7807      9.0496      9.5322      10.032      10.343      10.324      9.9365      9.2491    
  8.4053      7.5145      6.6485      5.8676      5.2139      4.7099      4.3630      4.1723      4.1354      4.2529    
  4.5284      4.9658      5.5634      6.3060      7.1592      8.0671      8.9573      9.7427      9.4065      9.9594    
  10.240      10.246      10.069      9.8543      9.7418      9.8077      10.032      10.308      10.492      10.455    
  10.133      9.5452      8.7860      7.9491      7.0996      6.2981      5.5926      5.0141      4.5770      4.2842    
  4.1334      4.1226      4.2529      4.5284      4.9522      5.5208      6.2185      7.0121      7.8507      8.6711    
  8.3233      9.0031      9.5604      9.9325      10.114      10.164      10.175      10.225      10.343      10.492    
  10.587      10.534      10.267      9.7784      9.1216      8.3645      7.5613      6.7686      6.0369      5.4038    
  4.8918      4.5097      4.2578      4.1334      4.1354      4.2659      4.5285      4.9253      5.4516      6.0915    
  6.8145      7.5762      7.2551      7.9278      8.5512      9.0924      9.5189      9.8193      10.024      10.181    
  10.324      10.455      10.534      10.502      10.306      9.9282      9.3940      8.7433      8.0178      7.2665    
  6.5386      5.8758      5.3078      4.8506      4.5097      4.2842      4.1723      4.1738      4.2914      4.5285    
  4.8860      5.3582      5.9301      6.5748      6.3031      6.9011      7.5008      8.0696      8.5829      9.0273    
  9.3949      9.6926      9.9365      10.133      10.267      10.306      10.213      9.9694      9.5802      9.0628    
  8.4468      7.7719      7.0825      6.4208      5.8214      5.3078      4.8918      4.5770      4.3630      4.2491    
  4.2366      4.3288      4.5286      4.8357      5.2443      5.7409      5.5321      6.0114      6.5290      7.0589    
  7.5762      8.0617      8.5045      8.9008      9.2491      9.5452      9.7784      9.9282      9.9694      9.8822    
  9.6571      9.2976      8.8216      8.2583      7.6446      7.0200      6.4208      5.8758      5.4038      5.0141    
  4.7099      4.4920      4.3618      4.3223      4.3770      4.5285      4.7762      5.1145      4.9743      5.3127    
  5.7118      6.1541      6.6199      7.0905      7.5508      7.9912      8.4053      8.7860      9.1216      9.3940    
  9.5802      9.6571      9.6075      9.4246      9.1144      8.6949      8.1937      7.6446      7.0825      6.5386    
  6.0369      5.5926      5.2139      4.9047      4.6679      4.5075      4.4282      4.4344      4.5285      4.7099    
  4.6397      4.8296      5.0920      5.4169      5.7914      6.2009      6.6317      7.0725      7.5145      7.9491    
  8.3645      8.7433      9.0628      9.2976      9.4246      9.4276      9.3010      9.0510      8.6949      8.2583    
  7.7719      7.2665      6.7686      6.2981      5.8676      5.4849      5.1555      4.8855      4.6817      4.5511    
  4.4990      4.5285      4.5284      4.5684      4.6867      4.8790      5.1380      5.4544      5.8178      6.2185    
  6.6485      7.0996      7.5613      8.0178      8.4468      8.8216      9.1144      9.3010      9.3652      9.3010    
  9.1144      8.8216      8.4468      8.0178      7.5613      7.0996      6.6485      6.2185      5.8178      5.4544    
  5.1380      4.8789      4.6866      4.5683      4.6397      4.5285      4.4990      4.5511      4.6818      4.8855    
  5.1555      5.4849      5.8676      6.2981      6.7686      7.2665      7.7719      8.2583      8.6949      9.0510    
  9.3010      9.4276      9.4246      9.2976      9.0628      8.7433      8.3645      7.9491      7.5145      7.0725    
  6.6317      6.2009      5.7913      5.4169      5.0919      4.8296      4.9743      4.7100      4.5285      4.4344    
  4.4283      4.5075      4.6679      4.9047      5.2139      5.5926      6.0369      6.5386      7.0825      7.6446    
  8.1937      8.6949      9.1144      9.4246      9.6075      9.6571      9.5802      9.3940      9.1216      8.7860    
  8.4053      7.9912      7.5508      7.0904      6.6199      6.1541      5.7118      5.3127      5.5321      5.1145    
  4.7762      4.5286      4.3771      4.3223      4.3618      4.4920      4.7099      5.0141      5.4038      5.8758    
  6.4208      7.0200      7.6446      8.2583      8.8216      9.2976      9.6571      9.8822      9.9694      9.9282    
  9.7784      9.5452      9.2491      8.9008      8.5045      8.0617      7.5762      7.0589      6.5290      6.0114    
  6.3031      5.7409      5.2443      4.8357      4.5286      4.3288      4.2366      4.2490      4.3630      4.5770    
  4.8918      5.3078      5.8214      6.4208      7.0825      7.7719      8.4468      9.0628      9.5802      9.9694    
  10.213      10.306      10.267      10.133      9.9365      9.6926      9.3949      9.0273      8.5829      8.0695    
  7.5008      6.9011      7.2551      6.5748      5.9301      5.3582      4.8860      4.5285      4.2914      4.1738    
  4.1722      4.2842      4.5096      4.8506      5.3078      5.8758      6.5386      7.2665      8.0178      8.7433    
  9.3940      9.9282      10.306      10.502      10.534      10.455      10.324      10.181      10.024      9.8193    
  9.5189      9.0925      8.5512      7.9278      8.3233      7.5762      6.8145      6.0915      5.4516      4.9253    
  4.5284      4.2658      4.1354      4.1334      4.2577      4.5096      4.8918      5.4038      6.0369      6.7686    
  7.5613      8.3645      9.1216      9.7784      10.267      10.534      10.587      10.492      10.343      10.225    
  10.175      10.164      10.114      9.9325      9.5604      9.0031      9.4065      8.6711      7.8507      7.0121    
  6.2185      5.5208      4.9521      4.5284      4.2528      4.1225      4.1334      4.2842      4.5770      5.0141    
  5.5926      6.2981      7.0996      7.9491      8.7860      9.5452      10.133      10.455      10.492      10.308    
  10.032      9.8077      9.7418      9.8543      10.069      10.246      10.240      9.9594      10.275      9.7427    
  8.9573      8.0671      7.1591      6.3059      5.5633      4.9658      4.5283      4.2528      4.1354      4.1722    
  4.3630      4.7099      5.2139      5.8676      6.6485      7.5145      8.4053      9.2491      9.9365      10.324    
  10.343      10.032      9.5322      9.0496      8.7807      8.8391      9.2070      9.7387      10.216      10.435    
  10.532      10.506     10.0000      9.1704      8.2163      7.2497      6.3505      5.5777      4.9658      4.5284    
  4.2658      4.1738      4.2490      4.4920      4.9047      5.4849      6.2185      7.0725      7.9912      8.9008    
  9.6926      10.181      10.225      9.8077      9.0496      8.1904      7.5185      7.2739      7.5571      8.2853    
  9.2204      10.057      9.8263      10.559      10.658      10.173      9.3018      8.2925      7.2803      6.3505    
  5.5633      4.9521      4.5284      4.2914      4.2366      4.3618      4.6679      5.1555      5.8178      6.6317    
  7.5508      8.5045      9.3949      10.024      10.175      9.7418      8.7807      7.5185      6.3041      5.5070    
  5.3911      6.0141      7.2001      8.6024      7.9965      9.5932      10.552      10.744      10.259      9.3462    
  8.2925      7.2497      6.3059      5.5208      4.9253      4.5285      4.3288      4.3223      4.5075      4.8855    
  5.4544      6.2009      7.0905      8.0617      9.0273      9.8193      10.164      9.8543      8.8391      7.2739    
  5.5070      3.9990      3.1846      3.3218      4.3926      6.1048      5.1664      7.5152      9.4227      10.540    
  10.771      10.259      9.3018      8.2163      7.1591      6.2185      5.4516      4.8860      4.5286      4.3771    
  4.4283      4.6818      5.1380      5.7914      6.6199      7.5762      8.5829      9.5189      10.114      10.069    
  9.2070      7.5571      5.3911      3.1846      1.4984     0.80358      1.3155      2.9100      1.7787      4.5344    
  7.2493      9.3604      10.540      10.744      10.173      9.1704      8.0671      7.0121      6.0915      5.3582    
  4.8357      4.5286      4.4344      4.5511      4.8790      5.4169      6.1541      7.0589      8.0696      9.0924    
  9.9325      10.246      9.7387      8.2853      6.0141      3.3218     0.80358     -.90672     -1.3404     -.36188    
 -1.4756      1.1669      4.3117      7.2493      9.4227      10.552      10.658     10.0000      8.9573      7.8507    
  6.8145      5.9301      5.2443      4.7762      4.5285      4.4990      4.6867      5.0920      5.7118      6.5290    
  7.5008      8.5512      9.5604      10.240      10.216      9.2204      7.2001      4.3926      1.3155     -1.3404    
 -2.9071     -2.9610     -3.8329     -1.8657      1.1669      4.5344      7.5152      9.5932      10.559      10.506    
  9.7427      8.6711      7.5762      6.5748      5.7409      5.1145      4.7100      4.5285      4.5684      4.8296    
  5.3127      6.0114      6.9011      7.9278      9.0031      9.9594      10.435      10.057      8.6024      6.1048    
  2.9100     -.36189     -2.9610     -4.2313     -3.8329     -3.2156     -1.1537      1.8296      5.0256      7.7620    
  9.5804      10.321      10.108      9.2639      8.1804      7.1023      6.1342      5.3428      4.7610      4.3981    
  4.2529      4.3232      4.6096      5.1137      5.8300      6.7333      7.7670      8.8390      9.7625      10.167    
  9.6980      8.1698      5.6613      2.5549     -.52071     -2.8469     -3.2157     -3.8330     -2.8470     -.52068    
  2.5550      5.6612      8.1697      9.6980      10.167      9.7626      8.8390      7.7670      6.7333      5.8300    
  5.1137      4.6095      4.3232      4.2530      4.3981      4.7610      5.3428      6.1342      7.1023      8.1804    
  9.2639      10.107      10.321      9.5804      7.7619      5.0256      1.8297     -1.1536     -1.0482     -2.7341    
 -2.9610     -1.6813     0.75591      3.7294      6.5524      8.6746      9.8082      9.9567      9.3588      8.3796    
  7.3343      6.3573      5.5286      4.8938      4.4706      4.2617      4.2659      4.4839      4.9194      5.5725    
  6.4297      7.4504      8.5598      9.6382      10.395      10.447      9.5165      7.5436      4.7586      1.6688    
  2.1013     -.21788     -1.4701     -1.3405     0.11467      2.4893      5.1722      7.5473      9.1675      9.8481    
  9.6688      8.9033      7.9031      6.8975      5.9880      5.2411      4.6910      4.3491      4.2161      4.2914    
  4.5776      5.0788      5.7940      6.7048      7.7641      8.8909      9.9502      10.629      10.572      9.5510    
  7.5707      4.9124      5.4688      3.0650      1.2188     0.39882     0.80358      2.2915      4.4348      6.6715    
  8.4857      9.5468      9.7698      9.2958      8.4141      7.4245      6.4715      5.6385      4.9774      4.5123    
  4.2494      4.1880      4.3288      4.6758      5.2336      5.9988      6.9487      8.0305      9.1597      10.191    
  10.812      10.706      9.7002      7.8509      8.3430      6.3434      4.4192      3.0601      2.6179      3.1846    
  4.5615      6.3358      8.0256      9.2317      9.7398      9.5518      8.8513      7.9183      6.9593      6.0710    
  5.3207      4.7466      4.3639      4.1748      4.1785      4.3770      4.7754      5.3779      6.1787      7.1509    
  8.2380      9.3538      10.352      10.940      10.846      9.9490      10.253      8.9646      7.4023      5.9709    
  5.0575      4.9007      5.5069      6.6530      7.9715      9.0800      9.6983      9.7169      9.2057      8.3688    
  7.4356      6.5238      5.7098      5.0451      4.5558      4.2500      4.1276      4.1880      4.4344      4.8726    
  5.5061      6.3262      7.3026      8.3765      9.4627      10.424      11.002      10.971      11.048      10.551    
  9.6097      8.4871      7.5096      6.9607      6.9807      7.5185      8.3560      9.1928      9.7511      9.8598    
  9.4957      8.7739      7.8907      6.9844      6.1341      5.4004      4.8206      4.4108      4.1742      4.1092    
  4.2161      4.4990      4.9639      5.6129      6.4346      7.3961      8.4382      9.4789      10.399      10.982    
  10.865      11.040      10.771      10.168      9.4444      8.8453      8.5608      8.6558      9.0496      9.5525    
  9.9402      10.033      9.7509      9.1344      8.3194      7.4433      6.5838      5.8053      5.1536      4.6542    
  4.3158      4.1384      4.1200      4.2617      4.5683      5.0455      5.6934      6.4984      7.4260      8.4183    
  9.3989      10.271      10.038      10.638      10.916      10.856      10.548      10.153      9.8401      9.7227    
  9.8153      10.032      10.223      10.241      9.9871      9.4532      8.7173      7.8925      7.0501      6.2524    
  5.5504      4.9779      4.5510      4.2736      4.1436      4.1595      4.3232      4.6396      5.1137      5.7435    
  6.5136      7.3892      8.3158      9.2242      8.9613      9.7077      10.299      10.656      10.766      10.693    
  10.544      10.427      10.399      10.446      10.492      10.435      10.189      9.7236      9.0746      8.3214    
  7.5223      6.7332      6.0059      5.3800      4.8796      4.5146      4.2855      4.1897      4.2264      4.3981    
  4.7099      5.1652      5.7602      6.4783      7.2860      8.1338      7.8800      8.6217      9.2959      9.8598    
  10.264      10.494      10.587      10.608      10.614      10.626      10.618      10.534      10.314      9.9224    
  9.3733      8.7138      7.9854      7.2350      6.5111      5.8563      5.3013      4.8629      4.5466      4.3516    
  4.2756      4.3186      4.4839      4.7762      5.1973      5.7419      6.3931      7.1203      6.8995      7.5663    
  8.2209      8.8238      9.3449      9.7630      10.065      10.264      10.393      10.472      10.503      10.460    
  10.306      10.015      9.5877      9.0467      8.4180      7.7386      7.0510      6.3973      5.8120      5.3187    
  4.9293      4.6470      4.4706      4.3990      4.4333      4.5776      4.8357      5.2082      5.6888      6.2615    
  6.0897      6.6342      7.2075      7.7770      8.3123      8.7900      9.1975      9.5312      9.7921      9.9867    
  10.116      10.170      10.127      9.9694      9.6899      9.2927      8.7931      8.2181      7.6026      6.9847    
  6.3999      5.8767      5.4333      5.0783      4.8140      4.6399      4.5567      4.5672      4.6759      4.8860    
  5.1972      5.6032      5.4894      5.8860      6.3373      6.8205      7.3104      7.7838      8.2231      8.6182    
  8.9650      9.2614      9.5029      9.6791      9.7745      9.7718      9.6571      9.4251      9.0815      8.6430    
  8.1355      7.5909      7.0429      6.5217      6.0503      5.6430      5.3067      5.0435      4.8551      4.7444    
  4.7161      4.7754      4.9253      5.1652      5.1137      5.3528      5.6604      6.0228      6.4228      6.8413    
  7.2612      7.6696      8.0582      8.4214      8.7526      9.0411      9.2710      9.4229      9.4785      9.4246    
  9.2570      8.9817      8.6150      8.1809      7.7082      7.2261      6.7599      6.3282      5.9423      5.6081    
  5.3292      5.1100      4.9563      4.8752      4.8726      4.9522      4.9658      5.0455      5.2002      5.4234    
  5.7048      6.0314      6.3895      6.7670      7.1546      7.5457      7.9330      8.3060      8.6486      8.9402    
  9.1584      9.2833      9.3010      9.2071      9.0071      8.7158      8.3552      7.9508      7.5275      7.1061    
  6.7011      6.3215      5.9733      5.6623      5.3966      5.1855      5.0387      4.9639      5.0455      4.9659    
  4.9640      5.0387      5.1855      5.3966      5.6624      5.9733      6.3215      6.7011      7.1061      7.5275    
  7.9508      8.3552      8.7158      9.0071      9.2071      9.3010      9.2833      9.1585      8.9402      8.6486    
  8.3060      7.9330      7.5457      7.1546      6.7670      6.3895      6.0315      5.7048      5.4234      5.2002    
  5.3528      5.1137      4.9522      4.8726      4.8752      4.9564      5.1100      5.3292      5.6081      5.9423    
  6.3282      6.7599      7.2261      7.7082      8.1809      8.6150      8.9817      9.2569      9.4246      9.4785    
  9.4229      9.2710      9.0411      8.7526      8.4214      8.0582      7.6696      7.2612      6.8413      6.4227    
  6.0228      5.6604      5.8860      5.4893      5.1652      4.9253      4.7754      4.7162      4.7444      4.8551    
  5.0435      5.3067      5.6430      6.0502      6.5217      7.0429      7.5909      8.1354      8.6430      9.0815    
  9.4251      9.6571      9.7717      9.7745      9.6791      9.5029      9.2614      8.9650      8.6182      8.2231    
  7.7838      7.3103      6.8205      6.3374      6.6342      6.0897      5.6033      5.1973      4.8860      4.6759    
  4.5672      4.5567      4.6399      4.8140      5.0783      5.4333      5.8767      6.3999      6.9846      7.6026    
  8.2181      8.7931      9.2926      9.6899      9.9694      10.127      10.170      10.116      9.9867      9.7921    
  9.5312      9.1975      8.7900      8.3123      7.7770      7.2075      7.5663      6.8995      6.2616      5.6888    
  5.2081      4.8356      4.5776      4.4333      4.3989      4.4706      4.6470      4.9293      5.3187      5.8120    
  6.3973      7.0510      7.7386      8.4180      9.0467      9.5877      10.015      10.306      10.460      10.503    
  10.472      10.393      10.264      10.065      9.7631      9.3449      8.8238      8.2208      8.6217      7.8800    
  7.1203      6.3931      5.7419      5.1973      4.7762      4.4839      4.3186      4.2755      4.3516      4.5466    
  4.8629      5.3013      5.8564      6.5111      7.2349      7.9854      8.7138      9.3733      9.9224      10.314    
  10.534      10.618      10.626      10.614      10.608      10.587      10.494      10.264      9.8597      9.2959    
  9.7078      8.9613      8.1337      7.2860      6.4783      5.7602      5.1652      4.7099      4.3981      4.2264    
  4.1897      4.2855      4.5146      4.8797      5.3800      6.0058      6.7332      7.5223      8.3214      9.0746    
  9.7236      10.189      10.435      10.492      10.446      10.399      10.427      10.544      10.693      10.766    
  10.656      10.299      10.638      10.038      9.2242      8.3158      7.3892      6.5135      5.7435      5.1137    
  4.6396      4.3231      4.1595      4.1436      4.2736      4.5510      4.9779      5.5504      6.2524      7.0501    
  7.8925      8.7173      9.4532      9.9871      10.241      10.223      10.032      9.8153      9.7227      9.8401    
  10.153      10.548      10.856      10.916      11.040      10.865      10.271      9.3989      8.4183      7.4260    
  6.4984      5.6934      5.0455      4.5683      4.2617      4.1200      4.1384      4.3158      4.6542      5.1536    
  5.8053      6.5838      7.4433      8.3195      9.1344      9.7509      10.033      9.9402      9.5525      9.0496    
  8.6557      8.5608      8.8453      9.4445      10.168      10.771      10.551      11.048      10.982      10.399    
  9.4789      8.4382      7.3961      6.4346      5.6129      4.9639      4.4990      4.2161      4.1092      4.1742    
  4.4108      4.8206      5.4004      6.1341      6.9844      7.8907      8.7739      9.4957      9.8598      9.7511    
  9.1929      8.3560      7.5184      6.9807      6.9607      7.5096      8.4871      9.6097      8.9647      10.254    
  10.971      11.002      10.424      9.4627      8.3765      7.3026      6.3262      5.5061      4.8726      4.4344    
  4.1880      4.1276      4.2500      4.5558      5.0451      5.7098      6.5238      7.4356      8.3688      9.2057    
  9.7169      9.6983      9.0800      7.9715      6.6530      5.5070      4.9007      5.0575      5.9709      7.4023    
  6.3434      8.3430      9.9490      10.846      10.940      10.352      9.3538      8.2380      7.1509      6.1787    
  5.3779      4.7754      4.3770      4.1785      4.1747      4.3638      4.7466      5.3207      6.0710      6.9593    
  7.9183      8.8513      9.5518      9.7398      9.2317      8.0256      6.3358      4.5616      3.1846      2.6179    
  3.0601      4.4193      3.0650      5.4688      7.8510      9.7003      10.706      10.812      10.191      9.1597    
  8.0305      6.9486      5.9988      5.2336      4.6759      4.3288      4.1880      4.2494      4.5124      4.9775    
  5.6385      6.4715      7.4245      8.4142      9.2958      9.7698      9.5468      8.4857      6.6715      4.4348    
  2.2915     0.80368     0.39894      1.2188     -.21787      2.1013      4.9124      7.5707      9.5510      10.572    
  10.629      9.9502      8.8909      7.7641      6.7048      5.7940      5.0788      4.5776      4.2914      4.2161    
  4.3491      4.6910      5.2411      5.9880      6.8975      7.9031      8.9032      9.6688      9.8482      9.1675    
  7.5473      5.1722      2.4894     0.11478     -1.3404     -1.4700     -2.7340     -1.0481      1.6689      4.7586    
  7.5436      9.5166      10.448      10.395      9.6382      8.5599      7.4505      6.4296      5.5724      4.9193    
  4.4840      4.2659      4.2617      4.4706      4.8938      5.5287      6.3573      7.3343      8.3796      9.3588    
  9.9567      9.8081      8.6746      6.5525      3.7295     0.75594     -1.6813     -2.9610     -1.4755     -1.0482    
 0.65723      3.2006      5.9604      8.3314      9.8887      10.472      10.181      9.3059      8.2087      7.1174    
  6.1328      5.3203      4.7127      4.3185      4.1354      4.1595      4.3906      4.8309      5.4782      6.3144    
  7.2932      8.3345      9.3036      9.8928      9.7617      8.7035      6.7433      4.1800      1.5466     -.52063    
 -1.1536     -1.8657     -1.1536     0.79026      3.4589      6.2059      8.4462      9.8075      10.193      9.7598    
  8.8300      7.7543      6.7137      5.7986      5.0655      4.5398      4.2264      4.1226      4.2264      4.5398    
  5.0656      5.7986      6.7137      7.7543      8.8300      9.7598      10.193      9.8075      8.4462      6.2059    
  3.4589     0.79025     0.65724     -1.0482     -1.4755     -.52062      1.5467      4.1800      6.7432      8.7035    
  9.7617      9.8929      9.3036      8.3345      7.2932      6.3144      5.4782      4.8309      4.3906      4.1595    
  4.1354      4.3186      4.7127      5.3204      6.1328      7.1174      8.2087      9.3059      10.181      10.472    
  9.8887      8.3314      5.9604      3.2007      3.4563      1.1727     -.21783     -.36185     0.75595      2.8073    
  5.2390      7.4604      9.0181      9.7001      9.5517      8.8181      7.8362      6.8399      5.9326      5.1820    
  4.6237      4.2696      4.1200      4.1738      4.4333      4.9038      5.5868      6.4692      7.5114      8.6407    
  9.7453      10.563      10.745      10.044      8.4143      6.0677      6.5263      4.1948      2.2640      1.2188    
  1.3155      2.4894      4.3797      6.4607      8.2180      9.2961      9.5735      9.1579      8.3164      7.3484    
  6.4080      5.5801      4.9191      4.4503      4.1806      4.1092      4.2366      4.5672      5.1070      5.8557    
  6.7955      7.8806      9.0333      10.132      10.902      11.021      10.288      8.7083      9.1813      7.2731    
  5.3100      3.7760      3.0601      3.3219      4.4348      6.0354      7.6562      8.8800      9.4567      9.3501    
  8.7149      7.8196      6.8840      6.0099      5.2674      4.6972      4.3158      4.1261      4.1276      4.3223    
  4.7162      5.3153      6.1169      7.0986      8.2096      9.3689      10.451      11.185      11.289      10.607    
  10.958      9.7637      8.1972      6.6420      5.4993      5.0575      5.3910      6.3357      7.5543      8.6596    
  9.3414      9.4514      9.0246      8.2443      7.3447      6.4561      5.6576      5.0035      4.5223      4.2236    
  4.1078      4.1748      4.4283      4.8752      5.5210      6.3600      7.3654      8.4825      9.6295      10.684    
  11.396      11.526      11.696      11.285      10.362      9.1611      8.0056      7.2073      6.9606      7.2738    
  7.9714      8.7650      9.3592      9.5487      9.2737      8.6218      7.7811      6.9057      6.0781      5.3615    
  4.7958      4.3993      4.1763      4.1261      4.2494      4.5511      5.0387      5.7160      6.5742      7.5828    
  8.6847      9.7990      10.813      11.513      11.512      11.762      11.523      10.877      10.025      9.2237    
  8.6971      8.5607      8.7805      9.1928      9.5714      9.7132      9.5058      8.9588      8.1908      7.3498    
  6.5186      5.7628      5.1309      4.6503      4.3314      4.1753      4.1806      4.3491      4.6866      5.2002    
  5.8917      6.7491      7.7390      8.8035      9.8647      10.825      10.712      11.378      11.691      11.615    
  11.223      10.674      10.157      9.8211      9.7226      9.8076      9.9402      9.9608      9.7492      9.2679    
  8.5738      7.7820      6.9702      6.1995      5.5221      4.9735      4.5714      4.3208      4.2206      4.2697    
  4.4706      4.8296      5.3528      6.0397      6.8752      7.8241      8.8298      9.8195      9.6626      10.473    
  11.105      11.465      11.525      11.343      11.033      10.725      10.508      10.399      10.343      10.241    
  9.9936      9.5497      8.9251      8.1953      7.4236      6.6627      5.9633      5.3659      4.8954      4.5624    
  4.3684      4.3113      4.3906      4.6095      4.9742      5.4894      6.1519      6.9445      7.8316      8.7596    
  8.5946      9.4007      10.121      10.703      11.084      11.243      11.216      11.080      10.913      10.763    
  10.626      10.455      10.189      9.7818      9.2299      8.5769      7.8666      7.1408      6.4456      5.8225    
  5.3017      4.9006      4.6248      4.4738      4.4454      4.5398      4.7610      5.1145      5.6032      6.2220    
  6.9522      7.7593      7.6100      8.3427      9.0468      9.6761      10.194      10.571      10.788      10.866    
  10.846      10.771      10.661      10.503      10.267      9.9225      9.4615      8.9059      8.2805      7.6173    