   2   2   0   0
  0.1240635E+02  0.3378217E-09  0.3378217E-09  0.3378217E-09  0.5000000E-15
  1.000000000000000E-004
  CAR 
 unknown system                          
     29.46684716     -5.57787269  301     12.01553669      1.00000000
     -5.578  0.0000E+00  0.0000E+00
     -5.461  0.0000E+00  0.0000E+00
     -5.344  0.0000E+00  0.0000E+00
     -5.227  0.0000E+00  0.0000E+00
     -5.111  0.0000E+00  0.0000E+00
     -4.994  0.0000E+00  0.0000E+00
     -4.877  0.0000E+00  0.0000E+00
     -4.760  0.4950E-18  0.5782E-19
     -4.643  0.2188E-15  0.2562E-16
     -4.527  0.8774E-13  0.1027E-13
     -4.410  0.1798E-10  0.2111E-11
     -4.293  0.1891E-08  0.2230E-09
     -4.176  0.1023E-06  0.1217E-07
     -4.059  0.2858E-05  0.3460E-06
     -3.942  0.4139E-04  0.5181E-05
     -3.826  0.3127E-03  0.4171E-04
     -3.709  0.1244E-02  0.1870E-03
     -3.592  0.2681E-02  0.5002E-03
     -3.475  0.3491E-02  0.9079E-03
     -3.358  0.4102E-02  0.1387E-02
     -3.242  0.6971E-02  0.2201E-02
     -3.125  0.1173E-01  0.3572E-02
     -3.008  0.1366E-01  0.5168E-02
     -2.891  0.1158E-01  0.6521E-02
     -2.774  0.8705E-02  0.7538E-02
     -2.657  0.6721E-02  0.8323E-02
     -2.541  0.6697E-02  0.9105E-02
     -2.424  0.9802E-02  0.1025E-01
     -2.307  0.1673E-01  0.1220E-01
     -2.190  0.2388E-01  0.1499E-01
     -2.073  0.2217E-01  0.1758E-01
     -1.957  0.1361E-01  0.1917E-01
     -1.840  0.1168E-01  0.2054E-01
     -1.723  0.1728E-01  0.2256E-01
     -1.606  0.1930E-01  0.2481E-01
     -1.489  0.1570E-01  0.2664E-01
     -1.373  0.1385E-01  0.2826E-01
     -1.256  0.1597E-01  0.3013E-01
     -1.139  0.1851E-01  0.3229E-01
     -1.022  0.2029E-01  0.3466E-01
     -0.905  0.2282E-01  0.3733E-01
     -0.788  0.2400E-01  0.4013E-01
     -0.672  0.1947E-01  0.4240E-01
     -0.555  0.1659E-01  0.4434E-01
     -0.438  0.2543E-01  0.4731E-01
     -0.321  0.3523E-01  0.5143E-01
     -0.204  0.3001E-01  0.5493E-01
     -0.088  0.1706E-01  0.5692E-01
      0.029  0.8660E-02  0.5794E-01
      0.146  0.6478E-02  0.5869E-01
      0.263  0.1172E-01  0.6006E-01
      0.380  0.2552E-01  0.6304E-01
      0.497  0.4374E-01  0.6815E-01
      0.613  0.5117E-01  0.7413E-01
      0.730  0.3903E-01  0.7869E-01
      0.847  0.2461E-01  0.8157E-01
      0.964  0.2221E-01  0.8416E-01
      1.081  0.2524E-01  0.8711E-01
      1.197  0.2609E-01  0.9016E-01
      1.314  0.2418E-01  0.9298E-01
      1.431  0.2059E-01  0.9538E-01
      1.548  0.1782E-01  0.9747E-01
      1.665  0.1865E-01  0.9964E-01
      1.782  0.2289E-01  0.1023E+00
      1.898  0.2530E-01  0.1053E+00
      2.015  0.2260E-01  0.1079E+00
      2.132  0.2293E-01  0.1106E+00
      2.249  0.3809E-01  0.1150E+00
      2.366  0.5714E-01  0.1217E+00
      2.482  0.5620E-01  0.1283E+00
      2.599  0.3848E-01  0.1328E+00
      2.716  0.2508E-01  0.1357E+00
      2.833  0.2163E-01  0.1382E+00
      2.950  0.2173E-01  0.1408E+00
      3.066  0.2813E-01  0.1441E+00
      3.183  0.4282E-01  0.1491E+00
      3.300  0.5098E-01  0.1550E+00
      3.417  0.4444E-01  0.1602E+00
      3.534  0.3677E-01  0.1645E+00
      3.651  0.3333E-01  0.1684E+00
      3.767  0.2854E-01  0.1717E+00
      3.884  0.2693E-01  0.1749E+00
      4.001  0.2782E-01  0.1781E+00
      4.118  0.2276E-01  0.1808E+00
      4.235  0.1549E-01  0.1826E+00
      4.351  0.1465E-01  0.1843E+00
      4.468  0.2240E-01  0.1869E+00
      4.585  0.3416E-01  0.1909E+00
      4.702  0.4421E-01  0.1961E+00
      4.819  0.5186E-01  0.2021E+00
      4.936  0.5722E-01  0.2088E+00
      5.052  0.5619E-01  0.2154E+00
      5.169  0.4948E-01  0.2212E+00
      5.286  0.4330E-01  0.2262E+00
      5.403  0.3695E-01  0.2305E+00
      5.520  0.2936E-01  0.2340E+00
      5.636  0.2898E-01  0.2374E+00
      5.753  0.4147E-01  0.2422E+00
      5.870  0.5462E-01  0.2486E+00
      5.987  0.5284E-01  0.2547E+00
      6.104  0.4161E-01  0.2596E+00
      6.221  0.3205E-01  0.2634E+00
      6.337  0.2325E-01  0.2661E+00
      6.454  0.1903E-01  0.2683E+00
      6.571  0.2681E-01  0.2714E+00
      6.688  0.4174E-01  0.2763E+00
      6.805  0.4862E-01  0.2820E+00
      6.921  0.4532E-01  0.2873E+00
      7.038  0.4906E-01  0.2930E+00
      7.155  0.6039E-01  0.3001E+00
      7.272  0.6158E-01  0.3073E+00
      7.389  0.5310E-01  0.3135E+00
      7.505  0.4528E-01  0.3187E+00
      7.622  0.4033E-01  0.3235E+00
      7.739  0.3821E-01  0.3279E+00
      7.856  0.3615E-01  0.3321E+00
      7.973  0.3072E-01  0.3357E+00
      8.090  0.2842E-01  0.3391E+00
      8.206  0.4035E-01  0.3438E+00
      8.323  0.6269E-01  0.3511E+00
      8.440  0.7438E-01  0.3598E+00
      8.557  0.6811E-01  0.3677E+00
      8.674  0.5886E-01  0.3746E+00
      8.790  0.5083E-01  0.3805E+00
      8.907  0.4101E-01  0.3853E+00
      9.024  0.3605E-01  0.3895E+00
      9.141  0.4041E-01  0.3943E+00
      9.258  0.4902E-01  0.4000E+00
      9.375  0.5423E-01  0.4063E+00
      9.491  0.5496E-01  0.4128E+00
      9.608  0.5272E-01  0.4189E+00
      9.725  0.4829E-01  0.4246E+00
      9.842  0.5117E-01  0.4305E+00
      9.959  0.7296E-01  0.4391E+00
     10.075  0.1003E+00  0.4508E+00
     10.192  0.9966E-01  0.4624E+00
     10.309  0.7255E-01  0.4709E+00
     10.426  0.4561E-01  0.4762E+00
     10.543  0.2955E-01  0.4797E+00
     10.660  0.2827E-01  0.4830E+00
     10.776  0.3613E-01  0.4872E+00
     10.893  0.4003E-01  0.4919E+00
     11.010  0.3882E-01  0.4964E+00
     11.127  0.3709E-01  0.5007E+00
     11.244  0.3613E-01  0.5050E+00
     11.360  0.3363E-01  0.5089E+00
     11.477  0.3215E-01  0.5126E+00
     11.594  0.3577E-01  0.5168E+00
     11.711  0.3708E-01  0.5211E+00
     11.828  0.3545E-01  0.5253E+00
     11.944  0.4020E-01  0.5300E+00
     12.061  0.4837E-01  0.5356E+00
     12.178  0.5112E-01  0.5416E+00
     12.295  0.4730E-01  0.5471E+00
     12.412  0.4338E-01  0.5522E+00
     12.529  0.4499E-01  0.5575E+00
     12.645  0.4487E-01  0.5627E+00
     12.762  0.3484E-01  0.5668E+00
     12.879  0.2508E-01  0.5697E+00
     12.996  0.2974E-01  0.5732E+00
     13.113  0.4458E-01  0.5784E+00
     13.229  0.5855E-01  0.5852E+00
     13.346  0.6617E-01  0.5929E+00
     13.463  0.6151E-01  0.6001E+00
     13.580  0.4877E-01  0.6058E+00
     13.697  0.3962E-01  0.6105E+00
     13.814  0.3635E-01  0.6147E+00
     13.930  0.3709E-01  0.6190E+00
     14.047  0.4280E-01  0.6240E+00
     14.164  0.5403E-01  0.6303E+00
     14.281  0.6340E-01  0.6378E+00
     14.398  0.6551E-01  0.6454E+00
     14.514  0.6649E-01  0.6532E+00
     14.631  0.6965E-01  0.6613E+00
     14.748  0.7034E-01  0.6695E+00
     14.865  0.6907E-01  0.6776E+00
     14.982  0.6578E-01  0.6853E+00
     15.099  0.5769E-01  0.6920E+00
     15.215  0.4846E-01  0.6977E+00
     15.332  0.4203E-01  0.7026E+00
     15.449  0.3889E-01  0.7071E+00
     15.566  0.4251E-01  0.7121E+00
     15.683  0.5433E-01  0.7184E+00
     15.799  0.6216E-01  0.7257E+00
     15.916  0.5509E-01  0.7321E+00
     16.033  0.4195E-01  0.7370E+00
     16.150  0.3617E-01  0.7413E+00
     16.267  0.3722E-01  0.7456E+00
     16.383  0.3837E-01  0.7501E+00
     16.500  0.4357E-01  0.7552E+00
     16.617  0.5765E-01  0.7619E+00
     16.734  0.7419E-01  0.7706E+00
     16.851  0.8169E-01  0.7801E+00
     16.968  0.7162E-01  0.7885E+00
     17.084  0.5194E-01  0.7946E+00
     17.201  0.3747E-01  0.7989E+00
     17.318  0.3310E-01  0.8028E+00
     17.435  0.4293E-01  0.8078E+00
     17.552  0.5835E-01  0.8146E+00
     17.668  0.6304E-01  0.8220E+00
     17.785  0.6373E-01  0.8294E+00
     17.902  0.7541E-01  0.8383E+00
     18.019  0.8723E-01  0.8484E+00
     18.136  0.8308E-01  0.8582E+00
     18.253  0.7170E-01  0.8665E+00
     18.369  0.6641E-01  0.8743E+00
     18.486  0.7172E-01  0.8827E+00
     18.603  0.8101E-01  0.8921E+00
     18.720  0.7878E-01  0.9013E+00
     18.837  0.6213E-01  0.9086E+00
     18.953  0.4297E-01  0.9136E+00
     19.070  0.3393E-01  0.9176E+00
     19.187  0.3117E-01  0.9212E+00
     19.304  0.2469E-01  0.9241E+00
     19.421  0.1771E-01  0.9262E+00
     19.538  0.2014E-01  0.9285E+00
     19.654  0.3449E-01  0.9325E+00
     19.771  0.4992E-01  0.9384E+00
     19.888  0.5466E-01  0.9448E+00
     20.005  0.4914E-01  0.9505E+00
     20.122  0.4637E-01  0.9559E+00
     20.238  0.5392E-01  0.9622E+00
     20.355  0.6311E-01  0.9696E+00
     20.472  0.6243E-01  0.9769E+00
     20.589  0.5504E-01  0.9833E+00
     20.706  0.5240E-01  0.9894E+00
     20.822  0.5086E-01  0.9954E+00
     20.939  0.4076E-01  0.1000E+01
     21.056  0.2548E-01  0.1003E+01
     21.173  0.1763E-01  0.1005E+01
     21.290  0.1960E-01  0.1007E+01
     21.407  0.2297E-01  0.1010E+01
     21.523  0.2535E-01  0.1013E+01
     21.640  0.2922E-01  0.1017E+01
     21.757  0.3157E-01  0.1020E+01
     21.874  0.2829E-01  0.1024E+01
     21.991  0.2145E-01  0.1026E+01
     22.107  0.1604E-01  0.1028E+01
     22.224  0.1528E-01  0.1030E+01
     22.341  0.2159E-01  0.1032E+01
     22.458  0.2909E-01  0.1036E+01
     22.575  0.2592E-01  0.1039E+01
     22.692  0.1545E-01  0.1040E+01
     22.808  0.1068E-01  0.1042E+01
     22.925  0.1372E-01  0.1043E+01
     23.042  0.1959E-01  0.1046E+01
     23.159  0.2578E-01  0.1049E+01
     23.276  0.3152E-01  0.1052E+01
     23.392  0.3108E-01  0.1056E+01
     23.509  0.2025E-01  0.1058E+01
     23.626  0.7711E-02  0.1059E+01
     23.743  0.1618E-02  0.1059E+01
     23.860  0.1821E-03  0.1059E+01
     23.977  0.1085E-04  0.1059E+01
     24.093  0.1208E-05  0.1059E+01
     24.210  0.1855E-04  0.1059E+01
     24.327  0.2052E-03  0.1059E+01
     24.444  0.1183E-02  0.1060E+01
     24.561  0.3583E-02  0.1060E+01
     24.677  0.5840E-02  0.1061E+01
     24.794  0.5864E-02  0.1061E+01
     24.911  0.5632E-02  0.1062E+01
     25.028  0.6299E-02  0.1063E+01
     25.145  0.5642E-02  0.1063E+01
     25.261  0.4264E-02  0.1064E+01
     25.378  0.3302E-02  0.1064E+01
     25.495  0.1951E-02  0.1064E+01
     25.612  0.6667E-03  0.1065E+01
     25.729  0.1215E-03  0.1065E+01
     25.846  0.1175E-04  0.1065E+01
     25.962  0.4949E-05  0.1065E+01
     26.079  0.5763E-04  0.1065E+01
     26.196  0.3950E-03  0.1065E+01
     26.313  0.1415E-02  0.1065E+01
     26.430  0.2655E-02  0.1065E+01
     26.546  0.2616E-02  0.1065E+01
     26.663  0.1352E-02  0.1066E+01
     26.780  0.3662E-03  0.1066E+01
     26.897  0.5206E-04  0.1066E+01
     27.014  0.9608E-05  0.1066E+01
     27.131  0.7169E-04  0.1066E+01
     27.247  0.4603E-03  0.1066E+01
     27.364  0.1548E-02  0.1066E+01
     27.481  0.2728E-02  0.1066E+01
     27.598  0.2523E-02  0.1066E+01
     27.715  0.1225E-02  0.1067E+01
     27.831  0.3114E-03  0.1067E+01
     27.948  0.4135E-04  0.1067E+01
     28.065  0.2857E-05  0.1067E+01
     28.182  0.1023E-06  0.1067E+01
     28.299  0.1891E-08  0.1067E+01
     28.416  0.1798E-10  0.1067E+01
     28.532  0.8774E-13  0.1067E+01
     28.649  0.2198E-15  0.1067E+01
     28.766  0.0000E+00  0.1067E+01
     28.883  0.0000E+00  0.1067E+01
     29.000  0.0000E+00  0.1067E+01
     29.116  0.0000E+00  0.1067E+01
     29.233  0.0000E+00  0.1067E+01
     29.350  0.0000E+00  0.1067E+01
     29.467  0.0000E+00  0.1067E+01
