       N       E                     dE             d eps       ncg     rms          rms(c)
DAV:   1     0.152998276103E+01    0.15300E+01   -0.29244E+03   928   0.588E+02
DAV:   2    -0.963547889413E+01   -0.11165E+02   -0.10868E+02  1312   0.695E+01
DAV:   3    -0.973346518849E+01   -0.97986E-01   -0.96766E-01  1232   0.777E+00
DAV:   4    -0.973371359699E+01   -0.24841E-03   -0.24834E-03  1456   0.337E-01
DAV:   5    -0.973371372714E+01   -0.13015E-06   -0.12937E-06  1168   0.477E-03    0.196E+00
DAV:   6    -0.970635222638E+01    0.27362E-01   -0.71798E-03  1376   0.550E-01    0.119E+00
DAV:   7    -0.969067030426E+01    0.15682E-01   -0.15835E-02  1192   0.883E-01    0.775E-02
DAV:   8    -0.969053341143E+01    0.13689E-03   -0.97124E-04   840   0.243E-01
   1 F= -.96905334E+01 E0= -.96831352E+01  d E =-.969053E+01
