<?xml version="1.0" encoding="ISO-8859-1"?>
<modeling>
 <generator>
  <i name="program" type="string">vasp </i>
  <i name="version" type="string">5.4.4.18Apr17-6-g9f103f2a35  </i>
  <i name="subversion" type="string">(build Dec 09 2018 21:25:21) complex            parallel </i>
  <i name="platform" type="string">IFC18.0.1.163_CrayMPICH7.7.0_MKL18.0.1.163 </i>
  <i name="date" type="string">2019 04 01 </i>
  <i name="time" type="string">15:49:33 </i>
 </generator>
 <incar>
  <i type="string" name="PREC">normal</i>
  <i type="int" name="IBRION">     2</i>
  <i name="EDIFF">      0.00040000</i>
  <i name="EDIFFG">     -0.01000000</i>
  <i type="int" name="NSW">    15</i>
  <i type="int" name="ISIF">     2</i>
  <i name="ENCUT">    350.00000000</i>
  <i type="int" name="NBANDS">     8</i>
  <i type="logical" name="LREAL"> F  </i>
  <i type="int" name="ISMEAR">     0</i>
  <i name="SIGMA">      0.20000000</i>
  <v type="int" name="KPOINT_BSE">    -1     0     0     0</v>
 </incar>
 <structure name="primitive_cell" >
  <crystal>
   <varray name="basis" >
    <v>      -2.21522200       2.21522200       1.26409400 </v>
    <v>       2.21522200      -2.21522200       1.26409400 </v>
    <v>       2.21522200       2.21522200      -1.26409400 </v>
   </varray>
   <i name="volume">     24.81269133 </i>
   <varray name="rec_basis" >
    <v>       0.00000000       0.22571101       0.39554021 </v>
    <v>       0.22571101       0.00000000       0.39554021 </v>
    <v>       0.22571101       0.22571101       0.00000000 </v>
   </varray>
  </crystal>
  <varray name="positions" >
   <v>       0.00000000       0.00000000       0.00000000 </v>
   <v>       0.25000000      -0.25000000      -0.50000000 </v>
  </varray>
 </structure>
 <varray name="primitive_index" >
  <v type="int" >        1 </v>
  <v type="int" >        2 </v>
 </varray>
 <kpoints>
  <generation param="Monkhorst-Pack">
   <v type="int" name="divisions">       8        8        8 </v>
   <v name="usershift">      0.00000000       0.00000000       0.00000000 </v>
   <v name="genvec1">      0.12500000      -0.00000000       0.00000000 </v>
   <v name="genvec2">     -0.00000000       0.12500000       0.00000000 </v>
   <v name="genvec3">     -0.00000000       0.00000000       0.12500000 </v>
   <v name="shift">      0.50000000       0.50000000       0.50000000 </v>
  </generation>
  <varray name="kpointlist" >
   <v>       0.06250000       0.06250000       0.06250000 </v>
   <v>       0.18750000       0.06250000       0.06250000 </v>
   <v>       0.31250000       0.06250000       0.06250000 </v>
   <v>       0.43750000       0.06250000       0.06250000 </v>
   <v>      -0.06250000       0.06250000       0.06250000 </v>
   <v>       0.18750000       0.18750000       0.06250000 </v>
   <v>       0.31250000       0.18750000       0.06250000 </v>
   <v>       0.43750000       0.18750000       0.06250000 </v>
   <v>      -0.43750000       0.18750000       0.06250000 </v>
   <v>      -0.31250000       0.18750000       0.06250000 </v>
   <v>      -0.18750000       0.18750000       0.06250000 </v>
   <v>      -0.06250000       0.18750000       0.06250000 </v>
   <v>       0.31250000       0.31250000       0.06250000 </v>
   <v>       0.43750000       0.31250000       0.06250000 </v>
   <v>      -0.43750000       0.31250000       0.06250000 </v>
   <v>      -0.31250000       0.31250000       0.06250000 </v>
   <v>      -0.18750000       0.31250000       0.06250000 </v>
   <v>      -0.06250000       0.31250000       0.06250000 </v>
   <v>       0.43750000       0.43750000       0.06250000 </v>
   <v>      -0.43750000       0.43750000       0.06250000 </v>
   <v>      -0.31250000       0.43750000       0.06250000 </v>
   <v>      -0.18750000       0.43750000       0.06250000 </v>
   <v>      -0.06250000       0.43750000       0.06250000 </v>
   <v>      -0.43750000      -0.43750000       0.06250000 </v>
   <v>      -0.31250000      -0.43750000       0.06250000 </v>
   <v>      -0.18750000      -0.43750000       0.06250000 </v>
   <v>      -0.06250000      -0.43750000       0.06250000 </v>
   <v>      -0.31250000      -0.31250000       0.06250000 </v>
   <v>      -0.18750000      -0.31250000       0.06250000 </v>
   <v>      -0.06250000      -0.31250000       0.06250000 </v>
   <v>      -0.18750000      -0.18750000       0.06250000 </v>
   <v>      -0.06250000      -0.18750000       0.06250000 </v>
   <v>      -0.06250000      -0.06250000       0.06250000 </v>
   <v>       0.18750000       0.18750000       0.18750000 </v>
   <v>       0.31250000       0.18750000       0.18750000 </v>
   <v>      -0.18750000       0.18750000       0.18750000 </v>
   <v>       0.31250000       0.31250000       0.18750000 </v>
   <v>      -0.31250000       0.31250000       0.18750000 </v>
   <v>      -0.18750000       0.31250000       0.18750000 </v>
   <v>      -0.43750000       0.43750000       0.18750000 </v>
   <v>      -0.31250000       0.43750000       0.18750000 </v>
   <v>      -0.18750000       0.43750000       0.18750000 </v>
   <v>      -0.43750000      -0.43750000       0.18750000 </v>
   <v>      -0.31250000      -0.43750000       0.18750000 </v>
   <v>      -0.18750000      -0.43750000       0.18750000 </v>
   <v>      -0.31250000      -0.31250000       0.18750000 </v>
   <v>      -0.18750000      -0.31250000       0.18750000 </v>
   <v>      -0.18750000      -0.18750000       0.18750000 </v>
   <v>      -0.31250000       0.31250000       0.31250000 </v>
   <v>      -0.43750000       0.43750000       0.31250000 </v>
   <v>      -0.31250000       0.43750000       0.31250000 </v>
   <v>      -0.43750000      -0.43750000       0.31250000 </v>
   <v>      -0.31250000      -0.43750000       0.31250000 </v>
   <v>      -0.31250000      -0.31250000       0.31250000 </v>
   <v>      -0.43750000       0.43750000       0.43750000 </v>
   <v>      -0.43750000      -0.43750000       0.43750000 </v>
  </varray>
  <varray name="weights" >
   <v>       0.01562500 </v>
   <v>       0.03125000 </v>
   <v>       0.03125000 </v>
   <v>       0.01562500 </v>
   <v>       0.00781250 </v>
   <v>       0.01562500 </v>
   <v>       0.03125000 </v>
   <v>       0.03125000 </v>
   <v>       0.03125000 </v>
   <v>       0.01562500 </v>
   <v>       0.01562500 </v>
   <v>       0.01562500 </v>
   <v>       0.01562500 </v>
   <v>       0.03125000 </v>
   <v>       0.01562500 </v>
   <v>       0.01562500 </v>
   <v>       0.03125000 </v>
   <v>       0.01562500 </v>
   <v>       0.00781250 </v>
   <v>       0.01562500 </v>
   <v>       0.03125000 </v>
   <v>       0.03125000 </v>
   <v>       0.01562500 </v>
   <v>       0.01562500 </v>
   <v>       0.03125000 </v>
   <v>       0.03125000 </v>
   <v>       0.01562500 </v>
   <v>       0.01562500 </v>
   <v>       0.03125000 </v>
   <v>       0.01562500 </v>
   <v>       0.01562500 </v>
   <v>       0.01562500 </v>
   <v>       0.00390625 </v>
   <v>       0.01562500 </v>
   <v>       0.01562500 </v>
   <v>       0.00781250 </v>
   <v>       0.00781250 </v>
   <v>       0.01562500 </v>
   <v>       0.01562500 </v>
   <v>       0.01562500 </v>
   <v>       0.03125000 </v>
   <v>       0.01562500 </v>
   <v>       0.01562500 </v>
   <v>       0.03125000 </v>
   <v>       0.01562500 </v>
   <v>       0.01562500 </v>
   <v>       0.01562500 </v>
   <v>       0.00390625 </v>
   <v>       0.00781250 </v>
   <v>       0.01562500 </v>
   <v>       0.01562500 </v>
   <v>       0.01562500 </v>
   <v>       0.01562500 </v>
   <v>       0.00390625 </v>
   <v>       0.00781250 </v>
   <v>       0.00390625 </v>
  </varray>
 </kpoints>
 <parameters>
  <separator name="general" >
   <i type="string" name="SYSTEM">unknown system</i>
   <i type="logical" name="LCOMPAT"> F  </i>
  </separator>
  <separator name="electronic" >
   <i type="string" name="PREC">normal</i>
   <i name="ENMAX">    350.00000000</i>
   <i name="ENAUG">    322.06900000</i>
   <i name="EDIFF">      0.00040000</i>
   <i type="int" name="IALGO">    38</i>
   <i type="int" name="IWAVPR">    11</i>
   <i type="int" name="NBANDS">     8</i>
   <i name="NELECT">      8.00000000</i>
   <i type="int" name="TURBO">     0</i>
   <i type="int" name="IRESTART">     0</i>
   <i type="int" name="NREBOOT">     0</i>
   <i type="int" name="NMIN">     0</i>
   <i name="EREF">      0.00000000</i>
   <separator name="electronic smearing" >
    <i type="int" name="ISMEAR">     0</i>
    <i name="SIGMA">      0.20000000</i>
    <i name="KSPACING">      0.50000000</i>
    <i type="logical" name="KGAMMA"> T  </i>
   </separator>
   <separator name="electronic projectors" >
    <i type="logical" name="LREAL"> F  </i>
    <v name="ROPT">      0.00000000</v>
    <i type="int" name="LMAXPAW">  -100</i>
    <i type="int" name="LMAXMIX">     2</i>
    <i type="logical" name="NLSPLINE"> F  </i>
   </separator>
   <separator name="electronic startup" >
    <i type="int" name="ISTART">     0</i>
    <i type="int" name="ICHARG">     2</i>
    <i type="int" name="INIWAV">     1</i>
   </separator>
   <separator name="electronic spin" >
    <i type="int" name="ISPIN">     1</i>
    <i type="logical" name="LNONCOLLINEAR"> F  </i>
    <v name="MAGMOM">      1.00000000      1.00000000</v>
    <i name="NUPDOWN">     -1.00000000</i>
    <i type="logical" name="LSORBIT"> F  </i>
    <v name="SAXIS">      0.00000000      0.00000000      1.00000000</v>
    <i type="logical" name="LSPIRAL"> F  </i>
    <v name="QSPIRAL">      0.00000000      0.00000000      0.00000000</v>
    <i type="logical" name="LZEROZ"> F  </i>
   </separator>
   <separator name="electronic exchange-correlation" >
    <i type="logical" name="LASPH"> F  </i>
    <i type="logical" name="LMETAGGA"> F  </i>
   </separator>
   <separator name="electronic convergence" >
    <i type="int" name="NELM">    60</i>
    <i type="int" name="NELMDL">    -5</i>
    <i type="int" name="NELMIN">     2</i>
    <i name="ENINI">    350.00000000</i>
    <separator name="electronic convergence detail" >
     <i type="logical" name="LDIAG"> T  </i>
     <i type="logical" name="LSUBROT"> F  </i>
     <i name="WEIMIN">      0.00100000</i>
     <i name="EBREAK">      0.00001250</i>
     <i name="DEPER">      0.30000000</i>
     <i type="int" name="NRMM">     4</i>
     <i name="TIME">      0.40000000</i>
    </separator>
   </separator>
   <separator name="electronic mixer" >
    <i name="AMIX">      0.40000000</i>
    <i name="BMIX">      1.00000000</i>
    <i name="AMIN">      0.10000000</i>
    <i name="AMIX_MAG">      1.60000000</i>
    <i name="BMIX_MAG">      1.00000000</i>
    <separator name="electronic mixer details" >
     <i type="int" name="IMIX">     4</i>
     <i type="logical" name="MIXFIRST"> F  </i>
     <i type="int" name="MAXMIX">   -45</i>
     <i name="WC">    100.00000000</i>
     <i type="int" name="INIMIX">     1</i>
     <i type="int" name="MIXPRE">     1</i>
     <i type="int" name="MREMOVE">     5</i>
    </separator>
   </separator>
   <separator name="electronic dipolcorrection" >
    <i type="logical" name="LDIPOL"> F  </i>
    <i type="logical" name="LMONO"> F  </i>
    <i type="int" name="IDIPOL">     0</i>
    <i name="EPSILON">      1.00000000</i>
    <v name="DIPOL">   -100.00000000   -100.00000000   -100.00000000</v>
    <i name="EFIELD">      0.00000000</i>
   </separator>
  </separator>
  <separator name="grids" >
   <i type="int" name="NGX">    16</i>
   <i type="int" name="NGY">    16</i>
   <i type="int" name="NGZ">    16</i>
   <i type="int" name="NGXF">    32</i>
   <i type="int" name="NGYF">    32</i>
   <i type="int" name="NGZF">    32</i>
   <i type="logical" name="ADDGRID"> F  </i>
  </separator>
  <separator name="ionic" >
   <i type="int" name="NSW">    15</i>
   <i type="int" name="IBRION">     2</i>
   <i type="int" name="MDALGO">     0</i>
   <i type="int" name="ISIF">     2</i>
   <i name="PSTRESS">      0.00000000</i>
   <i name="EDIFFG">     -0.01000000</i>
   <i type="int" name="NFREE">     1</i>
   <i name="POTIM">      0.50000000</i>
   <i name="SMASS">     -3.00000000</i>
   <i name="SCALEE">      1.00000000</i>
  </separator>
  <separator name="ionic md" >
   <i name="TEBEG">      0.00010000</i>
   <i name="TEEND">      0.00010000</i>
   <i type="int" name="NBLOCK">     1</i>
   <i type="int" name="KBLOCK">    15</i>
   <i type="int" name="NPACO">   256</i>
   <i name="APACO">     16.00000000</i>
  </separator>
  <separator name="symmetry" >
   <i type="int" name="ISYM">     2</i>
   <i name="SYMPREC">      0.00001000</i>
  </separator>
  <separator name="dos" >
   <i type="int" name="LORBIT">     0</i>
   <v name="RWIGS">     -1.00000000</v>
   <i type="int" name="NEDOS">   301</i>
   <i name="EMIN">     10.00000000</i>
   <i name="EMAX">    -10.00000000</i>
   <i name="EFERMI">      0.00000000</i>
  </separator>
  <separator name="writing" >
   <i type="int" name="NWRITE">     2</i>
   <i type="logical" name="LWAVE"> T  </i>
   <i type="logical" name="LDOWNSAMPLE"> F  </i>
   <i type="logical" name="LCHARG"> T  </i>
   <i type="logical" name="LPARD"> F  </i>
   <i type="logical" name="LVTOT"> F  </i>
   <i type="logical" name="LVHAR"> F  </i>
   <i type="logical" name="LELF"> F  </i>
   <i type="logical" name="LOPTICS"> F  </i>
   <v name="STM">      0.00000000      0.00000000      0.00000000      0.00000000      0.00000000      0.00000000      0.00000000</v>
  </separator>
  <separator name="performance" >
   <i type="int" name="NPAR">     8</i>
   <i type="int" name="NSIM">     4</i>
   <i type="int" name="NBLK">    -1</i>
   <i type="logical" name="LPLANE"> T  </i>
   <i type="logical" name="LSCALAPACK"> T  </i>
   <i type="logical" name="LSCAAWARE"> F  </i>
   <i type="logical" name="LSCALU"> F  </i>
   <i type="logical" name="LASYNC"> F  </i>
   <i type="logical" name="LORBITALREAL"> F  </i>
  </separator>
  <separator name="miscellaneous" >
   <i type="int" name="IDIOT">     3</i>
   <i type="int" name="ISPECIAL">     0</i>
   <i type="logical" name="LMUSIC"> F  </i>
   <v name="POMASS">     28.08500000</v>
   <v name="DARWINR">      0.00000000</v>
   <v name="DARWINV">      1.00000000</v>
   <i type="logical" name="LCORR"> T  </i>
  </separator>
  <i type="logical" name="GGA_COMPAT"> T  </i>
  <i type="logical" name="LBERRY"> F  </i>
  <i type="int" name="ICORELEVEL">     0</i>
  <i type="logical" name="LDAU"> F  </i>
  <i type="int" name="I_CONSTRAINED_M">     0</i>
  <separator name="electronic exchange-correlation" >
   <i type="string" name="GGA">--</i>
   <i type="int" name="VOSKOWN">     0</i>
   <i type="logical" name="LHFCALC"> F  </i>
   <i type="string" name="PRECFOCK"></i>
   <i type="logical" name="LSYMGRAD"> F  </i>
   <i type="logical" name="LHFONE"> F  </i>
   <i type="logical" name="LRHFCALC"> F  </i>
   <i type="logical" name="LTHOMAS"> F  </i>
   <i type="logical" name="LMODELHF"> F  </i>
   <i name="ENCUT4O">     -1.00000000</i>
   <i type="int" name="EXXOEP">     0</i>
   <i type="int" name="FOURORBIT">     0</i>
   <i name="AEXX">      0.00000000</i>
   <i name="HFALPHA">      0.00000000</i>
   <i name="MCALPHA">      0.00000000</i>
   <i name="ALDAX">      1.00000000</i>
   <i name="AGGAX">      1.00000000</i>
   <i name="ALDAC">      1.00000000</i>
   <i name="AGGAC">      1.00000000</i>
   <i type="int" name="NKREDX">     1</i>
   <i type="int" name="NKREDY">     1</i>
   <i type="int" name="NKREDZ">     1</i>
   <i type="logical" name="SHIFTRED"> F  </i>
   <i type="logical" name="ODDONLY"> F  </i>
   <i type="logical" name="EVENONLY"> F  </i>
   <i type="int" name="LMAXFOCK">     0</i>
   <i type="int" name="NMAXFOCKAE">     0</i>
   <i type="logical" name="LFOCKAEDFT"> F  </i>
   <i name="HFSCREEN">      0.00000000</i>
   <i name="HFSCREENC">      0.00000000</i>
   <i type="int" name="NBANDSGWLOW">     0</i>
  </separator>
  <separator name="vdW DFT" >
   <i type="logical" name="LUSE_VDW"> F  </i>
   <i name="Zab_VDW">     -0.84910000</i>
   <i name="PARAM1">      0.12340000</i>
   <i name="PARAM2">      1.00000000</i>
   <i name="PARAM3">      0.00000000</i>
  </separator>
  <separator name="model GW" >
   <i type="int" name="MODEL_GW">     0</i>
   <i name="MODEL_EPS0">      7.44380740</i>
   <i name="MODEL_ALPHA">      1.00000000</i>
  </separator>
  <separator name="linear response parameters" >
   <i type="logical" name="LEPSILON"> F  </i>
   <i type="logical" name="LRPA"> F  </i>
   <i type="logical" name="LNABLA"> F  </i>
   <i type="logical" name="LVEL"> F  </i>
   <i type="int" name="KINTER">     0</i>
   <i name="CSHIFT">      0.10000000</i>
   <i name="OMEGAMAX">     -1.00000000</i>
   <i name="DEG_THRESHOLD">      0.00200000</i>
   <i name="RTIME">     -0.10000000</i>
   <i name="WPLASMAI">      0.00000000</i>
   <v name="DFIELD">      0.00000000      0.00000000      0.00000000</v>
   <v name="WPLASMA">      0.00000000      0.00000000      0.00000000      0.00000000      0.00000000      0.00000000      0.00000000      0.00000000      0.00000000</v>
  </separator>
  <separator name="orbital magnetization" >
   <i type="logical" name="NUCIND"> F  </i>
   <v name="MAGPOS">      0.00000000      0.00000000      0.00000000</v>
   <i type="logical" name="LNICSALL"> T  </i>
   <i type="logical" name="ORBITALMAG"> F  </i>
   <i type="logical" name="LMAGBLOCH"> F  </i>
   <i type="logical" name="LCHIMAG"> F  </i>
   <i type="logical" name="LGAUGE"> T  </i>
   <i type="int" name="MAGATOM">     0</i>
   <v name="MAGDIPOL">      0.00000000      0.00000000      0.00000000</v>
   <v name="AVECCONST">      0.00000000      0.00000000      0.00000000</v>
  </separator>
  <separator name="response functions" >
   <i type="logical" name="LADDER"> F  </i>
   <i type="logical" name="LRPAFORCE"> F  </i>
   <i type="logical" name="LFXC"> F  </i>
   <i type="logical" name="LHARTREE"> T  </i>
   <i type="int" name="IBSE">     0</i>
   <v type="int" name="KPOINT">    -1     0     0     0</v>
   <i type="logical" name="LTCTE"> F  </i>
   <i type="logical" name="LTETE"> F  </i>
   <i type="logical" name="LTRIPLET"> F  </i>
   <i type="logical" name="LFXCEPS"> F  </i>
   <i type="logical" name="LFXHEG"> F  </i>
   <i type="int" name="NATURALO">     2</i>
   <i type="logical" name="L2ORDER"> F  </i>
   <i type="logical" name="LMP2LT"> F  </i>
   <i type="logical" name="LUSEW"> F  </i>
   <i name="ENCUTGW">     -2.00000000</i>
   <i name="ENCUTGWSOFT">     -2.00000000</i>
   <i name="ENCUTLF">     -1.00000000</i>
   <i type="int" name="LMAXMP2">    -1</i>
   <i name="SCISSOR">      0.00000000</i>
   <i type="int" name="NOMEGA">     0</i>
   <i type="int" name="NOMEGAR">     0</i>
   <i type="int" name="NBANDSGW">    -1</i>
   <i type="int" name="NBANDSO">    -1</i>
   <i type="int" name="NBANDSV">    -1</i>
   <i type="int" name="NELM">     1</i>
   <i type="int" name="NELMHF">     1</i>
   <i type="int" name="DIM">     3</i>
   <i type="int" name="ANTIRES">     0</i>
   <i name="OMEGAMAX">    -30.00000000</i>
   <i name="OMEGAMIN">    -30.00000000</i>
   <i name="OMEGATL">   -200.00000000</i>
   <i type="int" name="OMEGAGRID">   140</i>
   <i name="CSHIFT">     -0.10000000</i>
   <i type="logical" name="SELFENERGY"> F  </i>
   <i type="logical" name="LSPECTRAL"> F  </i>
   <i type="logical" name="LSPECTRALGW"> F  </i>
   <i type="logical" name="LSINGLES"> F  </i>
   <i type="logical" name="LFERMIGW"> F  </i>
   <i type="logical" name="ODDONLYGW"> F  </i>
   <i type="logical" name="EVENONLYGW"> F  </i>
   <i type="int" name="NKREDLFX">     1</i>
   <i type="int" name="NKREDLFY">     1</i>
   <i type="int" name="NKREDLFZ">     1</i>
   <i type="int" name="MAXMEM">  2800</i>
   <i type="int" name="TELESCOPE">     0</i>
   <i type="int" name="TAUPAR">     1</i>
   <i type="int" name="OMEGAPAR">    -1</i>
   <i name="LAMBDA">      1.00000000</i>
  </separator>
  <separator name="External order field" >
   <i name="OFIELD_KAPPA">      0.00000000</i>
   <v name="OFIELD_K">      0.00000000      0.00000000      0.00000000</v>
   <i name="OFIELD_Q6_NEAR">      0.00000000</i>
   <i name="OFIELD_Q6_FAR">      0.00000000</i>
   <i name="OFIELD_A">      0.00000000</i>
  </separator>
 </parameters>
 <atominfo>
  <atoms>       2 </atoms>
  <types>       1 </types>
  <array name="atoms" >
   <dimension dim="1">ion</dimension>
   <field type="string">element</field>
   <field type="int">atomtype</field>
   <set>
    <rc><c>Si</c><c>   1</c></rc>
    <rc><c>Si</c><c>   1</c></rc>
   </set>
  </array>
  <array name="atomtypes" >
   <dimension dim="1">type</dimension>
   <field type="int">atomspertype</field>
   <field type="string">element</field>
   <field>mass</field>
   <field>valence</field>
   <field type="string">pseudopotential</field>
   <set>
    <rc><c>   2</c><c>Si</c><c>     28.08500000</c><c>      4.00000000</c><c> PAW_PBE Si 05Jan2001                   </c></rc>
   </set>
  </array>
 </atominfo>
 <structure name="initialpos" >
  <crystal>
   <varray name="basis" >
    <v>      -2.21522200       2.21522200       1.26409400 </v>
    <v>       2.21522200      -2.21522200       1.26409400 </v>
    <v>       2.21522200       2.21522200      -1.26409400 </v>
   </varray>
   <i name="volume">     24.81269133 </i>
   <varray name="rec_basis" >
    <v>       0.00000000       0.22571101       0.39554021 </v>
    <v>       0.22571101       0.00000000       0.39554021 </v>
    <v>       0.22571101       0.22571101       0.00000000 </v>
   </varray>
  </crystal>
  <varray name="positions" >
   <v>       0.00000000       0.00000000       0.00000000 </v>
   <v>       0.25000000       0.75000000       0.50000000 </v>
  </varray>
 </structure>
 <calculation>
  <scstep>
   <time name="dav">    0.48    0.49</time>
   <time name="total">    0.52    0.54</time>
   <energy>
    <i name="alphaZ">      5.42675165 </i>
    <i name="ewald">   -284.34456279 </i>
    <i name="hartreedc">     -1.19178301 </i>
    <i name="XCdc">    -16.70852124 </i>
    <i name="pawpsdc">     65.95520812 </i>
    <i name="pawaedc">    -30.76852678 </i>
    <i name="eentropy">     -0.00708449 </i>
    <i name="bandstr">     57.03724717 </i>
    <i name="atom">    206.13125414 </i>
    <i name="e_fr_energy">      1.52998276 </i>
    <i name="e_wo_entrp">      1.53706725 </i>
    <i name="e_0_energy">      1.53352500 </i>
   </energy>
  </scstep>
  <scstep>
   <time name="dav">    0.69    0.69</time>
   <time name="total">    0.69    0.70</time>
   <energy>
    <i name="e_fr_energy">     -9.63547889 </i>
    <i name="e_wo_entrp">     -9.62246256 </i>
    <i name="e_0_energy">     -9.62897073 </i>
   </energy>
  </scstep>
  <scstep>
   <time name="dav">    0.66    0.66</time>
   <time name="total">    0.66    0.67</time>
   <energy>
    <i name="e_fr_energy">     -9.73346519 </i>
    <i name="e_wo_entrp">     -9.71914154 </i>
    <i name="e_0_energy">     -9.72630336 </i>
   </energy>
  </scstep>
  <scstep>
   <time name="dav">    0.79    0.79</time>
   <time name="total">    0.79    0.79</time>
   <energy>
    <i name="e_fr_energy">     -9.73371360 </i>
    <i name="e_wo_entrp">     -9.71940028 </i>
    <i name="e_0_energy">     -9.72655694 </i>
   </energy>
  </scstep>
  <scstep>
   <time name="dav">    0.62    0.63</time>
   <time name="total">    0.65    0.65</time>
   <energy>
    <i name="e_fr_energy">     -9.73371373 </i>
    <i name="e_wo_entrp">     -9.71940040 </i>
    <i name="e_0_energy">     -9.72655706 </i>
   </energy>
  </scstep>
  <scstep>
   <time name="dav">    0.74    0.73</time>
   <time name="total">    0.78    0.79</time>
   <energy>
    <i name="e_fr_energy">     -9.70635223 </i>
    <i name="e_wo_entrp">     -9.69182952 </i>
    <i name="e_0_energy">     -9.69909087 </i>
   </energy>
  </scstep>
  <scstep>
   <time name="dav">    0.62    0.62</time>
   <time name="total">    0.68    0.68</time>
   <energy>
    <i name="e_fr_energy">     -9.69067030 </i>
    <i name="e_wo_entrp">     -9.67580724 </i>
    <i name="e_0_energy">     -9.68323877 </i>
   </energy>
  </scstep>
  <scstep>
   <time name="dav">    0.45    0.45</time>
   <time name="total">    0.48    0.49</time>
   <energy>
    <i name="alphaZ">      5.42675165 </i>
    <i name="ewald">   -284.34456279 </i>
    <i name="hartreedc">     -1.70072439 </i>
    <i name="XCdc">    -16.34651448 </i>
    <i name="pawpsdc">     76.89189895 </i>
    <i name="pawaedc">    -41.98423807 </i>
    <i name="eentropy">     -0.01479640 </i>
    <i name="bandstr">     46.25039797 </i>
    <i name="atom">    206.13125414 </i>
    <i name="e_fr_energy">     -9.69053341 </i>
    <i name="e_wo_entrp">     -9.67573701 </i>
    <i name="e_0_energy">     -9.68313521 </i>
   </energy>
  </scstep>
  <structure>
   <crystal>
    <varray name="basis" >
     <v>      -2.21522200       2.21522200       1.26409400 </v>
     <v>       2.21522200      -2.21522200       1.26409400 </v>
     <v>       2.21522200       2.21522200      -1.26409400 </v>
    </varray>
    <i name="volume">     24.81269133 </i>
    <varray name="rec_basis" >
     <v>       0.00000000       0.22571101       0.39554021 </v>
     <v>       0.22571101       0.00000000       0.39554021 </v>
     <v>       0.22571101       0.22571101       0.00000000 </v>
    </varray>
   </crystal>
   <varray name="positions" >
    <v>       0.00000000       0.00000000       0.00000000 </v>
    <v>       0.25000000       0.75000000       0.50000000 </v>
   </varray>
  </structure>
  <varray name="forces" >
   <v>       0.00000000       0.00000000       0.00000000 </v>
   <v>      -0.00000000      -0.00000000      -0.00000000 </v>
  </varray>
  <varray name="stress" >
   <v>     408.16275121       0.00000000      -0.00000000 </v>
   <v>       0.00000000     408.16275121       0.00000000 </v>
   <v>      -0.00000000      -0.00000000     306.98232281 </v>
  </varray>
  <energy>
   <i name="e_fr_energy">     -9.69053341 </i>
   <i name="e_wo_entrp">     -9.68313521 </i>
   <i name="e_0_energy">     -0.01479640 </i>
  </energy>
  <time name="totalsc">    6.44    6.92</time>
  <eigenvalues>
   <array>
    <dimension dim="1">band</dimension>
    <dimension dim="2">kpoint</dimension>
    <dimension dim="3">spin</dimension>
    <field>eigene</field>
    <field>occ</field>
    <set>
     <set comment="spin 1">
      <set comment="kpoint 1">
       <r>   -3.1096    1.0000 </r>
       <r>    7.4188    1.0000 </r>
       <r>    9.7507    1.0000 </r>
       <r>   12.2820    0.0298 </r>
       <r>   14.8403    0.0000 </r>
       <r>   17.8444    0.0000 </r>
       <r>   18.0945    0.0000 </r>
       <r>   20.8658    0.0000 </r>
      </set>
      <set comment="kpoint 2">
       <r>   -1.7125    1.0000 </r>
       <r>    7.0525    1.0000 </r>
       <r>   10.0532    1.0000 </r>
       <r>   12.1635    0.1477 </r>
       <r>   14.2269    0.0000 </r>
       <r>   15.0852    0.0000 </r>
       <r>   17.5140    0.0000 </r>
       <r>   18.5602    0.0000 </r>
      </set>
      <set comment="kpoint 3">
       <r>    0.5890    1.0000 </r>
       <r>    7.3988    1.0000 </r>
       <r>    7.8560    1.0000 </r>
       <r>   10.1434    1.0000 </r>
       <r>   11.9564    0.6620 </r>
       <r>   14.7145    0.0000 </r>
       <r>   17.9376    0.0000 </r>
       <r>   18.2011    0.0000 </r>
      </set>
      <set comment="kpoint 4">
       <r>    3.5507    1.0000 </r>
       <r>    3.9791    1.0000 </r>
       <r>    8.6517    1.0000 </r>
       <r>    8.8867    1.0000 </r>
       <r>   12.0379    0.4370 </r>
       <r>   13.2297    0.0000 </r>
       <r>   17.6586    0.0000 </r>
       <r>   18.0195    0.0000 </r>
      </set>
      <set comment="kpoint 5">
       <r>   -3.5779    1.0000 </r>
       <r>    8.3991    1.0000 </r>
       <r>    8.6488    1.0000 </r>
       <r>   12.2416    0.0550 </r>
       <r>   13.5686    0.0000 </r>
       <r>   19.0680    0.0000 </r>
       <r>   22.0154    0.0000 </r>
       <r>   22.3709    0.0000 </r>
      </set>
      <set comment="kpoint 6">
       <r>    0.3649    1.0000 </r>
       <r>    7.2882    1.0000 </r>
       <r>    9.1201    1.0000 </r>
       <r>    9.1856    1.0000 </r>
       <r>   13.0161    0.0000 </r>
       <r>   15.7134    0.0000 </r>
       <r>   16.5787    0.0000 </r>
       <r>   16.8334    0.0000 </r>
      </set>
      <set comment="kpoint 7">
       <r>    3.2967    1.0000 </r>
       <r>    5.0935    1.0000 </r>
       <r>    6.7772    1.0000 </r>
       <r>    8.4205    1.0000 </r>
       <r>   13.4131    0.0000 </r>
       <r>   14.8976    0.0000 </r>
       <r>   16.5046    0.0000 </r>
       <r>   19.1932    0.0000 </r>
      </set>
      <set comment="kpoint 8">
       <r>    1.7054    1.0000 </r>
       <r>    5.1970    1.0000 </r>
       <r>    7.1294    1.0000 </r>
       <r>   10.0840    1.0000 </r>
       <r>   12.4386    0.0014 </r>
       <r>   15.4333    0.0000 </r>
       <r>   17.5709    0.0000 </r>
       <r>   19.6431    0.0000 </r>
      </set>
      <set comment="kpoint 9">
       <r>   -0.8044    1.0000 </r>
       <r>    4.5180    1.0000 </r>
       <r>   10.6857    1.0000 </r>
       <r>   11.6113    0.9979 </r>
       <r>   13.5790    0.0000 </r>
       <r>   15.7169    0.0000 </r>
       <r>   16.6071    0.0000 </r>
       <r>   19.7011    0.0000 </r>
      </set>
      <set comment="kpoint 10">
       <r>   -2.4223    1.0000 </r>
       <r>    4.7060    1.0000 </r>
       <r>   10.3410    1.0000 </r>
       <r>   12.9893    0.0000 </r>
       <r>   15.8792    0.0000 </r>
       <r>   17.1500    0.0000 </r>
       <r>   17.8512    0.0000 </r>
       <r>   19.8269    0.0000 </r>
      </set>
      <set comment="kpoint 11">
       <r>   -3.1182    1.0000 </r>
       <r>    5.7591    1.0000 </r>
       <r>    8.9554    1.0000 </r>
       <r>   13.1735    0.0000 </r>
       <r>   16.4056    0.0000 </r>
       <r>   16.8636    0.0000 </r>
       <r>   20.4517    0.0000 </r>
       <r>   21.7596    0.0000 </r>
      </set>
      <set comment="kpoint 12">
       <r>   -2.8803    1.0000 </r>
       <r>    7.4430    1.0000 </r>
       <r>    7.8436    1.0000 </r>
       <r>   13.9419    0.0000 </r>
       <r>   15.6120    0.0000 </r>
       <r>   16.8555    0.0000 </r>
       <r>   17.4863    0.0000 </r>
       <r>   20.7109    0.0000 </r>
      </set>
      <set comment="kpoint 13">
       <r>    3.2461    1.0000 </r>
       <r>    3.2554    1.0000 </r>
       <r>    6.9123    1.0000 </r>
       <r>    9.9920    1.0000 </r>
       <r>   13.3180    0.0000 </r>
       <r>   14.2376    0.0000 </r>
       <r>   19.3487    0.0000 </r>
       <r>   19.8611    0.0000 </r>
      </set>
      <set comment="kpoint 14">
       <r>    0.5477    1.0000 </r>
       <r>    2.3300    1.0000 </r>
       <r>   11.0020    1.0000 </r>
       <r>   11.6915    0.9890 </r>
       <r>   13.2894    0.0000 </r>
       <r>   14.9437    0.0000 </r>
       <r>   16.9465    0.0000 </r>
       <r>   18.5798    0.0000 </r>
      </set>
      <set comment="kpoint 15">
       <r>   -1.2833    1.0000 </r>
       <r>    2.3038    1.0000 </r>
       <r>   11.3120    1.0000 </r>
       <r>   13.8271    0.0000 </r>
       <r>   14.4631    0.0000 </r>
       <r>   16.3140    0.0000 </r>
       <r>   17.4875    0.0000 </r>
       <r>   18.2296    0.0000 </r>
      </set>
      <set comment="kpoint 16">
       <r>   -2.2026    1.0000 </r>
       <r>    3.1748    1.0000 </r>
       <r>    9.7783    1.0000 </r>
       <r>   14.0531    0.0000 </r>
       <r>   14.6033    0.0000 </r>
       <r>   18.6144    0.0000 </r>
       <r>   19.6783    0.0000 </r>
       <r>   21.3552    0.0000 </r>
      </set>
      <set comment="kpoint 17">
       <r>   -2.1941    1.0000 </r>
       <r>    4.9168    1.0000 </r>
       <r>    8.2940    1.0000 </r>
       <r>   14.3285    0.0000 </r>
       <r>   14.9760    0.0000 </r>
       <r>   16.6676    0.0000 </r>
       <r>   18.5208    0.0000 </r>
       <r>   20.3568    0.0000 </r>
      </set>
      <set comment="kpoint 18">
       <r>   -1.2581    1.0000 </r>
       <r>    7.2599    1.0000 </r>
       <r>    7.7140    1.0000 </r>
       <r>   11.1729    1.0000 </r>
       <r>   14.7394    0.0000 </r>
       <r>   16.7300    0.0000 </r>
       <r>   17.1098    0.0000 </r>
       <r>   18.7665    0.0000 </r>
      </set>
      <set comment="kpoint 19">
       <r>    0.2975    1.0000 </r>
       <r>    0.2975    1.0000 </r>
       <r>   12.6267    0.0000 </r>
       <r>   12.6267    0.0000 </r>
       <r>   15.2793    0.0000 </r>
       <r>   15.2793    0.0000 </r>
       <r>   17.3874    0.0000 </r>
       <r>   17.3874    0.0000 </r>
      </set>
      <set comment="kpoint 20">
       <r>   -0.8388    1.0000 </r>
       <r>    0.9605    1.0000 </r>
       <r>   11.0066    1.0000 </r>
       <r>   12.6247    0.0000 </r>
       <r>   15.2790    0.0000 </r>
       <r>   16.8303    0.0000 </r>
       <r>   20.6589    0.0000 </r>
       <r>   20.8899    0.0000 </r>
      </set>
      <set comment="kpoint 21">
       <r>   -1.0570    1.0000 </r>
       <r>    2.5232    1.0000 </r>
       <r>    9.3323    1.0000 </r>
       <r>   12.5696    0.0000 </r>
       <r>   14.5946    0.0000 </r>
       <r>   17.1527    0.0000 </r>
       <r>   18.7582    0.0000 </r>
       <r>   20.1889    0.0000 </r>
      </set>
      <set comment="kpoint 22">
       <r>   -0.3530    1.0000 </r>
       <r>    4.9436    1.0000 </r>
       <r>    8.3348    1.0000 </r>
       <r>   10.4003    1.0000 </r>
       <r>   13.0930    0.0000 </r>
       <r>   16.2425    0.0000 </r>
       <r>   18.3533    0.0000 </r>
       <r>   20.1415    0.0000 </r>
      </set>
      <set comment="kpoint 23">
       <r>    1.2593    1.0000 </r>
       <r>    6.6385    1.0000 </r>
       <r>    8.0081    1.0000 </r>
       <r>    8.3481    1.0000 </r>
       <r>   12.7141    0.0000 </r>
       <r>   14.2573    0.0000 </r>
       <r>   16.0418    0.0000 </r>
       <r>   20.3121    0.0000 </r>
      </set>
      <set comment="kpoint 24">
       <r>    0.5210    1.0000 </r>
       <r>    0.5210    1.0000 </r>
       <r>   10.7380    1.0000 </r>
       <r>   10.8055    1.0000 </r>
       <r>   14.4999    0.0000 </r>
       <r>   17.9581    0.0000 </r>
       <r>   18.6095    0.0000 </r>
       <r>   18.9875    0.0000 </r>
      </set>
      <set comment="kpoint 25">
       <r>    0.9943    1.0000 </r>
       <r>    2.7695    1.0000 </r>
       <r>    9.4847    1.0000 </r>
       <r>   10.0452    1.0000 </r>
       <r>   11.2644    1.0000 </r>
       <r>   15.7569    0.0000 </r>
       <r>   19.8710    0.0000 </r>
       <r>   21.6653    0.0000 </r>
      </set>
      <set comment="kpoint 26">
       <r>    2.3680    1.0000 </r>
       <r>    5.7250    1.0000 </r>
       <r>    6.1792    1.0000 </r>
       <r>    9.1686    1.0000 </r>
       <r>   11.9018    0.7894 </r>
       <r>   14.1269    0.0000 </r>
       <r>   16.7233    0.0000 </r>
       <r>   21.8335    0.0000 </r>
      </set>
      <set comment="kpoint 27">
       <r>    2.8581    1.0000 </r>
       <r>    4.6659    1.0000 </r>
       <r>    9.3552    1.0000 </r>
       <r>    9.5269    1.0000 </r>
       <r>   11.2150    1.0000 </r>
       <r>   12.6404    0.0000 </r>
       <r>   15.6329    0.0000 </r>
       <r>   20.0666    0.0000 </r>
      </set>
      <set comment="kpoint 28">
       <r>    3.8832    1.0000 </r>
       <r>    3.9120    1.0000 </r>
       <r>    5.8637    1.0000 </r>
       <r>   10.2306    1.0000 </r>
       <r>   10.7692    1.0000 </r>
       <r>   13.6807    0.0000 </r>
       <r>   18.7571    0.0000 </r>
       <r>   20.4661    0.0000 </r>
      </set>
      <set comment="kpoint 29">
       <r>    2.4266    1.0000 </r>
       <r>    5.9458    1.0000 </r>
       <r>    7.6146    1.0000 </r>
       <r>   10.0713    1.0000 </r>
       <r>   11.5289    0.9997 </r>
       <r>   13.3704    0.0000 </r>
       <r>   15.1541    0.0000 </r>
       <r>   18.7835    0.0000 </r>
      </set>
      <set comment="kpoint 30">
       <r>   -0.0851    1.0000 </r>
       <r>    8.7001    1.0000 </r>
       <r>    9.8810    1.0000 </r>
       <r>    9.9782    1.0000 </r>
       <r>   12.0410    0.4284 </r>
       <r>   13.3864    0.0000 </r>
       <r>   16.1980    0.0000 </r>
       <r>   17.6869    0.0000 </r>
      </set>
      <set comment="kpoint 31">
       <r>   -0.3106    1.0000 </r>
       <r>    9.6263    1.0000 </r>
       <r>   10.0123    1.0000 </r>
       <r>   10.2153    1.0000 </r>
       <r>   12.1882    0.1111 </r>
       <r>   14.3347    0.0000 </r>
       <r>   14.8317    0.0000 </r>
       <r>   15.7463    0.0000 </r>
      </set>
      <set comment="kpoint 32">
       <r>   -2.1685    1.0000 </r>
       <r>    9.5628    1.0000 </r>
       <r>    9.7885    1.0000 </r>
       <r>   12.4782    0.0005 </r>
       <r>   14.6333    0.0000 </r>
       <r>   14.7726    0.0000 </r>
       <r>   15.9088    0.0000 </r>
       <r>   16.8279    0.0000 </r>
      </set>
      <set comment="kpoint 33">
       <r>   -3.3393    1.0000 </r>
       <r>    9.5530    1.0000 </r>
       <r>    9.5530    1.0000 </r>
       <r>   11.4858    0.9999 </r>
       <r>   13.0902    0.0000 </r>
       <r>   18.7703    0.0000 </r>
       <r>   18.7986    0.0000 </r>
       <r>   20.5143    0.0000 </r>
      </set>
      <set comment="kpoint 34">
       <r>    1.4836    1.0000 </r>
       <r>    4.9886    1.0000 </r>
       <r>    8.5435    1.0000 </r>
       <r>    8.5683    1.0000 </r>
       <r>   14.1131    0.0000 </r>
       <r>   16.8135    0.0000 </r>
       <r>   17.4652    0.0000 </r>
       <r>   18.3570    0.0000 </r>
      </set>
      <set comment="kpoint 35">
       <r>    4.4252    1.0000 </r>
       <r>    4.8210    1.0000 </r>
       <r>    6.2048    1.0000 </r>
       <r>    6.5617    1.0000 </r>
       <r>   15.3345    0.0000 </r>
       <r>   16.9047    0.0000 </r>
       <r>   17.9269    0.0000 </r>
       <r>   18.5973    0.0000 </r>
      </set>
      <set comment="kpoint 36">
       <r>   -2.6600    1.0000 </r>
       <r>    5.9635    1.0000 </r>
       <r>    6.4497    1.0000 </r>
       <r>   14.4848    0.0000 </r>
       <r>   15.7917    0.0000 </r>
       <r>   17.4541    0.0000 </r>
       <r>   19.9538    0.0000 </r>
       <r>   21.1851    0.0000 </r>
      </set>
      <set comment="kpoint 37">
       <r>    3.0329    1.0000 </r>
       <r>    3.0329    1.0000 </r>
       <r>    8.3533    1.0000 </r>
       <r>    8.3533    1.0000 </r>
       <r>   15.5545    0.0000 </r>
       <r>   15.5545    0.0000 </r>
       <r>   18.2487    0.0000 </r>
       <r>   18.2487    0.0000 </r>
      </set>
      <set comment="kpoint 38">
       <r>   -1.7474    1.0000 </r>
       <r>    3.6049    1.0000 </r>
       <r>    7.0880    1.0000 </r>
       <r>   12.1058    0.2617 </r>
       <r>   16.8713    0.0000 </r>
       <r>   19.0817    0.0000 </r>
       <r>   19.9039    0.0000 </r>
       <r>   21.5796    0.0000 </r>
      </set>
      <set comment="kpoint 39">
       <r>   -1.5114    1.0000 </r>
       <r>    5.3222    1.0000 </r>
       <r>    5.8505    1.0000 </r>
       <r>   12.2819    0.0298 </r>
       <r>   14.3741    0.0000 </r>
       <r>   19.0894    0.0000 </r>
       <r>   19.8299    0.0000 </r>
       <r>   21.3365    0.0000 </r>
      </set>
      <set comment="kpoint 40">
       <r>   -0.3884    1.0000 </r>
       <r>    1.4039    1.0000 </r>
       <r>    8.3587    1.0000 </r>
       <r>   10.0414    1.0000 </r>
       <r>   17.6532    0.0000 </r>
       <r>   18.3525    0.0000 </r>
       <r>   20.5546    0.0000 </r>
       <r>   21.5101    0.0000 </r>
      </set>
      <set comment="kpoint 41">
       <r>   -0.3801    1.0000 </r>
       <r>    3.1744    1.0000 </r>
       <r>    6.6885    1.0000 </r>
       <r>   10.0581    1.0000 </r>
       <r>   13.8560    0.0000 </r>
       <r>   20.3652    0.0000 </r>
       <r>   20.7437    0.0000 </r>
       <r>   23.0226    0.0000 </r>
      </set>
      <set comment="kpoint 42">
       <r>    0.5458    1.0000 </r>
       <r>    5.5588    1.0000 </r>
       <r>    6.0948    1.0000 </r>
       <r>    9.5673    1.0000 </r>
       <r>   10.9148    1.0000 </r>
       <r>   18.1563    0.0000 </r>
       <r>   18.5391    0.0000 </r>
       <r>   22.4521    0.0000 </r>
      </set>
      <set comment="kpoint 43">
       <r>    1.1887    1.0000 </r>
       <r>    1.1891    1.0000 </r>
       <r>    8.1613    1.0000 </r>
       <r>    8.1848    1.0000 </r>
       <r>   13.6717    0.0000 </r>
       <r>   20.6257    0.0000 </r>
       <r>   21.2253    0.0000 </r>
       <r>   22.4940    0.0000 </r>
      </set>
      <set comment="kpoint 44">
       <r>    1.8828    1.0000 </r>
       <r>    3.6387    1.0000 </r>
       <r>    7.1292    1.0000 </r>
       <r>    8.7331    1.0000 </r>
       <r>    9.2974    1.0000 </r>
       <r>   17.9803    0.0000 </r>
       <r>   20.8918    0.0000 </r>
       <r>   23.1953    0.0000 </r>
      </set>
      <set comment="kpoint 45">
       <r>    3.4590    1.0000 </r>
       <r>    5.3613    1.0000 </r>
       <r>    6.7628    1.0000 </r>
       <r>    7.1773    1.0000 </r>
       <r>   10.2299    1.0000 </r>
       <r>   15.9763    0.0000 </r>
       <r>   16.1714    0.0000 </r>
       <r>   22.0519    0.0000 </r>
      </set>
      <set comment="kpoint 46">
       <r>    4.7794    1.0000 </r>
       <r>    4.9899    1.0000 </r>
       <r>    5.3995    1.0000 </r>
       <r>    8.3763    1.0000 </r>
       <r>    8.4992    1.0000 </r>
       <r>   15.8434    0.0000 </r>
       <r>   18.0957    0.0000 </r>
       <r>   20.2889    0.0000 </r>
      </set>
      <set comment="kpoint 47">
       <r>    1.9862    1.0000 </r>
       <r>    7.2090    1.0000 </r>
       <r>    8.6731    1.0000 </r>
       <r>    9.0047    1.0000 </r>
       <r>   10.3479    1.0000 </r>
       <r>   14.5504    0.0000 </r>
       <r>   14.5518    0.0000 </r>
       <r>   17.9971    0.0000 </r>
      </set>
      <set comment="kpoint 48">
       <r>   -0.5364    1.0000 </r>
       <r>   10.7800    1.0000 </r>
       <r>   10.7800    1.0000 </r>
       <r>   11.0105    1.0000 </r>
       <r>   11.5810    0.9989 </r>
       <r>   14.0890    0.0000 </r>
       <r>   14.0890    0.0000 </r>
       <r>   15.2515    0.0000 </r>
      </set>
      <set comment="kpoint 49">
       <r>   -0.8412    1.0000 </r>
       <r>    4.2133    1.0000 </r>
       <r>    4.7945    1.0000 </r>
       <r>    9.6589    1.0000 </r>
       <r>   17.8929    0.0000 </r>
       <r>   18.4772    0.0000 </r>
       <r>   22.2178    0.0000 </r>
       <r>   22.3571    0.0000 </r>
      </set>
      <set comment="kpoint 50">
       <r>    0.5076    1.0000 </r>
       <r>    2.2806    1.0000 </r>
       <r>    5.8373    1.0000 </r>
       <r>    7.5481    1.0000 </r>
       <r>   17.9039    0.0000 </r>
       <r>   18.0482    0.0000 </r>
       <r>   23.3446    0.0000 </r>
       <r>   24.6435    0.0000 </r>
      </set>
      <set comment="kpoint 51">
       <r>    0.7406    1.0000 </r>
       <r>    3.9981    1.0000 </r>
       <r>    4.5955    1.0000 </r>
       <r>    7.7658    1.0000 </r>
       <r>   13.2958    0.0000 </r>
       <r>   22.4215    0.0000 </r>
       <r>   22.8397    0.0000 </r>
       <r>   23.3340    0.0000 </r>
      </set>
      <set comment="kpoint 52">
       <r>    2.2882    1.0000 </r>
       <r>    2.2898    1.0000 </r>
       <r>    5.8440    1.0000 </r>
       <r>    5.8521    1.0000 </r>
       <r>   13.1018    0.0000 </r>
       <r>   22.4404    0.0000 </r>
       <r>   23.3378    0.0000 </r>
       <r>   24.9935    0.0000 </r>
      </set>
      <set comment="kpoint 53">
       <r>    3.1988    1.0000 </r>
       <r>    4.6823    1.0000 </r>
       <r>    5.2607    1.0000 </r>
       <r>    6.7146    1.0000 </r>
       <r>    8.7962    1.0000 </r>
       <r>   20.3812    0.0000 </r>
       <r>   20.7270    0.0000 </r>
       <r>   23.3712    0.0000 </r>
      </set>
      <set comment="kpoint 54">
       <r>    4.8588    1.0000 </r>
       <r>    6.2422    1.0000 </r>
       <r>    6.4274    1.0000 </r>
       <r>    6.7724    1.0000 </r>
       <r>    6.7724    1.0000 </r>
       <r>   17.8765    0.0000 </r>
       <r>   17.8765    0.0000 </r>
       <r>   19.5599    0.0000 </r>
      </set>
      <set comment="kpoint 55">
       <r>    1.8349    1.0000 </r>
       <r>    3.3179    1.0000 </r>
       <r>    3.9495    1.0000 </r>
       <r>    5.4120    1.0000 </r>
       <r>   17.6832    0.0000 </r>
       <r>   17.7176    0.0000 </r>
       <r>   26.4269    0.0000 </r>
       <r>   27.4668    0.0000 </r>
      </set>
      <set comment="kpoint 56">
       <r>    3.5471    1.0000 </r>
       <r>    3.5535    1.0000 </r>
       <r>    4.1725    1.0000 </r>
       <r>    4.1725    1.0000 </r>
       <r>   12.9056    0.0000 </r>
       <r>   22.5846    0.0000 </r>
       <r>   25.3046    0.0000 </r>
       <r>   25.3052    0.0000 </r>
      </set>
     </set>
    </set>
   </array>
  </eigenvalues>
  <separator name="orbital magnetization" >
   <v name="MAGDIPOLOUT">      0.00000000      0.00000000      0.00000000</v>
  </separator>
  <dos>
   <i name="efermi">     12.01553669 </i>
   <total>
    <array>
     <dimension dim="1">gridpoints</dimension>
     <dimension dim="2">spin</dimension>
     <field>energy</field>
     <field>total</field>
     <field>integrated</field>
     <set>
      <set comment="spin 1">
       <r>    -5.5779     0.0000     0.0000 </r>
       <r>    -5.4611     0.0000     0.0000 </r>
       <r>    -5.3442     0.0000     0.0000 </r>
       <r>    -5.2274     0.0000     0.0000 </r>
       <r>    -5.1106     0.0000     0.0000 </r>
       <r>    -4.9938     0.0000     0.0000 </r>
       <r>    -4.8770     0.0000     0.0000 </r>
       <r>    -4.7602     0.0000     0.0000 </r>
       <r>    -4.6433     0.0000     0.0000 </r>
       <r>    -4.5265     0.0000     0.0000 </r>
       <r>    -4.4097     0.0000     0.0000 </r>
       <r>    -4.2929     0.0000     0.0000 </r>
       <r>    -4.1761     0.0000     0.0000 </r>
       <r>    -4.0593     0.0000     0.0000 </r>
       <r>    -3.9425     0.0006     0.0001 </r>
       <r>    -3.8256     0.0047     0.0006 </r>
       <r>    -3.7088     0.0187     0.0028 </r>
       <r>    -3.5920     0.0402     0.0075 </r>
       <r>    -3.4752     0.0524     0.0136 </r>
       <r>    -3.3584     0.0615     0.0208 </r>
       <r>    -3.2416     0.1046     0.0330 </r>
       <r>    -3.1247     0.1760     0.0536 </r>
       <r>    -3.0079     0.2049     0.0775 </r>
       <r>    -2.8911     0.1737     0.0978 </r>
       <r>    -2.7743     0.1306     0.1131 </r>
       <r>    -2.6575     0.1008     0.1248 </r>
       <r>    -2.5407     0.1005     0.1366 </r>
       <r>    -2.4238     0.1470     0.1538 </r>
       <r>    -2.3070     0.2509     0.1831 </r>
       <r>    -2.1902     0.3582     0.2249 </r>
       <r>    -2.0734     0.3326     0.2638 </r>
       <r>    -1.9566     0.2042     0.2876 </r>
       <r>    -1.8398     0.1751     0.3081 </r>
       <r>    -1.7230     0.2592     0.3383 </r>
       <r>    -1.6061     0.2895     0.3722 </r>
       <r>    -1.4893     0.2355     0.3997 </r>
       <r>    -1.3725     0.2077     0.4239 </r>
       <r>    -1.2557     0.2395     0.4519 </r>
       <r>    -1.1389     0.2776     0.4843 </r>
       <r>    -1.0221     0.3044     0.5199 </r>
       <r>    -0.9052     0.3423     0.5599 </r>
       <r>    -0.7884     0.3600     0.6019 </r>
       <r>    -0.6716     0.2921     0.6361 </r>
       <r>    -0.5548     0.2488     0.6651 </r>
       <r>    -0.4380     0.3814     0.7097 </r>
       <r>    -0.3212     0.5284     0.7714 </r>
       <r>    -0.2043     0.4501     0.8240 </r>
       <r>    -0.0875     0.2559     0.8539 </r>
       <r>     0.0293     0.1299     0.8690 </r>
       <r>     0.1461     0.0972     0.8804 </r>
       <r>     0.2629     0.1758     0.9009 </r>
       <r>     0.3797     0.3828     0.9457 </r>
       <r>     0.4965     0.6561     1.0223 </r>
       <r>     0.6134     0.7676     1.1120 </r>
       <r>     0.7302     0.5854     1.1803 </r>
       <r>     0.8470     0.3692     1.2235 </r>
       <r>     0.9638     0.3332     1.2624 </r>
       <r>     1.0806     0.3786     1.3066 </r>
       <r>     1.1974     0.3913     1.3523 </r>
       <r>     1.3143     0.3627     1.3947 </r>
       <r>     1.4311     0.3088     1.4308 </r>
       <r>     1.5479     0.2673     1.4620 </r>
       <r>     1.6647     0.2797     1.4947 </r>
       <r>     1.7815     0.3433     1.5348 </r>
       <r>     1.8983     0.3794     1.5791 </r>
       <r>     2.0151     0.3391     1.6187 </r>
       <r>     2.1320     0.3439     1.6589 </r>
       <r>     2.2488     0.5713     1.7256 </r>
       <r>     2.3656     0.8571     1.8257 </r>
       <r>     2.4824     0.8430     1.9242 </r>
       <r>     2.5992     0.5772     1.9916 </r>
       <r>     2.7160     0.3762     2.0356 </r>
       <r>     2.8329     0.3245     2.0735 </r>
       <r>     2.9497     0.3260     2.1116 </r>
       <r>     3.0665     0.4220     2.1609 </r>
       <r>     3.1833     0.6423     2.2359 </r>
       <r>     3.3001     0.7648     2.3253 </r>
       <r>     3.4169     0.6667     2.4031 </r>
       <r>     3.5338     0.5516     2.4676 </r>
       <r>     3.6506     0.4999     2.5260 </r>
       <r>     3.7674     0.4281     2.5760 </r>
       <r>     3.8842     0.4040     2.6232 </r>
       <r>     4.0010     0.4174     2.6719 </r>
       <r>     4.1178     0.3414     2.7118 </r>
       <r>     4.2346     0.2323     2.7389 </r>
       <r>     4.3515     0.2197     2.7646 </r>
       <r>     4.4683     0.3360     2.8038 </r>
       <r>     4.5851     0.5124     2.8637 </r>
       <r>     4.7019     0.6632     2.9412 </r>
       <r>     4.8187     0.7778     3.0320 </r>
       <r>     4.9355     0.8583     3.1323 </r>
       <r>     5.0524     0.8428     3.2307 </r>
       <r>     5.1692     0.7422     3.3174 </r>
       <r>     5.2860     0.6495     3.3933 </r>
       <r>     5.4028     0.5542     3.4581 </r>
       <r>     5.5196     0.4403     3.5095 </r>
       <r>     5.6364     0.4347     3.5603 </r>
       <r>     5.7533     0.6221     3.6330 </r>
       <r>     5.8701     0.8193     3.7287 </r>
       <r>     5.9869     0.7925     3.8212 </r>
       <r>     6.1037     0.6241     3.8941 </r>
       <r>     6.2205     0.4807     3.9503 </r>
       <r>     6.3373     0.3487     3.9910 </r>
       <r>     6.4541     0.2854     4.0244 </r>
       <r>     6.5710     0.4021     4.0713 </r>
       <r>     6.6878     0.6260     4.1445 </r>
       <r>     6.8046     0.7294     4.2297 </r>
       <r>     6.9214     0.6798     4.3091 </r>
       <r>     7.0382     0.7360     4.3951 </r>
       <r>     7.1550     0.9058     4.5009 </r>
       <r>     7.2719     0.9237     4.6088 </r>
       <r>     7.3887     0.7965     4.7018 </r>
       <r>     7.5055     0.6792     4.7812 </r>
       <r>     7.6223     0.6049     4.8518 </r>
       <r>     7.7391     0.5732     4.9188 </r>
       <r>     7.8559     0.5422     4.9821 </r>
       <r>     7.9728     0.4608     5.0360 </r>
       <r>     8.0896     0.4263     5.0858 </r>
       <r>     8.2064     0.6053     5.1565 </r>
       <r>     8.3232     0.9403     5.2663 </r>
       <r>     8.4400     1.1157     5.3966 </r>
       <r>     8.5568     1.0216     5.5160 </r>
       <r>     8.6736     0.8830     5.6191 </r>
       <r>     8.7905     0.7625     5.7082 </r>
       <r>     8.9073     0.6152     5.7801 </r>
       <r>     9.0241     0.5407     5.8432 </r>
       <r>     9.1409     0.6061     5.9140 </r>
       <r>     9.2577     0.7353     5.9999 </r>
       <r>     9.3745     0.8135     6.0950 </r>
       <r>     9.4914     0.8244     6.1913 </r>
       <r>     9.6082     0.7908     6.2836 </r>
       <r>     9.7250     0.7244     6.3683 </r>
       <r>     9.8418     0.7675     6.4579 </r>
       <r>     9.9586     1.0945     6.5858 </r>
       <r>    10.0754     1.5047     6.7616 </r>
       <r>    10.1923     1.4950     6.9362 </r>
       <r>    10.3091     1.0882     7.0633 </r>
       <r>    10.4259     0.6841     7.1432 </r>
       <r>    10.5427     0.4432     7.1950 </r>
       <r>    10.6595     0.4240     7.2445 </r>
       <r>    10.7763     0.5420     7.3078 </r>
       <r>    10.8931     0.6004     7.3780 </r>
       <r>    11.0100     0.5823     7.4460 </r>
       <r>    11.1268     0.5563     7.5110 </r>
       <r>    11.2436     0.5419     7.5743 </r>
       <r>    11.3604     0.5044     7.6332 </r>
       <r>    11.4772     0.4822     7.6895 </r>
       <r>    11.5940     0.5366     7.7522 </r>
       <r>    11.7109     0.5562     7.8172 </r>
       <r>    11.8277     0.5318     7.8793 </r>
       <r>    11.9445     0.6030     7.9498 </r>
       <r>    12.0613     0.7255     8.0345 </r>
       <r>    12.1781     0.7667     8.1241 </r>
       <r>    12.2949     0.7095     8.2070 </r>
       <r>    12.4118     0.6508     8.2830 </r>
       <r>    12.5286     0.6748     8.3618 </r>
       <r>    12.6454     0.6730     8.4404 </r>
       <r>    12.7622     0.5226     8.5015 </r>
       <r>    12.8790     0.3762     8.5454 </r>
       <r>    12.9958     0.4460     8.5975 </r>
       <r>    13.1126     0.6687     8.6756 </r>
       <r>    13.2295     0.8783     8.7782 </r>
       <r>    13.3463     0.9926     8.8942 </r>
       <r>    13.4631     0.9227     9.0020 </r>
       <r>    13.5799     0.7316     9.0874 </r>
       <r>    13.6967     0.5943     9.1569 </r>
       <r>    13.8135     0.5452     9.2205 </r>
       <r>    13.9304     0.5564     9.2855 </r>
       <r>    14.0472     0.6420     9.3605 </r>
       <r>    14.1640     0.8105     9.4552 </r>
       <r>    14.2808     0.9510     9.5663 </r>
       <r>    14.3976     0.9827     9.6811 </r>
       <r>    14.5144     0.9973     9.7976 </r>
       <r>    14.6312     1.0448     9.9197 </r>
       <r>    14.7481     1.0551    10.0429 </r>
       <r>    14.8649     1.0361    10.1639 </r>
       <r>    14.9817     0.9868    10.2792 </r>
       <r>    15.0985     0.8653    10.3803 </r>
       <r>    15.2153     0.7269    10.4652 </r>
       <r>    15.3321     0.6305    10.5389 </r>
       <r>    15.4490     0.5833    10.6070 </r>
       <r>    15.5658     0.6377    10.6815 </r>
       <r>    15.6826     0.8149    10.7767 </r>
       <r>    15.7994     0.9325    10.8856 </r>
       <r>    15.9162     0.8263    10.9821 </r>
       <r>    16.0330     0.6292    11.0556 </r>
       <r>    16.1499     0.5425    11.1190 </r>
       <r>    16.2667     0.5583    11.1842 </r>
       <r>    16.3835     0.5756    11.2515 </r>
       <r>    16.5003     0.6536    11.3278 </r>
       <r>    16.6171     0.8648    11.4289 </r>
       <r>    16.7339     1.1128    11.5588 </r>
       <r>    16.8507     1.2253    11.7020 </r>
       <r>    16.9676     1.0742    11.8275 </r>
       <r>    17.0844     0.7791    11.9185 </r>
       <r>    17.2012     0.5621    11.9841 </r>
       <r>    17.3180     0.4965    12.0421 </r>
       <r>    17.4348     0.6440    12.1174 </r>
       <r>    17.5516     0.8752    12.2196 </r>
       <r>    17.6685     0.9456    12.3301 </r>
       <r>    17.7853     0.9560    12.4417 </r>
       <r>    17.9021     1.1311    12.5739 </r>
       <r>    18.0189     1.3084    12.7267 </r>
       <r>    18.1357     1.2462    12.8723 </r>
       <r>    18.2525     1.0755    12.9979 </r>
       <r>    18.3694     0.9962    13.1143 </r>
       <r>    18.4862     1.0758    13.2400 </r>
       <r>    18.6030     1.2151    13.3819 </r>
       <r>    18.7198     1.1817    13.5199 </r>
       <r>    18.8366     0.9320    13.6288 </r>
       <r>    18.9534     0.6446    13.7041 </r>
       <r>    19.0702     0.5089    13.7636 </r>
       <r>    19.1871     0.4676    13.8182 </r>
       <r>    19.3039     0.3704    13.8615 </r>
       <r>    19.4207     0.2656    13.8925 </r>
       <r>    19.5375     0.3021    13.9278 </r>
       <r>    19.6543     0.5173    13.9882 </r>
       <r>    19.7711     0.7488    14.0757 </r>
       <r>    19.8880     0.8198    14.1714 </r>
       <r>    20.0048     0.7372    14.2576 </r>
       <r>    20.1216     0.6956    14.3388 </r>
       <r>    20.2384     0.8088    14.4333 </r>
       <r>    20.3552     0.9467    14.5439 </r>
       <r>    20.4720     0.9364    14.6533 </r>
       <r>    20.5889     0.8256    14.7497 </r>
       <r>    20.7057     0.7860    14.8415 </r>
       <r>    20.8225     0.7630    14.9307 </r>
       <r>    20.9393     0.6113    15.0021 </r>
       <r>    21.0561     0.3822    15.0467 </r>
       <r>    21.1729     0.2644    15.0776 </r>
       <r>    21.2897     0.2940    15.1120 </r>
       <r>    21.4066     0.3446    15.1522 </r>
       <r>    21.5234     0.3803    15.1966 </r>
       <r>    21.6402     0.4383    15.2478 </r>
       <r>    21.7570     0.4735    15.3032 </r>
       <r>    21.8738     0.4244    15.3527 </r>
       <r>    21.9906     0.3217    15.3903 </r>
       <r>    22.1075     0.2405    15.4184 </r>
       <r>    22.2243     0.2293    15.4452 </r>
       <r>    22.3411     0.3238    15.4830 </r>
       <r>    22.4579     0.4363    15.5340 </r>
       <r>    22.5747     0.3888    15.5794 </r>
       <r>    22.6915     0.2318    15.6065 </r>
       <r>    22.8084     0.1602    15.6252 </r>
       <r>    22.9252     0.2058    15.6492 </r>
       <r>    23.0420     0.2939    15.6836 </r>
       <r>    23.1588     0.3868    15.7288 </r>
       <r>    23.2756     0.4728    15.7840 </r>
       <r>    23.3924     0.4662    15.8385 </r>
       <r>    23.5092     0.3038    15.8739 </r>
       <r>    23.6261     0.1157    15.8875 </r>
       <r>    23.7429     0.0243    15.8903 </r>
       <r>    23.8597     0.0027    15.8906 </r>
       <r>    23.9765     0.0002    15.8906 </r>
       <r>    24.0933     0.0000    15.8906 </r>
       <r>    24.2101     0.0003    15.8907 </r>
       <r>    24.3270     0.0031    15.8910 </r>
       <r>    24.4438     0.0178    15.8931 </r>
       <r>    24.5606     0.0537    15.8994 </r>
       <r>    24.6774     0.0876    15.9096 </r>
       <r>    24.7942     0.0880    15.9199 </r>
       <r>    24.9110     0.0845    15.9297 </r>
       <r>    25.0278     0.0945    15.9408 </r>
       <r>    25.1447     0.0846    15.9507 </r>
       <r>    25.2615     0.0640    15.9581 </r>
       <r>    25.3783     0.0495    15.9639 </r>
       <r>    25.4951     0.0293    15.9673 </r>
       <r>    25.6119     0.0100    15.9685 </r>
       <r>    25.7287     0.0018    15.9687 </r>
       <r>    25.8456     0.0002    15.9687 </r>
       <r>    25.9624     0.0001    15.9688 </r>
       <r>    26.0792     0.0009    15.9689 </r>
       <r>    26.1960     0.0059    15.9696 </r>
       <r>    26.3128     0.0212    15.9720 </r>
       <r>    26.4296     0.0398    15.9767 </r>
       <r>    26.5465     0.0392    15.9813 </r>
       <r>    26.6633     0.0203    15.9836 </r>
       <r>    26.7801     0.0055    15.9843 </r>
       <r>    26.8969     0.0008    15.9844 </r>
       <r>    27.0137     0.0001    15.9844 </r>
       <r>    27.1305     0.0011    15.9845 </r>
       <r>    27.2473     0.0069    15.9853 </r>
       <r>    27.3642     0.0232    15.9880 </r>
       <r>    27.4810     0.0409    15.9928 </r>
       <r>    27.5978     0.0378    15.9972 </r>
       <r>    27.7146     0.0184    15.9994 </r>
       <r>    27.8314     0.0047    15.9999 </r>
       <r>    27.9482     0.0006    16.0000 </r>
       <r>    28.0651     0.0000    16.0000 </r>
       <r>    28.1819     0.0000    16.0000 </r>
       <r>    28.2987     0.0000    16.0000 </r>
       <r>    28.4155     0.0000    16.0000 </r>
       <r>    28.5323     0.0000    16.0000 </r>
       <r>    28.6491     0.0000    16.0000 </r>
       <r>    28.7660     0.0000    16.0000 </r>
       <r>    28.8828     0.0000    16.0000 </r>
       <r>    28.9996     0.0000    16.0000 </r>
       <r>    29.1164     0.0000    16.0000 </r>
       <r>    29.2332     0.0000    16.0000 </r>
       <r>    29.3500     0.0000    16.0000 </r>
       <r>    29.4668     0.0000    16.0000 </r>
      </set>
     </set>
    </array>
   </total>
  </dos>
 </calculation>
 <structure name="finalpos" >
  <crystal>
   <varray name="basis" >
    <v>      -2.21522200       2.21522200       1.26409400 </v>
    <v>       2.21522200      -2.21522200       1.26409400 </v>
    <v>       2.21522200       2.21522200      -1.26409400 </v>
   </varray>
   <i name="volume">     24.81269133 </i>
   <varray name="rec_basis" >
    <v>       0.00000000       0.22571101       0.39554021 </v>
    <v>       0.22571101       0.00000000       0.39554021 </v>
    <v>       0.22571101       0.22571101       0.00000000 </v>
   </varray>
  </crystal>
  <varray name="positions" >
   <v>       0.00000000       0.00000000       0.00000000 </v>
   <v>       0.25000000       0.75000000       0.50000000 </v>
  </varray>
 </structure>
</modeling>
