unknown system                          
   1.00000000000000     
     0.000000    2.715000    2.715000
     2.715000    0.000000    2.715000
     2.715000    2.715000    0.000000
   Si
     2
Direct
  0.500000  0.500000  0.500000
  0.750000  0.750000  0.750000
 
   24   24   24
 0.87157     0.90901      1.0264      1.2379      1.5650      2.0301      2.6487      3.4161      4.2928      5.1945    
  5.9950      6.5525      6.7530      6.5525      5.9950      5.1945      4.2928      3.4161      2.6487      2.0301    
  1.5650      1.2379      1.0263     0.90901     0.90901     0.96996      1.0996      1.3118      1.6233      2.0477    
  2.5874      3.2241      3.9097      4.5638      5.0846      5.3751      5.3751      5.0846      4.5638      3.9098    
  3.2242      2.5874      2.0476      1.6233      1.3118      1.0996     0.96998     0.90902      1.0264      1.0996    
  1.2315      1.4341      1.7188      2.0906      2.5427      3.0489      3.5605      4.0087      4.3182      4.4290    
  4.3182      4.0088      3.5605      3.0489      2.5426      2.0906      1.7187      1.4341      1.2315      1.0996    
  1.0264      1.0030      1.2379      1.3118      1.4341      1.6144      1.8591      2.1672      2.5263      2.9083    
  3.2692      3.5546      3.7132      3.7132      3.5546      3.2691      2.9082      2.5262      2.1672      1.8591    
  1.6145      1.4342      1.3118      1.2379      1.2036      1.2036      1.5650      1.6233      1.7188      1.8591    
  2.0476      2.2803      2.5427      2.8085      3.0417      3.2027      3.2603      3.2027      3.0417      2.8085    
  2.5426      2.2803      2.0476      1.8591      1.7188      1.6233      1.5650      1.5347      1.5255      1.5347    
  2.0301      2.0477      2.0906      2.1672      2.2803      2.4249      2.5874      2.7457      2.8730      2.9442    
  2.9442      2.8729      2.7457      2.5874      2.4250      2.2804      2.1673      2.0906      2.0476      2.0301    
  2.0272      2.0287      2.0287      2.0271      2.6487      2.5874      2.5427      2.5263      2.5427      2.5874    
  2.6487      2.7103      2.7554      2.7720      2.7554      2.7103      2.6488      2.5874      2.5427      2.5263    
  2.5426      2.5874      2.6487      2.7102      2.7554      2.7720      2.7554      2.7103      3.4161      3.2241    
  3.0489      2.9083      2.8085      2.7457      2.7103      2.6923      2.6850      2.6850      2.6924      2.7103    
  2.7457      2.8085      2.9082      3.0488      3.2241      3.4161      3.5979      3.7401      3.8182      3.8182    
  3.7401      3.5979      4.2928      3.9097      3.5605      3.2692      3.0417      2.8730      2.7554      2.6850    
  2.6614      2.6850      2.7554      2.8729      3.0417      3.2691      3.5605      3.9097      4.2928      4.6687    
  4.9869      5.2001      5.2751      5.2000      4.9869      4.6687      5.1945      4.5638      4.0087      3.5546    
  3.2027      2.9442      2.7720      2.6850      2.6850      2.7720      2.9442      3.2027      3.5546      4.0088    
  4.5638      5.1945      5.8460      6.4407      6.8957      7.1424      7.1424      6.8958      6.4408      5.8460    
  5.9950      5.0846      4.3182      3.7132      3.2603      2.9442      2.7554      2.6924      2.7554      2.9442    
  3.2604      3.7132      4.3182      5.0846      5.9950      6.9892      7.9641      8.7914      9.3476      9.5437    
  9.3476      8.7915      7.9641      6.9892      6.5525      5.3751      4.4290      3.7132      3.2027      2.8729    
  2.7103      2.7103      2.8729      3.2027      3.7132      4.4290      5.3750      6.5525      7.9115      9.3374    
  10.660      11.686      12.249      12.249      11.686      10.660      9.3375      7.9116      6.7530      5.3751    
  4.3182      3.5546      3.0417      2.7457      2.6488      2.7457      3.0417      3.5546      4.3182      5.3750    
  6.7529      8.4300      10.304      12.185      13.818      14.934      15.331      14.934      13.818      12.185    
  10.304      8.4301      6.5525      5.0846      4.0088      3.2691      2.8085      2.5874      2.5874      2.8085    
  3.2691      4.0088      5.0846      6.5525      8.4300      10.654      13.050      15.330      17.123      18.098    
  18.098      17.123      15.330      13.050      10.654      8.4300      5.9950      4.5638      3.5605      2.9082    
  2.5426      2.4250      2.5427      2.9082      3.5605      4.5638      5.9950      7.9115      10.304      13.050    
  15.879      18.346      19.993      20.566      19.993      18.346      15.879      13.050      10.304      7.9115    
  5.1945      3.9098      3.0489      2.5262      2.2803      2.2804      2.5263      3.0488      3.9097      5.1945    
  6.9892      9.3374      12.185      15.330      18.346      20.663      21.902      21.902      20.663      18.346    
  15.330      12.186      9.3374      6.9891      4.2928      3.2242      2.5426      2.1672      2.0476      2.1673    
  2.5426      3.2241      4.2928      5.8460      7.9641      10.660      13.818      17.123      19.993      21.902    
  22.567      21.902      19.993      17.123      13.818      10.660      7.9641      5.8459      3.4161      2.5874    
  2.0906      1.8591      1.8591      2.0906      2.5874      3.4161      4.6687      6.4407      8.7914      11.686    
  14.934      18.098      20.566      21.902      21.902      20.567      18.098      14.934      11.686      8.7915    
  6.4407      4.6686      2.6487      2.0476      1.7187      1.6145      1.7188      2.0476      2.6487      3.5979    
  4.9869      6.8957      9.3476      12.249      15.331      18.098      19.993      20.663      19.993      18.098    
  15.331      12.249      9.3476      6.8958      4.9869      3.5979      2.0301      1.6233      1.4341      1.4342    
  1.6233      2.0301      2.7102      3.7401      5.2001      7.1424      9.5437      12.249      14.934      17.123    
  18.346      18.346      17.123      14.934      12.249      9.5437      7.1424      5.2000      3.7401      2.7103    
  1.5650      1.3118      1.2315      1.3118      1.5650      2.0272      2.7554      3.8182      5.2751      7.1424    
  9.3476      11.686      13.818      15.330      15.879      15.330      13.818      11.686      9.3476      7.1424    
  5.2751      3.8182      2.7554      2.0272      1.2379      1.0996      1.0996      1.2379      1.5347      2.0287    
  2.7720      3.8182      5.2000      6.8958      8.7915      10.660      12.185      13.050      13.050      12.186    
  10.660      8.7915      6.8958      5.2000      3.8182      2.7719      2.0287      1.5347      1.0263     0.96998    
  1.0264      1.2036      1.5255      2.0287      2.7554      3.7401      4.9869      6.4408      7.9641      9.3375    
  10.304      10.654      10.304      9.3374      7.9641      6.4407      4.9869      3.7401      2.7554      2.0287    
  1.5255      1.2036     0.90901     0.90902      1.0030      1.2036      1.5347      2.0271      2.7103      3.5979    
  4.6687      5.8460      6.9892      7.9116      8.4301      8.4300      7.9115      6.9891      5.8459      4.6686    
  3.5979      2.7103      2.0272      1.5347      1.2036      1.0030     0.90901     0.96995      1.0996      1.3118    
  1.6233      2.0477      2.5874      3.2241      3.9097      4.5638      5.0846      5.3751      5.3750      5.0846    
  4.5638      3.9097      3.2242      2.5874      2.0477      1.6233      1.3118      1.0996     0.96998     0.90902    
 0.96995      1.0383      1.1627      1.3555      1.6286      1.9874      2.4249      2.9153      3.4105      3.8438    
  4.1426      4.2494      4.1426      3.8439      3.4106      2.9154      2.4249      1.9874      1.6285      1.3555    
  1.1627      1.0384     0.96997     0.94828      1.0996      1.1627      1.2702      1.4328      1.6577      1.9443    
  2.2803      2.6383      2.9762      3.2431      3.3911      3.3911      3.2431      2.9763      2.6383      2.2803    
  1.9443      1.6576      1.4328      1.2702      1.1627      1.0996      1.0710      1.0710      1.3118      1.3555    
  1.4328      1.5527      1.7193      1.9288      2.1672      2.4099      2.6230      2.7702      2.8230      2.7703    
  2.6230      2.4099      2.1672      1.9287      1.7193      1.5527      1.4328      1.3555      1.3118      1.2912    
  1.2854      1.2912      1.6233      1.6286      1.6577      1.7193      1.8163      1.9443      2.0906      2.2348    
  2.3517      2.4175      2.4175      2.3517      2.2348      2.0906      1.9443      1.8163      1.7193      1.6577    
  1.6287      1.6234      1.6299      1.6368      1.6368      1.6299      2.0477      1.9874      1.9443      1.9288    
  1.9443      1.9874      2.0477      2.1095      2.1559      2.1730      2.1559      2.1095      2.0477      1.9875    
  1.9444      1.9288      1.9444      1.9875      2.0477      2.1096      2.1559      2.1730      2.1559      2.1095    
  2.5874      2.4249      2.2803      2.1672      2.0906      2.0477      2.0301      2.0271      2.0287      2.0287    
  2.0272      2.0301      2.0477      2.0906      2.1672      2.2803      2.4250      2.5874      2.7457      2.8729    
  2.9442      2.9442      2.8730      2.7457      3.2241      2.9153      2.6383      2.4099      2.2348      2.1095    
  2.0271      1.9808      1.9659      1.9808      2.0272      2.1095      2.2347      2.4099      2.6383      2.9154    
  3.2242      3.5341      3.8036      3.9885      4.0545      3.9886      3.8037      3.5341      3.9097      3.4105    
  2.9762      2.6230      2.3517      2.1559      2.0287      1.9659      1.9659      2.0286      2.1558      2.3516    
  2.6230      2.9763      3.4106      3.9097      4.4357      4.9285      5.3157      5.5297      5.5297      5.3157    
  4.9285      4.4357      4.5638      3.8438      3.2431      2.7702      2.4175      2.1730      2.0287      1.9808    
  2.0286      2.1729      2.4173      2.7702      3.2432      3.8440      4.5639      5.3644      6.1700      6.8737    
  7.3583      7.5316      7.3583      6.8737      6.1701      5.3644      5.0846      4.1426      3.3911      2.8230    
  2.4175      2.1559      2.0272      2.0272      2.1558      2.4173      2.8229      3.3912      4.1428      5.0847    
  6.1906      7.3812      8.5190      9.4270      9.9341      9.9341      9.4270      8.5191      7.3814      6.1907    
  5.3751      4.2494      3.3911      2.7703      2.3517      2.1095      2.0301      2.1095      2.3516      2.7702    
  3.3912      4.2496      5.3752      6.7671      8.3626      10.014      11.489      12.523      12.896      12.523    
  11.489      10.014      8.3628      6.7671      5.3750      4.1426      3.2431      2.6230      2.2348      2.0477    
  2.0477      2.2347      2.6230      3.2432      4.1428      5.3752      6.9745      8.9158      11.072      13.189    
  14.914      15.890      15.890      14.914      13.189      11.072      8.9160      6.9746      5.0846      3.8439    
  2.9763      2.4099      2.0906      1.9875      2.0906      2.4099      2.9763      3.8440      5.0847      6.7671    
  8.9158      11.456      14.157      16.627      18.384      19.023      18.384      16.627      14.157      11.456    
  8.9159      6.7670      4.5638      3.4106      2.6383      2.1672      1.9443      1.9444      2.1672      2.6383    
  3.4106      4.5639      6.1906      8.3626      11.072      14.157      17.252      19.814      21.276      21.276    
  19.814      17.251      14.157      11.072      8.3626      6.1906      3.9097      2.9154      2.2803      1.9287    
  1.8163      1.9288      2.2803      2.9154      3.9097      5.3644      7.3812      10.014      13.189      16.627    
  19.814      22.096      22.925      22.096      19.814      16.626      13.189      10.014      7.3813      5.3644    
  3.2242      2.4249      1.9443      1.7193      1.7193      1.9444      2.4250      3.2242      4.4357      6.1700    
  8.5190      11.489      14.914      18.384      21.276      22.925      22.925      21.276      18.384      14.914    
  11.489      8.5191      6.1702      4.4357      2.5874      1.9874      1.6576      1.5527      1.6577      1.9875    
  2.5874      3.5341      4.9285      6.8737      9.4270      12.523      15.890      19.023      21.276      22.096    
  21.276      19.024      15.890      12.523      9.4269      6.8738      4.9286      3.5342      2.0477      1.6285    
  1.4328      1.4328      1.6287      2.0477      2.7457      3.8036      5.3157      7.3583      9.9341      12.896    
  15.890      18.384      19.814      19.814      18.384      15.890      12.896      9.9340      7.3584      5.3158    
  3.8037      2.7457      1.6233      1.3555      1.2702      1.3555      1.6234      2.1096      2.8729      3.9885    
  5.5297      7.5316      9.9341      12.523      14.914      16.627      17.251      16.626      14.914      12.523    
  9.9340      7.5317      5.5299      3.9886      2.8729      2.1095      1.3118      1.1627      1.1627      1.3118    
  1.6299      2.1559      2.9442      4.0545      5.5297      7.3583      9.4270      11.489      13.189      14.157    
  14.157      13.189      11.489      9.4269      7.3584      5.5299      4.0546      2.9442      2.1558      1.6298    
  1.0996      1.0384      1.0996      1.2912      1.6368      2.1730      2.9442      3.9886      5.3157      6.8737    
  8.5191      10.014      11.072      11.456      11.072      10.014      8.5191      6.8738      5.3158      3.9886    
  2.9442      2.1730      1.6367      1.2912     0.96998     0.96997      1.0710      1.2854      1.6368      2.1559    
  2.8730      3.8037      4.9285      6.1701      7.3814      8.3628      8.9160      8.9159      8.3626      7.3813    
  6.1702      4.9286      3.8037      2.8729      2.1558      1.6367      1.2854      1.0710     0.90902     0.94828    
  1.0710      1.2912      1.6299      2.1095      2.7457      3.5341      4.4357      5.3644      6.1907      6.7671    
  6.9746      6.7670      6.1906      5.3644      4.4357      3.5342      2.7457      2.1095      1.6298      1.2912    
  1.0710     0.94831      1.0263      1.0996      1.2315      1.4341      1.7188      2.0906      2.5427      3.0489    
  3.5605      4.0087      4.3182      4.4290      4.3182      4.0087      3.5605      3.0489      2.5427      2.0907    
  1.7188      1.4341      1.2315      1.0996      1.0263      1.0030      1.0996      1.1627      1.2702      1.4328    
  1.6577      1.9443      2.2803      2.6383      2.9762      3.2431      3.3911      3.3911      3.2431      2.9763    
  2.6383      2.2803      1.9443      1.6577      1.4328      1.2702      1.1627      1.0996      1.0710      1.0710    
  1.2315      1.2702      1.3413      1.4545      1.6140      1.8163      2.0476      2.2833      2.4902      2.6331    
  2.6843      2.6331      2.4903      2.2833      2.0476      1.8163      1.6140      1.4545      1.3413      1.2702    
  1.2315      1.2142      1.2095      1.2142      1.4341      1.4328      1.4545      1.5085      1.5982      1.7193    
  1.8591      1.9973      2.1096      2.1728      2.1728      2.1096      1.9973      1.8590      1.7193      1.5982    
  1.5085      1.4545      1.4328      1.4341      1.4457      1.4553      1.4553      1.4457      1.7188      1.6577    
  1.6140      1.5982      1.6140      1.6577      1.7188      1.7815      1.8284      1.8459      1.8284      1.7814    
  1.7187      1.6577      1.6140      1.5983      1.6140      1.6577      1.7188      1.7815      1.8284      1.8459    
  1.8284      1.7815      2.0906      1.9443      1.8163      1.7193      1.6577      1.6286      1.6233      1.6299    
  1.6368      1.6367      1.6299      1.6233      1.6286      1.6577      1.7193      1.8163      1.9443      2.0906    
  2.2348      2.3517      2.4174      2.4174      2.3517      2.2348      2.5427      2.2803      2.0476      1.8591    
  1.7188      1.6233      1.5650      1.5347      1.5255      1.5347      1.5650      1.6233      1.7188      1.8591    
  2.0476      2.2803      2.5426      2.8085      3.0417      3.2027      3.2603      3.2027      3.0417      2.8085    
  3.0489      2.6383      2.2833      1.9973      1.7815      1.6299      1.5347      1.4891      1.4891      1.5347    
  1.6299      1.7815      1.9973      2.2833      2.6383      3.0489      3.4845      3.8958      4.2214      4.4023    
  4.4024      4.2214      3.8959      3.4845      3.5605      2.9762      2.4902      2.1096      1.8284      1.6368    
  1.5255      1.4891      1.5255      1.6368      1.8284      2.1096      2.4902      2.9762      3.5605      4.2134    
  4.8752      5.4576      5.8614      6.0064      5.8614      5.4576      4.8751      4.2134      4.0087      3.2431    
  2.6331      2.1728      1.8459      1.6367      1.5347      1.5347      1.6368      1.8458      2.1727      2.6331    
  3.2431      4.0087      4.9110      5.8890      6.8315      7.5895      8.0152      8.0152      7.5894      6.8314    
  5.8890      4.9110      4.3182      3.3911      2.6843      2.1728      1.8284      1.6299      1.5650      1.6299    
  1.8284      2.1727      2.6843      3.3912      4.3182      5.4684      6.7959      8.1822      9.4326      10.315    
  10.634      10.315      9.4326      8.1821      6.7959      5.4684      4.4290      3.3911      2.6331      2.1096    
  1.7814      1.6233      1.6233      1.7815      2.1096      2.6331      3.3912      4.4290      5.7799      7.4315    
  9.2841      11.122      12.632      13.492      13.492      12.632      11.122      9.2841      7.4316      5.7800    
  4.3182      3.2431      2.4903      1.9973      1.7187      1.6286      1.7188      1.9973      2.4902      3.2431    
  4.3182      5.7799      7.6609      9.9081      12.326      14.558      16.158      16.742      16.158      14.558    
  12.326      9.9081      7.6609      5.7799      4.0087      2.9763      2.2833      1.8590      1.6577      1.6577    
  1.8591      2.2833      2.9762      4.0087      5.4684      7.4315      9.9081      12.764      15.661      18.081    
  19.472      19.472      18.081      15.661      12.764      9.9082      7.4316      5.4683      3.5605      2.6383    
  2.0476      1.7193      1.6140      1.7193      2.0476      2.6383      3.5605      4.9110      6.7959      9.2841    
  12.326      15.661      18.786      21.046      21.875      21.046      18.786      15.661      12.326      9.2841    
  6.7959      4.9110      3.0489      2.2803      1.8163      1.5982      1.5983      1.8163      2.2803      3.0489    
  4.2134      5.8890      8.1822      11.122      14.558      18.081      21.046      22.756      22.756      21.046    
  18.081      14.558      11.122      8.1823      5.8890      4.2134      2.5427      1.9443      1.6140      1.5085    
  1.6140      1.9443      2.5426      3.4845      4.8752      6.8315      9.4326      12.632      16.158      19.472    
  21.875      22.756      21.875      19.472      16.158      12.632      9.4326      6.8315      4.8751      3.4845    
  2.0907      1.6577      1.4545      1.4545      1.6577      2.0906      2.8085      3.8958      5.4576      7.5895    
  10.315      13.492      16.742      19.472      21.046      21.046      19.472      16.742      13.492      10.315    
  7.5895      5.4576      3.8958      2.8085      1.7188      1.4328      1.3413      1.4328      1.7188      2.2348    
  3.0417      4.2214      5.8614      8.0152      10.634      13.492      16.158      18.081      18.786      18.081    
  16.158      13.492      10.634      8.0152      5.8614      4.2214      3.0417      2.2348      1.4341      1.2702    
  1.2702      1.4341      1.7815      2.3517      3.2027      4.4023      6.0064      8.0152      10.315      12.632    
  14.558      15.661      15.661      14.558      12.632      10.315      8.0152      6.0064      4.4024      3.2027    
  2.3517      1.7815      1.2315      1.1627      1.2315      1.4457      1.8284      2.4174      3.2603      4.4024    
  5.8614      7.5894      9.4326      11.122      12.326      12.764      12.326      11.122      9.4326      7.5895    
  5.8614      4.4024      3.2604      2.4174      1.8284      1.4457      1.0996      1.0996      1.2142      1.4553    
  1.8459      2.4174      3.2027      4.2214      5.4576      6.8314      8.1821      9.2841      9.9081      9.9082    
  9.2841      8.1823      6.8315      5.4576      4.2214      3.2027      2.4174      1.8459      1.4552      1.2142    
  1.0263      1.0710      1.2095      1.4553      1.8284      2.3517      3.0417      3.8959      4.8751      5.8890    
  6.7959      7.4316      7.6609      7.4316      6.7959      5.8890      4.8751      3.8958      3.0417      2.3517    
  1.8284      1.4552      1.2095      1.0710      1.0030      1.0710      1.2142      1.4457      1.7815      2.2348    
  2.8085      3.4845      4.2134      4.9110      5.4684      5.7800      5.7799      5.4683      4.9110      4.2134    
  3.4845      2.8085      2.2348      1.7815      1.4457      1.2142      1.0710      1.0030      1.2379      1.3118    
  1.4341      1.6144      1.8591      2.1672      2.5263      2.9083      3.2691      3.5546      3.7132      3.7132    
  3.5546      3.2691      2.9082      2.5263      2.1672      1.8591      1.6145      1.4342      1.3118      1.2379    
  1.2036      1.2036      1.3118      1.3555      1.4328      1.5527      1.7193      1.9288      2.1672      2.4099    
  2.6230      2.7702      2.8229      2.7702      2.6230      2.4099      2.1672      1.9288      1.7193      1.5528    
  1.4328      1.3555      1.3118      1.2912      1.2854      1.2912      1.4341      1.4328      1.4545      1.5085    
  1.5982      1.7193      1.8591      1.9973      2.1096      2.1727      2.1727      2.1096      1.9973      1.8591    
  1.7193      1.5983      1.5085      1.4545      1.4328      1.4341      1.4457      1.4552      1.4552      1.4457    
  1.6144      1.5527      1.5085      1.4925      1.5085      1.5527      1.6144      1.6776      1.7249      1.7424    
  1.7249      1.6776      1.6144      1.5527      1.5085      1.4926      1.5085      1.5527      1.6144      1.6776    
  1.7249      1.7424      1.7249      1.6776      1.8591      1.7193      1.5982      1.5085      1.4545      1.4328    
  1.4341      1.4457      1.4552      1.4552      1.4457      1.4341      1.4328      1.4545      1.5085      1.5983    
  1.7193      1.8591      1.9973      2.1096      2.1727      2.1727      2.1096      1.9973      2.1672      1.9288    
  1.7193      1.5527      1.4328      1.3555      1.3118      1.2912      1.2854      1.2912      1.3118      1.3555    
  1.4328      1.5528      1.7193      1.9288      2.1672      2.4099      2.6230      2.7702      2.8229      2.7702    
  2.6230      2.4099      2.5263      2.1672      1.8591      1.6144      1.4341      1.3118      1.2379      1.2036    
  1.2036      1.2379      1.3118      1.4342      1.6145      1.8591      2.1672      2.5263      2.9082      3.2691    
  3.5546      3.7132      3.7132      3.5546      3.2691      2.9083      2.9083      2.4099      1.9973      1.6776    
  1.4457      1.2912      1.2036      1.1753      1.2036      1.2912      1.4457      1.6777      1.9974      2.4099    
  2.9082      3.4656      4.0301      4.5262      4.8698      4.9930      4.8698      4.5262      4.0301      3.4657    
  3.2691      2.6230      2.1096      1.7249      1.4552      1.2854      1.2036      1.2036      1.2854      1.4553    
  1.7250      2.1096      2.6230      3.2690      4.0300      4.8534      5.6452      6.2807      6.6371      6.6371    
  6.2806      5.6450      4.8534      4.0301      3.5546      2.7702      2.1727      1.7424      1.4552      1.2912    
  1.2379      1.2912      1.4553      1.7425      2.1728      2.7702      3.5544      4.5261      5.6451      6.8107    
  7.8600      8.5989      8.8663      8.5988      7.8598      6.8106      5.6450      4.5262      3.7132      2.8229    
  2.1727      1.7249      1.4457      1.3118      1.3118      1.4457      1.7250      2.1728      2.8229      3.7130    
  4.8697      6.2806      7.8600      9.4240      10.708      11.438      11.438      10.708      9.4238      7.8598    
  6.2806      4.8698      3.7132      2.7702      2.1096      1.6776      1.4341      1.3555      1.4342      1.6777    
  2.1096      2.7702      3.7130      4.9929      6.6371      8.5990      10.708      12.653      14.047      14.556    
  14.047      12.653      10.708      8.5988      6.6371      4.9930      3.5546      2.6230      1.9973      1.6144    
  1.4328      1.4328      1.6145      1.9974      2.6230      3.5544      4.8697      6.6371      8.8664      11.438    
  14.047      16.227      17.480      17.480      16.227      14.047      11.438      8.8663      6.6371      4.8698    
  3.2691      2.4099      1.8591      1.5527      1.4545      1.5528      1.8591      2.4099      3.2690      4.5261    
  6.2806      8.5990      11.438      14.556      17.480      19.597      20.373      19.597      17.480      14.556    
  11.438      8.5989      6.2807      4.5262      2.9082      2.1672      1.7193      1.5085      1.5085      1.7193    
  2.1672      2.9082      4.0300      5.6451      7.8600      10.708      14.047      17.480      20.373      22.045    
  22.045      20.373      17.480      14.047      10.708      7.8600      5.6452      4.0301      2.5263      1.9288    
  1.5983      1.4926      1.5983      1.9288      2.5263      3.4656      4.8534      6.8107      9.4240      12.653    
  16.227      19.597      22.045      22.944      22.045      19.597      16.227      12.653      9.4240      6.8107    
  4.8534      3.4656      2.1672      1.7193      1.5085      1.5085      1.7193      2.1672      2.9082      4.0301    
  5.6452      7.8600      10.708      14.047      17.480      20.373      22.045      22.045      20.373      17.480    
  14.047      10.708      7.8600      5.6451      4.0300      2.9082      1.8591      1.5528      1.4545      1.5527    
  1.8591      2.4099      3.2691      4.5262      6.2807      8.5989      11.438      14.556      17.480      19.597    
  20.373      19.597      17.480      14.556      11.438      8.5990      6.2806      4.5261      3.2690      2.4099    
  1.6145      1.4328      1.4328      1.6144      1.9973      2.6230      3.5546      4.8698      6.6371      8.8663    
  11.438      14.047      16.227      17.480      17.480      16.227      14.047      11.438      8.8664      6.6371    
  4.8697      3.5544      2.6230      1.9974      1.4342      1.3555      1.4341      1.6776      2.1096      2.7702    
  3.7132      4.9930      6.6371      8.5988      10.708      12.653      14.047      14.556      14.047      12.653    
  10.708      8.5990      6.6371      4.9929      3.7130      2.7702      2.1096      1.6777      1.3118      1.3118    
  1.4457      1.7249      2.1727      2.8229      3.7132      4.8698      6.2806      7.8598      9.4238      10.708    
  11.438      11.438      10.708      9.4240      7.8600      6.2806      4.8697      3.7130      2.8229      2.1728    
  1.7250      1.4457      1.2379      1.2912      1.4552      1.7424      2.1727      2.7702      3.5546      4.5262    
  5.6450      6.8106      7.8598      8.5988      8.8663      8.5989      7.8600      6.8107      5.6451      4.5261    
  3.5544      2.7702      2.1728      1.7425      1.4553      1.2912      1.2036      1.2854      1.4552      1.7249    
  2.1096      2.6230      3.2691      4.0301      4.8534      5.6450      6.2806      6.6371      6.6371      6.2807    
  5.6452      4.8534      4.0300      3.2690      2.6230      2.1096      1.7250      1.4553      1.2854      1.2036    
  1.2036      1.2912      1.4457      1.6776      1.9973      2.4099      2.9083      3.4657      4.0301      4.5262    
  4.8698      4.9930      4.8698      4.5262      4.0301      3.4656      2.9082      2.4099      1.9974      1.6777    
  1.4457      1.2912      1.2036      1.1753      1.5650      1.6233      1.7188      1.8591      2.0476      2.2803    
  2.5427      2.8085      3.0417      3.2027      3.2603      3.2027      3.0417      2.8085      2.5426      2.2803    
  2.0476      1.8591      1.7188      1.6233      1.5650      1.5347      1.5255      1.5347      1.6233      1.6286    
  1.6577      1.7193      1.8163      1.9443      2.0906      2.2348      2.3517      2.4174      2.4174      2.3517    
  2.2348      2.0906      1.9443      1.8163      1.7193      1.6577      1.6286      1.6233      1.6299      1.6367    
  1.6368      1.6299      1.7188      1.6577      1.6140      1.5982      1.6140      1.6577      1.7188      1.7815    
  1.8284      1.8459      1.8284      1.7815      1.7188      1.6577      1.6140      1.5983      1.6140      1.6577    
  1.7187      1.7814      1.8284      1.8459      1.8284      1.7815      1.8591      1.7193      1.5982      1.5085    
  1.4545      1.4328      1.4341      1.4457      1.4553      1.4553      1.4457      1.4341      1.4328      1.4545    
  1.5085      1.5982      1.7193      1.8590      1.9973      2.1096      2.1728      2.1728      2.1096      1.9973    
  2.0476      1.8163      1.6140      1.4545      1.3413      1.2702      1.2315      1.2142      1.2095      1.2142    
  1.2315      1.2702      1.3413      1.4545      1.6140      1.8163      2.0476      2.2833      2.4903      2.6331    
  2.6843      2.6331      2.4902      2.2833      2.2803      1.9443      1.6577      1.4328      1.2702      1.1627    
  1.0996      1.0710      1.0710      1.0996      1.1627      1.2702      1.4328      1.6577      1.9443      2.2803    
  2.6383      2.9763      3.2431      3.3911      3.3911      3.2431      2.9762      2.6383      2.5427      2.0906    