<?xml version="1.0" encoding="ISO-8859-1"?>
<modeling>
 <generator>
  <i name="program" type="string">vasp </i>
  <i name="version" type="string">5.4.4.18Apr17-6-g9f103f2a35  </i>
  <i name="subversion" type="string">(build Dec 09 2018 21:25:21) complex            parallel </i>
  <i name="platform" type="string">IFC18.0.1.163_CrayMPICH7.7.0_MKL18.0.1.163 </i>
  <i name="date" type="string">2019 03 19 </i>
  <i name="time" type="string">13:08:20 </i>
 </generator>
 <incar>
  <i type="string" name="PREC">normal</i>
  <i type="int" name="IBRION">     2</i>
  <i name="EDIFF">      0.00040000</i>
  <i name="EDIFFG">     -0.01000000</i>
  <i type="int" name="NSW">    15</i>
  <i type="int" name="ISIF">     2</i>
  <i name="ENCUT">    200.00000000</i>
  <i type="int" name="NBANDS">     8</i>
  <i type="logical" name="LREAL"> F  </i>
  <i type="int" name="ISMEAR">     0</i>
  <i name="SIGMA">      0.20000000</i>
  <v type="int" name="KPOINT_BSE">    -1     0     0     0</v>
 </incar>
 <structure name="primitive_cell" >
  <crystal>
   <varray name="basis" >
    <v>      -2.45000000       2.45000000       1.27400000 </v>
    <v>       2.45000000      -2.45000000       1.27400000 </v>
    <v>       2.45000000       2.45000000      -1.27400000 </v>
   </varray>
   <i name="volume">     30.58874000 </i>
   <varray name="rec_basis" >
    <v>       0.00000000       0.20408163       0.39246468 </v>
    <v>       0.20408163       0.00000000       0.39246468 </v>
    <v>       0.20408163       0.20408163      -0.00000000 </v>
   </varray>
  </crystal>
  <varray name="positions" >
   <v>       0.25000000      -0.25000000      -0.50000000 </v>
   <v>       0.00000000       0.00000000       0.00000000 </v>
  </varray>
 </structure>
 <varray name="primitive_index" >
  <v type="int" >        1 </v>
  <v type="int" >        2 </v>
 </varray>
 <kpoints>
  <generation param="Monkhorst-Pack">
   <v type="int" name="divisions">       5        5        5 </v>
   <v name="usershift">      0.00000000       0.00000000       0.00000000 </v>
   <v name="genvec1">      0.20000000       0.00000000      -0.00000000 </v>
   <v name="genvec2">      0.00000000       0.20000000      -0.00000000 </v>
   <v name="genvec3">      0.00000000      -0.00000000       0.20000000 </v>
   <v name="shift">      0.00000000       0.00000000       0.00000000 </v>
  </generation>
  <varray name="kpointlist" >
   <v>       0.00000000       0.00000000       0.00000000 </v>
   <v>       0.20000000       0.00000000      -0.00000000 </v>
   <v>       0.40000000       0.00000000      -0.00000000 </v>
   <v>       0.20000000       0.20000000      -0.00000000 </v>
   <v>       0.40000000       0.20000000      -0.00000000 </v>
   <v>      -0.40000000       0.20000000       0.00000000 </v>
   <v>      -0.20000000       0.20000000       0.00000000 </v>
   <v>       0.40000000       0.40000000      -0.00000000 </v>
   <v>      -0.40000000       0.40000000       0.00000000 </v>
   <v>       0.20000000       0.20000000       0.20000000 </v>
   <v>      -0.20000000       0.20000000       0.20000000 </v>
   <v>      -0.40000000       0.40000000       0.20000000 </v>
   <v>      -0.20000000       0.40000000       0.20000000 </v>
   <v>      -0.40000000      -0.40000000       0.20000000 </v>
   <v>      -0.20000000      -0.40000000       0.20000000 </v>
   <v>      -0.20000000      -0.20000000       0.20000000 </v>
   <v>      -0.40000000       0.40000000       0.40000000 </v>
   <v>      -0.40000000      -0.40000000       0.40000000 </v>
  </varray>
  <varray name="weights" >
   <v>       0.00800000 </v>
   <v>       0.06400000 </v>
   <v>       0.06400000 </v>
   <v>       0.06400000 </v>
   <v>       0.12800000 </v>
   <v>       0.12800000 </v>
   <v>       0.03200000 </v>
   <v>       0.06400000 </v>
   <v>       0.03200000 </v>
   <v>       0.06400000 </v>
   <v>       0.03200000 </v>
   <v>       0.06400000 </v>
   <v>       0.06400000 </v>
   <v>       0.06400000 </v>
   <v>       0.06400000 </v>
   <v>       0.01600000 </v>
   <v>       0.03200000 </v>
   <v>       0.01600000 </v>
  </varray>
 </kpoints>
 <parameters>
  <separator name="general" >
   <i type="string" name="SYSTEM">unknown system</i>
   <i type="logical" name="LCOMPAT"> F  </i>
  </separator>
  <separator name="electronic" >
   <i type="string" name="PREC">normal</i>
   <i name="ENMAX">    200.00000000</i>
   <i name="ENAUG">    322.06900000</i>
   <i name="EDIFF">      0.00040000</i>
   <i type="int" name="IALGO">    38</i>
   <i type="int" name="IWAVPR">    11</i>
   <i type="int" name="NBANDS">     8</i>
   <i name="NELECT">      8.00000000</i>
   <i type="int" name="TURBO">     0</i>
   <i type="int" name="IRESTART">     0</i>
   <i type="int" name="NREBOOT">     0</i>
   <i type="int" name="NMIN">     0</i>
   <i name="EREF">      0.00000000</i>
   <separator name="electronic smearing" >
    <i type="int" name="ISMEAR">     0</i>
    <i name="SIGMA">      0.20000000</i>
    <i name="KSPACING">      0.50000000</i>
    <i type="logical" name="KGAMMA"> T  </i>
   </separator>
   <separator name="electronic projectors" >
    <i type="logical" name="LREAL"> F  </i>
    <v name="ROPT">      0.00000000</v>
    <i type="int" name="LMAXPAW">  -100</i>
    <i type="int" name="LMAXMIX">     2</i>
    <i type="logical" name="NLSPLINE"> F  </i>
   </separator>
   <separator name="electronic startup" >
    <i type="int" name="ISTART">     1</i>
    <i type="int" name="ICHARG">     0</i>
    <i type="int" name="INIWAV">     1</i>
   </separator>
   <separator name="electronic spin" >
    <i type="int" name="ISPIN">     1</i>
    <i type="logical" name="LNONCOLLINEAR"> F  </i>
    <v name="MAGMOM">      1.00000000      1.00000000</v>
    <i name="NUPDOWN">     -1.00000000</i>
    <i type="logical" name="LSORBIT"> F  </i>
    <v name="SAXIS">      0.00000000      0.00000000      1.00000000</v>
    <i type="logical" name="LSPIRAL"> F  </i>
    <v name="QSPIRAL">      0.00000000      0.00000000      0.00000000</v>
    <i type="logical" name="LZEROZ"> F  </i>
   </separator>
   <separator name="electronic exchange-correlation" >
    <i type="logical" name="LASPH"> F  </i>
    <i type="logical" name="LMETAGGA"> F  </i>
   </separator>
   <separator name="electronic convergence" >
    <i type="int" name="NELM">    60</i>
    <i type="int" name="NELMDL">     0</i>
    <i type="int" name="NELMIN">     2</i>
    <i name="ENINI">    200.00000000</i>
    <separator name="electronic convergence detail" >
     <i type="logical" name="LDIAG"> T  </i>
     <i type="logical" name="LSUBROT"> F  </i>
     <i name="WEIMIN">      0.00100000</i>
     <i name="EBREAK">      0.00001250</i>
     <i name="DEPER">      0.30000000</i>
     <i type="int" name="NRMM">     4</i>
     <i name="TIME">      0.40000000</i>
    </separator>
   </separator>
   <separator name="electronic mixer" >
    <i name="AMIX">      0.40000000</i>
    <i name="BMIX">      1.00000000</i>
    <i name="AMIN">      0.10000000</i>
    <i name="AMIX_MAG">      1.60000000</i>
    <i name="BMIX_MAG">      1.00000000</i>
    <separator name="electronic mixer details" >
     <i type="int" name="IMIX">     4</i>
     <i type="logical" name="MIXFIRST"> F  </i>
     <i type="int" name="MAXMIX">   -45</i>
     <i name="WC">    100.00000000</i>
     <i type="int" name="INIMIX">     1</i>
     <i type="int" name="MIXPRE">     1</i>
     <i type="int" name="MREMOVE">     5</i>
    </separator>
   </separator>
   <separator name="electronic dipolcorrection" >
    <i type="logical" name="LDIPOL"> F  </i>
    <i type="logical" name="LMONO"> F  </i>
    <i type="int" name="IDIPOL">     0</i>
    <i name="EPSILON">      1.00000000</i>
    <v name="DIPOL">   -100.00000000   -100.00000000   -100.00000000</v>
    <i name="EFIELD">      0.00000000</i>
   </separator>
  </separator>
  <separator name="grids" >
   <i type="int" name="NGX">    14</i>
   <i type="int" name="NGY">    14</i>
   <i type="int" name="NGZ">    14</i>
   <i type="int" name="NGXF">    28</i>
   <i type="int" name="NGYF">    28</i>
   <i type="int" name="NGZF">    28</i>
   <i type="logical" name="ADDGRID"> F  </i>
  </separator>
  <separator name="ionic" >
   <i type="int" name="NSW">    15</i>
   <i type="int" name="IBRION">     2</i>
   <i type="int" name="MDALGO">     0</i>
   <i type="int" name="ISIF">     2</i>
   <i name="PSTRESS">      0.00000000</i>
   <i name="EDIFFG">     -0.01000000</i>
   <i type="int" name="NFREE">     1</i>
   <i name="POTIM">      0.50000000</i>
   <i name="SMASS">     -3.00000000</i>
   <i name="SCALEE">      1.00000000</i>
  </separator>
  <separator name="ionic md" >
   <i name="TEBEG">      0.00010000</i>
   <i name="TEEND">      0.00010000</i>
   <i type="int" name="NBLOCK">     1</i>
   <i type="int" name="KBLOCK">    15</i>
   <i type="int" name="NPACO">   256</i>
   <i name="APACO">     16.00000000</i>
  </separator>
  <separator name="symmetry" >
   <i type="int" name="ISYM">     2</i>
   <i name="SYMPREC">      0.00001000</i>
  </separator>
  <separator name="dos" >
   <i type="int" name="LORBIT">     0</i>
   <v name="RWIGS">     -1.00000000</v>
   <i type="int" name="NEDOS">   301</i>
   <i name="EMIN">     10.00000000</i>
   <i name="EMAX">    -10.00000000</i>
   <i name="EFERMI">      0.00000000</i>
  </separator>
  <separator name="writing" >
   <i type="int" name="NWRITE">     2</i>
   <i type="logical" name="LWAVE"> T  </i>
   <i type="logical" name="LDOWNSAMPLE"> F  </i>
   <i type="logical" name="LCHARG"> T  </i>
   <i type="logical" name="LPARD"> F  </i>
   <i type="logical" name="LVTOT"> F  </i>
   <i type="logical" name="LVHAR"> F  </i>
   <i type="logical" name="LELF"> F  </i>
   <i type="logical" name="LOPTICS"> F  </i>
   <v name="STM">      0.00000000      0.00000000      0.00000000      0.00000000      0.00000000      0.00000000      0.00000000</v>
  </separator>
  <separator name="performance" >
   <i type="int" name="NPAR">     8</i>
   <i type="int" name="NSIM">     4</i>
   <i type="int" name="NBLK">    -1</i>
   <i type="logical" name="LPLANE"> T  </i>
   <i type="logical" name="LSCALAPACK"> T  </i>
   <i type="logical" name="LSCAAWARE"> F  </i>
   <i type="logical" name="LSCALU"> F  </i>
   <i type="logical" name="LASYNC"> F  </i>
   <i type="logical" name="LORBITALREAL"> F  </i>
  </separator>
  <separator name="miscellaneous" >
   <i type="int" name="IDIOT">     3</i>
   <i type="int" name="ISPECIAL">     0</i>
   <i type="logical" name="LMUSIC"> F  </i>
   <v name="POMASS">     28.08500000</v>
   <v name="DARWINR">      0.00000000</v>
   <v name="DARWINV">      1.00000000</v>
   <i type="logical" name="LCORR"> T  </i>
  </separator>
  <i type="logical" name="GGA_COMPAT"> T  </i>
  <i type="logical" name="LBERRY"> F  </i>
  <i type="int" name="ICORELEVEL">     0</i>
  <i type="logical" name="LDAU"> F  </i>
  <i type="int" name="I_CONSTRAINED_M">     0</i>
  <separator name="electronic exchange-correlation" >
   <i type="string" name="GGA">--</i>
   <i type="int" name="VOSKOWN">     0</i>
   <i type="logical" name="LHFCALC"> F  </i>
   <i type="string" name="PRECFOCK"></i>
   <i type="logical" name="LSYMGRAD"> F  </i>
   <i type="logical" name="LHFONE"> F  </i>
   <i type="logical" name="LRHFCALC"> F  </i>
   <i type="logical" name="LTHOMAS"> F  </i>
   <i type="logical" name="LMODELHF"> F  </i>
   <i name="ENCUT4O">     -1.00000000</i>
   <i type="int" name="EXXOEP">     0</i>
   <i type="int" name="FOURORBIT">     0</i>
   <i name="AEXX">      0.00000000</i>
   <i name="HFALPHA">      0.00000000</i>
   <i name="MCALPHA">      0.00000000</i>
   <i name="ALDAX">      1.00000000</i>
   <i name="AGGAX">      1.00000000</i>
   <i name="ALDAC">      1.00000000</i>
   <i name="AGGAC">      1.00000000</i>
   <i type="int" name="NKREDX">     1</i>
   <i type="int" name="NKREDY">     1</i>
   <i type="int" name="NKREDZ">     1</i>
   <i type="logical" name="SHIFTRED"> F  </i>
   <i type="logical" name="ODDONLY"> F  </i>
   <i type="logical" name="EVENONLY"> F  </i>
   <i type="int" name="LMAXFOCK">     0</i>
   <i type="int" name="NMAXFOCKAE">     0</i>
   <i type="logical" name="LFOCKAEDFT"> F  </i>
   <i name="HFSCREEN">      0.00000000</i>
   <i name="HFSCREENC">      0.00000000</i>
   <i type="int" name="NBANDSGWLOW">     0</i>
  </separator>
  <separator name="vdW DFT" >
   <i type="logical" name="LUSE_VDW"> F  </i>
   <i name="Zab_VDW">     -0.84910000</i>
   <i name="PARAM1">      0.12340000</i>
   <i name="PARAM2">      1.00000000</i>
   <i name="PARAM3">      0.00000000</i>
  </separator>
  <separator name="model GW" >
   <i type="int" name="MODEL_GW">     0</i>
   <i name="MODEL_EPS0">      9.17662200</i>
   <i name="MODEL_ALPHA">      1.00000000</i>
  </separator>
  <separator name="linear response parameters" >
   <i type="logical" name="LEPSILON"> F  </i>
   <i type="logical" name="LRPA"> F  </i>
   <i type="logical" name="LNABLA"> F  </i>
   <i type="logical" name="LVEL"> F  </i>
   <i type="int" name="KINTER">     0</i>
   <i name="CSHIFT">      0.10000000</i>
   <i name="OMEGAMAX">     -1.00000000</i>
   <i name="DEG_THRESHOLD">      0.00200000</i>
   <i name="RTIME">     -0.10000000</i>
   <i name="WPLASMAI">      0.00000000</i>
   <v name="DFIELD">      0.00000000      0.00000000      0.00000000</v>
   <v name="WPLASMA">      0.00000000      0.00000000      0.00000000      0.00000000      0.00000000      0.00000000      0.00000000      0.00000000      0.00000000</v>
  </separator>
  <separator name="orbital magnetization" >
   <i type="logical" name="NUCIND"> F  </i>
   <v name="MAGPOS">      0.00000000      0.00000000      0.00000000</v>
   <i type="logical" name="LNICSALL"> T  </i>
   <i type="logical" name="ORBITALMAG"> F  </i>
   <i type="logical" name="LMAGBLOCH"> F  </i>
   <i type="logical" name="LCHIMAG"> F  </i>
   <i type="logical" name="LGAUGE"> T  </i>
   <i type="int" name="MAGATOM">     0</i>
   <v name="MAGDIPOL">      0.00000000      0.00000000      0.00000000</v>
   <v name="AVECCONST">      0.00000000      0.00000000      0.00000000</v>
  </separator>
  <separator name="response functions" >
   <i type="logical" name="LADDER"> F  </i>
   <i type="logical" name="LRPAFORCE"> F  </i>
   <i type="logical" name="LFXC"> F  </i>
   <i type="logical" name="LHARTREE"> T  </i>
   <i type="int" name="IBSE">     0</i>
   <v type="int" name="KPOINT">    -1     0     0     0</v>
   <i type="logical" name="LTCTE"> F  </i>
   <i type="logical" name="LTETE"> F  </i>
   <i type="logical" name="LTRIPLET"> F  </i>
   <i type="logical" name="LFXCEPS"> F  </i>
   <i type="logical" name="LFXHEG"> F  </i>
   <i type="int" name="NATURALO">     2</i>
   <i type="logical" name="L2ORDER"> F  </i>
   <i type="logical" name="LMP2LT"> F  </i>
   <i type="logical" name="LUSEW"> F  </i>
   <i name="ENCUTGW">     -2.00000000</i>
   <i name="ENCUTGWSOFT">     -2.00000000</i>
   <i name="ENCUTLF">     -1.00000000</i>
   <i type="int" name="LMAXMP2">    -1</i>
   <i name="SCISSOR">      0.00000000</i>
   <i type="int" name="NOMEGA">     0</i>
   <i type="int" name="NOMEGAR">     0</i>
   <i type="int" name="NBANDSGW">    -1</i>
   <i type="int" name="NBANDSO">    -1</i>
   <i type="int" name="NBANDSV">    -1</i>
   <i type="int" name="NELM">     1</i>
   <i type="int" name="NELMHF">     1</i>
   <i type="int" name="DIM">     3</i>
   <i type="int" name="ANTIRES">     0</i>
   <i name="OMEGAMAX">    -30.00000000</i>
   <i name="OMEGAMIN">    -30.00000000</i>
   <i name="OMEGATL">   -200.00000000</i>
   <i type="int" name="OMEGAGRID">   140</i>
   <i name="CSHIFT">     -0.10000000</i>
   <i type="logical" name="SELFENERGY"> F  </i>
   <i type="logical" name="LSPECTRAL"> F  </i>
   <i type="logical" name="LSPECTRALGW"> F  </i>
   <i type="logical" name="LSINGLES"> F  </i>
   <i type="logical" name="LFERMIGW"> F  </i>
   <i type="logical" name="ODDONLYGW"> F  </i>
   <i type="logical" name="EVENONLYGW"> F  </i>
   <i type="int" name="NKREDLFX">     1</i>
   <i type="int" name="NKREDLFY">     1</i>
   <i type="int" name="NKREDLFZ">     1</i>
   <i type="int" name="MAXMEM">  2800</i>
   <i type="int" name="TELESCOPE">     0</i>
   <i type="int" name="TAUPAR">     1</i>
   <i type="int" name="OMEGAPAR">    -1</i>
   <i name="LAMBDA">      1.00000000</i>
  </separator>
  <separator name="External order field" >
   <i name="OFIELD_KAPPA">      0.00000000</i>
   <v name="OFIELD_K">      0.00000000      0.00000000      0.00000000</v>
   <i name="OFIELD_Q6_NEAR">      0.00000000</i>
   <i name="OFIELD_Q6_FAR">      0.00000000</i>
   <i name="OFIELD_A">      0.00000000</i>
  </separator>
 </parameters>
 <atominfo>
  <atoms>       2 </atoms>
  <types>       1 </types>
  <array name="atoms" >
   <dimension dim="1">ion</dimension>
   <field type="string">element</field>
   <field type="int">atomtype</field>
   <set>
    <rc><c>Si</c><c>   1</c></rc>
    <rc><c>Si</c><c>   1</c></rc>
   </set>
  </array>
  <array name="atomtypes" >
   <dimension dim="1">type</dimension>
   <field type="int">atomspertype</field>
   <field type="string">element</field>
   <field>mass</field>
   <field>valence</field>
   <field type="string">pseudopotential</field>
   <set>
    <rc><c>   2</c><c>Si</c><c>     28.08500000</c><c>      4.00000000</c><c> PAW_PBE Si 05Jan2001                   </c></rc>
   </set>
  </array>
 </atominfo>
 <structure name="initialpos" >
  <crystal>
   <varray name="basis" >
    <v>      -2.45000000       2.45000000       1.27400000 </v>
    <v>       2.45000000      -2.45000000       1.27400000 </v>
    <v>       2.45000000       2.45000000      -1.27400000 </v>
   </varray>
   <i name="volume">     30.58874000 </i>
   <varray name="rec_basis" >
    <v>       0.00000000       0.20408163       0.39246468 </v>
    <v>       0.20408163       0.00000000       0.39246468 </v>
    <v>       0.20408163       0.20408163      -0.00000000 </v>
   </varray>
  </crystal>
  <varray name="positions" >
   <v>       0.25000000       0.75000000       0.50000000 </v>
   <v>       0.00000000       0.00000000       0.00000000 </v>
  </varray>
 </structure>
 <calculation>
  <scstep>
   <time name="dav">    0.08    0.11</time>
   <time name="total">    0.12    0.18</time>
   <energy>
    <i name="alphaZ">      4.40202223 </i>
    <i name="ewald">   -265.18101312 </i>
    <i name="hartreedc">     -2.48586829 </i>
    <i name="XCdc">    -17.56608737 </i>
    <i name="pawpsdc">     71.43042781 </i>
    <i name="pawaedc">    -36.35313552 </i>
    <i name="eentropy">     -0.01905998 </i>
    <i name="bandstr">     29.46330635 </i>
    <i name="atom">    206.11247263 </i>
    <i name="e_fr_energy">    -10.19693526 </i>
    <i name="e_wo_entrp">    -10.17787528 </i>
    <i name="e_0_energy">    -10.18740527 </i>
   </energy>
  </scstep>
  <scstep>
   <time name="dav">    0.07    0.07</time>
   <time name="total">    0.10    0.10</time>
   <energy>
    <i name="alphaZ">      4.40202223 </i>
    <i name="ewald">   -265.18101312 </i>
    <i name="hartreedc">     -2.48584330 </i>
    <i name="XCdc">    -17.56609687 </i>
    <i name="pawpsdc">     71.43102572 </i>
    <i name="pawaedc">    -36.35376277 </i>
    <i name="eentropy">     -0.01906214 </i>
    <i name="bandstr">     29.46332252 </i>
    <i name="atom">    206.11247263 </i>
    <i name="e_fr_energy">    -10.19693509 </i>
    <i name="e_wo_entrp">    -10.17787295 </i>
    <i name="e_0_energy">    -10.18740402 </i>
   </energy>
  </scstep>
  <structure>
   <crystal>
    <varray name="basis" >
     <v>      -2.45000000       2.45000000       1.27400000 </v>
     <v>       2.45000000      -2.45000000       1.27400000 </v>
     <v>       2.45000000       2.45000000      -1.27400000 </v>
    </varray>
    <i name="volume">     30.58874000 </i>
    <varray name="rec_basis" >
     <v>       0.00000000       0.20408163       0.39246468 </v>
     <v>       0.20408163       0.00000000       0.39246468 </v>
     <v>       0.20408163       0.20408163      -0.00000000 </v>
    </varray>
   </crystal>
   <varray name="positions" >
    <v>       0.25000000       0.75000000       0.50000000 </v>
    <v>       0.00000000       0.00000000       0.00000000 </v>
   </varray>
  </structure>
  <varray name="forces" >
   <v>      -0.00000000       0.00000000       0.00000000 </v>
   <v>       0.00000000      -0.00000000      -0.00000000 </v>
  </varray>
  <varray name="stress" >
   <v>      27.94627744       0.00000000       0.00000000 </v>
   <v>      -0.00000000      27.94627744       0.00000000 </v>
   <v>       0.00000000       0.00000000     -36.97804244 </v>
  </varray>
  <energy>
   <i name="e_fr_energy">    -10.19693509 </i>
   <i name="e_wo_entrp">    -10.18740402 </i>
   <i name="e_0_energy">     -0.01906214 </i>
  </energy>
  <time name="totalsc">    0.78    1.23</time>
  <eigenvalues>
   <array>
    <dimension dim="1">band</dimension>
    <dimension dim="2">kpoint</dimension>
    <dimension dim="3">spin</dimension>
    <field>eigene</field>
    <field>occ</field>
    <set>
     <set comment="spin 1">
      <set comment="kpoint 1">
       <r>   -4.6157    1.0000 </r>
       <r>    6.1963    1.0000 </r>
       <r>    6.3021    1.0000 </r>
       <r>    6.3021    1.0000 </r>
       <r>   10.6022    0.0000 </r>
       <r>   16.9503    0.0000 </r>
       <r>   17.3753    0.0000 </r>
       <r>   17.3753    0.0000 </r>
      </set>
      <set comment="kpoint 2">
       <r>   -3.4890    1.0000 </r>
       <r>    5.0287    1.0000 </r>
       <r>    6.2856    1.0000 </r>
       <r>    9.3165    0.1465 </r>
       <r>   12.6916    0.0000 </r>
       <r>   12.8486    0.0000 </r>
       <r>   13.4552    0.0000 </r>
       <r>   15.5309    0.0000 </r>
      </set>
      <set comment="kpoint 3">
       <r>   -0.1568    1.0000 </r>
       <r>    5.1790    1.0000 </r>
       <r>    6.0117    1.0000 </r>
       <r>    7.2647    1.0000 </r>
       <r>    8.9619    0.9273 </r>
       <r>   11.4194    0.0000 </r>
       <r>   13.6826    0.0000 </r>
       <r>   14.3319    0.0000 </r>
      </set>
      <set comment="kpoint 4">
       <r>   -0.6193    1.0000 </r>
       <r>    6.0031    1.0000 </r>
       <r>    6.8978    1.0000 </r>
       <r>    6.9394    1.0000 </r>
       <r>    9.7528    0.0000 </r>
       <r>   11.8739    0.0000 </r>
       <r>   12.4409    0.0000 </r>
       <r>   12.7081    0.0000 </r>
      </set>
      <set comment="kpoint 5">
       <r>    1.2133    1.0000 </r>
       <r>    3.3955    1.0000 </r>
       <r>    4.4742    1.0000 </r>
       <r>    7.7151    1.0000 </r>
       <r>    9.0562    0.7850 </r>
       <r>   11.0489    0.0000 </r>
       <r>   13.9063    0.0000 </r>
       <r>   16.2794    0.0000 </r>
      </set>
      <set comment="kpoint 6">
       <r>   -2.5451    1.0000 </r>
       <r>    2.0350    1.0000 </r>
       <r>    6.7544    1.0000 </r>
       <r>   10.4628    0.0000 </r>
       <r>   11.1152    0.0000 </r>
       <r>   12.3175    0.0000 </r>
       <r>   14.0165    0.0000 </r>
       <r>   15.9238    0.0000 </r>
      </set>
      <set comment="kpoint 7">
       <r>   -4.1398    1.0000 </r>
       <r>    2.7440    1.0000 </r>
       <r>    6.7455    1.0000 </r>
       <r>    8.3780    1.0000 </r>
       <r>   13.2139    0.0000 </r>
       <r>   13.3391    0.0000 </r>
       <r>   15.0562    0.0000 </r>
       <r>   19.2786    0.0000 </r>
      </set>
      <set comment="kpoint 8">
       <r>   -0.6816    1.0000 </r>
       <r>   -0.6779    1.0000 </r>
       <r>    8.4320    1.0000 </r>
       <r>    8.4952    1.0000 </r>
       <r>   10.7013    0.0000 </r>
       <r>   13.2267    0.0000 </r>
       <r>   13.6159    0.0000 </r>
       <r>   14.0794    0.0000 </r>
      </set>
      <set comment="kpoint 9">
       <r>   -2.7211    1.0000 </r>
       <r>   -0.3949    1.0000 </r>
       <r>    8.0751    1.0000 </r>
       <r>    9.9740    0.0000 </r>
       <r>   10.2823    0.0000 </r>
       <r>   12.2111    0.0000 </r>
       <r>   18.1906    0.0000 </r>
       <r>   18.8316    0.0000 </r>
      </set>
      <set comment="kpoint 10">
       <r>    0.7678    1.0000 </r>
       <r>    3.0286    1.0000 </r>
       <r>    6.1273    1.0000 </r>
       <r>    6.1502    1.0000 </r>
       <r>   11.3760    0.0000 </r>
       <r>   13.0970    0.0000 </r>
       <r>   14.0339    0.0000 </r>
       <r>   14.4852    0.0000 </r>
      </set>
      <set comment="kpoint 11">
       <r>   -3.6667    1.0000 </r>
       <r>    2.5753    1.0000 </r>
       <r>    4.1990    1.0000 </r>
       <r>   10.2451    0.0000 </r>
       <r>   11.4664    0.0000 </r>
       <r>   14.5212    0.0000 </r>
       <r>   17.7160    0.0000 </r>
       <r>   18.1601    0.0000 </r>
      </set>
      <set comment="kpoint 12">
       <r>   -2.2606    1.0000 </r>
       <r>    0.0197    1.0000 </r>
       <r>    4.9583    1.0000 </r>
       <r>    7.1709    1.0000 </r>
       <r>   13.6353    0.0000 </r>
       <r>   15.6877    0.0000 </r>
       <r>   17.8681    0.0000 </r>
       <r>   18.1038    0.0000 </r>
      </set>
      <set comment="kpoint 13">
       <r>   -1.6167    1.0000 </r>
       <r>    2.2651    1.0000 </r>
       <r>    3.9900    1.0000 </r>
       <r>    7.7418    1.0000 </r>
       <r>   10.0182    0.0000 </r>
       <r>   15.5212    0.0000 </r>
       <r>   16.3157    0.0000 </r>
       <r>   17.2865    0.0000 </r>
      </set>
      <set comment="kpoint 14">
       <r>    0.1841    1.0000 </r>
       <r>    0.1960    1.0000 </r>
       <r>    5.1360    1.0000 </r>
       <r>    5.1400    1.0000 </r>
       <r>    9.6095    0.0009 </r>
       <r>   16.2268    0.0000 </r>
       <r>   17.6629    0.0000 </r>
       <r>   18.4895    0.0000 </r>
      </set>
      <set comment="kpoint 15">
       <r>    2.4720    1.0000 </r>
       <r>    3.4309    1.0000 </r>
       <r>    4.2989    1.0000 </r>
       <r>    5.7966    1.0000 </r>
       <r>    7.3090    1.0000 </r>
       <r>   12.1465    0.0000 </r>
       <r>   13.5426    0.0000 </r>
       <r>   16.1793    0.0000 </r>
      </set>
      <set comment="kpoint 16">
       <r>   -1.0870    1.0000 </r>
       <r>    7.7771    1.0000 </r>
       <r>    8.1103    1.0000 </r>
       <r>    8.4534    1.0000 </r>
       <r>    8.4534    1.0000 </r>
       <r>   10.0928    0.0000 </r>
       <r>   11.5970    0.0000 </r>
       <r>   11.5970    0.0000 </r>
      </set>
      <set comment="kpoint 17">
       <r>   -0.9180    1.0000 </r>
       <r>    0.6913    1.0000 </r>
       <r>    2.5062    1.0000 </r>
       <r>    4.0908    1.0000 </r>
       <r>   16.1967    0.0000 </r>
       <r>   16.5288    0.0000 </r>
       <r>   19.0059    0.0000 </r>
       <r>   20.3109    0.0000 </r>
      </set>
      <set comment="kpoint 18">
       <r>    1.3127    1.0000 </r>
       <r>    1.3365    1.0000 </r>
       <r>    3.1276    1.0000 </r>
       <r>    3.1276    1.0000 </r>
       <r>    9.1960    0.4212 </r>
       <r>   18.4154    0.0000 </r>
       <r>   19.6211    0.0000 </r>
       <r>   19.6211    0.0000 </r>
      </set>
     </set>
    </set>
   </array>
  </eigenvalues>
  <separator name="orbital magnetization" >
   <v name="MAGDIPOLOUT">      0.00000000      0.00000000      0.00000000</v>
  </separator>
  <dos>
   <i name="efermi">      9.16783149 </i>
   <total>
    <array>
     <dimension dim="1">gridpoints</dimension>
     <dimension dim="2">spin</dimension>
     <field>energy</field>
     <field>total</field>
     <field>integrated</field>
     <set>
      <set comment="spin 1">
       <r>    -6.6157     0.0000     0.0000 </r>
       <r>    -6.5193     0.0000     0.0000 </r>
       <r>    -6.4229     0.0000     0.0000 </r>
       <r>    -6.3265     0.0000     0.0000 </r>
       <r>    -6.2300     0.0000     0.0000 </r>
       <r>    -6.1336     0.0000     0.0000 </r>
       <r>    -6.0372     0.0000     0.0000 </r>
       <r>    -5.9408     0.0000     0.0000 </r>
       <r>    -5.8443     0.0000     0.0000 </r>
       <r>    -5.7479     0.0000     0.0000 </r>
       <r>    -5.6515     0.0000     0.0000 </r>
       <r>    -5.5551     0.0000     0.0000 </r>
       <r>    -5.4587     0.0000     0.0000 </r>
       <r>    -5.3622     0.0000     0.0000 </r>
       <r>    -5.2658     0.0000     0.0000 </r>
       <r>    -5.1694     0.0000     0.0000 </r>
       <r>    -5.0730     0.0001     0.0000 </r>
       <r>    -4.9765     0.0008     0.0001 </r>
       <r>    -4.8801     0.0042     0.0005 </r>
       <r>    -4.7837     0.0144     0.0019 </r>
       <r>    -4.6873     0.0314     0.0049 </r>
       <r>    -4.5909     0.0441     0.0092 </r>
       <r>    -4.4944     0.0425     0.0133 </r>
       <r>    -4.3980     0.0407     0.0172 </r>
       <r>    -4.3016     0.0694     0.0239 </r>
       <r>    -4.2052     0.1318     0.0366 </r>
       <r>    -4.1087     0.1767     0.0536 </r>
       <r>    -4.0123     0.1566     0.0687 </r>
       <r>    -3.9159     0.1069     0.0790 </r>
       <r>    -3.8195     0.1081     0.0895 </r>
       <r>    -3.7231     0.1950     0.1083 </r>
       <r>    -3.6266     0.3321     0.1403 </r>
       <r>    -3.5302     0.4391     0.1826 </r>
       <r>    -3.4338     0.4317     0.2242 </r>
       <r>    -3.3374     0.3004     0.2532 </r>
       <r>    -3.2409     0.1414     0.2668 </r>
       <r>    -3.1445     0.0445     0.2711 </r>
       <r>    -3.0481     0.0152     0.2726 </r>
       <r>    -2.9517     0.0333     0.2758 </r>
       <r>    -2.8553     0.1119     0.2866 </r>
       <r>    -2.7588     0.2845     0.3140 </r>
       <r>    -2.6624     0.5459     0.3667 </r>
       <r>    -2.5660     0.7836     0.4422 </r>
       <r>    -2.4696     0.8334     0.5226 </r>
       <r>    -2.3731     0.7008     0.5902 </r>
       <r>    -2.2767     0.5454     0.6427 </r>
       <r>    -2.1803     0.4096     0.6822 </r>
       <r>    -2.0839     0.2504     0.7064 </r>
       <r>    -1.9875     0.1114     0.7171 </r>
       <r>    -1.8910     0.0586     0.7228 </r>
       <r>    -1.7946     0.1088     0.7333 </r>
       <r>    -1.6982     0.2370     0.7561 </r>
       <r>    -1.6018     0.3450     0.7894 </r>
       <r>    -1.5053     0.3223     0.8205 </r>
       <r>    -1.4089     0.1954     0.8393 </r>
       <r>    -1.3125     0.0894     0.8479 </r>
       <r>    -1.2161     0.0695     0.8546 </r>
       <r>    -1.1197     0.1204     0.8662 </r>
       <r>    -1.0232     0.2091     0.8864 </r>
       <r>    -0.9268     0.3332     0.9185 </r>
       <r>    -0.8304     0.5463     0.9712 </r>
       <r>    -0.7340     0.8655     1.0546 </r>
       <r>    -0.6375     1.1000     1.1607 </r>
       <r>    -0.5411     1.0173     1.2588 </r>
       <r>    -0.4447     0.7141     1.3277 </r>
       <r>    -0.3483     0.4821     1.3741 </r>
       <r>    -0.2519     0.4439     1.4169 </r>
       <r>    -0.1554     0.5418     1.4692 </r>
       <r>    -0.0590     0.6841     1.5351 </r>
       <r>     0.0374     0.8323     1.6154 </r>
       <r>     0.1338     0.9508     1.7071 </r>
       <r>     0.2303     0.9175     1.7956 </r>
       <r>     0.3267     0.6651     1.8597 </r>
       <r>     0.4231     0.3535     1.8938 </r>
       <r>     0.5195     0.2065     1.9137 </r>
       <r>     0.6159     0.2812     1.9408 </r>
       <r>     0.7124     0.4513     1.9843 </r>
       <r>     0.8088     0.5170     2.0342 </r>
       <r>     0.9052     0.4183     2.0745 </r>
       <r>     1.0016     0.3345     2.1067 </r>
       <r>     1.0981     0.4618     2.1513 </r>
       <r>     1.1945     0.7308     2.2217 </r>
       <r>     1.2909     0.8459     2.3033 </r>
       <r>     1.3873     0.6600     2.3669 </r>
       <r>     1.4837     0.3477     2.4005 </r>
       <r>     1.5802     0.1263     2.4127 </r>
       <r>     1.6766     0.0439     2.4169 </r>
       <r>     1.7730     0.0754     2.4242 </r>
       <r>     1.8694     0.2398     2.4473 </r>
       <r>     1.9659     0.5285     2.4982 </r>
       <r>     2.0623     0.7817     2.5736 </r>
       <r>     2.1587     0.8372     2.6543 </r>
       <r>     2.2551     0.7671     2.7283 </r>
       <r>     2.3515     0.7433     2.8000 </r>
       <r>     2.4480     0.7998     2.8771 </r>
       <r>     2.5444     0.8214     2.9563 </r>
       <r>     2.6408     0.7065     3.0244 </r>
       <r>     2.7372     0.5162     3.0742 </r>
       <r>     2.8337     0.3882     3.1116 </r>
       <r>     2.9301     0.3966     3.1499 </r>
       <r>     3.0265     0.5025     3.1983 </r>
       <r>     3.1229     0.5917     3.2554 </r>
       <r>     3.2193     0.6697     3.3199 </r>
       <r>     3.3158     0.8648     3.4033 </r>
       <r>     3.4122     1.0796     3.5074 </r>
       <r>     3.5086     1.0038     3.6042 </r>
       <r>     3.6050     0.6274     3.6647 </r>
       <r>     3.7015     0.2765     3.6914 </r>
       <r>     3.7979     0.1660     3.7074 </r>
       <r>     3.8943     0.2796     3.7343 </r>
       <r>     3.9907     0.4949     3.7821 </r>
       <r>     4.0871     0.6732     3.8470 </r>
       <r>     4.1836     0.7735     3.9215 </r>
       <r>     4.2800     0.8593     4.0044 </r>
       <r>     4.3764     0.9580     4.0968 </r>
       <r>     4.4728     0.9782     4.1911 </r>
       <r>     4.5693     0.8015     4.2684 </r>
       <r>     4.6657     0.4950     4.3161 </r>
       <r>     4.7621     0.3118     4.3462 </r>
       <r>     4.8585     0.4359     4.3882 </r>
       <r>     4.9549     0.8430     4.4695 </r>
       <r>     5.0514     1.3128     4.5961 </r>
       <r>     5.1478     1.5212     4.7427 </r>
       <r>     5.2442     1.2769     4.8659 </r>
       <r>     5.3406     0.7506     4.9382 </r>
       <r>     5.4371     0.3051     4.9676 </r>
       <r>     5.5335     0.1142     4.9787 </r>
       <r>     5.6299     0.1397     4.9921 </r>
       <r>     5.7263     0.3110     5.0221 </r>
       <r>     5.8227     0.5735     5.0774 </r>
       <r>     5.9192     0.9001     5.1642 </r>
       <r>     6.0156     1.2565     5.2854 </r>
       <r>     6.1120     1.4971     5.4297 </r>
       <r>     6.2084     1.4575     5.5703 </r>
       <r>     6.3049     1.1422     5.6804 </r>
       <r>     6.4013     0.7203     5.7498 </r>
       <r>     6.4977     0.4252     5.7908 </r>
       <r>     6.5941     0.4503     5.8343 </r>
       <r>     6.6905     0.8013     5.9115 </r>
       <r>     6.7870     1.2165     6.0288 </r>
       <r>     6.8834     1.3762     6.1615 </r>
       <r>     6.9798     1.2337     6.2805 </r>
       <r>     7.0762     1.0338     6.3802 </r>
       <r>     7.1727     1.0037     6.4769 </r>
       <r>     7.2691     1.0541     6.5786 </r>
       <r>     7.3655     0.9343     6.6687 </r>
       <r>     7.4619     0.6775     6.7340 </r>
       <r>     7.5583     0.6107     6.7929 </r>
       <r>     7.6548     0.8739     6.8771 </r>
       <r>     7.7512     1.1454     6.9876 </r>
       <r>     7.8476     1.0503     7.0889 </r>
       <r>     7.9440     0.6985     7.1562 </r>
       <r>     8.0405     0.4426     7.1989 </r>
       <r>     8.1369     0.3748     7.2350 </r>
       <r>     8.2333     0.4384     7.2773 </r>
       <r>     8.3297     0.6603     7.3410 </r>
       <r>     8.4261     0.9517     7.4327 </r>
       <r>     8.5226     1.0156     7.5306 </r>
       <r>     8.6190     0.7436     7.6024 </r>
       <r>     8.7154     0.4127     7.6421 </r>
       <r>     8.8118     0.3392     7.6748 </r>
       <r>     8.9083     0.5875     7.7315 </r>
       <r>     9.0047     0.9525     7.8233 </r>
       <r>     9.1011     1.1196     7.9313 </r>
       <r>     9.1975     0.9944     8.0272 </r>
       <r>     9.2939     0.7624     8.1007 </r>
       <r>     9.3904     0.5812     8.1567 </r>
       <r>     9.4868     0.5001     8.2050 </r>
       <r>     9.5832     0.5470     8.2577 </r>
       <r>     9.6796     0.6531     8.3207 </r>
       <r>     9.7761     0.6998     8.3882 </r>
       <r>     9.8725     0.6968     8.4553 </r>
       <r>     9.9689     0.7273     8.5255 </r>
       <r>    10.0653     0.7625     8.5990 </r>
       <r>    10.1617     0.7433     8.6707 </r>
       <r>    10.2582     0.7411     8.7421 </r>
       <r>    10.3546     0.8336     8.8225 </r>
       <r>    10.4510     0.9515     8.9142 </r>
       <r>    10.5474     0.9516     9.0060 </r>
       <r>    10.6439     0.8108     9.0842 </r>
       <r>    10.7403     0.6372     9.1456 </r>
       <r>    10.8367     0.5629     9.1999 </r>
       <r>    10.9331     0.7440     9.2716 </r>
       <r>    11.0295     1.1638     9.3838 </r>
       <r>    11.1260     1.4592     9.5245 </r>
       <r>    11.2224     1.3803     9.6576 </r>
       <r>    11.3188     1.1768     9.7711 </r>
       <r>    11.4152     1.0912     9.8763 </r>
       <r>    11.5117     0.9808     9.9709 </r>
       <r>    11.6081     0.7328    10.0415 </r>
       <r>    11.7045     0.4978    10.0895 </r>
       <r>    11.8009     0.4183    10.1299 </r>
       <r>    11.8973     0.4518    10.1734 </r>
       <r>    11.9938     0.5168    10.2233 </r>
       <r>    12.0902     0.6643    10.2873 </r>
       <r>    12.1866     0.9425    10.3782 </r>
       <r>    12.2830     1.2162    10.4955 </r>
       <r>    12.3795     1.2815    10.6190 </r>
       <r>    12.4759     1.1170    10.7267 </r>
       <r>    12.5723     0.9475    10.8181 </r>
       <r>    12.6687     0.9567    10.9103 </r>
       <r>    12.7651     1.0203    11.0087 </r>
       <r>    12.8616     0.9385    11.0992 </r>
       <r>    12.9580     0.7770    11.1741 </r>
       <r>    13.0544     0.7482    11.2463 </r>
       <r>    13.1508     0.8878    11.3319 </r>
       <r>    13.2473     1.0345    11.4316 </r>
       <r>    13.3437     1.1116    11.5388 </r>
       <r>    13.4401     1.2416    11.6585 </r>
       <r>    13.5365     1.4895    11.8022 </r>
       <r>    13.6329     1.6722    11.9634 </r>
       <r>    13.7294     1.6337    12.1209 </r>
       <r>    13.8258     1.5843    12.2737 </r>
       <r>    13.9222     1.7864    12.4459 </r>
       <r>    14.0186     2.0126    12.6400 </r>
       <r>    14.1151     1.8347    12.8169 </r>
       <r>    14.2115     1.3208    12.9443 </r>
       <r>    14.3079     0.9229    13.0332 </r>
       <r>    14.4043     0.8133    13.1117 </r>
       <r>    14.5007     0.7784    13.1867 </r>
       <r>    14.5972     0.6126    13.2458 </r>
       <r>    14.6936     0.3499    13.2795 </r>
       <r>    14.7900     0.1502    13.2940 </r>
       <r>    14.8864     0.0907    13.3028 </r>
       <r>    14.9829     0.1300    13.3153 </r>
       <r>    15.0793     0.1770    13.3324 </r>
       <r>    15.1757     0.1725    13.3490 </r>
       <r>    15.2721     0.1710    13.3655 </r>
       <r>    15.3685     0.3031    13.3947 </r>
       <r>    15.4650     0.6012    13.4527 </r>
       <r>    15.5614     0.8889    13.5384 </r>
       <r>    15.6578     0.9708    13.6320 </r>
       <r>    15.7542     0.9057    13.7193 </r>
       <r>    15.8507     0.8919    13.8053 </r>
       <r>    15.9471     0.9721    13.8990 </r>
       <r>    16.0435     1.1193    14.0070 </r>
       <r>    16.1399     1.4369    14.1455 </r>
       <r>    16.2363     1.8349    14.3225 </r>
       <r>    16.3328     1.8725    14.5030 </r>
       <r>    16.4292     1.3933    14.6373 </r>
       <r>    16.5256     0.7782    14.7124 </r>
       <r>    16.6220     0.3632    14.7474 </r>
       <r>    16.7185     0.1563    14.7625 </r>
       <r>    16.8149     0.0711    14.7693 </r>
       <r>    16.9113     0.0543    14.7746 </r>
       <r>    17.0077     0.0746    14.7818 </r>
       <r>    17.1041     0.1403    14.7953 </r>
       <r>    17.2006     0.2739    14.8217 </r>
       <r>    17.2970     0.4144    14.8617 </r>
       <r>    17.3934     0.4519    14.9052 </r>
       <r>    17.4898     0.4209    14.9458 </r>
       <r>    17.5863     0.4762    14.9917 </r>
       <r>    17.6827     0.6325    15.0527 </r>
       <r>    17.7791     0.7412    15.1242 </r>
       <r>    17.8755     0.7337    15.1949 </r>
       <r>    17.9719     0.7014    15.2626 </r>
       <r>    18.0684     0.7404    15.3340 </r>
       <r>    18.1648     0.7865    15.4098 </r>
       <r>    18.2612     0.7168    15.4789 </r>
       <r>    18.3576     0.5914    15.5359 </r>
       <r>    18.4541     0.5293    15.5870 </r>
       <r>    18.5505     0.4755    15.6328 </r>
       <r>    18.6469     0.3626    15.6678 </r>
       <r>    18.7433     0.2727    15.6941 </r>
       <r>    18.8397     0.2721    15.7203 </r>
       <r>    18.9362     0.3035    15.7496 </r>
       <r>    19.0326     0.2993    15.7784 </r>
       <r>    19.1290     0.2639    15.8039 </r>
       <r>    19.2254     0.2373    15.8268 </r>
       <r>    19.3219     0.2198    15.8480 </r>
       <r>    19.4183     0.1911    15.8664 </r>
       <r>    19.5147     0.1765    15.8834 </r>
       <r>    19.6111     0.1887    15.9016 </r>
       <r>    19.7075     0.1764    15.9186 </r>
       <r>    19.8040     0.1154    15.9297 </r>
       <r>    19.9004     0.0502    15.9346 </r>
       <r>    19.9968     0.0209    15.9366 </r>
       <r>    20.0932     0.0347    15.9399 </r>
       <r>    20.1897     0.0890    15.9485 </r>
       <r>    20.2861     0.1558    15.9635 </r>
       <r>    20.3825     0.1748    15.9804 </r>
       <r>    20.4789     0.1254    15.9925 </r>
       <r>    20.5753     0.0575    15.9980 </r>
       <r>    20.6718     0.0169    15.9997 </r>
       <r>    20.7682     0.0032    16.0000 </r>
       <r>    20.8646     0.0004    16.0000 </r>
       <r>    20.9610     0.0000    16.0000 </r>
       <r>    21.0575     0.0000    16.0000 </r>
       <r>    21.1539     0.0000    16.0000 </r>
       <r>    21.2503     0.0000    16.0000 </r>
       <r>    21.3467     0.0000    16.0000 </r>
       <r>    21.4431     0.0000    16.0000 </r>
       <r>    21.5396     0.0000    16.0000 </r>
       <r>    21.6360     0.0000    16.0000 </r>
       <r>    21.7324     0.0000    16.0000 </r>
       <r>    21.8288     0.0000    16.0000 </r>
       <r>    21.9252     0.0000    16.0000 </r>
       <r>    22.0217     0.0000    16.0000 </r>
       <r>    22.1181     0.0000    16.0000 </r>
       <r>    22.2145     0.0000    16.0000 </r>
       <r>    22.3109     0.0000    16.0000 </r>
      </set>
     </set>
    </array>
   </total>
  </dos>
 </calculation>
 <structure name="finalpos" >
  <crystal>
   <varray name="basis" >
    <v>      -2.45000000       2.45000000       1.27400000 </v>
    <v>       2.45000000      -2.45000000       1.27400000 </v>
    <v>       2.45000000       2.45000000      -1.27400000 </v>
   </varray>
   <i name="volume">     30.58874000 </i>
   <varray name="rec_basis" >
    <v>       0.00000000       0.20408163       0.39246468 </v>
    <v>       0.20408163       0.00000000       0.39246468 </v>
    <v>       0.20408163       0.20408163      -0.00000000 </v>
   </varray>
  </crystal>
  <varray name="positions" >
   <v>       0.25000000       0.75000000       0.50000000 </v>
   <v>       0.00000000       0.00000000       0.00000000 </v>
  </varray>
 </structure>
</modeling>
