   2   2   0   0
  0.2001288E+02  0.3839590E-09  0.3839590E-09  0.3839590E-09  0.5000000E-15
  1.000000000000000E-004
  CAR 
 unknown system                          
     17.44451287     -8.08099117  301      6.15820326      1.00000000
     -8.081  0.0000E+00  0.0000E+00
     -7.996  0.0000E+00  0.0000E+00
     -7.911  0.0000E+00  0.0000E+00
     -7.826  0.0000E+00  0.0000E+00
     -7.741  0.0000E+00  0.0000E+00
     -7.656  0.0000E+00  0.0000E+00
     -7.570  0.0000E+00  0.0000E+00
     -7.485  0.0000E+00  0.0000E+00
     -7.400  0.0000E+00  0.0000E+00
     -7.315  0.0000E+00  0.0000E+00
     -7.230  0.1359E-17  0.1156E-18
     -7.145  0.1611E-15  0.1382E-16
     -7.060  0.1345E-13  0.1159E-14
     -6.975  0.7858E-12  0.6802E-13
     -6.890  0.3218E-10  0.2806E-11
     -6.805  0.9255E-09  0.8156E-10
     -6.720  0.1873E-07  0.1675E-08
     -6.635  0.2678E-06  0.2446E-07
     -6.549  0.2717E-05  0.2557E-06
     -6.464  0.1975E-04  0.1936E-05
     -6.379  0.1041E-03  0.1079E-04
     -6.294  0.4053E-03  0.4527E-04
     -6.209  0.1194E-02  0.1469E-03
     -6.124  0.2740E-02  0.3800E-03
     -6.039  0.5037E-02  0.8086E-03
     -5.954  0.7671E-02  0.1461E-02
     -5.869  0.1012E-01  0.2323E-02
     -5.784  0.1228E-01  0.3368E-02
     -5.699  0.1439E-01  0.4592E-02
     -5.614  0.1638E-01  0.5986E-02
     -5.528  0.1774E-01  0.7495E-02
     -5.443  0.1842E-01  0.9062E-02
     -5.358  0.1946E-01  0.1072E-01
     -5.273  0.2173E-01  0.1257E-01
     -5.188  0.2426E-01  0.1463E-01
     -5.103  0.2531E-01  0.1678E-01
     -5.018  0.2496E-01  0.1891E-01
     -4.933  0.2508E-01  0.2104E-01
     -4.848  0.2670E-01  0.2331E-01
     -4.763  0.2896E-01  0.2578E-01
     -4.678  0.3105E-01  0.2842E-01
     -4.593  0.3307E-01  0.3123E-01
     -4.507  0.3486E-01  0.3420E-01
     -4.422  0.3562E-01  0.3723E-01
     -4.337  0.3498E-01  0.4021E-01
     -4.252  0.3407E-01  0.4311E-01
     -4.167  0.3548E-01  0.4612E-01
     -4.082  0.4079E-01  0.4960E-01
     -3.997  0.4781E-01  0.5366E-01
     -3.912  0.5238E-01  0.5812E-01
     -3.827  0.5340E-01  0.6266E-01
     -3.742  0.5320E-01  0.6719E-01
     -3.657  0.5355E-01  0.7175E-01
     -3.571  0.5365E-01  0.7631E-01
     -3.486  0.5159E-01  0.8070E-01
     -3.401  0.4765E-01  0.8476E-01
     -3.316  0.4567E-01  0.8864E-01
     -3.231  0.4874E-01  0.9279E-01
     -3.146  0.5405E-01  0.9739E-01
     -3.061  0.5532E-01  0.1021E+00
     -2.976  0.4957E-01  0.1063E+00
     -2.891  0.3969E-01  0.1097E+00
     -2.806  0.3064E-01  0.1123E+00
     -2.721  0.2529E-01  0.1144E+00
     -2.636  0.2437E-01  0.1165E+00
     -2.550  0.2776E-01  0.1189E+00
     -2.465  0.3373E-01  0.1218E+00
     -2.380  0.3818E-01  0.1250E+00
     -2.295  0.3690E-01  0.1281E+00
     -2.210  0.2919E-01  0.1306E+00
     -2.125  0.1839E-01  0.1322E+00
     -2.040  0.8991E-02  0.1330E+00
     -1.955  0.3352E-02  0.1332E+00
     -1.870  0.1120E-02  0.1333E+00
     -1.785  0.1338E-02  0.1334E+00
     -1.700  0.4562E-02  0.1338E+00
     -1.615  0.1270E-01  0.1349E+00
     -1.529  0.2556E-01  0.1371E+00
     -1.444  0.3750E-01  0.1403E+00
     -1.359  0.4154E-01  0.1438E+00
     -1.274  0.3818E-01  0.1471E+00
     -1.189  0.3591E-01  0.1501E+00
     -1.104  0.4175E-01  0.1537E+00
     -1.019  0.5456E-01  0.1583E+00
     -0.934  0.6762E-01  0.1641E+00
     -0.849  0.7560E-01  0.1705E+00
     -0.764  0.7743E-01  0.1771E+00
     -0.679  0.7333E-01  0.1833E+00
     -0.594  0.6376E-01  0.1888E+00
     -0.508  0.5290E-01  0.1933E+00
     -0.423  0.4700E-01  0.1973E+00
     -0.338  0.4644E-01  0.2012E+00
     -0.253  0.4417E-01  0.2050E+00
     -0.168  0.3537E-01  0.2080E+00
     -0.083  0.2476E-01  0.2101E+00
      0.002  0.2056E-01  0.2118E+00
      0.087  0.2499E-01  0.2140E+00
      0.172  0.3309E-01  0.2168E+00
      0.257  0.3795E-01  0.2200E+00
      0.342  0.3579E-01  0.2230E+00
      0.428  0.2825E-01  0.2254E+00
      0.513  0.2036E-01  0.2272E+00
      0.598  0.1653E-01  0.2286E+00
      0.683  0.1847E-01  0.2302E+00
      0.768  0.2416E-01  0.2322E+00
      0.853  0.2799E-01  0.2346E+00
      0.938  0.2513E-01  0.2367E+00
      1.023  0.1712E-01  0.2382E+00
      1.108  0.1020E-01  0.2391E+00
      1.193  0.8766E-02  0.2398E+00
      1.278  0.1303E-01  0.2409E+00
      1.363  0.2198E-01  0.2428E+00
      1.449  0.3507E-01  0.2458E+00
      1.534  0.4953E-01  0.2500E+00
      1.619  0.5963E-01  0.2551E+00
      1.704  0.6277E-01  0.2604E+00
      1.789  0.6319E-01  0.2658E+00
      1.874  0.6556E-01  0.2714E+00
      1.959  0.6911E-01  0.2772E+00
      2.044  0.7106E-01  0.2833E+00
      2.129  0.7180E-01  0.2894E+00
      2.214  0.7279E-01  0.2956E+00
      2.299  0.7329E-01  0.3018E+00
      2.384  0.7178E-01  0.3079E+00
      2.470  0.6869E-01  0.3138E+00
      2.555  0.6649E-01  0.3194E+00
      2.640  0.6779E-01  0.3252E+00
      2.725  0.7401E-01  0.3315E+00
      2.810  0.8449E-01  0.3387E+00
      2.895  0.9468E-01  0.3467E+00
      2.980  0.9844E-01  0.3551E+00
      3.065  0.9540E-01  0.3632E+00
      3.150  0.9245E-01  0.3711E+00
      3.235  0.9417E-01  0.3791E+00
      3.320  0.9644E-01  0.3873E+00
      3.405  0.9339E-01  0.3953E+00
      3.491  0.8697E-01  0.4027E+00
      3.576  0.8576E-01  0.4100E+00
      3.661  0.9386E-01  0.4179E+00
      3.746  0.1033E+00  0.4267E+00
      3.831  0.1019E+00  0.4354E+00
      3.916  0.8831E-01  0.4429E+00
      4.001  0.7303E-01  0.4491E+00
      4.086  0.6759E-01  0.4549E+00
      4.171  0.7428E-01  0.4612E+00
      4.256  0.8526E-01  0.4684E+00
      4.341  0.9027E-01  0.4761E+00
      4.427  0.8530E-01  0.4834E+00
      4.512  0.7421E-01  0.4897E+00
      4.597  0.6380E-01  0.4951E+00
      4.682  0.5856E-01  0.5001E+00
      4.767  0.5815E-01  0.5051E+00
      4.852  0.5708E-01  0.5099E+00
      4.937  0.4980E-01  0.5142E+00
      5.022  0.3790E-01  0.5174E+00
      5.107  0.2854E-01  0.5198E+00
      5.192  0.2597E-01  0.5220E+00
      5.277  0.2739E-01  0.5243E+00
      5.362  0.2707E-01  0.5266E+00
      5.448  0.2276E-01  0.5286E+00
      5.533  0.1699E-01  0.5300E+00
      5.618  0.1265E-01  0.5311E+00
      5.703  0.9915E-02  0.5320E+00
      5.788  0.7510E-02  0.5326E+00
      5.873  0.4880E-02  0.5330E+00
      5.958  0.2518E-02  0.5332E+00
      6.043  0.9899E-03  0.5333E+00
      6.128  0.3034E-03  0.5333E+00
      6.213  0.1725E-03  0.5333E+00
      6.298  0.5570E-03  0.5334E+00
      6.383  0.1912E-02  0.5336E+00
      6.469  0.4790E-02  0.5340E+00
      6.554  0.8809E-02  0.5347E+00
      6.639  0.1243E-01  0.5358E+00
      6.724  0.1479E-01  0.5370E+00
      6.809  0.1733E-01  0.5385E+00
      6.894  0.2215E-01  0.5404E+00
      6.979  0.2868E-01  0.5428E+00
      7.064  0.3371E-01  0.5457E+00
      7.149  0.3589E-01  0.5487E+00
      7.234  0.3812E-01  0.5520E+00
      7.319  0.4265E-01  0.5556E+00
      7.404  0.4680E-01  0.5596E+00
      7.490  0.4764E-01  0.5637E+00
      7.575  0.4729E-01  0.5677E+00
      7.660  0.5020E-01  0.5719E+00
      7.745  0.5815E-01  0.5769E+00
      7.830  0.6991E-01  0.5828E+00
      7.915  0.8362E-01  0.5900E+00
      8.000  0.9712E-01  0.5982E+00
      8.085  0.1060E+00  0.6072E+00
      8.170  0.1062E+00  0.6163E+00
      8.255  0.9922E-01  0.6247E+00
      8.340  0.9130E-01  0.6325E+00
      8.426  0.8734E-01  0.6399E+00
      8.511  0.8722E-01  0.6473E+00
      8.596  0.8640E-01  0.6547E+00
      8.681  0.8092E-01  0.6616E+00
      8.766  0.7313E-01  0.6678E+00
      8.851  0.6957E-01  0.6737E+00
      8.936  0.7481E-01  0.6801E+00
      9.021  0.9062E-01  0.6878E+00
      9.106  0.1140E+00  0.6975E+00
      9.191  0.1337E+00  0.7089E+00
      9.276  0.1375E+00  0.7206E+00
      9.361  0.1252E+00  0.7312E+00
      9.447  0.1082E+00  0.7404E+00
      9.532  0.9849E-01  0.7488E+00
      9.617  0.9897E-01  0.7572E+00
      9.702  0.1034E+00  0.7660E+00
      9.787  0.1043E+00  0.7749E+00
      9.872  0.9917E-01  0.7833E+00
      9.957  0.9137E-01  0.7911E+00
     10.042  0.8624E-01  0.7984E+00
     10.127  0.8507E-01  0.8057E+00
     10.212  0.8423E-01  0.8128E+00
     10.297  0.8133E-01  0.8198E+00
     10.382  0.7811E-01  0.8264E+00
     10.468  0.7706E-01  0.8330E+00
     10.553  0.7881E-01  0.8397E+00
     10.638  0.8266E-01  0.8467E+00
     10.723  0.8797E-01  0.8542E+00
     10.808  0.9408E-01  0.8622E+00
     10.893  0.9814E-01  0.8705E+00
     10.978  0.9548E-01  0.8787E+00
     11.063  0.8479E-01  0.8859E+00
     11.148  0.7079E-01  0.8919E+00
     11.233  0.5998E-01  0.8970E+00
     11.318  0.5484E-01  0.9017E+00
     11.403  0.5412E-01  0.9063E+00
     11.489  0.5796E-01  0.9112E+00
     11.574  0.6818E-01  0.9170E+00
     11.659  0.8284E-01  0.9241E+00
     11.744  0.9542E-01  0.9322E+00
     11.829  0.1006E+00  0.9407E+00
     11.914  0.9668E-01  0.9490E+00
     11.999  0.8413E-01  0.9561E+00
     12.084  0.6617E-01  0.9618E+00
     12.169  0.5026E-01  0.9660E+00
     12.254  0.4330E-01  0.9697E+00
     12.339  0.4516E-01  0.9736E+00
     12.424  0.4864E-01  0.9777E+00
     12.510  0.4697E-01  0.9817E+00
     12.595  0.4075E-01  0.9852E+00
     12.680  0.3696E-01  0.9883E+00
     12.765  0.4239E-01  0.9919E+00
     12.850  0.5803E-01  0.9968E+00
     12.935  0.7672E-01  0.1003E+01
     13.020  0.8671E-01  0.1011E+01
     13.105  0.8071E-01  0.1018E+01
     13.190  0.6174E-01  0.1023E+01
     13.275  0.4029E-01  0.1026E+01
     13.360  0.2681E-01  0.1029E+01
     13.446  0.2478E-01  0.1031E+01
     13.531  0.2932E-01  0.1033E+01
     13.616  0.3286E-01  0.1036E+01
     13.701  0.3197E-01  0.1039E+01
     13.786  0.2844E-01  0.1041E+01
     13.871  0.2556E-01  0.1043E+01
     13.956  0.2515E-01  0.1045E+01
     14.041  0.2726E-01  0.1048E+01
     14.126  0.3106E-01  0.1050E+01
     14.211  0.3443E-01  0.1053E+01
     14.296  0.3346E-01  0.1056E+01
     14.381  0.2594E-01  0.1058E+01
     14.467  0.1510E-01  0.1060E+01
     14.552  0.6399E-02  0.1060E+01
     14.637  0.1997E-02  0.1060E+01
     14.722  0.7464E-03  0.1060E+01
     14.807  0.1324E-02  0.1061E+01
     14.892  0.3403E-02  0.1061E+01
     14.977  0.6468E-02  0.1061E+01
     15.062  0.8832E-02  0.1062E+01
     15.147  0.9109E-02  0.1063E+01
     15.232  0.8251E-02  0.1064E+01
     15.317  0.8187E-02  0.1064E+01
     15.402  0.8790E-02  0.1065E+01
     15.488  0.8231E-02  0.1066E+01
     15.573  0.5891E-02  0.1066E+01
     15.658  0.3086E-02  0.1067E+01
     15.743  0.1168E-02  0.1067E+01
     15.828  0.3175E-03  0.1067E+01
     15.913  0.6172E-04  0.1067E+01
     15.998  0.8543E-05  0.1067E+01
     16.083  0.8392E-06  0.1067E+01
     16.168  0.5833E-07  0.1067E+01
     16.253  0.2861E-08  0.1067E+01
     16.338  0.9882E-10  0.1067E+01
     16.423  0.2400E-11  0.1067E+01
     16.509  0.4090E-13  0.1067E+01
     16.594  0.4873E-15  0.1067E+01
     16.679  0.4078E-17  0.1067E+01
     16.764  0.0000E+00  0.1067E+01
     16.849  0.0000E+00  0.1067E+01
     16.934  0.0000E+00  0.1067E+01
     17.019  0.0000E+00  0.1067E+01
     17.104  0.0000E+00  0.1067E+01
     17.189  0.0000E+00  0.1067E+01
     17.274  0.0000E+00  0.1067E+01
     17.359  0.0000E+00  0.1067E+01
     17.445  0.0000E+00  0.1067E+01
