unknown system                          
   1.00000000000000     
     0.000000    2.745935    2.745935
     2.745935    0.000000    2.745935
     2.745935    2.745935   -0.000000
   Si
     2
Direct
  0.500000  0.500000  0.500000
  0.750000  0.750000  0.750000
 
   32   32   32
 0.88298     0.90341     0.96656      1.0776      1.2439      1.4745      1.7786      2.1645      2.6375      3.1960    
  3.8268      4.5017      5.1764      5.7944      6.2944      6.6206      6.7340      6.6205      6.2943      5.7944    
  5.1765      4.5018      3.8269      3.1960      2.6375      2.1645      1.7786      1.4745      1.2439      1.0776    
 0.96657     0.90342     0.90341     0.93840      1.0115      1.1281      1.2952      1.5199      1.8084      2.1654    
  2.5912      3.0793      3.6132      4.1641      4.6916      5.1479      5.4853      5.6649      5.6649      5.4853    
  5.1478      4.6915      4.1641      3.6133      3.0794      2.5912      2.1654      1.8084      1.5199      1.2952    
  1.1281      1.0115     0.93840     0.90342     0.96656      1.0115      1.0905      1.2089      1.3725      1.5863    
  1.8540      2.1768      2.5516      2.9687      3.4100      3.8480      4.2475      4.5700      4.7801      4.8531    
  4.7801      4.5700      4.2476      3.8480      3.4100      2.9686      2.5515      2.1768      1.8540      1.5863    
  1.3725      1.2090      1.0905      1.0115     0.96656     0.95204      1.0776      1.1281      1.2089      1.3246    
  1.4795      1.6770      1.9186      2.2031      2.5249      2.8728      3.2285      3.5671      3.8589      4.0743    
  4.1889      4.1888      4.0743      3.8589      3.5671      3.2285      2.8728      2.5248      2.2030      1.9186    
  1.6770      1.4795      1.3246      1.2089      1.1281      1.0776      1.0534      1.0534      1.2439      1.2952    
  1.3725      1.4795      1.6196      1.7947      2.0049      2.2474      2.5155      2.7971      3.0750      3.3273    
  3.5304      3.6625      3.7084      3.6625      3.5304      3.3273      3.0749      2.7970      2.5154      2.2474    
  2.0049      1.7947      1.6196      1.4796      1.3725      1.2952      1.2439      1.2150      1.2056      1.2150    
  1.4745      1.5199      1.5863      1.6770      1.7947      1.9406      2.1140      2.3112      2.5249      2.7431    
  2.9504      3.1286      3.2599      3.3297      3.3297      3.2600      3.1287      2.9504      2.7431      2.5248    
  2.3112      2.1140      1.9406      1.7947      1.6770      1.5863      1.5199      1.4745      1.4468      1.4338    
  1.4338      1.4468      1.7786      1.8084      1.8540      1.9186      2.0049      2.1140      2.2448      2.3932    
  2.5516      2.7091      2.8525      2.9680      3.0432      3.0693      3.0432      2.9680      2.8525      2.7091    
  2.5516      2.3932      2.2448      2.1140      2.0049      1.9186      1.8540      1.8084      1.7786      1.7608    
  1.7518      1.7490      1.7518      1.7608      2.1645      2.1654      2.1768      2.2031      2.2474      2.3112    
  2.3932      2.4889      2.5912      2.6908      2.7776      2.8420      2.8763      2.8763      2.8420      2.7776    
  2.6908      2.5912      2.4889      2.3932      2.3112      2.2474      2.2030      2.1768      2.1654      2.1645    
  2.1694      2.1757      2.1799      2.1799      2.1757      2.1694      2.6375      2.5912      2.5516      2.5249    
  2.5155      2.5249      2.5516      2.5912      2.6375      2.6835      2.7223      2.7481      2.7572      2.7482    
  2.7223      2.6835      2.6375      2.5912      2.5515      2.5248      2.5154      2.5248      2.5515      2.5911    
  2.6375      2.6835      2.7223      2.7482      2.7572      2.7481      2.7223      2.6835      3.1960      3.0793    
  2.9687      2.8728      2.7971      2.7431      2.7091      2.6908      2.6835      2.6825      2.6840      2.6854    
  2.6855      2.6840      2.6825      2.6835      2.6908      2.7090      2.7430      2.7970      2.8727      2.9687    
  3.0794      3.1960      3.3078      3.4037      3.4738      3.5107      3.5107      3.4737      3.4037      3.3078    
  3.8268      3.6132      3.4100      3.2285      3.0750      2.9504      2.8525      2.7776      2.7223      2.6840    
  2.6614      2.6540      2.6615      2.6840      2.7223      2.7776      2.8525      2.9504      3.0749      3.2285    
  3.4100      3.6133      3.8269      4.0350      4.2203      4.3662      4.4595      4.4916      4.4596      4.3662    
  4.2203      4.0350      4.5017      4.1641      3.8480      3.5671      3.3273      3.1286      2.9680      2.8420    
  2.7481      2.6854      2.6540      2.6540      2.6855      2.7481      2.8420      2.9680      3.1286      3.3273    
  3.5671      3.8480      4.1641      4.5017      4.8398      5.1529      5.4151      5.6038      5.7024      5.7024    
  5.6038      5.4151      5.1529      4.8398      5.1764      4.6916      4.2475      3.8589      3.5304      3.2599    
  3.0432      2.8763      2.7572      2.6855      2.6615      2.6855      2.7572      2.8763      3.0431      3.2599    
  3.5303      3.8589      4.2475      4.6916      5.1765      5.6765      6.1576      6.5821      6.9145      7.1262    
  7.1989      7.1262      6.9146      6.5822      6.1577      5.6765      5.7944      5.1479      4.5700      4.0743    
  3.6625      3.3297      3.0693      2.8763      2.7482      2.6840      2.6840      2.7481      2.8763      3.0692    
  3.3296      3.6625      4.0743      4.5700      5.1479      5.7945      6.4813      7.1665      7.7996      8.3293    
  8.7107      8.9102      8.9102      8.7107      8.3294      7.7996      7.1665      6.4813      6.2944      5.4853    
  4.7801      4.1889      3.7084      3.3297      3.0432      2.8420      2.7223      2.6825      2.7223      2.8420    
  3.0431      3.3296      3.7084      4.1888      4.7801      5.4853      6.2944      7.1793      8.0930      8.9739    
  9.7540      10.368      10.760      10.895      10.760      10.368      9.7540      8.9739      8.0930      7.1793    
  6.6206      5.6649      4.8531      4.1888      3.6625      3.2600      2.9680      2.7776      2.6835      2.6835    
  2.7776      2.9680      3.2599      3.6625      4.1888      4.8532      5.6649      6.6206      7.6962      8.8441    
  9.9958      11.069      11.976      12.636      12.983      12.983      12.635      11.976      11.069      9.9959    
  8.8442      7.6962      6.7340      5.6649      4.7801      4.0743      3.5304      3.1287      2.8525      2.6908    
  2.6375      2.6908      2.8525      3.1286      3.5303      4.0743      4.7801      5.6649      6.7340      7.9716    
  9.3352      10.755      12.142      13.389      14.387      15.035      15.259      15.035      14.387      13.389    
  12.142      10.755      9.3352      7.9716      6.6205      5.4853      4.5700      3.8589      3.3273      2.9504    
  2.7091      2.5912      2.5912      2.7090      2.9504      3.3273      3.8589      4.5700      5.4853      6.6206    
  7.9716      9.5060      11.161      12.847      14.450      15.835      16.852      17.390      17.390      16.852    
  15.834      14.450      12.847      11.161      9.5061      7.9716      6.2943      5.1478      4.2476      3.5671    
  3.0749      2.7431      2.5516      2.4889      2.5515      2.7430      3.0749      3.5671      4.2475      5.1479    
  6.2944      7.6962      9.3352      11.161      13.094      15.021      16.791      18.214      19.134      19.453    
  19.134      18.214      16.791      15.021      13.094      11.161      9.3352      7.6962      5.7944      4.6915    
  3.8480      3.2285      2.7970      2.5248      2.3932      2.3932      2.5248      2.7970      3.2285      3.8480    
  4.6916      5.7945      7.1793      8.8441      10.755      12.847      15.021      17.126      18.944      20.282    
  20.991      20.991      20.282      18.944      17.126      15.021      12.847      10.755      8.8441      7.1793    
  5.1765      4.1641      3.4100      2.8728      2.5154      2.3112      2.2448      2.3112      2.5154      2.8727    
  3.4100      4.1641      5.1765      6.4813      8.0930      9.9958      12.142      14.450      16.791      18.944    
  20.682      21.816      22.210      21.816      20.682      18.944      16.791      14.450      12.142      9.9958    
  8.0930      6.4814      4.5018      3.6133      2.9686      2.5248      2.2474      2.1140      2.1140      2.2474    
  2.5248      2.9687      3.6133      4.5017      5.6765      7.1665      8.9739      11.069      13.389      15.835    
  18.214      20.282      21.816      22.635      22.635      21.816      20.282      18.214      15.834      13.389    
  11.069      8.9739      7.1665      5.6766      3.8269      3.0794      2.5515      2.2030      2.0049      1.9406    
  2.0049      2.2030      2.5515      3.0794      3.8269      4.8398      6.1576      7.7996      9.7540      11.976    
  14.387      16.852      19.134      20.991      22.210      22.635      22.210      20.991      19.134      16.852    
  14.387      11.976      9.7540      7.7996      6.1577      4.8398      3.1960      2.5912      2.1768      1.9186    
  1.7947      1.7947      1.9186      2.1768      2.5911      3.1960      4.0350      5.1529      6.5821      8.3293    
  10.368      12.636      15.035      17.390      19.453      20.991      21.816      21.816      20.991      19.453    
  17.390      15.035      12.636      10.368      8.3294      6.5822      5.1530      4.0350      2.6375      2.1654    
  1.8540      1.6770      1.6196      1.6770      1.8540      2.1654      2.6375      3.3078      4.2203      5.4151    
  6.9145      8.7107      10.760      12.983      15.259      17.390      19.134      20.282      20.682      20.282    
  19.134      17.390      15.259      12.983      10.760      8.7107      6.9146      5.4152      4.2204      3.3079    
  2.1645      1.8084      1.5863      1.4795      1.4796      1.5863      1.8084      2.1645      2.6835      3.4037    
  4.3662      5.6038      7.1262      8.9102      10.895      12.983      15.035      16.852      18.214      18.944    
  18.944      18.214      16.852      15.035      12.983      10.895      8.9102      7.1263      5.6039      4.3663    
  3.4037      2.6835      1.7786      1.5199      1.3725      1.3246      1.3725      1.5199      1.7786      2.1694    
  2.7223      3.4738      4.4595      5.7024      7.1989      8.9102      10.760      12.635      14.387      15.834    
  16.791      17.126      16.791      15.834      14.387      12.636      10.760      8.9102      7.1989      5.7025    
  4.4596      3.4738      2.7223      2.1694      1.4745      1.2952      1.2090      1.2089      1.2952      1.4745    
  1.7608      2.1757      2.7482      3.5107      4.4916      5.7024      7.1262      8.7107      10.368      11.976    
  13.389      14.450      15.021      15.021      14.450      13.389      11.976      10.368      8.7107      7.1263    
  5.7025      4.4917      3.5108      2.7482      2.1757      1.7608      1.2439      1.1281      1.0905      1.1281    
  1.2439      1.4468      1.7518      2.1799      2.7572      3.5107      4.4596      5.6038      6.9146      8.3294    
  9.7540      11.069      12.142      12.847      13.094      12.847      12.142      11.069      9.7540      8.3294    
  6.9146      5.6039      4.4596      3.5108      2.7572      2.1798      1.7517      1.4468      1.0776      1.0115    
  1.0115      1.0776      1.2150      1.4338      1.7490      2.1799      2.7481      3.4737      4.3662      5.4151    
  6.5822      7.7996      8.9739      9.9959      10.755      11.161      11.161      10.755      9.9958      8.9739    
  7.7996      6.5822      5.4152      4.3663      3.4738      2.7482      2.1798      1.7490      1.4338      1.2149    
 0.96657     0.93840     0.96656      1.0534      1.2056      1.4338      1.7518      2.1757      2.7223      3.4037    
  4.2203      5.1529      6.1577      7.1665      8.0930      8.8442      9.3352      9.5061      9.3352      8.8441    
  8.0930      7.1665      6.1577      5.1530      4.2204      3.4037      2.7223      2.1757      1.7517      1.4338    
  1.2056      1.0534     0.90342     0.90342     0.95204      1.0534      1.2150      1.4468      1.7608      2.1694    
  2.6835      3.3078      4.0350      4.8398      5.6765      6.4813      7.1793      7.6962      7.9716      7.9716    
  7.6962      7.1793      6.4814      5.6766      4.8398      4.0350      3.3079      2.6835      2.1694      1.7608    
  1.4468      1.2149      1.0534     0.95205     0.90342     0.93840      1.0115      1.1281      1.2952      1.5199    
  1.8085      2.1654      2.5912      3.0793      3.6132      4.1641      4.6916      5.1479      5.4853      5.6649    
  5.6649      5.4853      5.1478      4.6915      4.1641      3.6133      3.0794      2.5912      2.1654      1.8084    
  1.5198      1.2952      1.1281      1.0115     0.93840     0.90342     0.93840     0.98182      1.0585      1.1737    
  1.3332      1.5423      1.8047      2.1213      2.4889      2.8979      3.3303      3.7590      4.1495      4.4644    
  4.6695      4.7408      4.6695      4.4644      4.1495      3.7590      3.3303      2.8979      2.4889      2.1212    
  1.8046      1.5423      1.3332      1.1737      1.0585     0.98182     0.93841     0.92440      1.0115      1.0585    
  1.1341      1.2434      1.3907      1.5795      1.8111      2.0842      2.3932      2.7269      3.0677      3.3915    
  3.6702      3.8756      3.9847      3.9847      3.8756      3.6702      3.3915      3.0677      2.7269      2.3932    
  2.0842      1.8111      1.5795      1.3907      1.2434      1.1342      1.0585      1.0115     0.98913     0.98913    
  1.1281      1.1737      1.2434      1.3414      1.4712      1.6348      1.8319      2.0596      2.3112      2.5754    
  2.8358      3.0721      3.2620      3.3854      3.4282      3.3854      3.2619      3.0721      2.8359      2.5754    
  2.3112      2.0596      1.8319      1.6348      1.4713      1.3414      1.2434      1.1737      1.1281      1.1028    
  1.0947      1.1028      1.2952      1.3332      1.3907      1.4712      1.5775      1.7107      1.8697      2.0510    
  2.2474      2.4483      2.6391      2.8033      2.9243      2.9886      2.9886      2.9243      2.8033      2.6391    
  2.4482      2.2474      2.0509      1.8697      1.7107      1.5776      1.4713      1.3907      1.3332      1.2952    
  1.2728      1.2625      1.2625      1.2728      1.5199      1.5423      1.5795      1.6348      1.7107      1.8081    
  1.9257      2.0596      2.2031      2.3463      2.4773      2.5831      2.6522      2.6762      2.6522      2.5832    
  2.4773      2.3463      2.2030      2.0596      1.9257      1.8081      1.7107      1.6348      1.5795      1.5423    
  1.5199      1.5079      1.5027      1.5013      1.5027      1.5080      1.8085      1.8047      1.8111      1.8319    
  1.8697      1.9257      1.9984      2.0842      2.1768      2.2679      2.3480      2.4079      2.4400      2.4400    
  2.4079      2.3480      2.2679      2.1768      2.0842      1.9984      1.9257      1.8697      1.8319      1.8111    
  1.8047      1.8084      1.8175      1.8271      1.8331      1.8331      1.8271      1.8176      2.1654      2.1213    
  2.0842      2.0596      2.0510      2.0596      2.0842      2.1213      2.1654      2.2100      2.2483      2.2742    
  2.2834      2.2742      2.2483      2.2100      2.1654      2.1213      2.0842      2.0596      2.0509      2.0596    
  2.0842      2.1213      2.1654      2.2100      2.2483      2.2742      2.2834      2.2742      2.2483      2.2100    
  2.5912      2.4889      2.3932      2.3112      2.2474      2.2031      2.1768      2.1654      2.1645      2.1694    
  2.1757      2.1799      2.1799      2.1757      2.1694      2.1645      2.1654      2.1768      2.2030      2.2474    
  2.3112      2.3932      2.4889      2.5912      2.6908      2.7776      2.8420      2.8763      2.8763      2.8420    
  2.7776      2.6908      3.0793      2.8979      2.7269      2.5754      2.4483      2.3463      2.2679      2.2100    
  2.1694      2.1430      2.1283      2.1236      2.1283      2.1430      2.1694      2.2100      2.2678      2.3462    
  2.4482      2.5754      2.7270      2.8980      3.0794      3.2585      3.4204      3.5498      3.6335      3.6624    
  3.6334      3.5498      3.4204      3.2585      3.6132      3.3303      3.0677      2.8358      2.6391      2.4773    
  2.3480      2.2483      2.1757      2.1283      2.1048      2.1048      2.1283      2.1757      2.2483      2.3479    
  2.4771      2.6389      2.8358      3.0678      3.3305      3.6134      3.9002      4.1699      4.3995      4.5669    
  4.6553      4.6553      4.5669      4.3994      4.1699      3.9002      4.1641      3.7590      3.3915      3.0721    
  2.8033      2.5831      2.4079      2.2742      2.1799      2.1236      2.1048      2.1236      2.1799      2.2742    
  2.4078      2.5829      2.8031      3.0721      3.3917      3.7592      4.1642      4.5875      5.0014      5.3731    
  5.6690      5.8598      5.9258      5.8598      5.6690      5.3731      5.0014      4.5875      4.6916      4.1495    
  3.6702      3.2620      2.9243      2.6522      2.4400      2.2834      2.1799      2.1283      2.1283      2.1799    
  2.2834      2.4398      2.6519      2.9240      3.2619      3.6705      4.1499      4.6917      5.2756      5.8683    
  6.4268      6.9028      7.2508      7.4347      7.4348      7.2508      6.9029      6.4268      5.8684      5.2756    
  5.1479      4.4644      3.8756      3.3854      2.9886      2.6762      2.4400      2.2742      2.1757      2.1430    
  2.1757      2.2742      2.4398      2.6759      2.9883      3.3854      3.8759      4.4648      5.1481      5.9068    
  6.7049      7.4899      8.1989      8.7659      9.1331      9.2603      9.1331      8.7659      8.1989      7.4900    
  6.7050      5.9068      5.4853      4.6695      3.9847      3.4282      2.9886      2.6522      2.4079      2.2483    
  2.1694      2.1694      2.2483      2.4078      2.6519      2.9883      3.4282      3.9850      4.6699      5.4855    
  6.4181      7.4325      8.4712      9.4575      10.305      10.929      11.260      11.260      10.928      10.305    
  9.4575      8.4712      7.4327      6.4181      5.6649      4.7408      3.9847      3.3854      2.9243      2.5832    
  2.3480      2.2100      2.1645      2.2100      2.3479      2.5829      2.9240      3.3854      3.9850      4.7412    
  5.6651      6.7520      7.9727      9.2698      10.559      11.736      12.687      13.308      13.524      13.308    
  12.687      11.736      10.559      9.2700      7.9729      6.7520      5.6649      4.6695      3.8756      3.2619    
  2.8033      2.4773      2.2679      2.1654      2.1654      2.2678      2.4771      2.8031      3.2619      3.8759    
  4.6699      5.6651      6.8682      8.2610      9.7934      11.381      12.910      14.242      15.235      15.767    
  15.767      15.235      14.242      12.910      11.381      9.7935      8.2611      6.8682      5.4853      4.4644    
  3.6702      3.0721      2.6391      2.3463      2.1768      2.1213      2.1768      2.3462      2.6389      3.0721    
  3.6705      4.4648      5.4855      6.7520      8.2610      9.9760      11.822      13.685      15.414      16.835    
  17.776      18.105      17.776      16.835      15.414      13.685      11.822      9.9760      8.2612      6.7521    
  5.1478      4.1495      3.3915      2.8359      2.4482      2.2030      2.0842      2.0842      2.2030      2.4482    
  2.8358      3.3917      4.1499      5.1481      6.4181      7.9727      9.7934      11.822      13.956      16.046    
  17.902      19.305      20.062      20.062      19.305      17.902      16.047      13.956      11.822      9.7935    
  7.9729      6.4181      4.6915      3.7590      3.0677      2.5754      2.2474      2.0596      1.9984      2.0596    
  2.2474      2.5754      3.0678      3.7592      4.6917      5.9068      7.4325      9.2698      11.381      13.685    
  16.046      18.277      20.134      21.368      21.802      21.369      20.134      18.277      16.047      13.685    
  11.381      9.2699      7.4327      5.9068      4.1641      3.3303      2.7269      2.3112      2.0509      1.9257    
  1.9257      2.0509      2.3112      2.7270      3.3305      4.1642      5.2756      6.7049      8.4712      10.559    
  12.910      15.414      17.902      20.134      21.828      22.744      22.744      21.828      20.134      17.902    
  15.414      12.910      10.559      8.4712      6.7049      5.2755      3.6133      2.8979      2.3932      2.0596    
  1.8697      1.8081      1.8697      2.0596      2.3932      2.8980      3.6134      4.5875      5.8683      7.4899    
  9.4575      11.736      14.242      16.835      19.305      21.368      22.744      23.228      22.744      21.369    
  19.305      16.835      14.242      11.736      9.4576      7.4899      5.8683      4.5874      3.0794      2.4889    
  2.0842      1.8319      1.7107      1.7107      1.8319      2.0842      2.4889      3.0794      3.9002      5.0014    
  6.4268      8.1989      10.305      12.687      15.235      17.776      20.062      21.802      22.744      22.744    
  21.802      20.062      17.776      15.235      12.687      10.305      8.1988      6.4266      5.0013      3.9002    
  2.5912      2.1212      1.8111      1.6348      1.5776      1.6348      1.8111      2.1213      2.5912      3.2585    
  4.1699      5.3731      6.9028      8.7659      10.929      13.308      15.767      18.105      20.062      21.369    
  21.828      21.369      20.062      18.105      15.767      13.309      10.929      8.7658      6.9026      5.3729    
  4.1700      3.2586      2.1654      1.8046      1.5795      1.4713      1.4713      1.5795      1.8047      2.1654    
  2.6908      3.4204      4.3995      5.6690      7.2508      9.1331      11.260      13.524      15.767      17.776    
  19.305      20.134      20.134      19.305      17.776      15.767      13.525      11.260      9.1330      7.2506    
  5.6688      4.3995      3.4205      2.6909      1.8084      1.5423      1.3907      1.3414      1.3907      1.5423    
  1.8084      2.2100      2.7776      3.5498      4.5669      5.8598      7.4347      9.2603      11.260      13.308    
  15.235      16.835      17.902      18.277      17.902      16.835      15.235      13.309      11.260      9.2602    
  7.4345      5.8597      4.5670      3.5499      2.7777      2.2100      1.5198      1.3332      1.2434      1.2434    
  1.3332      1.5199      1.8175      2.2483      2.8420      3.6335      4.6553      5.9258      7.4348      9.1331    
  10.928      12.687      14.242      15.414      16.047      16.047      15.414      14.242      12.687      10.929    
  9.1330      7.4345      5.9256      4.6553      3.6336      2.8421      2.2483      1.8175      1.2952      1.1737    
  1.1342      1.1737      1.2952      1.5079      1.8271      2.2742      2.8763      3.6624      4.6553      5.8598    
  7.2508      8.7659      10.305      11.736      12.910      13.685      13.956      13.685      12.910      11.736    
  10.305      8.7658      7.2506      5.8597      4.6553      3.6626      2.8764      2.2742      1.8271      1.5079    
  1.1281      1.0585      1.0585      1.1281      1.2728      1.5027      1.8331      2.2834      2.8763      3.6334    
  4.5669      5.6690      6.9029      8.1989      9.4575      10.559      11.381      11.822      11.822      11.381    
  10.559      9.4576      8.1988      6.9026      5.6688      4.5670      3.6336      2.8764      2.2834      1.8330    
  1.5027      1.2728      1.0115     0.98182      1.0115      1.1028      1.2625      1.5013      1.8331      2.2742    
  2.8420      3.5498      4.3994      5.3731      6.4268      7.4900      8.4712      9.2700      9.7935      9.9760    
  9.7935      9.2699      8.4712      7.4899      6.4266      5.3729      4.3995      3.5499      2.8421      2.2742    
  1.8330      1.5013      1.2625      1.1028     0.93840     0.93841     0.98913      1.0947      1.2625      1.5027    
  1.8271      2.2483      2.7776      3.4204      4.1699      5.0014      5.8684      6.7050      7.4327      7.9729    
  8.2611      8.2612      7.9729      7.4327      6.7049      5.8683      5.0013      4.1700      3.4205      2.7777    
  2.2483      1.8271      1.5027      1.2625      1.0947     0.98913     0.90342     0.92440     0.98913      1.1028    
  1.2728      1.5080      1.8176      2.2100      2.6908      3.2585      3.9002      4.5875      5.2756      5.9068    
  6.4181      6.7520      6.8682      6.7521      6.4181      5.9068      5.2755      4.5874      3.9002      3.2586    
  2.6909      2.2100      1.8175      1.5079      1.2728      1.1028     0.98913     0.92437     0.96657      1.0115    
  1.0905      1.2089      1.3725      1.5863      1.8540      2.1768      2.5516      2.9687      3.4100      3.8480    
  4.2475      4.5700      4.7801      4.8531      4.7801      4.5700      4.2476      3.8480      3.4100      2.9686    
  2.5515      2.1768      1.8540      1.5862      1.3725      1.2090      1.0905      1.0115     0.96656     0.95205    
  1.0115      1.0585      1.1341      1.2434      1.3907      1.5795      1.8111      2.0842      2.3932      2.7269    
  3.0677      3.3915      3.6702      3.8756      3.9847      3.9847      3.8756      3.6702      3.3915      3.0677    
  2.7269      2.3931      2.0842      1.8111      1.5795      1.3907      1.2434      1.1342      1.0585      1.0115    
 0.98913     0.98913      1.0905      1.1341      1.2014      1.2965      1.4229      1.5826      1.7755      1.9984    
  2.2448      2.5034      2.7581      2.9890      3.1746      3.2952      3.3370      3.2952      3.1746      2.9890    
  2.7581      2.5034      2.2448      1.9984      1.7755      1.5826      1.4229      1.2965      1.2014      1.1341    
  1.0905      1.0663      1.0586      1.0663      1.2089      1.2434      1.2965      1.3721      1.4728      1.5998    
  1.7520      1.9257      2.1140      2.3065      2.4894      2.6468      2.7627      2.8243      2.8243      2.7627    
  2.6468      2.4894      2.3065      2.1140      1.9257      1.7520      1.5998      1.4728      1.3721      1.2965    
  1.2434      1.2089      1.1890      1.1801      1.1801      1.1890      1.3725      1.3907      1.4229      1.4728    
  1.5428      1.6336      1.7438      1.8697      2.0049      2.1401      2.2639      2.3642      2.4296      2.4523    
  2.4296      2.3641      2.2639      2.1401      2.0049      1.8697      1.7438      1.6336      1.5428      1.4728    
  1.4229      1.3907      1.3725      1.3639      1.3609      1.3602      1.3609      1.3639      1.5863      1.5795    
  1.5826      1.5998      1.6336      1.6847      1.7520      1.8319      1.9186      2.0045      2.0803      2.1372    
  2.1678      2.1678      2.1373      2.0803      2.0044      1.9186      1.8319      1.7520      1.6847      1.6336    
  1.5998      1.5826      1.5795      1.5863      1.5980      1.6096      1.6167      1.6167      1.6096      1.5980    
  1.8540      1.8111      1.7755      1.7520      1.7438      1.7520      1.7755      1.8111      1.8540      1.8978    
  1.9357      1.9615      1.9706      1.9615      1.9357      1.8978      1.8540      1.8111      1.7755      1.7520    
  1.7438      1.7520      1.7755      1.8111      1.8540      1.8978      1.9358      1.9615      1.9706      1.9615    
  1.9357      1.8978      2.1768      2.0842      1.9984      1.9257      1.8697      1.8319      1.8111      1.8047    
  1.8085      1.8176      1.8271      1.8331      1.8331      1.8271      1.8175      1.8084      1.8047      1.8111    
  1.8319      1.8697      1.9257      1.9984      2.0842      2.1768      2.2679      2.3480      2.4079      2.4400    
  2.4400      2.4079      2.3480      2.2679      2.5516      2.3932      2.2448      2.1140      2.0049      1.9186    
  1.8540      1.8085      1.7786      1.7608      1.7518      1.7490      1.7518      1.7608      1.7786      1.8084    
  1.8540      1.9186      2.0049      2.1140      2.2448      2.3932      2.5516      2.7091      2.8525      2.9680    
  3.0432      3.0693      3.0432      2.9680      2.8525      2.7091      2.9687      2.7269      2.5034      2.3065    
  2.1401      2.0045      1.8978      1.8176      1.7608      1.7249      1.7075      1.7075      1.7249      1.7608    
  1.8175      1.8978      2.0044      2.1401      2.3065      2.5034      2.7269      2.9687      3.2152      3.4486    
  3.6487      3.7957      3.8737      3.8737      3.7957      3.6487      3.4486      3.2151      3.4100      3.0677    
  2.7581      2.4894      2.2639      2.0803      1.9357      1.8271      1.7518      1.7075      1.6929      1.7075    
  1.7517      1.8271      1.9357      2.0803      2.2640      2.4895      2.7582      3.0677      3.4100      3.7695    
  4.1237      4.4444      4.7018      4.8688      4.9268      4.8688      4.7017      4.4444      4.1237      3.7695    
  3.8480      3.3915      2.9890      2.6468      2.3642      2.1372      1.9615      1.8331      1.7490      1.7075    
  1.7075      1.7490      1.8330      1.9615      2.1372      2.3642      2.6468      2.9891      3.3916      3.8480    
  4.3428      4.8490      5.3304      5.7448      6.0502      6.2124      6.2124      6.0501      5.7448      5.3305    
  4.8490      4.3427      4.2475      3.6702      3.1746      2.7627      2.4296      2.1678      1.9706      1.8331    
  1.7518      1.7249      1.7517      1.8330      1.9706      2.1678      2.4296      2.7628      3.1747      3.6703    