unknown system                          
   1.00000000000000     
     0.000000    2.733641    2.733641
     2.733641    0.000000    2.733641
     2.733641    2.733641   -0.000000
   Si
     2
Direct
  0.500000  0.500000  0.500000
  0.750000  0.750000  0.750000
 
   32   32   32
 0.85787740177E+00 0.87795268422E+00 0.94003594728E+00 0.10493000834E+01 0.12132910904E+01
 0.14408787648E+01 0.17413190250E+01 0.21230631526E+01 0.25915277314E+01 0.31453502821E+01
 0.37717503934E+01 0.44427714910E+01 0.51144744525E+01 0.57303632833E+01 0.62290067199E+01
 0.65545538299E+01 0.66677685520E+01 0.65545195598E+01 0.62289682105E+01 0.57303447785E+01
 0.51144701857E+01 0.44427609869E+01 0.37717274589E+01 0.31453282855E+01 0.25915210566E+01
 0.21230720595E+01 0.17413326650E+01 0.14408873179E+01 0.12132929639E+01 0.10492997878E+01
 0.94003728074E+00 0.87795478795E+00 0.87795268422E+00 0.91226954744E+00 0.98403013209E+00
 0.10987745728E+01 0.12633766950E+01 0.14849693268E+01 0.17699702089E+01 0.21228728228E+01
 0.25442679741E+01 0.30279099978E+01 0.35574720140E+01 0.41044271334E+01 0.46286335007E+01
 0.50824883768E+01 0.54182787335E+01 0.55971264498E+01 0.55971335999E+01 0.54182769179E+01
 0.50824432776E+01 0.46285548616E+01 0.41043647734E+01 0.35574593453E+01 0.30279321178E+01
 0.25442900907E+01 0.21228820724E+01 0.17699778896E+01 0.14849842457E+01 0.12633932035E+01
 0.10987850311E+01 0.98403540305E+00 0.91227337125E+00 0.87795449222E+00 0.94003594728E+00
 0.98403013209E+00 0.10615866107E+01 0.11780068180E+01 0.13390263206E+01 0.15498272762E+01
 0.18141478943E+01 0.21331768163E+01 0.25038961222E+01 0.29168937305E+01 0.33542695339E+01
 0.37887775133E+01 0.41853706685E+01 0.45056337258E+01 0.47144263845E+01 0.47869986382E+01
 0.47144259881E+01 0.45056365110E+01 0.41853771063E+01 0.37887809023E+01 0.33542639785E+01
 0.29168862800E+01 0.25039018318E+01 0.21331972195E+01 0.18141646890E+01 0.15498259622E+01
 0.13390161255E+01 0.11780053450E+01 0.10615939827E+01 0.98403369725E+00 0.94003348687E+00
 0.92582610318E+00 0.10493000834E+01 0.10987745728E+01 0.11780068180E+01 0.12916414975E+01
 0.14441080536E+01 0.16387994056E+01 0.18772991203E+01 0.21583987427E+01 0.24767291666E+01
 0.28211726094E+01 0.31736804875E+01 0.35094168914E+01 0.37989798310E+01 0.40127506129E+01
 0.41264736992E+01 0.41264613981E+01 0.40127286628E+01 0.37989789858E+01 0.35094511700E+01
 0.31737268997E+01 0.28211919523E+01 0.24767095868E+01 0.21583670097E+01 0.18772844989E+01
 0.16388012429E+01 0.14441080939E+01 0.12916335014E+01 0.11779993361E+01 0.10987732909E+01
 0.10493019138E+01 0.10256828199E+01 0.10256818636E+01 0.12132910904E+01 0.12633766950E+01
 0.13390263206E+01 0.14441080536E+01 0.15819151280E+01 0.17545239320E+01 0.19620809037E+01
 0.22018650559E+01 0.24671481609E+01 0.27461523166E+01 0.30216752716E+01 0.32720239292E+01
 0.34735932966E+01 0.36047958097E+01 0.36503782450E+01 0.36048105206E+01 0.34735936874E+01
 0.32719951496E+01 0.30216383039E+01 0.27461340363E+01 0.24671464716E+01 0.22018574361E+01
 0.19620580424E+01 0.17545000586E+01 0.15819073133E+01 0.14441171300E+01 0.13390402300E+01
 0.12633849299E+01 0.12132921112E+01 0.11850617722E+01 0.11759856681E+01 0.11850634193E+01
 0.14408787648E+01 0.14849693268E+01 0.15498272762E+01 0.16387994056E+01 0.17545239320E+01
 0.18983775220E+01 0.20697255232E+01 0.22649806860E+01 0.24767280594E+01 0.26932962876E+01
 0.28991365228E+01 0.30762664769E+01 0.32068026984E+01 0.32761784114E+01 0.32761841935E+01
 0.32068171482E+01 0.30762752019E+01 0.28991166475E+01 0.26932437251E+01 0.24766738240E+01
 0.22649615587E+01 0.20697416750E+01 0.18983959808E+01 0.17545228087E+01 0.16387907600E+01
 0.15498320722E+01 0.14849865359E+01 0.14408908867E+01 0.14140473208E+01 0.14014910132E+01
 0.14014936484E+01 0.14140475101E+01 0.17413190250E+01 0.17699702089E+01 0.18141478943E+01
 0.18772991203E+01 0.19620809037E+01 0.20697255232E+01 0.21992153699E+01 0.23464659606E+01
 0.25038953266E+01 0.26606569932E+01 0.28035857768E+01 0.29187927850E+01 0.29937939152E+01
 0.30198383738E+01 0.29937802540E+01 0.29187864994E+01 0.28035985097E+01 0.26606770787E+01
 0.25039061046E+01 0.23464634338E+01 0.21992059140E+01 0.20697187887E+01 0.19620852617E+01
 0.18773124317E+01 0.18141550220E+01 0.17699618515E+01 0.17413078462E+01 0.17244799589E+01
 0.17160397977E+01 0.17135196204E+01 0.17160287024E+01 0.17244769957E+01 0.21230631526E+01
 0.21228728228E+01 0.21331768163E+01 0.21583987427E+01 0.22018650559E+01 0.22649806860E+01
 0.23464659606E+01 0.24419671340E+01 0.25442673619E+01 0.26440708598E+01 0.27311675062E+01
 0.27958251605E+01 0.28303108703E+01 0.28303097077E+01 0.27958197019E+01 0.27311580404E+01
 0.26440693319E+01 0.25442903475E+01 0.24420105867E+01 0.23464959920E+01 0.22649673157E+01
 0.22018218760E+01 0.21583682557E+01 0.21331765518E+01 0.21228802526E+01 0.21230574893E+01
 0.21289337827E+01 0.21359678411E+01 0.21405100496E+01 0.21405072294E+01 0.21359680551E+01
 0.21289435750E+01 0.25915277314E+01 0.25442679741E+01 0.25038961222E+01 0.24767291666E+01
 0.24671481609E+01 0.24767280594E+01 0.25038953266E+01 0.25442673619E+01 0.25915256699E+01
 0.26384934372E+01 0.26781646376E+01 0.27046310930E+01 0.27139198850E+01 0.27046309888E+01
 0.26781722875E+01 0.26385060661E+01 0.25915276055E+01 0.25442521200E+01 0.25038769620E+01
 0.24767213387E+01 0.24671470126E+01 0.24767164601E+01 0.25038696192E+01 0.25442439468E+01
 0.25915190273E+01 0.26384987435E+01 0.26781686751E+01 0.27046311726E+01 0.27139216953E+01
 0.27046334343E+01 0.26781679337E+01 0.26384969887E+01 0.31453502821E+01 0.30279099978E+01
 0.29168937305E+01 0.28211726094E+01 0.27461523166E+01 0.26932962876E+01 0.26606569932E+01
 0.26440708598E+01 0.26384934372E+01 0.26390741058E+01 0.26418189700E+01 0.26439198941E+01
 0.26439224437E+01 0.26418253534E+01 0.26390859152E+01 0.26385124696E+01 0.26440819133E+01
 0.26606356938E+01 0.26932489200E+01 0.27461232108E+01 0.28211901165E+01 0.29169296274E+01
 0.30279167415E+01 0.31453216478E+01 0.32582124465E+01 0.33552459623E+01 0.34263083822E+01
 0.34638509591E+01 0.34638449967E+01 0.34262992958E+01 0.33552531077E+01 0.32582427387E+01
 0.37717503934E+01 0.35574720140E+01 0.33542695339E+01 0.31736804875E+01 0.30216752716E+01
 0.28991365228E+01 0.28035857768E+01 0.27311675062E+01 0.26781646376E+01 0.26418189700E+01
 0.26205082331E+01 0.26134845195E+01 0.26205260018E+01 0.26418223354E+01 0.26781505879E+01
 0.27311685031E+01 0.28036106589E+01 0.28991569833E+01 0.30216768303E+01 0.31736786571E+01
 0.33542709679E+01 0.35574661347E+01 0.37717423270E+01 0.39812505495E+01 0.41682511114E+01
 0.43158700114E+01 0.44104096030E+01 0.44429667789E+01 0.44104329896E+01 0.43158820319E+01
 0.41682415880E+01 0.39812445071E+01 0.44427714910E+01 0.41044271334E+01 0.37887775133E+01
 0.35094168914E+01 0.32720239292E+01 0.30762664769E+01 0.29187927850E+01 0.27958251605E+01
 0.27046310930E+01 0.26439198941E+01 0.26134845195E+01 0.26134902731E+01 0.26439270743E+01
 0.27046270042E+01 0.27958147112E+01 0.29187893848E+01 0.30762791155E+01 0.32720568092E+01
 0.35094568462E+01 0.37887838515E+01 0.41043737028E+01 0.44427005599E+01 0.47827202889E+01
 0.50985867402E+01 0.53637283916E+01 0.55548517402E+01 0.56549178846E+01 0.56549434997E+01
 0.55548831611E+01 0.53637085440E+01 0.50985482442E+01 0.47827367885E+01 0.51144744525E+01
 0.46286335007E+01 0.41853706685E+01 0.37989798310E+01 0.34735932966E+01 0.32068026984E+01
 0.29937939152E+01 0.28303108703E+01 0.27139198850E+01 0.26439224437E+01 0.26205260018E+01
 0.26439270743E+01 0.27139224961E+01 0.28303114624E+01 0.29938006534E+01 0.32068157617E+01
 0.34735981163E+01 0.37989656745E+01 0.41853480262E+01 0.46286199009E+01 0.51144668784E+01
 0.56173117997E+01 0.61026714874E+01 0.65321186182E+01 0.68690946028E+01 0.70840096075E+01
 0.71578232461E+01 0.70840030687E+01 0.68691051045E+01 0.65321555116E+01 0.61027128461E+01
 0.56173338534E+01 0.57303632833E+01 0.50824883768E+01 0.45056337258E+01 0.40127506129E+01
 0.36047958097E+01 0.32761784114E+01 0.30198383738E+01 0.28303097077E+01 0.27046309888E+01
 0.26418253534E+01 0.26418223354E+01 0.27046270042E+01 0.28303114624E+01 0.30198472256E+01
 0.32761951189E+01 0.36048134945E+01 0.40127448730E+01 0.45055914314E+01 0.50824459710E+01
 0.57303727301E+01 0.64211789039E+01 0.71125314319E+01 0.77532397079E+01 0.82906818508E+01
 0.86781916185E+01 0.88811329395E+01 0.88811329896E+01 0.86782134174E+01 0.82907385436E+01
 0.77532831614E+01 0.71125129255E+01 0.64211294822E+01 0.62290067199E+01 0.54182787335E+01
 0.47144263845E+01 0.41264736992E+01 0.36503782450E+01 0.32761841935E+01 0.29937802540E+01
 0.27958197019E+01 0.26781722875E+01 0.26390859152E+01 0.26781505879E+01 0.27958147112E+01
 0.29938006534E+01 0.32761951189E+01 0.36503646383E+01 0.41264662678E+01 0.47144468474E+01
 0.54183036786E+01 0.62290092928E+01 0.71190096698E+01 0.80411586190E+01 0.89329667544E+01
 0.97246449193E+01 0.10348513061E+02 0.10748046622E+02 0.10885632362E+02 0.10748053587E+02
 0.10348515068E+02 0.97246313143E+01 0.89329457590E+01 0.80411513240E+01 0.71190176020E+01
 0.65545538299E+01 0.55971264498E+01 0.47869986382E+01 0.41264613981E+01 0.36048105206E+01
 0.32068171482E+01 0.29187864994E+01 0.27311580404E+01 0.26385060661E+01 0.26385124696E+01
 0.27311685031E+01 0.29187893848E+01 0.32068157617E+01 0.36048134945E+01 0.41264662678E+01
 0.47870019077E+01 0.55971407415E+01 0.65545908533E+01 0.76362549517E+01 0.87947299162E+01
 0.99606530534E+01 0.11049703831E+02 0.11972117572E+02 0.12643677100E+02 0.12997918535E+02
 0.12997874532E+02 0.12643593874E+02 0.11972081991E+02 0.11049739239E+02 0.99607024768E+01
 0.87947342342E+01 0.76362172948E+01 0.66677685520E+01 0.55971335999E+01 0.47144259881E+01
 0.40127286628E+01 0.34735936874E+01 0.30762752019E+01 0.28035985097E+01 0.26440693319E+01
 0.25915276055E+01 0.26440819133E+01 0.28036106589E+01 0.30762791155E+01 0.34735981163E+01
 0.40127448730E+01 0.47144468474E+01 0.55971407415E+01 0.66677618049E+01 0.79119326775E+01
 0.92876647711E+01 0.10725154710E+02 0.12131780475E+02 0.13399712340E+02 0.14415774695E+02
 0.15075815646E+02 0.15304661229E+02 0.15075803189E+02 0.14415772280E+02 0.13399724160E+02
 0.12131782951E+02 0.10725135712E+02 0.92876444328E+01 0.79119311505E+01 0.65545195598E+01
 0.54182769179E+01 0.45056365110E+01 0.37989789858E+01 0.32719951496E+01 0.28991166475E+01
 0.26606770787E+01 0.25442903475E+01 0.25442521200E+01 0.26606356938E+01 0.28991569833E+01
 0.32720568092E+01 0.37989656745E+01 0.45055914314E+01 0.54183036786E+01 0.65545908533E+01
 0.79119326775E+01 0.94592130701E+01 0.11133795314E+02 0.12843795712E+02 0.14472357632E+02
 0.15881741109E+02 0.16920383650E+02 0.17470172242E+02 0.17470234301E+02 0.16920488095E+02
 0.15881743103E+02 0.14472233661E+02 0.12843680014E+02 0.11133802822E+02 0.94592841901E+01
 0.79119332401E+01 0.62289682105E+01 0.50824432776E+01 0.41853771063E+01 0.35094511700E+01
 0.30216383039E+01 0.26932437251E+01 0.25039061046E+01 0.24420105867E+01 0.25038769620E+01
 0.26932489200E+01 0.30216768303E+01 0.35094568462E+01 0.41853480262E+01 0.50824459710E+01
 0.62290092928E+01 0.76362549517E+01 0.92876647711E+01 0.11133795314E+02 0.13092498022E+02
 0.15050096334E+02 0.16852489534E+02 0.18305311965E+02 0.19246692590E+02 0.19572533813E+02
 0.19246651239E+02 0.18305285237E+02 0.16852477961E+02 0.15050049613E+02 0.13092427908E+02
 0.11133765513E+02 0.92876714592E+01 0.76362361710E+01 0.57303447785E+01 0.46285548616E+01
 0.37887809023E+01 0.31737268997E+01 0.27461340363E+01 0.24766738240E+01 0.23464634338E+01
 0.23464959920E+01 0.24767213387E+01 0.27461232108E+01 0.31736786571E+01 0.37887838515E+01
 0.46286199009E+01 0.57303727301E+01 0.71190096698E+01 0.87947299162E+01 0.10725154710E+02
 0.12843795712E+02 0.15050096334E+02 0.17192136547E+02 0.19048604394E+02 0.20416082112E+02
 0.21141801052E+02 0.21141702348E+02 0.20415934834E+02 0.19048618793E+02 0.17192259805E+02
 0.15050114195E+02 0.12843670862E+02 0.10725059038E+02 0.87947610018E+01 0.71190656781E+01
 0.51144701857E+01 0.41043647734E+01 0.33542639785E+01 0.28211919523E+01 0.24671464716E+01
 0.22649615587E+01 0.21992059140E+01 0.22649673157E+01 0.24671470126E+01 0.28211901165E+01
 0.33542709679E+01 0.41043737028E+01 0.51144668784E+01 0.64211789039E+01 0.80411586190E+01
 0.99606530534E+01 0.12131780475E+02 0.14472357632E+02 0.16852489534E+02 0.19048604394E+02
 0.20824489108E+02 0.21982695025E+02 0.22385571502E+02 0.21982697680E+02 0.20824472307E+02
 0.19048573432E+02 0.16852477086E+02 0.14472369401E+02 0.12131787062E+02 0.99606422157E+01
 0.80411512903E+01 0.64211855175E+01 0.44427609869E+01 0.35574593453E+01 0.29168862800E+01
 0.24767095868E+01 0.22018574361E+01 0.20697416750E+01 0.20697187887E+01 0.22018218760E+01
 0.24767164601E+01 0.29169296274E+01 0.35574661347E+01 0.44427005599E+01 0.56173117997E+01
 0.71125314319E+01 0.89329667544E+01 0.11049703831E+02 0.13399712340E+02 0.15881741109E+02
 0.18305311965E+02 0.20416082112E+02 0.21982695025E+02 0.22819709272E+02 0.22819753601E+02
 0.21982727324E+02 0.20415986127E+02 0.18305182506E+02 0.15881746712E+02 0.13399826455E+02
 0.11049756488E+02 0.89329129269E+01 0.71124920235E+01 0.56173592847E+01 0.37717274589E+01
 0.30279321178E+01 0.25039018318E+01 0.21583670097E+01 0.19620580424E+01 0.18983959808E+01
 0.19620852617E+01 0.21583682557E+01 0.25038696192E+01 0.30279167415E+01 0.37717423270E+01
 0.47827202889E+01 0.61026714874E+01 0.77532397079E+01 0.97246449193E+01 0.11972117572E+02
 0.14415774695E+02 0.16920383650E+02 0.19246692590E+02 0.21141801052E+02 0.22385571502E+02
 0.22819753601E+02 0.22385557302E+02 0.21141780890E+02 0.19246690615E+02 0.16920410138E+02
 0.14415799076E+02 0.11972112344E+02 0.97246359885E+01 0.77532627714E+01 0.61027044210E+01
 0.47827208579E+01 0.31453282855E+01 0.25442900907E+01 0.21331972195E+01 0.18772844989E+01
 0.17545000586E+01 0.17545228087E+01 0.18773124317E+01 0.21331765518E+01 0.25442439468E+01
 0.31453216478E+01 0.39812505495E+01 0.50985867402E+01 0.65321186182E+01 0.82906818508E+01
 0.10348513061E+02 0.12643677100E+02 0.15075815646E+02 0.17470172242E+02 0.19572533813E+02
 0.21141702348E+02 0.21982697680E+02 0.21982727324E+02 0.21141780890E+02 0.19572627261E+02
 0.17470231896E+02 0.15075815794E+02 0.12643647855E+02 0.10348512608E+02 0.82907239249E+01
 0.65321519014E+01 0.50985683902E+01 0.39812134995E+01 0.25915210566E+01 0.21228820724E+01
 0.18141646890E+01 0.16388012429E+01 0.15819073133E+01 0.16387907600E+01 0.18141550220E+01
 0.21228802526E+01 0.25915190273E+01 0.32582124465E+01 0.41682511114E+01 0.53637283916E+01
 0.68690946028E+01 0.86781916185E+01 0.10748046622E+02 0.12997918535E+02 0.15304661229E+02
 0.17470234301E+02 0.19246651239E+02 0.20415934834E+02 0.20824472307E+02 0.20415986127E+02
 0.19246690615E+02 0.17470231896E+02 0.15304658549E+02 0.12997954670E+02 0.10748098477E+02
 0.86782160913E+01 0.68690917396E+01 0.53637288754E+01 0.41682652954E+01 0.32582247238E+01
 0.21230720595E+01 0.17699778896E+01 0.15498259622E+01 0.14441080939E+01 0.14441171300E+01
 0.15498320722E+01 0.17699618515E+01 0.21230574893E+01 0.26384987435E+01 0.33552459623E+01
 0.43158700114E+01 0.55548517402E+01 0.70840096075E+01 0.88811329395E+01 0.10885632362E+02
 0.12997874532E+02 0.15075803189E+02 0.16920488095E+02 0.18305285237E+02 0.19048618793E+02
 0.19048573432E+02 0.18305182506E+02 0.16920410138E+02 0.15075815794E+02 0.12997954670E+02
 0.10885693197E+02 0.88811361922E+01 0.70840038183E+01 0.55548800460E+01 0.43159046961E+01
 0.33552510271E+01 0.26384940398E+01 0.17413326650E+01 0.14849842457E+01 0.13390161255E+01
 0.12916335014E+01 0.13390402300E+01 0.14849865359E+01 0.17413078462E+01 0.21289337827E+01
 0.26781686751E+01 0.34263083822E+01 0.44104096030E+01 0.56549178846E+01 0.71578232461E+01
 0.88811329896E+01 0.10748053587E+02 0.12643593874E+02 0.14415772280E+02 0.15881743103E+02
 0.16852477961E+02 0.17192259805E+02 0.16852477086E+02 0.15881746712E+02 0.14415799076E+02
 0.12643647855E+02 0.10748098477E+02 0.88811361922E+01 0.71578084127E+01 0.56549257121E+01
 0.44104284261E+01 0.34263016500E+01 0.26781489940E+01 0.21289414677E+01 0.14408873179E+01
 0.12633932035E+01 0.11780053450E+01 0.11779993361E+01 0.12633849299E+01 0.14408908867E+01
 0.17244799589E+01 0.21359678411E+01 0.27046311726E+01 0.34638509591E+01 0.44429667789E+01
 0.56549434997E+01 0.70840030687E+01 0.86782134174E+01 0.10348515068E+02 0.11972081991E+02
 0.13399724160E+02 0.14472233661E+02 0.15050049613E+02 0.15050114195E+02 0.14472369401E+02
 0.13399826455E+02 0.11972112344E+02 0.10348512608E+02 0.86782160913E+01 0.70840038183E+01
 0.56549257121E+01 0.44429412865E+01 0.34638378541E+01 0.27046285862E+01 0.21359606335E+01
 0.17244677034E+01 0.12132929639E+01 0.10987850311E+01 0.10615939827E+01 0.10987732909E+01
 0.12132921112E+01 0.14140473208E+01 0.17160397977E+01 0.21405100496E+01 0.27139216953E+01
 0.34638449967E+01 0.44104329896E+01 0.55548831611E+01 0.68691051045E+01 0.82907385436E+01
 0.97246313143E+01 0.11049739239E+02 0.12131782951E+02 0.12843680014E+02 0.13092427908E+02
 0.12843670862E+02 0.12131787062E+02 0.11049756488E+02 0.97246359885E+01 0.82907239249E+01
 0.68690917396E+01 0.55548800460E+01 0.44104284261E+01 0.34638378541E+01 0.27139240973E+01
 0.21405173291E+01 0.17160346631E+01 0.14140346432E+01 0.10492997878E+01 0.98403540305E+00
 0.98403369725E+00 0.10493019138E+01 0.11850617722E+01 0.14014910132E+01 0.17135196204E+01
 0.21405072294E+01 0.27046334343E+01 0.34262992958E+01 0.43158820319E+01 0.53637085440E+01
 0.65321555116E+01 0.77532831614E+01 0.89329457590E+01 0.99607024768E+01 0.10725135712E+02
 0.11133802822E+02 0.11133765513E+02 0.10725059038E+02 0.99606422157E+01 0.89329129269E+01
 0.77532627714E+01 0.65321519014E+01 0.53637288754E+01 0.43159046961E+01 0.34263016500E+01
 0.27046285862E+01 0.21405173291E+01 0.17135355950E+01 0.14014923591E+01 0.11850534371E+01
 0.94003728074E+00 0.91227337125E+00 0.94003348687E+00 0.10256828199E+01 0.11759856681E+01
 0.14014936484E+01 0.17160287024E+01 0.21359680551E+01 0.26781679337E+01 0.33552531077E+01
 0.41682415880E+01 0.50985482442E+01 0.61027128461E+01 0.71125129255E+01 0.80411513240E+01
 0.87947342342E+01 0.92876444328E+01 0.94592841901E+01 0.92876714592E+01 0.87947610018E+01
 0.80411512903E+01 0.71124920235E+01 0.61027044210E+01 0.50985683902E+01 0.41682652954E+01
 0.33552510271E+01 0.26781489940E+01 0.21359606335E+01 0.17160346631E+01 0.14014923591E+01
 0.11759739822E+01 0.10256773364E+01 0.87795478795E+00 0.87795449222E+00 0.92582610318E+00
 0.10256818636E+01 0.11850634193E+01 0.14140475101E+01 0.17244769957E+01 0.21289435750E+01
 0.26384969887E+01 0.32582427387E+01 0.39812445071E+01 0.47827367885E+01 0.56173338534E+01
 0.64211294822E+01 0.71190176020E+01 0.76362172948E+01 0.79119311505E+01 0.79119332401E+01
 0.76362361710E+01 0.71190656781E+01 0.64211855175E+01 0.56173592847E+01 0.47827208579E+01
 0.39812134995E+01 0.32582247238E+01 0.26384940398E+01 0.21289414677E+01 0.17244677034E+01
 0.14140346432E+01 0.11850534371E+01 0.10256773364E+01 0.92582549760E+00 0.87795528109E+00
 0.91227224581E+00 0.98403172444E+00 0.10987756364E+01 0.12633784622E+01 0.14849712978E+01
 0.17699712146E+01 0.21228733694E+01 0.25442691669E+01 0.30279112537E+01 0.35574722506E+01
 0.41044271251E+01 0.46286346240E+01 0.50824900952E+01 0.54182797604E+01 0.55971273649E+01
 0.55971359059E+01 0.54182805166E+01 0.50824471670E+01 0.46285591188E+01 0.41043693448E+01
 0.35574619868E+01 0.30279301784E+01 0.25442836439E+01 0.21228732173E+01 0.17699681314E+01
 0.14849747844E+01 0.12633863513E+01 0.10987825184E+01 0.98403606259E+00 0.91227483110E+00
 0.87795623166E+00 0.91227224581E+00 0.95481333336E+00 0.10300221419E+01 0.11432679522E+01
 0.13003647325E+01 0.15065452736E+01 0.17655193013E+01 0.20783701176E+01 0.24419672684E+01
 0.28468710281E+01 0.32753285300E+01 0.37005144401E+01 0.40881473760E+01 0.44008617578E+01
 0.46046021963E+01 0.46754056577E+01 0.46046073201E+01 0.44008347663E+01 0.40880846676E+01
 0.37004670764E+01 0.32753329948E+01 0.28468972731E+01 0.24419650257E+01 0.20783406717E+01
 0.17655062499E+01 0.15065670852E+01 0.13003931424E+01 0.11432748026E+01 0.10300158566E+01
 0.95481568846E+00 0.91228185469E+00 0.89856397970E+00 0.98403172444E+00 0.10300221419E+01
 0.11042466540E+01 0.12115535056E+01 0.13565275465E+01 0.15425893605E+01 0.17712044109E+01
 0.20409826558E+01 0.23464663045E+01 0.26767071042E+01 0.30142096887E+01 0.33351352836E+01
 0.36114784348E+01 0.38152123953E+01 0.39235035274E+01 0.39235024890E+01 0.38152098167E+01
 0.36114783578E+01 0.33351439340E+01 0.30142256202E+01 0.26767190779E+01 0.23464673269E+01
 0.20409796050E+01 0.17712070197E+01 0.15425962650E+01 0.13565308483E+01 0.12115513259E+01
 0.11042430985E+01 0.10300192684E+01 0.98402905037E+00 0.96220012700E+00 0.96220145343E+00
 0.10987756364E+01 0.11432679522E+01 0.12115535056E+01 0.13078235053E+01 0.14355303742E+01
 0.15966720635E+01 0.17911710822E+01 0.20161449809E+01 0.22649819144E+01 0.25264458059E+01
 0.27843496035E+01 0.30184178879E+01 0.32066737028E+01 0.33290860562E+01 0.33715657746E+01
 0.33290548268E+01 0.32066574232E+01 0.30184460892E+01 0.27843949525E+01 0.25264600375E+01
 0.22649575504E+01 0.20161203885E+01 0.17911770251E+01 0.15966949598E+01 0.14355367272E+01
 0.13078043680E+01 0.12115299091E+01 0.11432603156E+01 0.10987831887E+01 0.10740549032E+01
 0.10661616819E+01 0.10740459117E+01 0.12633784622E+01 0.13003647325E+01 0.13565275465E+01
 0.14355303742E+01 0.15400567596E+01 0.16712664002E+01 0.18282607222E+01 0.20074463302E+01
 0.22018655658E+01 0.24007810203E+01 0.25899236410E+01 0.27527516915E+01 0.28727795068E+01
 0.29365713097E+01 0.29365633736E+01 0.28727671235E+01 0.27527507615E+01 0.25899292952E+01
 0.24007755299E+01 0.22018451564E+01 0.20074252617E+01 0.18282504076E+01 0.16712632525E+01
 0.15400520446E+01 0.14355222312E+01 0.13565202218E+01 0.13003621202E+01 0.12633810583E+01
 0.12416260686E+01 0.12317233909E+01 0.12317209922E+01 0.12416212385E+01 0.14849712978E+01
 0.15065452736E+01 0.15425893605E+01 0.15966720635E+01 0.16712664002E+01 0.17672749839E+01
 0.18835061991E+01 0.20161442929E+01 0.21583980248E+01 0.23005535861E+01 0.24306363025E+01
 0.25358098929E+01 0.26044268003E+01 0.26282928308E+01 0.26044478678E+01 0.25358372121E+01
 0.24306435677E+01 0.23005277791E+01 0.21583627616E+01 0.20161371367E+01 0.18835293146E+01
 0.17672909556E+01 0.16712504124E+01 0.15966453406E+01 0.15425864364E+01 0.15065658387E+01
 0.14849843355E+01 0.14737338041E+01 0.14689135373E+01 0.14676687016E+01 0.14689327258E+01
 0.14737456521E+01 0.17699712146E+01 0.17655193013E+01 0.17712044109E+01 0.17911710822E+01
 0.18282607222E+01 0.18835061991E+01 0.19556725000E+01 0.20409827094E+01 0.21331765736E+01
 0.22239640330E+01 0.23038943307E+01 0.23636525271E+01 0.23956695414E+01 0.23956756064E+01
 0.23636676338E+01 0.23039087385E+01 0.22239679165E+01 0.21331737949E+01 0.20409890941E+01
 0.19556934545E+01 0.18835267456E+01 0.18282667492E+01 0.17911694600E+01 0.17712101813E+01
 0.17655317775E+01 0.17699762293E+01 0.17796528775E+01 0.17896268427E+01 0.17957951905E+01
 0.17958016355E+01 0.17896408694E+01 0.17796617739E+01 0.21228733694E+01 0.20783701176E+01
 0.20409826558E+01 0.20161449809E+01 0.20074463302E+01 0.20161442929E+01 0.20409827094E+01
 0.20783709531E+01 0.21228736591E+01 0.21679054946E+01 0.22065787543E+01 0.22327149064E+01
 0.22419570363E+01 0.22327166785E+01 0.22065706623E+01 0.21678924184E+01 0.21228799780E+01
 0.20784035519E+01 0.20410105784E+01 0.20161355581E+01 0.20074149779E+01 0.20161359654E+01
 0.20410117052E+01 0.20784038705E+01 0.21228770291E+01 0.21678862511E+01 0.22065638380E+01
 0.22327108407E+01 0.22419520529E+01 0.22327111531E+01 0.22065772282E+01 0.21679055316E+01
 0.25442691669E+01 0.24419672684E+01 0.23464663045E+01 0.22649819144E+01 0.22018655658E+01
 0.21583980248E+01 0.21331765736E+01 0.21228736591E+01 0.21230635535E+01 0.21289433833E+01
 0.21359696165E+01 0.21405118015E+01 0.21405161926E+01 0.21359743740E+01 0.21289409936E+01
 0.21230643584E+01 0.21228839800E+01 0.21331762240E+01 0.21583658557E+01 0.22018185576E+01
 0.22649619043E+01 0.23464882041E+01 0.24420023579E+01 0.25442828280E+01 0.26440618983E+01
 0.27311513825E+01 0.27958164246E+01 0.28303105237E+01 0.28303133772E+01 0.27958275467E+01
 0.27311702909E+01 0.26440740054E+01 0.30279112537E+01 0.28468710281E+01 0.26767071042E+01
 0.25264458059E+01 0.24007810203E+01 0.23005535861E+01 0.22239640330E+01 0.21679054946E+01
 0.21289433833E+01 0.21038664579E+01 0.20900177192E+01 0.20856072799E+01 0.20900075752E+01
 0.21038709150E+01 0.21289771237E+01 0.21679371863E+01 0.22239364932E+01 0.23004597899E+01
 0.24006966717E+01 0.25264508428E+01 0.26767890057E+01 0.28469446188E+01 0.30279243467E+01
 0.32070124814E+01 0.33691377227E+01 0.34988959058E+01 0.35828915484E+01 0.36119732724E+01
 0.35828863715E+01 0.34988944327E+01 0.33691533611E+01 0.32070356359E+01 0.35574722506E+01
 0.32753285300E+01 0.30142096887E+01 0.27843496035E+01 0.25899236410E+01 0.24306363025E+01
 0.23038943307E+01 0.22065787543E+01 0.21359696165E+01 0.20900177192E+01 0.20673669216E+01
 0.20673542546E+01 0.20900045283E+01 0.21359914251E+01 0.22066145537E+01 0.23038695224E+01
 0.24305188275E+01 0.25897955294E+01 0.27843339885E+01 0.30143259196E+01 0.32754692897E+01
 0.35575355025E+01 0.38441878797E+01 0.41142782659E+01 0.43444560804E+01 0.45126067819E+01
 0.46014309787E+01 0.46014229109E+01 0.45125867033E+01 0.43444429810E+01 0.41142903273E+01
 0.38441956036E+01 0.41044271251E+01 0.37005144401E+01 0.33351352836E+01 0.30184178879E+01
 0.27527516915E+01 0.25358098929E+01 0.23636525271E+01 0.22327149064E+01 0.21405118015E+01
 0.20856072799E+01 0.20673542546E+01 0.20856061040E+01 0.21405379866E+01 0.22327408848E+01
 0.23635911431E+01 0.25356384908E+01 0.27525867702E+01 0.30184033932E+01 0.33352753685E+01
 0.37006747146E+01 0.41044977109E+01 0.45275379319E+01 0.49421486656E+01 0.53151663259E+01
 0.56125075603E+01 0.58045040324E+01 0.58709079658E+01 0.58045097400E+01 0.56124971748E+01
 0.53151468309E+01 0.49421495434E+01 0.45275397169E+01 0.46286346240E+01 0.40881473760E+01
 0.36114784348E+01 0.32066737028E+01 0.28727795068E+01 0.26044268003E+01 0.23956695414E+01
 0.22419570363E+01 0.21405161926E+01 0.20900075752E+01 0.20900045283E+01 0.21405379866E+01
 0.22420025625E+01 0.23956235309E+01 0.26042104117E+01 0.28725280406E+01 0.32066210334E+01
 0.36116700734E+01 0.40883872747E+01 0.46287316960E+01 0.52125306218E+01 0.58066564351E+01
 0.63675140593E+01 0.68464434843E+01 0.71969432680E+01 0.73823421644E+01 0.73823596917E+01
 0.71969687189E+01 0.68464452716E+01 0.63675197286E+01 0.58067053707E+01 0.52125680438E+01
 0.50824900952E+01 0.44008617578E+01 0.38152123953E+01 0.33290860562E+01 0.29365713097E+01
 0.26282928308E+01 0.23956756064E+01 0.22327166785E+01 0.21359743740E+01 0.21038709150E+01
 0.21359914251E+01 0.22327408848E+01 0.23956235309E+01 0.26280858205E+01 0.29363075455E+01
 0.33290014489E+01 0.38154065523E+01 0.44011622782E+01 0.50826565492E+01 0.58415696568E+01
 0.66418881470E+01 0.74309733355E+01 0.81448302326E+01 0.87166520153E+01 0.90872784134E+01
 0.92157325160E+01 0.90873094713E+01 0.87166764578E+01 0.81448386126E+01 0.74310095669E+01
 0.66419655921E+01 0.58415876336E+01 0.54182797604E+01 0.46046021963E+01 0.39235035274E+01
 0.33715657746E+01 0.29365633736E+01 0.26044478678E+01 0.23636676338E+01 0.22065706623E+01
 0.21289409936E+01 0.21289771237E+01 0.22066145537E+01 0.23635911431E+01 0.26042104117E+01
 0.29363075455E+01 0.33715150001E+01 0.39237284829E+01 0.46049265153E+01 0.54184608910E+01
 0.63514688357E+01 0.73691944411E+01 0.84136655054E+01 0.94075745972E+01 0.10262844814E+02
 0.10892982239E+02 0.11227851030E+02 0.11227869008E+02 0.10893006766E+02 0.10262836048E+02
 0.94075581289E+01 0.84137119874E+01 0.73692990480E+01 0.63514958902E+01 0.55971273649E+01
 0.46754056577E+01 0.39235024890E+01 0.33290548268E+01 0.28727671235E+01 0.25358372121E+01
 0.23039087385E+01 0.21678924184E+01 0.21230643584E+01 0.21679371863E+01 0.23038695224E+01
 0.25356384908E+01 0.28725280406E+01 0.33290014489E+01 0.39237284829E+01 0.46757533095E+01
 0.55973361132E+01 0.66846725838E+01 0.79094284278E+01 0.92142750519E+01 0.10514034708E+02
 0.11702395014E+02 0.12664073845E+02 0.13292565030E+02 0.13511403029E+02 0.13292594521E+02
 0.12664081697E+02 0.11702368936E+02 0.10514048165E+02 0.92143994948E+01 0.79096024090E+01
 0.66847133331E+01 0.55971359059E+01 0.46046073201E+01 0.38152098167E+01 0.32066574232E+01
 0.27527507615E+01 0.24306435677E+01 0.22239679165E+01 0.21228799780E+01 0.21228839800E+01
 0.22239364932E+01 0.24305188275E+01 0.27525867702E+01 0.32066210334E+01 0.38154065523E+01
 0.46049265153E+01 0.55973361132E+01 0.68006512855E+01 0.81979108058E+01 0.97394532166E+01
 0.11340533049E+02 0.12884441776E+02 0.14231529134E+02 0.15236513614E+02 0.15775279405E+02
 0.15775296593E+02 0.15236555566E+02 0.14231570031E+02 0.12884471098E+02 0.11340595945E+02
 0.97396037729E+01 0.81980927054E+01 0.68006928747E+01 0.54182805166E+01 0.44008347663E+01
 0.36114783578E+01 0.30184460892E+01 0.25899292952E+01 0.23005277791E+01 0.21331737949E+01
 0.20784035519E+01 0.21331762240E+01 0.23004597899E+01 0.25897955294E+01 0.30184033932E+01
 0.36116700734E+01 0.44011622782E+01 0.54184608910E+01 0.66846725838E+01 0.81979108058E+01
 0.99226209071E+01 0.11783612204E+02 0.13664966119E+02 0.15413695092E+02 0.16851989700E+02
 0.17804299031E+02 0.18138242042E+02 0.17804292869E+02 0.16852054226E+02 0.15413806775E+02
 0.13665013531E+02 0.11783610277E+02 0.99227189936E+01 0.81981216132E+01 0.66847736465E+01
 0.50824471670E+01 0.40880846676E+01 0.33351439340E+01 0.27843949525E+01 0.24007755299E+01
 0.21583627616E+01 0.20409890941E+01 0.20410105784E+01 0.21583658557E+01 0.24006966717E+01
 0.27843339885E+01 0.33352753685E+01 0.40883872747E+01 0.50826565492E+01 0.63514688357E+01
 0.79094284278E+01 0.97394532166E+01 0.11783612204E+02 0.13938196675E+02 0.16051792231E+02
 0.17929410661E+02 0.19351286652E+02 0.20119109374E+02 0.20119070566E+02 0.19351269914E+02
 0.17929525049E+02 0.16051934240E+02 0.13938214446E+02 0.11783582530E+02 0.97395706152E+01