    2    2   15    1
  0.2001288E+02  0.3839590E-09  0.3839590E-09  0.3839590E-09  0.5000000E-15
  1.000000000000000E-004
  CAR 
 unknown system                          
      8     60      8
 
  0.6250000E-01  0.6250000E-01  0.6250000E-01  0.3906250E-02
    1       -6.146320   1.000000
    2        5.093921   1.000000
    3        5.542914   0.997988
    4        5.542914   0.997988
    5        8.225415   0.000000
    6        8.306420   0.000000
    7        8.306420   0.000000
    8        9.171938   0.000000
 
  0.1875000E+00  0.6250000E-01  0.6250000E-01  0.1171875E-01
    1       -5.879742   1.000000
    2        3.593881   1.000000
    3        4.740971   1.000000
    4        5.426220   0.999893
    5        8.279570   0.000000
    6        8.550376   0.000000
    7        8.840474   0.000000
    8       10.641388   0.000000
 
  0.3125000E+00  0.6250000E-01  0.6250000E-01  0.1171875E-01
    1       -5.236627   1.000000
    2        1.379843   1.000000
    3        4.255978   1.000000
    4        4.966868   1.000000
    5        7.833343   0.000000
    6        9.040878   0.000000
    7        9.326383   0.000000
    8       12.178375   0.000000
 
  0.4375000E+00  0.6250000E-01  0.6250000E-01  0.1171875E-01
    1       -4.339946   1.000000
    2       -0.496021   1.000000
    3        4.040606   1.000000
    4        4.562067   1.000000
    5        7.519131   0.000000
    6        9.103161   0.000000
    7        9.116988   0.000000
    8       13.418584   0.000000
 
 -0.4375000E+00  0.6250000E-01  0.6250000E-01  0.1171875E-01
    1       -3.894784   1.000000
    2       -1.191892   1.000000
    3        4.090002   1.000000
    4        4.345091   1.000000
    5        7.439158   0.000000
    6        8.910393   0.000000
    7        9.180012   0.000000
    8       13.488999   0.000000
 
 -0.3125000E+00  0.6250000E-01  0.6250000E-01  0.1171875E-01
    1       -4.647000   1.000000
    2        0.058563   1.000000
    3        4.365540   1.000000
    4        4.375108   1.000000
    5        7.605061   0.000000
    6        8.917359   0.000000
    7        9.437299   0.000000
    8       12.540927   0.000000
 
 -0.1875000E+00  0.6250000E-01  0.6250000E-01  0.1171875E-01
    1       -5.488743   1.000000
    2        2.105840   1.000000
    3        4.640247   1.000000
    4        4.836906   1.000000
    5        7.959845   0.000000
    6        8.780036   0.000000
    7        9.494523   0.000000
    8       11.357736   0.000000
 
 -0.6250000E-01  0.6250000E-01  0.6250000E-01  0.1171875E-01
    1       -6.012349   1.000000
    2        4.344316   1.000000
    3        5.118796   1.000000
    4        5.277311   0.999999
    5        8.021978   0.000000
    6        8.593527   0.000000
    7        8.884030   0.000000
    8        9.908842   0.000000
 
  0.1875000E+00  0.1875000E+00  0.6250000E-01  0.1171875E-01
    1       -5.745609   1.000000
    2        3.452259   1.000000
    3        4.564641   1.000000
    4        4.647739   1.000000
    5        7.602922   0.000000
    6        9.350346   0.000000
    7        9.740052   0.000000
    8       10.254220   0.000000
 
  0.3125000E+00  0.1875000E+00  0.6250000E-01  0.2343750E-01
    1       -5.224177   1.000000
    2        1.957782   1.000000
    3        3.599914   1.000000
    4        4.390600   1.000000
    5        7.771204   0.000000
    6        9.461452   0.000000
    7       10.076330   0.000000
    8       10.533738   0.000000
 
  0.4375000E+00  0.1875000E+00  0.6250000E-01  0.2343750E-01
    1       -4.384308   1.000000
    2        0.110111   1.000000
    3        3.107252   1.000000
    4        3.982345   1.000000
    5        7.965113   0.000000
    6        9.387188   0.000000
    7       10.561960   0.000000
    8       10.828045   0.000000
 
 -0.4375000E+00  0.1875000E+00  0.6250000E-01  0.2343750E-01
    1       -3.627725   1.000000
    2       -1.091589   1.000000
    3        2.819929   1.000000
    4        3.889699   1.000000
    5        8.034884   0.000000
    6        9.081402   0.000000
    7       10.407732   0.000000
    8       12.845778   0.000000
 
 -0.3125000E+00  0.1875000E+00  0.6250000E-01  0.2343750E-01
    1       -4.082541   1.000000
    2       -0.406080   1.000000
    3        2.746793   1.000000
    4        4.172955   1.000000
    5        8.314651   0.000000
    6        8.993221   0.000000
    7       10.353745   0.000000
    8       12.097367   0.000000
 
 -0.1875000E+00  0.1875000E+00  0.6250000E-01  0.2343750E-01
    1       -4.977700   1.000000
    2        1.311475   1.000000
    3        3.047153   1.000000
    4        4.678167   1.000000
    5        8.626157   0.000000
    6        8.929686   0.000000
    7       10.231395   0.000000
    8       10.703283   0.000000
 
 -0.6250000E-01  0.1875000E+00  0.6250000E-01  0.2343750E-01
    1       -5.616023   1.000000
    2        2.780398   1.000000
    3        4.167171   1.000000
    4        5.049050   1.000000
    5        8.165344   0.000000
    6        8.830284   0.000000
    7        9.552327   0.000000
    8       10.778883   0.000000
 
  0.3125000E+00  0.3125000E+00  0.6250000E-01  0.1171875E-01
    1       -4.825889   1.000000
    2        1.455471   1.000000
    3        3.459196   1.000000
    4        3.580104   1.000000
    5        6.795616   0.000000
    6        8.450653   0.000000
    7       11.596007   0.000000
    8       11.739015   0.000000
 
  0.4375000E+00  0.3125000E+00  0.6250000E-01  0.2343750E-01
    1       -4.078558   1.000000
    2        0.224437   1.000000
    3        2.676557   1.000000
    4        3.235167   1.000000
    5        7.108577   0.000000
    6        8.287868   0.000000
    7       11.557571   0.000000
    8       12.729000   0.000000
 
 -0.4375000E+00  0.3125000E+00  0.6250000E-01  0.2343750E-01
    1       -3.186184   1.000000
    2       -0.965835   1.000000
    3        1.841096   1.000000
    4        3.204018   1.000000
    5        7.343046   0.000000
    6        9.943071   0.000000
    7       11.133145   0.000000
    8       12.641345   0.000000
 
 -0.3125000E+00  0.3125000E+00  0.6250000E-01  0.2343750E-01
    1       -3.257170   1.000000
    2       -0.872412   1.000000
    3        1.490185   1.000000
    4        3.546480   1.000000
    5        7.744336   0.000000
    6       10.675106   0.000000
    7       11.976913   0.000000
    8       12.266529   0.000000
 
 -0.1875000E+00  0.3125000E+00  0.6250000E-01  0.2343750E-01
    1       -4.148017   1.000000
    2        0.075424   1.000000
    3        2.090891   1.000000
    4        4.128952   1.000000
    5        8.373684   0.000000
    6        9.573381   0.000000
    7       11.000815   0.000000
    8       11.272965   0.000000
 
 -0.6250000E-01  0.3125000E+00  0.6250000E-01  0.2343750E-01
    1       -4.865161   1.000000
    2        0.710118   1.000000
    3        3.715323   1.000000
    4        4.579464   1.000000
    5        8.092186   0.000000
    6        8.944117   0.000000
    7        9.796990   0.000000
    8       11.477512   0.000000
 
  0.4375000E+00  0.4375000E+00  0.6250000E-01  0.1171875E-01
    1       -3.428741   1.000000
    2       -0.633870   1.000000
    3        2.774235   1.000000
    4        2.990149   1.000000
    5        6.402951   0.000675
    6        7.110272   0.000000
    7       13.888642   0.000000
    8       13.896645   0.000000
 
 -0.4375000E+00  0.4375000E+00  0.6250000E-01  0.2343750E-01
    1       -2.524040   1.000000
    2       -1.617939   1.000000
    3        2.219501   1.000000
    4        2.747916   1.000000
    5        6.832516   0.000000
    6        7.558945   0.000000
    7       13.635626   0.000000
    8       14.652246   0.000000
 
 -0.3125000E+00  0.4375000E+00  0.6250000E-01  0.2343750E-01
    1       -2.620726   1.000000
    2       -1.453023   1.000000
    3        1.494196   1.000000
    4        3.061282   1.000000
    5        7.196014   0.000000
    6        9.787673   0.000000
    7       12.112244   0.000000
    8       13.256715   0.000000
 
 -0.1875000E+00  0.4375000E+00  0.6250000E-01  0.2343750E-01
    1       -3.373308   1.000000
    2       -1.046792   1.000000
    3        2.043455   1.000000
    4        3.659326   1.000000
    5        7.864284   0.000000
    6        9.824884   0.000000
    7       11.362421   0.000000
    8       12.598715   0.000000
 
 -0.6250000E-01  0.4375000E+00  0.6250000E-01  0.2343750E-01
    1       -3.978699   1.000000
    2       -0.896887   1.000000
    3        3.541804   1.000000
    4        4.245224   1.000000
    5        7.891883   0.000000
    6        8.843667   0.000000
    7        9.618421   0.000000
    8       13.163529   0.000000
 
 -0.4375000E+00 -0.4375000E+00  0.6250000E-01  0.1171875E-01
    1       -2.575080   1.000000
    2       -1.635364   1.000000
    3        2.637203   1.000000
    4        2.869606   1.000000
    5        6.398288   0.000756
    6        6.757584   0.000000
    7       14.962012   0.000000
    8       15.033673   0.000000
 
 -0.3125000E+00 -0.4375000E+00  0.6250000E-01  0.2343750E-01
    1       -3.343719   1.000000
    2       -0.697321   1.000000
    3        2.376067   1.000000
    4        2.906628   1.000000
    5        6.920094   0.000000
    6        7.808747   0.000000
    7       12.568089   0.000000
    8       13.888592   0.000000
 
 -0.1875000E+00 -0.4375000E+00  0.6250000E-01  0.2343750E-01
    1       -3.812317   1.000000
    2       -0.436878   1.000000
    3        2.437121   1.000000
    4        3.502700   1.000000
    5        7.619697   0.000000
    6       10.128836   0.000000
    7       10.352965   0.000000
    8       11.573733   0.000000
 
 -0.3125000E+00 -0.3125000E+00  0.6250000E-01  0.1171875E-01
    1       -4.183008   1.000000
    2        0.406282   1.000000
    3        3.048324   1.000000
    4        3.228789   1.000000
    5        6.533723   0.000018
    6        7.685320   0.000000
    7       12.725300   0.000000
    8       12.802645   0.000000
 
 -0.1875000E+00 -0.3125000E+00  0.6250000E-01  0.2343750E-01
    1       -4.709159   1.000000
    2        1.112085   1.000000
    3        3.094175   1.000000
    4        3.742230   1.000000
    5        7.398961   0.000000
    6        8.964228   0.000000
    7       10.615752   0.000000
    8       11.600519   0.000000
 
 -0.1875000E+00 -0.1875000E+00  0.6250000E-01  0.1171875E-01
    1       -5.348786   1.000000
    2        2.480834   1.000000
    3        4.001727   1.000000
    4        4.033138   1.000000
    5        7.166585   0.000000
    6        9.312725   0.000000
    7       10.548510   0.000000
    8       10.711511   0.000000
 
  0.1875000E+00  0.1875000E+00  0.1875000E+00  0.3906250E-02
    1       -5.748798   1.000000
    2        2.873053   1.000000
    3        5.104526   1.000000
    4        5.104526   1.000000
    5        7.832868   0.000000
    6        8.921460   0.000000
    7        8.921460   0.000000
    8       11.287269   0.000000
 
  0.3125000E+00  0.1875000E+00  0.1875000E+00  0.1171875E-01
    1       -5.358692   1.000000
    2        2.036641   1.000000
    3        3.597453   1.000000
    4        5.123464   1.000000
    5        8.486196   0.000000
    6        9.043590   0.000000
    7        9.336365   0.000000
    8       11.338379   0.000000
 
  0.4375000E+00  0.1875000E+00  0.1875000E+00  0.1171875E-01
    1       -4.615418   1.000000
    2        0.673775   1.000000
    3        2.521351   1.000000
    4        4.620922   1.000000
    5        8.332442   0.000000
    6        9.797298   0.000000
    7       10.004037   0.000000
    8       11.622175   0.000000
 
 -0.4375000E+00  0.1875000E+00  0.1875000E+00  0.1171875E-01
    1       -3.725698   1.000000
    2       -0.807718   1.000000
    3        2.369975   1.000000
    4        4.091772   1.000000
    5        7.833085   0.000000
    6        9.979088   0.000000
    7       10.185932   0.000000
    8       13.473950   0.000000
 
 -0.3125000E+00  0.1875000E+00  0.1875000E+00  0.1171875E-01
    1       -3.710219   1.000000
    2       -0.835793   1.000000
    3        2.668494   1.000000
    4        3.774947   1.000000
    5        7.555625   0.000000
    6       10.051242   0.000000
    7       10.529781   0.000000
    8       11.517821   0.000000
 
 -0.1875000E+00  0.1875000E+00  0.1875000E+00  0.1171875E-01
    1       -4.598616   1.000000
    2        0.670225   1.000000
    3        3.278217   1.000000
    4        3.750775   1.000000
    5        7.487483   0.000000
    6        9.676202   0.000000
    7       10.327270   0.000000
    8       10.904638   0.000000
 
  0.3125000E+00  0.3125000E+00  0.1875000E+00  0.1171875E-01
    1       -5.103208   1.000000
    2        1.373766   1.000000
    3        4.102640   1.000000
    4        4.167422   1.000000
    5        7.881714   0.000000
    6        9.255805   0.000000
    7       10.163967   0.000000
    8       10.527519   0.000000
 
  0.4375000E+00  0.3125000E+00  0.1875000E+00  0.2343750E-01
    1       -4.479982   1.000000
    2        0.607876   1.000000
    3        2.577905   1.000000
    4        3.973005   1.000000
    5        8.370931   0.000000
    6        9.415954   0.000000
    7        9.895343   0.000000
    8       11.420624   0.000000
 
 -0.4375000E+00  0.3125000E+00  0.1875000E+00  0.2343750E-01
    1       -3.593355   1.000000
    2       -0.488789   1.000000
    3        1.791714   1.000000
    4        3.406930   1.000000
    5        8.823164   0.000000
    6        9.307167   0.000000
    7       10.585345   0.000000
    8       12.512751   0.000000
 
 -0.3125000E+00  0.3125000E+00  0.1875000E+00  0.2343750E-01
    1       -3.108304   1.000000
    2       -1.099637   1.000000
    3        1.795518   1.000000
    4        3.095278   1.000000
    5        8.352338   0.000000
    6        9.636234   0.000000
    7       11.365318   0.000000
    8       12.660450   0.000000
 
 -0.1875000E+00  0.3125000E+00  0.1875000E+00  0.2343750E-01
    1       -3.876675   1.000000
    2       -0.098930   1.000000
    3        2.215823   1.000000
    4        3.273819   1.000000
    5        8.084560   0.000000
    6        9.293343   0.000000
    7       10.170971   0.000000
    8       12.642052   0.000000
 
  0.4375000E+00  0.4375000E+00  0.1875000E+00  0.1171875E-01
    1       -3.985544   1.000000
    2       -0.042445   1.000000
    3        2.548860   1.000000
    4        3.421617   1.000000
    5        7.106413   0.000000
    6        9.129792   0.000000
    7       11.409121   0.000000
    8       11.724585   0.000000
 
 -0.4375000E+00  0.4375000E+00  0.1875000E+00  0.2343750E-01
    1       -3.185736   1.000000
    2       -0.836789   1.000000
    3        1.973143   1.000000
    4        2.739045   1.000000
    5        7.879613   0.000000
    6        8.888849   0.000000
    7       11.058862   0.000000
    8       13.862212   0.000000
 
 -0.3125000E+00  0.4375000E+00  0.1875000E+00  0.2343750E-01
    1       -2.381586   1.000000
    2       -1.588351   1.000000
    3        1.655689   1.000000
    4        2.239512   1.000000
    5        8.997741   0.000000
    6        9.921406   0.000000
    7       10.614001   0.000000
    8       11.612383   0.000000
 
 -0.1875000E+00  0.4375000E+00  0.1875000E+00  0.2343750E-01
    1       -2.981632   1.000000
    2       -1.042945   1.000000
    3        1.648243   1.000000
    4        2.713199   1.000000
    5        9.093954   0.000000
    6        9.520746   0.000000
    7       10.289830   0.000000
    8       12.770229   0.000000
 
 -0.4375000E+00 -0.4375000E+00  0.1875000E+00  0.1171875E-01
    1       -2.544410   1.000000
    2       -1.567961   1.000000
    3        1.759985   1.000000
    4        3.080917   1.000000
    5        6.674138   0.000000
    6        8.572208   0.000000
    7       13.547470   0.000000
    8       13.758803   0.000000
 
 -0.3125000E+00 -0.4375000E+00  0.1875000E+00  0.2343750E-01
    1       -2.444558   1.000000
    2       -1.597742   1.000000
    3        1.853408   1.000000
    4        2.454076   1.000000
    5        7.774157   0.000000
    6        8.687109   0.000000
    7       12.057635   0.000000
    8       13.168207   0.000000
 
 -0.3125000E+00 -0.3125000E+00  0.1875000E+00  0.1171875E-01
    1       -3.282741   1.000000
    2       -0.799348   1.000000
    3        2.025520   1.000000
    4        3.195632   1.000000
    5        6.823165   0.000000
    6        8.756060   0.000000
    7       12.567752   0.000000
    8       12.627360   0.000000
 
  0.3125000E+00  0.3125000E+00  0.3125000E+00  0.3906250E-02
    1       -4.996390   1.000000
    2        0.679279   1.000000
    3        4.693015   1.000000
    4        4.693015   1.000000
    5        7.381770   0.000000
    6        9.151241   0.000000
    7        9.151241   0.000000
    8       13.267774   0.000000
 
  0.4375000E+00  0.3125000E+00  0.3125000E+00  0.1171875E-01
    1       -4.519113   1.000000
    2        0.104425   1.000000
    3        3.233379   1.000000
    4        4.606345   1.000000
    5        8.097327   0.000000
    6        9.375418   0.000000
    7        9.420684   0.000000
    8       12.633080   0.000000
 
 -0.4375000E+00  0.3125000E+00  0.3125000E+00  0.1171875E-01
    1       -3.730641   1.000000
    2       -0.424802   1.000000
    3        1.712018   1.000000
    4        4.027806   1.000000
    5        7.756661   0.000000
    6       10.817351   0.000000
    7       10.991747   0.000000
    8       12.391752   0.000000
 
 -0.3125000E+00  0.3125000E+00  0.3125000E+00  0.1171875E-01
    1       -2.913149   1.000000
    2       -1.202775   1.000000
    3        1.375024   1.000000
    4        3.483168   1.000000
    5        7.140372   0.000000
    6       11.024138   0.000000
    7       12.086921   0.000000
    8       12.363850   0.000000
 
  0.4375000E+00  0.4375000E+00  0.3125000E+00  0.1171875E-01
    1       -4.206326   1.000000
    2       -0.451176   1.000000
    3        3.568998   1.000000
    4        4.044995   1.000000
    5        7.807204   0.000000
    6        9.157283   0.000000
    7        9.902720   0.000000
    8       11.939887   0.000000
 
 -0.4375000E+00  0.4375000E+00  0.3125000E+00  0.2343750E-01
    1       -3.589393   1.000000
    2       -0.808603   1.000000
    3        2.264518   1.000000
    4        3.570962   1.000000
    5        8.575436   0.000000
    6        8.919930   0.000000
    7       11.462019   0.000000
    8       11.681444   0.000000
 
 -0.3125000E+00  0.4375000E+00  0.3125000E+00  0.2343750E-01
    1       -2.775668   1.000000
    2       -1.267656   1.000000
    3        1.466526   1.000000
    4        2.860371   1.000000
    5        8.223712   0.000000
    6       10.465875   0.000000
    7       11.258053   0.000000
    8       11.786665   0.000000
 
 -0.4375000E+00 -0.4375000E+00  0.3125000E+00  0.1171875E-01
    1       -3.232511   1.000000
    2       -1.086503   1.000000
    3        1.872898   1.000000
    4        3.582547   1.000000
    5        7.288594   0.000000
    6       10.984781   0.000000
    7       11.293825   0.000000
    8       11.397220   0.000000
 
  0.4375000E+00  0.4375000E+00  0.4375000E+00  0.3906250E-02
    1       -4.111245   1.000000
    2       -0.957685   1.000000
    3        4.473304   1.000000
    4        4.473304   1.000000
    5        7.129680   0.000000
    6        9.011086   0.000000
    7        9.011086   0.000000
    8       13.377816   0.000000
 
 -0.4375000E+00  0.4375000E+00  0.4375000E+00  0.1171875E-01
    1       -3.762092   1.000000
    2       -1.132306   1.000000
    3        3.253526   1.000000
    4        4.206138   1.000000
    5        7.839134   0.000000
    6        9.147176   0.000000
    7        9.589116   0.000000
    8       13.771427   0.000000
