 running on    8 total cores
 distrk:  each k-point on    8 cores,    1 groups
 distr:  one band on    1 cores,    8 groups
 using from now: INCAR     
 vasp.5.4.4.18Apr17-6-g9f103f2a35 (build Dec 09 2018 21:25:21) complex          
  
 POSCAR found type information on POSCAR  Si
 POSCAR found :  1 types and       2 ions
 scaLAPACK will be used

 ----------------------------------------------------------------------------- 
|                                                                             |
|           W    W    AA    RRRRR   N    N  II  N    N   GGGG   !!!           |
|           W    W   A  A   R    R  NN   N  II  NN   N  G    G  !!!           |
|           W    W  A    A  R    R  N N  N  II  N N  N  G       !!!           |
|           W WW W  AAAAAA  RRRRR   N  N N  II  N  N N  G  GGG   !            |
|           WW  WW  A    A  R   R   N   NN  II  N   NN  G    G                |
|           W    W  A    A  R    R  N    N  II  N    N   GGGG   !!!           |
|                                                                             |
|      For optimal performance we recommend to set                            |
|        NCORE= 4 - approx SQRT( number of cores)                             |
|      NCORE specifies how many cores store one orbital (NPAR=cpu/NCORE).     |
|      This setting can  greatly improve the performance of VASP for DFT.     |
|      The default,   NCORE=1            might be grossly inefficient         |
|      on modern multi-core architectures or massively parallel machines.     |
|      Do your own testing !!!!                                               |
|      Unfortunately you need to use the default for GW and RPA calculations. |
|      (for HF NCORE is supported but not extensively tested yet)             |
|                                                                             |
 ----------------------------------------------------------------------------- 

 LDA part: xc-table for Pade appr. of Perdew
 POSCAR, INCAR and KPOINTS ok, starting setup
 FFT: planning ...
 WAVECAR not read
 entering main loop
       N       E                     dE             d eps       ncg     rms          rms(c)
DAV:   1     0.329319031029E+01    0.32932E+01   -0.26353E+03   976   0.530E+02
DAV:   2    -0.108725094139E+02   -0.14166E+02   -0.13766E+02  1560   0.701E+01
DAV:   3    -0.110175834723E+02   -0.14507E+00   -0.14507E+00  1176   0.931E+00
DAV:   4    -0.110181556296E+02   -0.57216E-03   -0.57216E-03  1632   0.625E-01
DAV:   5    -0.110181557783E+02   -0.14874E-06   -0.14921E-06  1168   0.968E-03    0.301E+00
DAV:   6    -0.108937072301E+02    0.12445E+00   -0.82324E-02  1176   0.149E+00    0.178E+00
DAV:   7    -0.108368717071E+02    0.56836E-01   -0.15111E-01  1216   0.215E+00    0.154E-01
DAV:   8    -0.108381804093E+02   -0.13087E-02   -0.41019E-03  1088   0.476E-01    0.250E-02
DAV:   9    -0.108382726141E+02   -0.92205E-04   -0.95043E-05   744   0.790E-02
   1 F= -.10838273E+02 E0= -.10838249E+02  d E =-.108383E+02
 curvature:   0.00 expect dE= 0.000E+00 dE for cont linesearch  0.000E+00
 trial: gam= 0.00000 g(F)=  0.665E-45 g(S)=  0.161E-01 ort = 0.000E+00 (trialstep = 0.100E+01)
 search vector abs. value=  0.161E-01
 bond charge predicted
       N       E                     dE             d eps       ncg     rms          rms(c)
DAV:   1    -0.108470261263E+02   -0.88457E-02   -0.24559E-01  1216   0.276E+00    0.314E-01
DAV:   2    -0.108428622933E+02    0.41638E-02   -0.34347E-03  1320   0.380E-01    0.180E-01
DAV:   3    -0.108406817492E+02    0.21805E-02   -0.44313E-03  1176   0.335E-01    0.226E-02
DAV:   4    -0.108406710521E+02    0.10697E-04   -0.48282E-05   552   0.625E-02
   2 F= -.10840671E+02 E0= -.10840658E+02  d E =-.239844E-02
 trial-energy change:   -0.002398  1 .order   -0.002749   -0.016147    0.010649
 step:   0.6026(harm=  0.6026)  dis= 0.00000  next Energy=   -10.843137 (dE=-0.486E-02)
 bond charge predicted
       N       E                     dE             d eps       ncg     rms          rms(c)
DAV:   1    -0.108438967855E+02   -0.32150E-02   -0.39733E-02  1184   0.112E+00    0.127E-01
DAV:   2    -0.108432301494E+02    0.66664E-03   -0.54994E-04  1248   0.152E-01    0.729E-02
DAV:   3    -0.108428886134E+02    0.34154E-03   -0.70034E-04   760   0.135E-01
   3 F= -.10842889E+02 E0= -.10842873E+02  d E =-.461600E-02
 curvature:  -0.30 expect dE=-0.389E-05 dE for cont linesearch -0.389E-05
 trial: gam= 0.00000 g(F)=  0.150E-44 g(S)=  0.129E-04 ort =-0.457E-03 (trialstep = 0.921E+00)
 search vector abs. value=  0.129E-04
 reached required accuracy - stopping structural energy minimisation
 writing wavefunctions
