<?xml version="1.0" encoding="ISO-8859-1"?>
<modeling>
 <generator>
  <i name="program" type="string">vasp </i>
  <i name="version" type="string">5.4.4.18Apr17-6-g9f103f2a35  </i>
  <i name="subversion" type="string">(build Dec 09 2018 21:25:21) complex            parallel </i>
  <i name="platform" type="string">IFC18.0.1.163_CrayMPICH7.7.0_MKL18.0.1.163 </i>
  <i name="date" type="string">2019 03 20 </i>
  <i name="time" type="string">10:01:14 </i>
 </generator>
 <incar>
  <i type="string" name="PREC">normal</i>
  <i type="int" name="IBRION">     2</i>
  <i name="EDIFF">      0.00040000</i>
  <i name="EDIFFG">     -0.01000000</i>
  <i type="int" name="NSW">    15</i>
  <i type="int" name="ISIF">     3</i>
  <i name="ENCUT">    300.00000000</i>
  <i type="int" name="NBANDS">     8</i>
  <i type="logical" name="LREAL"> F  </i>
  <i type="int" name="ISMEAR">     0</i>
  <i name="SIGMA">      0.20000000</i>
  <v type="int" name="KPOINT_BSE">    -1     0     0     0</v>
 </incar>
 <structure name="primitive_cell" >
  <crystal>
   <varray name="basis" >
    <v>       0.00000000       2.71500000       2.71500000 </v>
    <v>       2.71500000       0.00000000       2.71500000 </v>
    <v>       2.71500000       2.71500000       0.00000000 </v>
   </varray>
   <i name="volume">     40.02575175 </i>
   <varray name="rec_basis" >
    <v>      -0.18416206       0.18416206       0.18416206 </v>
    <v>       0.18416206      -0.18416206       0.18416206 </v>
    <v>       0.18416206       0.18416206      -0.18416206 </v>
   </varray>
  </crystal>
  <varray name="positions" >
   <v>      -0.50000000      -0.50000000      -0.50000000 </v>
   <v>      -0.25000000      -0.25000000      -0.25000000 </v>
  </varray>
 </structure>
 <varray name="primitive_index" >
  <v type="int" >        1 </v>
  <v type="int" >        2 </v>
 </varray>
 <kpoints>
  <generation param="Monkhorst-Pack">
   <v type="int" name="divisions">       8        8        8 </v>
   <v name="usershift">      0.00000000       0.00000000       0.00000000 </v>
   <v name="genvec1">      0.12500000       0.00000000      -0.00000000 </v>
   <v name="genvec2">      0.00000000       0.12500000       0.00000000 </v>
   <v name="genvec3">     -0.00000000      -0.00000000       0.12500000 </v>
   <v name="shift">      0.50000000       0.50000000       0.50000000 </v>
  </generation>
  <varray name="kpointlist" >
   <v>       0.06250000       0.06250000       0.06250000 </v>
   <v>       0.18750000       0.06250000       0.06250000 </v>
   <v>       0.31250000       0.06250000       0.06250000 </v>
   <v>       0.43750000       0.06250000       0.06250000 </v>
   <v>      -0.43750000       0.06250000       0.06250000 </v>
   <v>      -0.31250000       0.06250000       0.06250000 </v>
   <v>      -0.18750000       0.06250000       0.06250000 </v>
   <v>      -0.06250000       0.06250000       0.06250000 </v>
   <v>       0.18750000       0.18750000       0.06250000 </v>
   <v>       0.31250000       0.18750000       0.06250000 </v>
   <v>       0.43750000       0.18750000       0.06250000 </v>
   <v>      -0.43750000       0.18750000       0.06250000 </v>
   <v>      -0.31250000       0.18750000       0.06250000 </v>
   <v>      -0.18750000       0.18750000       0.06250000 </v>
   <v>      -0.06250000       0.18750000       0.06250000 </v>
   <v>       0.31250000       0.31250000       0.06250000 </v>
   <v>       0.43750000       0.31250000       0.06250000 </v>
   <v>      -0.43750000       0.31250000       0.06250000 </v>
   <v>      -0.31250000       0.31250000       0.06250000 </v>
   <v>      -0.18750000       0.31250000       0.06250000 </v>
   <v>      -0.06250000       0.31250000       0.06250000 </v>
   <v>       0.43750000       0.43750000       0.06250000 </v>
   <v>      -0.43750000       0.43750000       0.06250000 </v>
   <v>      -0.31250000       0.43750000       0.06250000 </v>
   <v>      -0.18750000       0.43750000       0.06250000 </v>
   <v>      -0.06250000       0.43750000       0.06250000 </v>
   <v>      -0.43750000      -0.43750000       0.06250000 </v>
   <v>      -0.31250000      -0.43750000       0.06250000 </v>
   <v>      -0.18750000      -0.43750000       0.06250000 </v>
   <v>      -0.31250000      -0.31250000       0.06250000 </v>
   <v>      -0.18750000      -0.31250000       0.06250000 </v>
   <v>      -0.18750000      -0.18750000       0.06250000 </v>
   <v>       0.18750000       0.18750000       0.18750000 </v>
   <v>       0.31250000       0.18750000       0.18750000 </v>
   <v>       0.43750000       0.18750000       0.18750000 </v>
   <v>      -0.43750000       0.18750000       0.18750000 </v>
   <v>      -0.31250000       0.18750000       0.18750000 </v>
   <v>      -0.18750000       0.18750000       0.18750000 </v>
   <v>       0.31250000       0.31250000       0.18750000 </v>
   <v>       0.43750000       0.31250000       0.18750000 </v>
   <v>      -0.43750000       0.31250000       0.18750000 </v>
   <v>      -0.31250000       0.31250000       0.18750000 </v>
   <v>      -0.18750000       0.31250000       0.18750000 </v>
   <v>       0.43750000       0.43750000       0.18750000 </v>
   <v>      -0.43750000       0.43750000       0.18750000 </v>
   <v>      -0.31250000       0.43750000       0.18750000 </v>
   <v>      -0.18750000       0.43750000       0.18750000 </v>
   <v>      -0.43750000      -0.43750000       0.18750000 </v>
   <v>      -0.31250000      -0.43750000       0.18750000 </v>
   <v>      -0.31250000      -0.31250000       0.18750000 </v>
   <v>       0.31250000       0.31250000       0.31250000 </v>
   <v>       0.43750000       0.31250000       0.31250000 </v>
   <v>      -0.43750000       0.31250000       0.31250000 </v>
   <v>      -0.31250000       0.31250000       0.31250000 </v>
   <v>       0.43750000       0.43750000       0.31250000 </v>
   <v>      -0.43750000       0.43750000       0.31250000 </v>
   <v>      -0.31250000       0.43750000       0.31250000 </v>
   <v>      -0.43750000      -0.43750000       0.31250000 </v>
   <v>       0.43750000       0.43750000       0.43750000 </v>
   <v>      -0.43750000       0.43750000       0.43750000 </v>
  </varray>
  <varray name="weights" >
   <v>       0.00390625 </v>
   <v>       0.01171875 </v>
   <v>       0.01171875 </v>
   <v>       0.01171875 </v>
   <v>       0.01171875 </v>
   <v>       0.01171875 </v>
   <v>       0.01171875 </v>
   <v>       0.01171875 </v>
   <v>       0.01171875 </v>
   <v>       0.02343750 </v>
   <v>       0.02343750 </v>
   <v>       0.02343750 </v>
   <v>       0.02343750 </v>
   <v>       0.02343750 </v>
   <v>       0.02343750 </v>
   <v>       0.01171875 </v>
   <v>       0.02343750 </v>
   <v>       0.02343750 </v>
   <v>       0.02343750 </v>
   <v>       0.02343750 </v>
   <v>       0.02343750 </v>
   <v>       0.01171875 </v>
   <v>       0.02343750 </v>
   <v>       0.02343750 </v>
   <v>       0.02343750 </v>
   <v>       0.02343750 </v>
   <v>       0.01171875 </v>
   <v>       0.02343750 </v>
   <v>       0.02343750 </v>
   <v>       0.01171875 </v>
   <v>       0.02343750 </v>
   <v>       0.01171875 </v>
   <v>       0.00390625 </v>
   <v>       0.01171875 </v>
   <v>       0.01171875 </v>
   <v>       0.01171875 </v>
   <v>       0.01171875 </v>
   <v>       0.01171875 </v>
   <v>       0.01171875 </v>
   <v>       0.02343750 </v>
   <v>       0.02343750 </v>
   <v>       0.02343750 </v>
   <v>       0.02343750 </v>
   <v>       0.01171875 </v>
   <v>       0.02343750 </v>
   <v>       0.02343750 </v>
   <v>       0.02343750 </v>
   <v>       0.01171875 </v>
   <v>       0.02343750 </v>
   <v>       0.01171875 </v>
   <v>       0.00390625 </v>
   <v>       0.01171875 </v>
   <v>       0.01171875 </v>
   <v>       0.01171875 </v>
   <v>       0.01171875 </v>
   <v>       0.02343750 </v>
   <v>       0.02343750 </v>
   <v>       0.01171875 </v>
   <v>       0.00390625 </v>
   <v>       0.01171875 </v>
  </varray>
 </kpoints>
 <parameters>
  <separator name="general" >
   <i type="string" name="SYSTEM">unknown system</i>
   <i type="logical" name="LCOMPAT"> F  </i>
  </separator>
  <separator name="electronic" >
   <i type="string" name="PREC">normal</i>
   <i name="ENMAX">    300.00000000</i>
   <i name="ENAUG">    322.06900000</i>
   <i name="EDIFF">      0.00040000</i>
   <i type="int" name="IALGO">    38</i>
   <i type="int" name="IWAVPR">    11</i>
   <i type="int" name="NBANDS">     8</i>
   <i name="NELECT">      8.00000000</i>
   <i type="int" name="TURBO">     0</i>
   <i type="int" name="IRESTART">     0</i>
   <i type="int" name="NREBOOT">     0</i>
   <i type="int" name="NMIN">     0</i>
   <i name="EREF">      0.00000000</i>
   <separator name="electronic smearing" >
    <i type="int" name="ISMEAR">     0</i>
    <i name="SIGMA">      0.20000000</i>
    <i name="KSPACING">      0.50000000</i>
    <i type="logical" name="KGAMMA"> T  </i>
   </separator>
   <separator name="electronic projectors" >
    <i type="logical" name="LREAL"> F  </i>
    <v name="ROPT">      0.00000000</v>
    <i type="int" name="LMAXPAW">  -100</i>
    <i type="int" name="LMAXMIX">     2</i>
    <i type="logical" name="NLSPLINE"> F  </i>
   </separator>
   <separator name="electronic startup" >
    <i type="int" name="ISTART">     0</i>
    <i type="int" name="ICHARG">     2</i>
    <i type="int" name="INIWAV">     1</i>
   </separator>
   <separator name="electronic spin" >
    <i type="int" name="ISPIN">     1</i>
    <i type="logical" name="LNONCOLLINEAR"> F  </i>
    <v name="MAGMOM">      1.00000000      1.00000000</v>
    <i name="NUPDOWN">     -1.00000000</i>
    <i type="logical" name="LSORBIT"> F  </i>
    <v name="SAXIS">      0.00000000      0.00000000      1.00000000</v>
    <i type="logical" name="LSPIRAL"> F  </i>
    <v name="QSPIRAL">      0.00000000      0.00000000      0.00000000</v>
    <i type="logical" name="LZEROZ"> F  </i>
   </separator>
   <separator name="electronic exchange-correlation" >
    <i type="logical" name="LASPH"> F  </i>
    <i type="logical" name="LMETAGGA"> F  </i>
   </separator>
   <separator name="electronic convergence" >
    <i type="int" name="NELM">    60</i>
    <i type="int" name="NELMDL">    -5</i>
    <i type="int" name="NELMIN">     2</i>
    <i name="ENINI">    300.00000000</i>
    <separator name="electronic convergence detail" >
     <i type="logical" name="LDIAG"> T  </i>
     <i type="logical" name="LSUBROT"> F  </i>
     <i name="WEIMIN">      0.00100000</i>
     <i name="EBREAK">      0.00001250</i>
     <i name="DEPER">      0.30000000</i>
     <i type="int" name="NRMM">     4</i>
     <i name="TIME">      0.40000000</i>
    </separator>
   </separator>
   <separator name="electronic mixer" >
    <i name="AMIX">      0.40000000</i>
    <i name="BMIX">      1.00000000</i>
    <i name="AMIN">      0.10000000</i>
    <i name="AMIX_MAG">      1.60000000</i>
    <i name="BMIX_MAG">      1.00000000</i>
    <separator name="electronic mixer details" >
     <i type="int" name="IMIX">     4</i>
     <i type="logical" name="MIXFIRST"> F  </i>
     <i type="int" name="MAXMIX">   -45</i>
     <i name="WC">    100.00000000</i>
     <i type="int" name="INIMIX">     1</i>
     <i type="int" name="MIXPRE">     1</i>
     <i type="int" name="MREMOVE">     5</i>
    </separator>
   </separator>
   <separator name="electronic dipolcorrection" >
    <i type="logical" name="LDIPOL"> F  </i>
    <i type="logical" name="LMONO"> F  </i>
    <i type="int" name="IDIPOL">     0</i>
    <i name="EPSILON">      1.00000000</i>
    <v name="DIPOL">   -100.00000000   -100.00000000   -100.00000000</v>
    <i name="EFIELD">      0.00000000</i>
   </separator>
  </separator>
  <separator name="grids" >
   <i type="int" name="NGX">    16</i>
   <i type="int" name="NGY">    16</i>
   <i type="int" name="NGZ">    16</i>
   <i type="int" name="NGXF">    32</i>
   <i type="int" name="NGYF">    32</i>
   <i type="int" name="NGZF">    32</i>
   <i type="logical" name="ADDGRID"> F  </i>
  </separator>
  <separator name="ionic" >
   <i type="int" name="NSW">    15</i>
   <i type="int" name="IBRION">     2</i>
   <i type="int" name="MDALGO">     0</i>
   <i type="int" name="ISIF">     3</i>
   <i name="PSTRESS">      0.00000000</i>
   <i name="EDIFFG">     -0.01000000</i>
   <i type="int" name="NFREE">     1</i>
   <i name="POTIM">      0.50000000</i>
   <i name="SMASS">     -3.00000000</i>
   <i name="SCALEE">      1.00000000</i>
  </separator>
  <separator name="ionic md" >
   <i name="TEBEG">      0.00010000</i>
   <i name="TEEND">      0.00010000</i>
   <i type="int" name="NBLOCK">     1</i>
   <i type="int" name="KBLOCK">    15</i>
   <i type="int" name="NPACO">   256</i>
   <i name="APACO">     16.00000000</i>
  </separator>
  <separator name="symmetry" >
   <i type="int" name="ISYM">     2</i>
   <i name="SYMPREC">      0.00001000</i>
  </separator>
  <separator name="dos" >
   <i type="int" name="LORBIT">     0</i>
   <v name="RWIGS">     -1.00000000</v>
   <i type="int" name="NEDOS">   301</i>
   <i name="EMIN">     10.00000000</i>
   <i name="EMAX">    -10.00000000</i>
   <i name="EFERMI">      0.00000000</i>
  </separator>
  <separator name="writing" >
   <i type="int" name="NWRITE">     2</i>
   <i type="logical" name="LWAVE"> T  </i>
   <i type="logical" name="LDOWNSAMPLE"> F  </i>
   <i type="logical" name="LCHARG"> T  </i>
   <i type="logical" name="LPARD"> F  </i>
   <i type="logical" name="LVTOT"> F  </i>
   <i type="logical" name="LVHAR"> F  </i>
   <i type="logical" name="LELF"> F  </i>
   <i type="logical" name="LOPTICS"> F  </i>
   <v name="STM">      0.00000000      0.00000000      0.00000000      0.00000000      0.00000000      0.00000000      0.00000000</v>
  </separator>
  <separator name="performance" >
   <i type="int" name="NPAR">     8</i>
   <i type="int" name="NSIM">     4</i>
   <i type="int" name="NBLK">    -1</i>
   <i type="logical" name="LPLANE"> T  </i>
   <i type="logical" name="LSCALAPACK"> T  </i>
   <i type="logical" name="LSCAAWARE"> F  </i>
   <i type="logical" name="LSCALU"> F  </i>
   <i type="logical" name="LASYNC"> F  </i>
   <i type="logical" name="LORBITALREAL"> F  </i>
  </separator>
  <separator name="miscellaneous" >
   <i type="int" name="IDIOT">     3</i>
   <i type="int" name="ISPECIAL">     0</i>
   <i type="logical" name="LMUSIC"> F  </i>
   <v name="POMASS">     28.08500000</v>
   <v name="DARWINR">      0.00000000</v>
   <v name="DARWINV">      1.00000000</v>
   <i type="logical" name="LCORR"> T  </i>
  </separator>
  <i type="logical" name="GGA_COMPAT"> T  </i>
  <i type="logical" name="LBERRY"> F  </i>
  <i type="int" name="ICORELEVEL">     0</i>
  <i type="logical" name="LDAU"> F  </i>
  <i type="int" name="I_CONSTRAINED_M">     0</i>
  <separator name="electronic exchange-correlation" >
   <i type="string" name="GGA">--</i>
   <i type="int" name="VOSKOWN">     0</i>
   <i type="logical" name="LHFCALC"> F  </i>
   <i type="string" name="PRECFOCK"></i>
   <i type="logical" name="LSYMGRAD"> F  </i>
   <i type="logical" name="LHFONE"> F  </i>
   <i type="logical" name="LRHFCALC"> F  </i>
   <i type="logical" name="LTHOMAS"> F  </i>
   <i type="logical" name="LMODELHF"> F  </i>
   <i name="ENCUT4O">     -1.00000000</i>
   <i type="int" name="EXXOEP">     0</i>
   <i type="int" name="FOURORBIT">     0</i>
   <i name="AEXX">      0.00000000</i>
   <i name="HFALPHA">      0.00000000</i>
   <i name="MCALPHA">      0.00000000</i>
   <i name="ALDAX">      1.00000000</i>
   <i name="AGGAX">      1.00000000</i>
   <i name="ALDAC">      1.00000000</i>
   <i name="AGGAC">      1.00000000</i>
   <i type="int" name="NKREDX">     1</i>
   <i type="int" name="NKREDY">     1</i>
   <i type="int" name="NKREDZ">     1</i>
   <i type="logical" name="SHIFTRED"> F  </i>
   <i type="logical" name="ODDONLY"> F  </i>
   <i type="logical" name="EVENONLY"> F  </i>
   <i type="int" name="LMAXFOCK">     0</i>
   <i type="int" name="NMAXFOCKAE">     0</i>
   <i type="logical" name="LFOCKAEDFT"> F  </i>
   <i name="HFSCREEN">      0.00000000</i>
   <i name="HFSCREENC">      0.00000000</i>
   <i type="int" name="NBANDSGWLOW">     0</i>
  </separator>
  <separator name="vdW DFT" >
   <i type="logical" name="LUSE_VDW"> F  </i>
   <i name="Zab_VDW">     -0.84910000</i>
   <i name="PARAM1">      0.12340000</i>
   <i name="PARAM2">      1.00000000</i>
   <i name="PARAM3">      0.00000000</i>
  </separator>
  <separator name="model GW" >
   <i type="int" name="MODEL_GW">     0</i>
   <i name="MODEL_EPS0">     12.00772552</i>
   <i name="MODEL_ALPHA">      1.00000000</i>
  </separator>
  <separator name="linear response parameters" >
   <i type="logical" name="LEPSILON"> F  </i>
   <i type="logical" name="LRPA"> F  </i>
   <i type="logical" name="LNABLA"> F  </i>
   <i type="logical" name="LVEL"> F  </i>
   <i type="int" name="KINTER">     0</i>
   <i name="CSHIFT">      0.10000000</i>
   <i name="OMEGAMAX">     -1.00000000</i>
   <i name="DEG_THRESHOLD">      0.00200000</i>
   <i name="RTIME">     -0.10000000</i>
   <i name="WPLASMAI">      0.00000000</i>
   <v name="DFIELD">      0.00000000      0.00000000      0.00000000</v>
   <v name="WPLASMA">      0.00000000      0.00000000      0.00000000      0.00000000      0.00000000      0.00000000      0.00000000      0.00000000      0.00000000</v>
  </separator>
  <separator name="orbital magnetization" >
   <i type="logical" name="NUCIND"> F  </i>
   <v name="MAGPOS">      0.00000000      0.00000000      0.00000000</v>
   <i type="logical" name="LNICSALL"> T  </i>
   <i type="logical" name="ORBITALMAG"> F  </i>
   <i type="logical" name="LMAGBLOCH"> F  </i>
   <i type="logical" name="LCHIMAG"> F  </i>
   <i type="logical" name="LGAUGE"> T  </i>
   <i type="int" name="MAGATOM">     0</i>
   <v name="MAGDIPOL">      0.00000000      0.00000000      0.00000000</v>
   <v name="AVECCONST">      0.00000000      0.00000000      0.00000000</v>
  </separator>
  <separator name="response functions" >
   <i type="logical" name="LADDER"> F  </i>
   <i type="logical" name="LRPAFORCE"> F  </i>
   <i type="logical" name="LFXC"> F  </i>
   <i type="logical" name="LHARTREE"> T  </i>
   <i type="int" name="IBSE">     0</i>
   <v type="int" name="KPOINT">    -1     0     0     0</v>
   <i type="logical" name="LTCTE"> F  </i>
   <i type="logical" name="LTETE"> F  </i>
   <i type="logical" name="LTRIPLET"> F  </i>
   <i type="logical" name="LFXCEPS"> F  </i>
   <i type="logical" name="LFXHEG"> F  </i>
   <i type="int" name="NATURALO">     2</i>
   <i type="logical" name="L2ORDER"> F  </i>
   <i type="logical" name="LMP2LT"> F  </i>
   <i type="logical" name="LUSEW"> F  </i>
   <i name="ENCUTGW">     -2.00000000</i>
   <i name="ENCUTGWSOFT">     -2.00000000</i>
   <i name="ENCUTLF">     -1.00000000</i>
   <i type="int" name="LMAXMP2">    -1</i>
   <i name="SCISSOR">      0.00000000</i>
   <i type="int" name="NOMEGA">     0</i>
   <i type="int" name="NOMEGAR">     0</i>
   <i type="int" name="NBANDSGW">    -1</i>
   <i type="int" name="NBANDSO">    -1</i>
   <i type="int" name="NBANDSV">    -1</i>
   <i type="int" name="NELM">     1</i>
   <i type="int" name="NELMHF">     1</i>
   <i type="int" name="DIM">     3</i>
   <i type="int" name="ANTIRES">     0</i>
   <i name="OMEGAMAX">    -30.00000000</i>
   <i name="OMEGAMIN">    -30.00000000</i>
   <i name="OMEGATL">   -200.00000000</i>
   <i type="int" name="OMEGAGRID">   140</i>
   <i name="CSHIFT">     -0.10000000</i>
   <i type="logical" name="SELFENERGY"> F  </i>
   <i type="logical" name="LSPECTRAL"> F  </i>
   <i type="logical" name="LSPECTRALGW"> F  </i>
   <i type="logical" name="LSINGLES"> F  </i>
   <i type="logical" name="LFERMIGW"> F  </i>
   <i type="logical" name="ODDONLYGW"> F  </i>
   <i type="logical" name="EVENONLYGW"> F  </i>
   <i type="int" name="NKREDLFX">     1</i>
   <i type="int" name="NKREDLFY">     1</i>
   <i type="int" name="NKREDLFZ">     1</i>
   <i type="int" name="MAXMEM">  2800</i>
   <i type="int" name="TELESCOPE">     0</i>
   <i type="int" name="TAUPAR">     1</i>
   <i type="int" name="OMEGAPAR">    -1</i>
   <i name="LAMBDA">      1.00000000</i>
  </separator>
  <separator name="External order field" >
   <i name="OFIELD_KAPPA">      0.00000000</i>
   <v name="OFIELD_K">      0.00000000      0.00000000      0.00000000</v>
   <i name="OFIELD_Q6_NEAR">      0.00000000</i>
   <i name="OFIELD_Q6_FAR">      0.00000000</i>
   <i name="OFIELD_A">      0.00000000</i>
  </separator>
 </parameters>
 <atominfo>
  <atoms>       2 </atoms>
  <types>       1 </types>
  <array name="atoms" >
   <dimension dim="1">ion</dimension>
   <field type="string">element</field>
   <field type="int">atomtype</field>
   <set>
    <rc><c>Si</c><c>   1</c></rc>
    <rc><c>Si</c><c>   1</c></rc>
   </set>
  </array>
  <array name="atomtypes" >
   <dimension dim="1">type</dimension>
   <field type="int">atomspertype</field>
   <field type="string">element</field>
   <field>mass</field>
   <field>valence</field>
   <field type="string">pseudopotential</field>
   <set>
    <rc><c>   2</c><c>Si</c><c>     28.08500000</c><c>      4.00000000</c><c> PAW_PBE Si 05Jan2001                   </c></rc>
   </set>
  </array>
 </atominfo>
 <structure name="initialpos" >
  <crystal>
   <varray name="basis" >
    <v>       0.00000000       2.71500000       2.71500000 </v>
    <v>       2.71500000       0.00000000       2.71500000 </v>
    <v>       2.71500000       2.71500000       0.00000000 </v>
   </varray>
   <i name="volume">     40.02575175 </i>
   <varray name="rec_basis" >
    <v>      -0.18416206       0.18416206       0.18416206 </v>
    <v>       0.18416206      -0.18416206       0.18416206 </v>
    <v>       0.18416206       0.18416206      -0.18416206 </v>
   </varray>
  </crystal>
  <varray name="positions" >
   <v>       0.50000000       0.50000000       0.50000000 </v>
   <v>       0.75000000       0.75000000       0.75000000 </v>
  </varray>
 </structure>
 <calculation>
  <scstep>
   <time name="dav">    0.52    0.53</time>
   <time name="total">    0.56    0.58</time>
   <energy>
    <i name="alphaZ">      3.36414203 </i>
    <i name="ewald">   -228.56352493 </i>
    <i name="hartreedc">    -11.00108243 </i>
    <i name="XCdc">    -18.60181216 </i>
    <i name="pawpsdc">     65.95520812 </i>
    <i name="pawaedc">    -30.76852678 </i>
    <i name="eentropy">     -0.01325721 </i>
    <i name="bandstr">     16.79235781 </i>
    <i name="atom">    206.12968587 </i>
    <i name="e_fr_energy">      3.29319031 </i>
    <i name="e_wo_entrp">      3.30644752 </i>
    <i name="e_0_energy">      3.29981892 </i>
   </energy>
  </scstep>
  <scstep>
   <time name="dav">    0.86    0.87</time>
   <time name="total">    0.86    0.87</time>
   <energy>
    <i name="e_fr_energy">    -10.87250941 </i>
    <i name="e_wo_entrp">    -10.87250804 </i>
    <i name="e_0_energy">    -10.87250873 </i>
   </energy>
  </scstep>
  <scstep>
   <time name="dav">    0.64    0.64</time>
   <time name="total">    0.64    0.65</time>
   <energy>
    <i name="e_fr_energy">    -11.01758347 </i>
    <i name="e_wo_entrp">    -11.01758231 </i>
    <i name="e_0_energy">    -11.01758289 </i>
   </energy>
  </scstep>
  <scstep>
   <time name="dav">    0.91    0.92</time>
   <time name="total">    0.91    0.92</time>
   <energy>
    <i name="e_fr_energy">    -11.01815563 </i>
    <i name="e_wo_entrp">    -11.01815446 </i>
    <i name="e_0_energy">    -11.01815505 </i>
   </energy>
  </scstep>
  <scstep>
   <time name="dav">    0.63    0.64</time>
   <time name="total">    0.66    0.67</time>
   <energy>
    <i name="e_fr_energy">    -11.01815578 </i>
    <i name="e_wo_entrp">    -11.01815461 </i>
    <i name="e_0_energy">    -11.01815520 </i>
   </energy>
  </scstep>
  <scstep>
   <time name="dav">    0.63    0.64</time>
   <time name="total">    0.68    0.70</time>
   <energy>
    <i name="e_fr_energy">    -10.89370723 </i>
    <i name="e_wo_entrp">    -10.89369950 </i>
    <i name="e_0_energy">    -10.89370337 </i>
   </energy>
  </scstep>
  <scstep>
   <time name="dav">    0.65    0.65</time>
   <time name="total">    0.70    0.71</time>
   <energy>
    <i name="e_fr_energy">    -10.83687171 </i>
    <i name="e_wo_entrp">    -10.83681109 </i>
    <i name="e_0_energy">    -10.83684140 </i>
   </energy>
  </scstep>
  <scstep>
   <time name="dav">    0.58    0.58</time>
   <time name="total">    0.63    0.64</time>
   <energy>
    <i name="e_fr_energy">    -10.83818041 </i>
    <i name="e_wo_entrp">    -10.83813291 </i>
    <i name="e_0_energy">    -10.83815666 </i>
   </energy>
  </scstep>
  <scstep>
   <time name="dav">    0.43    0.43</time>
   <time name="total">    0.46    0.47</time>
   <energy>
    <i name="alphaZ">      3.36414203 </i>
    <i name="ewald">   -228.56352493 </i>
    <i name="hartreedc">    -14.90385304 </i>
    <i name="XCdc">    -17.96001379 </i>
    <i name="pawpsdc">     74.50924898 </i>
    <i name="pawaedc">    -39.54847182 </i>
    <i name="eentropy">     -0.00004714 </i>
    <i name="bandstr">      6.13456123 </i>
    <i name="atom">    206.12968587 </i>
    <i name="e_fr_energy">    -10.83827261 </i>
    <i name="e_wo_entrp">    -10.83822547 </i>
    <i name="e_0_energy">    -10.83824904 </i>
   </energy>
  </scstep>
  <structure>
   <crystal>
    <varray name="basis" >
     <v>       0.00000000       2.71500000       2.71500000 </v>
     <v>       2.71500000       0.00000000       2.71500000 </v>
     <v>       2.71500000       2.71500000       0.00000000 </v>
    </varray>
    <i name="volume">     40.02575175 </i>
    <varray name="rec_basis" >
     <v>      -0.18416206       0.18416206       0.18416206 </v>
     <v>       0.18416206      -0.18416206       0.18416206 </v>
     <v>       0.18416206       0.18416206      -0.18416206 </v>
    </varray>
   </crystal>
   <varray name="positions" >
    <v>       0.50000000       0.50000000       0.50000000 </v>
    <v>       0.75000000       0.75000000       0.75000000 </v>
   </varray>
  </structure>
  <varray name="forces" >
   <v>       0.00000000       0.00000000       0.00000000 </v>
   <v>      -0.00000000      -0.00000000      -0.00000000 </v>
  </varray>
  <varray name="stress" >
   <v>      18.90819542       0.00000000      -0.00000000 </v>
   <v>       0.00000000      18.90819542       0.00000000 </v>
   <v>      -0.00000000       0.00000000      18.90819542 </v>
  </varray>
  <energy>
   <i name="e_fr_energy">    -10.83827261 </i>
   <i name="e_wo_entrp">    -10.83824904 </i>
   <i name="e_0_energy">     -0.00004714 </i>
  </energy>
  <time name="totalsc">    7.30    7.91</time>
 </calculation>
 <calculation>
  <scstep>
   <time name="dav">    0.65    0.65</time>
   <time name="total">    0.70    0.71</time>
   <energy>
    <i name="alphaZ">      3.25171945 </i>
    <i name="ewald">   -225.98858737 </i>
    <i name="hartreedc">    -14.74806727 </i>
    <i name="XCdc">    -18.12608072 </i>
    <i name="pawpsdc">     74.50828443 </i>
    <i name="pawaedc">    -39.54850200 </i>
    <i name="eentropy">     -0.00001432 </i>
    <i name="bandstr">      3.67453581 </i>
    <i name="atom">    206.12968587 </i>
    <i name="e_fr_energy">    -10.84702613 </i>
    <i name="e_wo_entrp">    -10.84701180 </i>
    <i name="e_0_energy">    -10.84701897 </i>
   </energy>
  </scstep>
  <scstep>
   <time name="dav">    0.71    0.71</time>
   <time name="total">    0.76    0.77</time>
   <energy>
    <i name="e_fr_energy">    -10.84286229 </i>
    <i name="e_wo_entrp">    -10.84284346 </i>
    <i name="e_0_energy">    -10.84285288 </i>
   </energy>
  </scstep>
  <scstep>
   <time name="dav">    0.63    0.63</time>
   <time name="total">    0.68    0.69</time>
   <energy>
    <i name="e_fr_energy">    -10.84068175 </i>
    <i name="e_wo_entrp">    -10.84065543 </i>
    <i name="e_0_energy">    -10.84066859 </i>
   </energy>
  </scstep>
  <scstep>
   <time name="dav">    0.34    0.34</time>
   <time name="total">    0.37    0.38</time>
   <energy>
    <i name="alphaZ">      3.25171945 </i>
    <i name="ewald">   -225.98858737 </i>
    <i name="hartreedc">    -15.31627327 </i>
    <i name="XCdc">    -18.11455810 </i>
    <i name="pawpsdc">     73.47776527 </i>
    <i name="pawaedc">    -38.48956749 </i>
    <i name="eentropy">     -0.00002582 </i>
    <i name="bandstr">      4.20917040 </i>
    <i name="atom">    206.12968587 </i>
    <i name="e_fr_energy">    -10.84067105 </i>
    <i name="e_wo_entrp">    -10.84064523 </i>
    <i name="e_0_energy">    -10.84065814 </i>
   </energy>
  </scstep>
  <structure>
   <crystal>
    <varray name="basis" >
     <v>       0.00000000       2.74593499       2.74593499 </v>
     <v>       2.74593499       0.00000000       2.74593499 </v>
     <v>       2.74593499       2.74593499      -0.00000000 </v>
    </varray>
    <i name="volume">     41.40957284 </i>
    <varray name="rec_basis" >
     <v>      -0.18208734       0.18208734       0.18208734 </v>
     <v>       0.18208734      -0.18208734       0.18208734 </v>
     <v>       0.18208734       0.18208734      -0.18208734 </v>
    </varray>
   </crystal>
   <varray name="positions" >
    <v>       0.50000000       0.50000000       0.50000000 </v>
    <v>       0.75000000       0.75000000       0.75000000 </v>
   </varray>
  </structure>
  <varray name="forces" >
   <v>       0.00000000       0.00000000       0.00000000 </v>
   <v>      -0.00000000      -0.00000000      -0.00000000 </v>
  </varray>
  <varray name="stress" >
   <v>     -12.05354582      -0.00000000       0.00000000 </v>
   <v>      -0.00000000     -12.05354582      -0.00000000 </v>
   <v>       0.00000000       0.00000000     -12.05354582 </v>
  </varray>
  <energy>
   <i name="e_fr_energy">    -10.84067105 </i>
   <i name="e_wo_entrp">    -10.84065814 </i>
   <i name="e_0_energy">     -0.00002582 </i>
  </energy>
  <time name="totalsc">    3.00    3.16</time>
 </calculation>
 <calculation>
  <scstep>
   <time name="dav">    0.63    0.63</time>
   <time name="total">    0.68    0.69</time>
   <energy>
    <i name="alphaZ">      3.29578903 </i>
    <i name="ewald">   -227.00492815 </i>
    <i name="hartreedc">    -15.38793392 </i>
    <i name="XCdc">    -18.04996714 </i>
    <i name="pawpsdc">     73.44008216 </i>
    <i name="pawaedc">    -38.45024512 </i>
    <i name="eentropy">     -0.00004055 </i>
    <i name="bandstr">      5.18366103 </i>
    <i name="atom">    206.12968587 </i>
    <i name="e_fr_energy">    -10.84389679 </i>
    <i name="e_wo_entrp">    -10.84385624 </i>
    <i name="e_0_energy">    -10.84387651 </i>
   </energy>
  </scstep>
  <scstep>
   <time name="dav">    0.68    0.68</time>
   <time name="total">    0.73    0.74</time>
   <energy>
    <i name="e_fr_energy">    -10.84323015 </i>
    <i name="e_wo_entrp">    -10.84319351 </i>
    <i name="e_0_energy">    -10.84321183 </i>
   </energy>
  </scstep>
  <scstep>
   <time name="dav">    0.43    0.43</time>
   <time name="total">    0.46    0.47</time>
   <energy>
    <i name="alphaZ">      3.29578903 </i>
    <i name="ewald">   -227.00492815 </i>
    <i name="hartreedc">    -15.15653632 </i>
    <i name="XCdc">    -18.05544641 </i>
    <i name="pawpsdc">     73.78875512 </i>
    <i name="pawaedc">    -38.80766744 </i>
    <i name="eentropy">     -0.00003218 </i>
    <i name="bandstr">      4.96749186 </i>
    <i name="atom">    206.12968587 </i>
    <i name="e_fr_energy">    -10.84288861 </i>
    <i name="e_wo_entrp">    -10.84285644 </i>
    <i name="e_0_energy">    -10.84287252 </i>
   </energy>
  </scstep>
  <structure>
   <crystal>
    <varray name="basis" >
     <v>       0.00000000       2.73364096       2.73364096 </v>
     <v>       2.73364096       0.00000000       2.73364096 </v>
     <v>       2.73364096       2.73364096      -0.00000000 </v>
    </varray>
    <i name="volume">     40.85586560 </i>
    <varray name="rec_basis" >
     <v>      -0.18290624       0.18290624       0.18290624 </v>
     <v>       0.18290624      -0.18290624       0.18290624 </v>
     <v>       0.18290624       0.18290624      -0.18290624 </v>
    </varray>
   </crystal>
   <varray name="positions" >
    <v>       0.50000000       0.50000000       0.50000000 </v>
    <v>       0.75000000       0.75000000       0.75000000 </v>
   </varray>
  </structure>
  <varray name="forces" >
   <v>       0.00000000       0.00000000       0.00000000 </v>
   <v>      -0.00000000      -0.00000000      -0.00000000 </v>
  </varray>
  <varray name="stress" >
   <v>      -0.52405985       0.00000000      -0.00000000 </v>
   <v>       0.00000000      -0.52405985       0.00000000 </v>
   <v>      -0.00000000      -0.00000000      -0.52405985 </v>
  </varray>
  <energy>
   <i name="e_fr_energy">    -10.84288861 </i>
   <i name="e_wo_entrp">    -10.84287252 </i>
   <i name="e_0_energy">     -0.00003218 </i>
  </energy>
  <time name="totalsc">    2.45    2.68</time>
  <eigenvalues>
   <array>
    <dimension dim="1">band</dimension>
    <dimension dim="2">kpoint</dimension>
    <dimension dim="3">spin</dimension>
    <field>eigene</field>
    <field>occ</field>
    <set>
     <set comment="spin 1">
      <set comment="kpoint 1">
       <r>   -6.1463    1.0000 </r>
       <r>    5.0939    1.0000 </r>
       <r>    5.5429    0.9980 </r>
       <r>    5.5429    0.9980 </r>
       <r>    8.2254    0.0000 </r>
       <r>    8.3064    0.0000 </r>
       <r>    8.3064    0.0000 </r>
       <r>    9.1719    0.0000 </r>
      </set>
      <set comment="kpoint 2">
       <r>   -5.8797    1.0000 </r>
       <r>    3.5939    1.0000 </r>
       <r>    4.7410    1.0000 </r>
       <r>    5.4262    0.9999 </r>
       <r>    8.2796    0.0000 </r>
       <r>    8.5504    0.0000 </r>
       <r>    8.8405    0.0000 </r>
       <r>   10.6414    0.0000 </r>
      </set>
      <set comment="kpoint 3">
       <r>   -5.2366    1.0000 </r>
       <r>    1.3798    1.0000 </r>
       <r>    4.2560    1.0000 </r>
       <r>    4.9669    1.0000 </r>
       <r>    7.8333    0.0000 </r>
       <r>    9.0409    0.0000 </r>
       <r>    9.3264    0.0000 </r>
       <r>   12.1784    0.0000 </r>
      </set>
      <set comment="kpoint 4">
       <r>   -4.3399    1.0000 </r>
       <r>   -0.4960    1.0000 </r>
       <r>    4.0406    1.0000 </r>
       <r>    4.5621    1.0000 </r>
       <r>    7.5191    0.0000 </r>
       <r>    9.1032    0.0000 </r>
       <r>    9.1170    0.0000 </r>
       <r>   13.4186    0.0000 </r>
      </set>
      <set comment="kpoint 5">
       <r>   -3.8948    1.0000 </r>
       <r>   -1.1919    1.0000 </r>
       <r>    4.0900    1.0000 </r>
       <r>    4.3451    1.0000 </r>
       <r>    7.4392    0.0000 </r>
       <r>    8.9104    0.0000 </r>
       <r>    9.1800    0.0000 </r>
       <r>   13.4890    0.0000 </r>
      </set>
      <set comment="kpoint 6">
       <r>   -4.6470    1.0000 </r>
       <r>    0.0586    1.0000 </r>
       <r>    4.3655    1.0000 </r>
       <r>    4.3751    1.0000 </r>
       <r>    7.6051    0.0000 </r>
       <r>    8.9174    0.0000 </r>
       <r>    9.4373    0.0000 </r>
       <r>   12.5409    0.0000 </r>
      </set>
      <set comment="kpoint 7">
       <r>   -5.4887    1.0000 </r>
       <r>    2.1058    1.0000 </r>
       <r>    4.6402    1.0000 </r>
       <r>    4.8369    1.0000 </r>
       <r>    7.9598    0.0000 </r>
       <r>    8.7800    0.0000 </r>
       <r>    9.4945    0.0000 </r>
       <r>   11.3577    0.0000 </r>
      </set>
      <set comment="kpoint 8">
       <r>   -6.0123    1.0000 </r>
       <r>    4.3443    1.0000 </r>
       <r>    5.1188    1.0000 </r>
       <r>    5.2773    1.0000 </r>
       <r>    8.0220    0.0000 </r>
       <r>    8.5935    0.0000 </r>
       <r>    8.8840    0.0000 </r>
       <r>    9.9088    0.0000 </r>
      </set>
      <set comment="kpoint 9">
       <r>   -5.7456    1.0000 </r>
       <r>    3.4523    1.0000 </r>
       <r>    4.5646    1.0000 </r>
       <r>    4.6477    1.0000 </r>
       <r>    7.6029    0.0000 </r>
       <r>    9.3503    0.0000 </r>
       <r>    9.7401    0.0000 </r>
       <r>   10.2542    0.0000 </r>
      </set>
      <set comment="kpoint 10">
       <r>   -5.2242    1.0000 </r>
       <r>    1.9578    1.0000 </r>
       <r>    3.5999    1.0000 </r>
       <r>    4.3906    1.0000 </r>
       <r>    7.7712    0.0000 </r>
       <r>    9.4615    0.0000 </r>
       <r>   10.0763    0.0000 </r>
       <r>   10.5337    0.0000 </r>
      </set>
      <set comment="kpoint 11">
       <r>   -4.3843    1.0000 </r>
       <r>    0.1101    1.0000 </r>
       <r>    3.1073    1.0000 </r>
       <r>    3.9823    1.0000 </r>
       <r>    7.9651    0.0000 </r>
       <r>    9.3872    0.0000 </r>
       <r>   10.5620    0.0000 </r>
       <r>   10.8280    0.0000 </r>
      </set>
      <set comment="kpoint 12">
       <r>   -3.6277    1.0000 </r>
       <r>   -1.0916    1.0000 </r>
       <r>    2.8199    1.0000 </r>
       <r>    3.8897    1.0000 </r>
       <r>    8.0349    0.0000 </r>
       <r>    9.0814    0.0000 </r>
       <r>   10.4077    0.0000 </r>
       <r>   12.8458    0.0000 </r>
      </set>
      <set comment="kpoint 13">
       <r>   -4.0825    1.0000 </r>
       <r>   -0.4061    1.0000 </r>
       <r>    2.7468    1.0000 </r>
       <r>    4.1730    1.0000 </r>
       <r>    8.3147    0.0000 </r>
       <r>    8.9932    0.0000 </r>
       <r>   10.3537    0.0000 </r>
       <r>   12.0974    0.0000 </r>
      </set>
      <set comment="kpoint 14">
       <r>   -4.9777    1.0000 </r>
       <r>    1.3115    1.0000 </r>
       <r>    3.0472    1.0000 </r>
       <r>    4.6782    1.0000 </r>
       <r>    8.6262    0.0000 </r>
       <r>    8.9297    0.0000 </r>
       <r>   10.2314    0.0000 </r>
       <r>   10.7033    0.0000 </r>
      </set>
      <set comment="kpoint 15">
       <r>   -5.6160    1.0000 </r>
       <r>    2.7804    1.0000 </r>
       <r>    4.1672    1.0000 </r>
       <r>    5.0490    1.0000 </r>
       <r>    8.1653    0.0000 </r>
       <r>    8.8303    0.0000 </r>
       <r>    9.5523    0.0000 </r>
       <r>   10.7789    0.0000 </r>
      </set>
      <set comment="kpoint 16">
       <r>   -4.8259    1.0000 </r>
       <r>    1.4555    1.0000 </r>
       <r>    3.4592    1.0000 </r>
       <r>    3.5801    1.0000 </r>
       <r>    6.7956    0.0000 </r>
       <r>    8.4507    0.0000 </r>
       <r>   11.5960    0.0000 </r>
       <r>   11.7390    0.0000 </r>
      </set>
      <set comment="kpoint 17">
       <r>   -4.0786    1.0000 </r>
       <r>    0.2244    1.0000 </r>
       <r>    2.6766    1.0000 </r>
       <r>    3.2352    1.0000 </r>
       <r>    7.1086    0.0000 </r>
       <r>    8.2879    0.0000 </r>
       <r>   11.5576    0.0000 </r>
       <r>   12.7290    0.0000 </r>
      </set>
      <set comment="kpoint 18">
       <r>   -3.1862    1.0000 </r>
       <r>   -0.9658    1.0000 </r>
       <r>    1.8411    1.0000 </r>
       <r>    3.2040    1.0000 </r>
       <r>    7.3430    0.0000 </r>
       <r>    9.9431    0.0000 </r>
       <r>   11.1331    0.0000 </r>
       <r>   12.6413    0.0000 </r>
      </set>
      <set comment="kpoint 19">
       <r>   -3.2572    1.0000 </r>
       <r>   -0.8724    1.0000 </r>
       <r>    1.4902    1.0000 </r>
       <r>    3.5465    1.0000 </r>
       <r>    7.7443    0.0000 </r>
       <r>   10.6751    0.0000 </r>
       <r>   11.9769    0.0000 </r>
       <r>   12.2665    0.0000 </r>
      </set>
      <set comment="kpoint 20">
       <r>   -4.1480    1.0000 </r>
       <r>    0.0754    1.0000 </r>
       <r>    2.0909    1.0000 </r>
       <r>    4.1290    1.0000 </r>
       <r>    8.3737    0.0000 </r>
       <r>    9.5734    0.0000 </r>
       <r>   11.0008    0.0000 </r>
       <r>   11.2730    0.0000 </r>
      </set>
      <set comment="kpoint 21">
       <r>   -4.8652    1.0000 </r>
       <r>    0.7101    1.0000 </r>
       <r>    3.7153    1.0000 </r>
       <r>    4.5795    1.0000 </r>
       <r>    8.0922    0.0000 </r>
       <r>    8.9441    0.0000 </r>
       <r>    9.7970    0.0000 </r>
       <r>   11.4775    0.0000 </r>
      </set>
      <set comment="kpoint 22">
       <r>   -3.4287    1.0000 </r>
       <r>   -0.6339    1.0000 </r>
       <r>    2.7742    1.0000 </r>
       <r>    2.9901    1.0000 </r>
       <r>    6.4030    0.0007 </r>
       <r>    7.1103    0.0000 </r>
       <r>   13.8886    0.0000 </r>
       <r>   13.8966    0.0000 </r>
      </set>
      <set comment="kpoint 23">
       <r>   -2.5240    1.0000 </r>
       <r>   -1.6179    1.0000 </r>
       <r>    2.2195    1.0000 </r>
       <r>    2.7479    1.0000 </r>
       <r>    6.8325    0.0000 </r>
       <r>    7.5589    0.0000 </r>
       <r>   13.6356    0.0000 </r>
       <r>   14.6522    0.0000 </r>
      </set>
      <set comment="kpoint 24">
       <r>   -2.6207    1.0000 </r>
       <r>   -1.4530    1.0000 </r>
       <r>    1.4942    1.0000 </r>
       <r>    3.0613    1.0000 </r>
       <r>    7.1960    0.0000 </r>
       <r>    9.7877    0.0000 </r>
       <r>   12.1122    0.0000 </r>
       <r>   13.2567    0.0000 </r>
      </set>
      <set comment="kpoint 25">
       <r>   -3.3733    1.0000 </r>
       <r>   -1.0468    1.0000 </r>
       <r>    2.0435    1.0000 </r>
       <r>    3.6593    1.0000 </r>
       <r>    7.8643    0.0000 </r>
       <r>    9.8249    0.0000 </r>
       <r>   11.3624    0.0000 </r>
       <r>   12.5987    0.0000 </r>
      </set>
      <set comment="kpoint 26">
       <r>   -3.9787    1.0000 </r>
       <r>   -0.8969    1.0000 </r>
       <r>    3.5418    1.0000 </r>
       <r>    4.2452    1.0000 </r>
       <r>    7.8919    0.0000 </r>
       <r>    8.8437    0.0000 </r>
       <r>    9.6184    0.0000 </r>
       <r>   13.1635    0.0000 </r>
      </set>
      <set comment="kpoint 27">
       <r>   -2.5751    1.0000 </r>
       <r>   -1.6354    1.0000 </r>
       <r>    2.6372    1.0000 </r>
       <r>    2.8696    1.0000 </r>
       <r>    6.3983    0.0008 </r>
       <r>    6.7576    0.0000 </r>
       <r>   14.9620    0.0000 </r>
       <r>   15.0337    0.0000 </r>
      </set>
      <set comment="kpoint 28">
       <r>   -3.3437    1.0000 </r>
       <r>   -0.6973    1.0000 </r>
       <r>    2.3761    1.0000 </r>
       <r>    2.9066    1.0000 </r>
       <r>    6.9201    0.0000 </r>
       <r>    7.8087    0.0000 </r>
       <r>   12.5681    0.0000 </r>
       <r>   13.8886    0.0000 </r>
      </set>
      <set comment="kpoint 29">
       <r>   -3.8123    1.0000 </r>
       <r>   -0.4369    1.0000 </r>
       <r>    2.4371    1.0000 </r>
       <r>    3.5027    1.0000 </r>
       <r>    7.6197    0.0000 </r>
       <r>   10.1288    0.0000 </r>
       <r>   10.3530    0.0000 </r>
       <r>   11.5737    0.0000 </r>
      </set>
      <set comment="kpoint 30">
       <r>   -4.1830    1.0000 </r>
       <r>    0.4063    1.0000 </r>
       <r>    3.0483    1.0000 </r>
       <r>    3.2288    1.0000 </r>
       <r>    6.5337    0.0000 </r>
       <r>    7.6853    0.0000 </r>
       <r>   12.7253    0.0000 </r>
       <r>   12.8026    0.0000 </r>
      </set>
      <set comment="kpoint 31">
       <r>   -4.7092    1.0000 </r>
       <r>    1.1121    1.0000 </r>
       <r>    3.0942    1.0000 </r>
       <r>    3.7422    1.0000 </r>
       <r>    7.3990    0.0000 </r>
       <r>    8.9642    0.0000 </r>
       <r>   10.6158    0.0000 </r>
       <r>   11.6005    0.0000 </r>
      </set>
      <set comment="kpoint 32">
       <r>   -5.3488    1.0000 </r>
       <r>    2.4808    1.0000 </r>
       <r>    4.0017    1.0000 </r>
       <r>    4.0331    1.0000 </r>
       <r>    7.1666    0.0000 </r>
       <r>    9.3127    0.0000 </r>
       <r>   10.5485    0.0000 </r>
       <r>   10.7115    0.0000 </r>
      </set>
      <set comment="kpoint 33">
       <r>   -5.7488    1.0000 </r>
       <r>    2.8731    1.0000 </r>
       <r>    5.1045    1.0000 </r>
       <r>    5.1045    1.0000 </r>
       <r>    7.8329    0.0000 </r>
       <r>    8.9215    0.0000 </r>
       <r>    8.9215    0.0000 </r>
       <r>   11.2873    0.0000 </r>
      </set>
      <set comment="kpoint 34">
       <r>   -5.3587    1.0000 </r>
       <r>    2.0366    1.0000 </r>
       <r>    3.5975    1.0000 </r>
       <r>    5.1235    1.0000 </r>
       <r>    8.4862    0.0000 </r>
       <r>    9.0436    0.0000 </r>
       <r>    9.3364    0.0000 </r>
       <r>   11.3384    0.0000 </r>
      </set>
      <set comment="kpoint 35">
       <r>   -4.6154    1.0000 </r>
       <r>    0.6738    1.0000 </r>
       <r>    2.5214    1.0000 </r>
       <r>    4.6209    1.0000 </r>
       <r>    8.3324    0.0000 </r>
       <r>    9.7973    0.0000 </r>
       <r>   10.0040    0.0000 </r>
       <r>   11.6222    0.0000 </r>
      </set>
      <set comment="kpoint 36">
       <r>   -3.7257    1.0000 </r>
       <r>   -0.8077    1.0000 </r>
       <r>    2.3700    1.0000 </r>
       <r>    4.0918    1.0000 </r>
       <r>    7.8331    0.0000 </r>
       <r>    9.9791    0.0000 </r>
       <r>   10.1859    0.0000 </r>
       <r>   13.4740    0.0000 </r>
      </set>
      <set comment="kpoint 37">
       <r>   -3.7102    1.0000 </r>
       <r>   -0.8358    1.0000 </r>
       <r>    2.6685    1.0000 </r>
       <r>    3.7749    1.0000 </r>
       <r>    7.5556    0.0000 </r>
       <r>   10.0512    0.0000 </r>
       <r>   10.5298    0.0000 </r>
       <r>   11.5178    0.0000 </r>
      </set>
      <set comment="kpoint 38">
       <r>   -4.5986    1.0000 </r>
       <r>    0.6702    1.0000 </r>
       <r>    3.2782    1.0000 </r>
       <r>    3.7508    1.0000 </r>
       <r>    7.4875    0.0000 </r>
       <r>    9.6762    0.0000 </r>
       <r>   10.3273    0.0000 </r>
       <r>   10.9046    0.0000 </r>
      </set>
      <set comment="kpoint 39">
       <r>   -5.1032    1.0000 </r>
       <r>    1.3738    1.0000 </r>
       <r>    4.1026    1.0000 </r>
       <r>    4.1674    1.0000 </r>
       <r>    7.8817    0.0000 </r>
       <r>    9.2558    0.0000 </r>
       <r>   10.1640    0.0000 </r>
       <r>   10.5275    0.0000 </r>
      </set>
      <set comment="kpoint 40">
       <r>   -4.4800    1.0000 </r>
       <r>    0.6079    1.0000 </r>
       <r>    2.5779    1.0000 </r>
       <r>    3.9730    1.0000 </r>
       <r>    8.3709    0.0000 </r>
       <r>    9.4160    0.0000 </r>
       <r>    9.8953    0.0000 </r>
       <r>   11.4206    0.0000 </r>
      </set>
      <set comment="kpoint 41">
       <r>   -3.5934    1.0000 </r>
       <r>   -0.4888    1.0000 </r>
       <r>    1.7917    1.0000 </r>
       <r>    3.4069    1.0000 </r>
       <r>    8.8232    0.0000 </r>
       <r>    9.3072    0.0000 </r>
       <r>   10.5853    0.0000 </r>
       <r>   12.5128    0.0000 </r>
      </set>
      <set comment="kpoint 42">
       <r>   -3.1083    1.0000 </r>
       <r>   -1.0996    1.0000 </r>
       <r>    1.7955    1.0000 </r>
       <r>    3.0953    1.0000 </r>
       <r>    8.3523    0.0000 </r>
       <r>    9.6362    0.0000 </r>
       <r>   11.3653    0.0000 </r>
       <r>   12.6605    0.0000 </r>
      </set>
      <set comment="kpoint 43">
       <r>   -3.8767    1.0000 </r>
       <r>   -0.0989    1.0000 </r>
       <r>    2.2158    1.0000 </r>
       <r>    3.2738    1.0000 </r>
       <r>    8.0846    0.0000 </r>
       <r>    9.2933    0.0000 </r>
       <r>   10.1710    0.0000 </r>
       <r>   12.6421    0.0000 </r>
      </set>
      <set comment="kpoint 44">
       <r>   -3.9855    1.0000 </r>
       <r>   -0.0424    1.0000 </r>
       <r>    2.5489    1.0000 </r>
       <r>    3.4216    1.0000 </r>
       <r>    7.1064    0.0000 </r>
       <r>    9.1298    0.0000 </r>
       <r>   11.4091    0.0000 </r>
       <r>   11.7246    0.0000 </r>
      </set>
      <set comment="kpoint 45">
       <r>   -3.1857    1.0000 </r>
       <r>   -0.8368    1.0000 </r>
       <r>    1.9731    1.0000 </r>
       <r>    2.7390    1.0000 </r>
       <r>    7.8796    0.0000 </r>
       <r>    8.8888    0.0000 </r>
       <r>   11.0589    0.0000 </r>
       <r>   13.8622    0.0000 </r>
      </set>
      <set comment="kpoint 46">
       <r>   -2.3816    1.0000 </r>
       <r>   -1.5884    1.0000 </r>
       <r>    1.6557    1.0000 </r>
       <r>    2.2395    1.0000 </r>
       <r>    8.9977    0.0000 </r>
       <r>    9.9214    0.0000 </r>
       <r>   10.6140    0.0000 </r>
       <r>   11.6124    0.0000 </r>
      </set>
      <set comment="kpoint 47">
       <r>   -2.9816    1.0000 </r>
       <r>   -1.0429    1.0000 </r>
       <r>    1.6482    1.0000 </r>
       <r>    2.7132    1.0000 </r>
       <r>    9.0940    0.0000 </r>
       <r>    9.5207    0.0000 </r>
       <r>   10.2898    0.0000 </r>
       <r>   12.7702    0.0000 </r>
      </set>
      <set comment="kpoint 48">
       <r>   -2.5444    1.0000 </r>
       <r>   -1.5680    1.0000 </r>
       <r>    1.7600    1.0000 </r>
       <r>    3.0809    1.0000 </r>
       <r>    6.6741    0.0000 </r>
       <r>    8.5722    0.0000 </r>
       <r>   13.5475    0.0000 </r>
       <r>   13.7588    0.0000 </r>
      </set>
      <set comment="kpoint 49">
       <r>   -2.4446    1.0000 </r>
       <r>   -1.5977    1.0000 </r>
       <r>    1.8534    1.0000 </r>
       <r>    2.4541    1.0000 </r>
       <r>    7.7742    0.0000 </r>
       <r>    8.6871    0.0000 </r>
       <r>   12.0576    0.0000 </r>
       <r>   13.1682    0.0000 </r>
      </set>
      <set comment="kpoint 50">
       <r>   -3.2827    1.0000 </r>
       <r>   -0.7993    1.0000 </r>
       <r>    2.0255    1.0000 </r>
       <r>    3.1956    1.0000 </r>
       <r>    6.8232    0.0000 </r>
       <r>    8.7561    0.0000 </r>
       <r>   12.5678    0.0000 </r>
       <r>   12.6274    0.0000 </r>
      </set>
      <set comment="kpoint 51">
       <r>   -4.9964    1.0000 </r>
       <r>    0.6793    1.0000 </r>
       <r>    4.6930    1.0000 </r>
       <r>    4.6930    1.0000 </r>
       <r>    7.3818    0.0000 </r>
       <r>    9.1512    0.0000 </r>
       <r>    9.1512    0.0000 </r>
       <r>   13.2678    0.0000 </r>
      </set>
      <set comment="kpoint 52">
       <r>   -4.5191    1.0000 </r>
       <r>    0.1044    1.0000 </r>
       <r>    3.2334    1.0000 </r>
       <r>    4.6063    1.0000 </r>
       <r>    8.0973    0.0000 </r>
       <r>    9.3754    0.0000 </r>
       <r>    9.4207    0.0000 </r>
       <r>   12.6331    0.0000 </r>
      </set>
      <set comment="kpoint 53">
       <r>   -3.7306    1.0000 </r>
       <r>   -0.4248    1.0000 </r>
       <r>    1.7120    1.0000 </r>
       <r>    4.0278    1.0000 </r>
       <r>    7.7567    0.0000 </r>
       <r>   10.8174    0.0000 </r>
       <r>   10.9917    0.0000 </r>
       <r>   12.3918    0.0000 </r>
      </set>
      <set comment="kpoint 54">
       <r>   -2.9131    1.0000 </r>
       <r>   -1.2028    1.0000 </r>
       <r>    1.3750    1.0000 </r>
       <r>    3.4832    1.0000 </r>
       <r>    7.1404    0.0000 </r>
       <r>   11.0241    0.0000 </r>
       <r>   12.0869    0.0000 </r>
       <r>   12.3639    0.0000 </r>
      </set>
      <set comment="kpoint 55">
       <r>   -4.2063    1.0000 </r>
       <r>   -0.4512    1.0000 </r>
       <r>    3.5690    1.0000 </r>
       <r>    4.0450    1.0000 </r>
       <r>    7.8072    0.0000 </r>
       <r>    9.1573    0.0000 </r>
       <r>    9.9027    0.0000 </r>
       <r>   11.9399    0.0000 </r>
      </set>
      <set comment="kpoint 56">
       <r>   -3.5894    1.0000 </r>
       <r>   -0.8086    1.0000 </r>
       <r>    2.2645    1.0000 </r>
       <r>    3.5710    1.0000 </r>
       <r>    8.5754    0.0000 </r>
       <r>    8.9199    0.0000 </r>
       <r>   11.4620    0.0000 </r>
       <r>   11.6814    0.0000 </r>
      </set>
      <set comment="kpoint 57">
       <r>   -2.7757    1.0000 </r>
       <r>   -1.2677    1.0000 </r>
       <r>    1.4665    1.0000 </r>
       <r>    2.8604    1.0000 </r>
       <r>    8.2237    0.0000 </r>
       <r>   10.4659    0.0000 </r>
       <r>   11.2581    0.0000 </r>
       <r>   11.7867    0.0000 </r>
      </set>
      <set comment="kpoint 58">
       <r>   -3.2325    1.0000 </r>
       <r>   -1.0865    1.0000 </r>
       <r>    1.8729    1.0000 </r>
       <r>    3.5825    1.0000 </r>
       <r>    7.2886    0.0000 </r>
       <r>   10.9848    0.0000 </r>
       <r>   11.2938    0.0000 </r>
       <r>   11.3972    0.0000 </r>
      </set>
      <set comment="kpoint 59">
       <r>   -4.1112    1.0000 </r>
       <r>   -0.9577    1.0000 </r>
       <r>    4.4733    1.0000 </r>
       <r>    4.4733    1.0000 </r>
       <r>    7.1297    0.0000 </r>
       <r>    9.0111    0.0000 </r>
       <r>    9.0111    0.0000 </r>
       <r>   13.3778    0.0000 </r>
      </set>
      <set comment="kpoint 60">
       <r>   -3.7621    1.0000 </r>
       <r>   -1.1323    1.0000 </r>
       <r>    3.2535    1.0000 </r>
       <r>    4.2061    1.0000 </r>
       <r>    7.8391    0.0000 </r>
       <r>    9.1472    0.0000 </r>
       <r>    9.5891    0.0000 </r>
       <r>   13.7714    0.0000 </r>
      </set>
     </set>
    </set>
   </array>
  </eigenvalues>
  <separator name="orbital magnetization" >
   <v name="MAGDIPOLOUT">      0.00000000      0.00000000      0.00000000</v>
  </separator>
  <dos>
   <i name="efermi">      5.94967391 </i>
   <total>
    <array>
     <dimension dim="1">gridpoints</dimension>
     <dimension dim="2">spin</dimension>
     <field>energy</field>
     <field>total</field>
     <field>integrated</field>
     <set>
      <set comment="spin 1">
       <r>    -8.1463     0.0000     0.0000 </r>
       <r>    -8.0624     0.0000     0.0000 </r>
       <r>    -7.9785     0.0000     0.0000 </r>
       <r>    -7.8945     0.0000     0.0000 </r>
       <r>    -7.8106     0.0000     0.0000 </r>
       <r>    -7.7267     0.0000     0.0000 </r>
       <r>    -7.6427     0.0000     0.0000 </r>
       <r>    -7.5588     0.0000     0.0000 </r>
       <r>    -7.4749     0.0000     0.0000 </r>
       <r>    -7.3909     0.0000     0.0000 </r>
       <r>    -7.3070     0.0000     0.0000 </r>
       <r>    -7.2231     0.0000     0.0000 </r>
       <r>    -7.1391     0.0000     0.0000 </r>
       <r>    -7.0552     0.0000     0.0000 </r>
       <r>    -6.9713     0.0000     0.0000 </r>
       <r>    -6.8873     0.0000     0.0000 </r>
       <r>    -6.8034     0.0000     0.0000 </r>
       <r>    -6.7195     0.0000     0.0000 </r>
       <r>    -6.6355     0.0000     0.0000 </r>
       <r>    -6.5516     0.0002     0.0000 </r>
       <r>    -6.4677     0.0010     0.0001 </r>
       <r>    -6.3837     0.0043     0.0005 </r>
       <r>    -6.2998     0.0136     0.0016 </r>
       <r>    -6.2159     0.0333     0.0044 </r>
       <r>    -6.1319     0.0650     0.0099 </r>
       <r>    -6.0480     0.1042     0.0186 </r>
       <r>    -5.9641     0.1431     0.0306 </r>
       <r>    -5.8801     0.1775     0.0455 </r>
       <r>    -5.7962     0.2098     0.0631 </r>
       <r>    -5.7123     0.2413     0.0834 </r>
       <r>    -5.6283     0.2656     0.1057 </r>
       <r>    -5.5444     0.2788     0.1291 </r>
       <r>    -5.4605     0.2921     0.1536 </r>
       <r>    -5.3765     0.3214     0.1806 </r>
       <r>    -5.2926     0.3605     0.2108 </r>
       <r>    -5.2087     0.3842     0.2431 </r>
       <r>    -5.1247     0.3839     0.2753 </r>
       <r>    -5.0408     0.3825     0.3074 </r>
       <r>    -4.9569     0.4013     0.3411 </r>
       <r>    -4.8729     0.4343     0.3775 </r>
       <r>    -4.7890     0.4675     0.4168 </r>
       <r>    -4.7051     0.4993     0.4587 </r>
       <r>    -4.6211     0.5286     0.5030 </r>
       <r>    -4.5372     0.5446     0.5487 </r>
       <r>    -4.4533     0.5395     0.5940 </r>
       <r>    -4.3693     0.5257     0.6381 </r>
       <r>    -4.2854     0.5387     0.6834 </r>
       <r>    -4.2015     0.6088     0.7345 </r>
       <r>    -4.1175     0.7144     0.7944 </r>
       <r>    -4.0336     0.7947     0.8611 </r>
       <r>    -3.9497     0.8209     0.9300 </r>
       <r>    -3.8657     0.8202     0.9989 </r>
       <r>    -3.7818     0.8231     1.0680 </r>
       <r>    -3.6979     0.8229     1.1370 </r>
       <r>    -3.6139     0.7921     1.2035 </r>
       <r>    -3.5300     0.7324     1.2650 </r>
       <r>    -3.4461     0.6980     1.3236 </r>
       <r>    -3.3621     0.7378     1.3855 </r>
       <r>    -3.2782     0.8178     1.4541 </r>
       <r>    -3.1943     0.8452     1.5251 </r>
       <r>    -3.1103     0.7679     1.5895 </r>
       <r>    -3.0264     0.6217     1.6417 </r>
       <r>    -2.9425     0.4810     1.6821 </r>
       <r>    -2.8585     0.3936     1.7151 </r>
       <r>    -2.7746     0.3731     1.7464 </r>
       <r>    -2.6907     0.4180     1.7815 </r>
       <r>    -2.6067     0.5047     1.8239 </r>
       <r>    -2.5228     0.5746     1.8721 </r>
       <r>    -2.4389     0.5628     1.9194 </r>
       <r>    -2.3549     0.4522     1.9573 </r>
       <r>    -2.2710     0.2898     1.9816 </r>
       <r>    -2.1871     0.1446     1.9938 </r>
       <r>    -2.1031     0.0553     1.9984 </r>
       <r>    -2.0192     0.0189     2.0000 </r>
       <r>    -1.9353     0.0212     2.0018 </r>
       <r>    -1.8513     0.0695     2.0076 </r>
       <r>    -1.7674     0.1905     2.0236 </r>
       <r>    -1.6835     0.3805     2.0555 </r>
       <r>    -1.5995     0.5578     2.1024 </r>
       <r>    -1.5156     0.6187     2.1543 </r>
       <r>    -1.4317     0.5629     2.2015 </r>
       <r>    -1.3477     0.5087     2.2442 </r>
       <r>    -1.2638     0.5701     2.2921 </r>
       <r>    -1.1799     0.7554     2.3555 </r>
       <r>    -1.0959     0.9774     2.4375 </r>
       <r>    -1.0120     1.1378     2.5330 </r>
       <r>    -0.9281     1.1982     2.6336 </r>
       <r>    -0.8441     1.1603     2.7310 </r>
       <r>    -0.7602     1.0274     2.8172 </r>
       <r>    -0.6763     0.8457     2.8882 </r>
       <r>    -0.5923     0.7156     2.9483 </r>
       <r>    -0.5084     0.6834     3.0056 </r>
       <r>    -0.4245     0.6685     3.0617 </r>
       <r>    -0.3405     0.5725     3.1098 </r>
       <r>    -0.2566     0.4225     3.1453 </r>
       <r>    -0.1727     0.3340     3.1733 </r>
       <r>    -0.0887     0.3658     3.2040 </r>
       <r>    -0.0048     0.4728     3.2437 </r>
       <r>     0.0791     0.5626     3.2909 </r>
       <r>     0.1631     0.5625     3.3381 </r>
       <r>     0.2470     0.4667     3.3773 </r>
       <r>     0.3309     0.3388     3.4057 </r>
       <r>     0.4149     0.2575     3.4273 </r>
       <r>     0.4988     0.2632     3.4494 </r>
       <r>     0.5827     0.3377     3.4778 </r>
       <r>     0.6667     0.4062     3.5119 </r>
       <r>     0.7506     0.3896     3.5446 </r>
       <r>     0.8345     0.2878     3.5687 </r>
       <r>     0.9185     0.1808     3.5839 </r>
       <r>     1.0024     0.1401     3.5957 </r>
       <r>     1.0863     0.1732     3.6102 </r>
       <r>     1.1703     0.2580     3.6318 </r>
       <r>     1.2542     0.3911     3.6647 </r>
       <r>     1.3381     0.5706     3.7126 </r>
       <r>     1.4221     0.7474     3.7753 </r>
       <r>     1.5060     0.8544     3.8470 </r>
       <r>     1.5899     0.8917     3.9219 </r>
       <r>     1.6739     0.9307     4.0000 </r>
       <r>     1.7578     1.0142     4.0851 </r>
       <r>     1.8417     1.1052     4.1779 </r>
       <r>     1.9257     1.1501     4.2744 </r>
       <r>     2.0096     1.1432     4.3703 </r>
       <r>     2.0935     1.1122     4.4637 </r>
       <r>     2.1775     1.0802     4.5544 </r>
       <r>     2.2614     1.0541     4.6428 </r>
       <r>     2.3453     1.0343     4.7297 </r>
       <r>     2.4293     1.0321     4.8163 </r>
       <r>     2.5132     1.0729     4.9063 </r>
       <r>     2.5971     1.1839     5.0057 </r>
       <r>     2.6811     1.3519     5.1192 </r>
       <r>     2.7650     1.4850     5.2438 </r>
       <r>     2.8489     1.4942     5.3692 </r>
       <r>     2.9329     1.4227     5.4886 </r>
       <r>     3.0168     1.3968     5.6059 </r>
       <r>     3.1007     1.4443     5.7271 </r>
       <r>     3.1847     1.4686     5.8504 </r>
       <r>     3.2686     1.4085     5.9686 </r>
       <r>     3.3525     1.3383     6.0809 </r>
       <r>     3.4365     1.3768     6.1965 </r>
       <r>     3.5204     1.5137     6.3235 </r>
       <r>     3.6043     1.5875     6.4568 </r>
       <r>     3.6883     1.4738     6.5805 </r>
       <r>     3.7722     1.2382     6.6844 </r>
       <r>     3.8561     1.0639     6.7737 </r>
       <r>     3.9401     1.0718     6.8637 </r>
       <r>     4.0240     1.2207     6.9661 </r>
       <r>     4.1079     1.3600     7.0803 </r>
       <r>     4.1919     1.3685     7.1951 </r>
       <r>     4.2758     1.2419     7.2994 </r>
       <r>     4.3597     1.0650     7.3888 </r>
       <r>     4.4437     0.9324     7.4670 </r>
       <r>     4.5276     0.8863     7.5414 </r>
       <r>     4.6115     0.8819     7.6154 </r>
       <r>     4.6955     0.8206     7.6843 </r>
       <r>     4.7794     0.6669     7.7403 </r>
       <r>     4.8633     0.4988     7.7821 </r>
       <r>     4.9473     0.4121     7.8167 </r>
       <r>     5.0312     0.4114     7.8512 </r>
       <r>     5.1151     0.4206     7.8865 </r>
       <r>     5.1991     0.3776     7.9182 </r>
       <r>     5.2830     0.2939     7.9429 </r>
       <r>     5.3669     0.2166     7.9611 </r>
       <r>     5.4509     0.1658     7.9750 </r>
       <r>     5.5348     0.1278     7.9857 </r>
       <r>     5.6187     0.0885     7.9931 </r>
       <r>     5.7027     0.0502     7.9974 </r>
       <r>     5.7866     0.0221     7.9992 </r>
       <r>     5.8705     0.0074     7.9998 </r>
       <r>     5.9545     0.0022     8.0000 </r>
       <r>     6.0384     0.0028     8.0002 </r>
       <r>     6.1223     0.0113     8.0012 </r>
       <r>     6.2063     0.0361     8.0042 </r>
       <r>     6.2902     0.0842     8.0113 </r>
       <r>     6.3741     0.1461     8.0236 </r>
       <r>     6.4581     0.1982     8.0402 </r>
       <r>     6.5420     0.2338     8.0598 </r>
       <r>     6.6259     0.2798     8.0833 </r>
       <r>     6.7099     0.3623     8.1137 </r>
       <r>     6.7938     0.4614     8.1524 </r>
       <r>     6.8777     0.5299     8.1969 </r>
       <r>     6.9617     0.5641     8.2443 </r>
       <r>     7.0456     0.6111     8.2956 </r>
       <r>     7.1295     0.6849     8.3530 </r>
       <r>     7.2135     0.7410     8.4152 </r>
       <r>     7.2974     0.7600     8.4790 </r>
       <r>     7.3813     0.7838     8.5448 </r>
       <r>     7.4653     0.8536     8.6165 </r>
       <r>     7.5492     0.9774     8.6985 </r>
       <r>     7.6331     1.1562     8.7955 </r>
       <r>     7.7171     1.3860     8.9119 </r>
       <r>     7.8010     1.6040     9.0465 </r>
       <r>     7.8849     1.6939     9.1887 </r>
       <r>     7.9689     1.6107     9.3239 </r>
       <r>     8.0528     1.4453     9.4452 </r>
       <r>     8.1367     1.3229     9.5562 </r>
       <r>     8.2207     1.2919     9.6646 </r>
       <r>     8.3046     1.3039     9.7741 </r>
       <r>     8.3885     1.2706     9.8807 </r>
       <r>     8.4725     1.1689     9.9788 </r>
       <r>     8.5564     1.0733    10.0689 </r>
       <r>     8.6403     1.0732    10.1590 </r>
       <r>     8.7243     1.2221    10.2616 </r>
       <r>     8.8082     1.5214    10.3893 </r>
       <r>     8.8921     1.8636    10.5457 </r>
       <r>     8.9761     2.0629    10.7188 </r>
       <r>     9.0600     2.0214    10.8885 </r>
       <r>     9.1439     1.8217    11.0414 </r>
       <r>     9.2279     1.6352    11.1787 </r>
       <r>     9.3118     1.5662    11.3101 </r>
       <r>     9.3957     1.5807    11.4428 </r>
       <r>     9.4797     1.5777    11.5752 </r>
       <r>     9.5636     1.5050    11.7015 </r>
       <r>     9.6475     1.3931    11.8185 </r>
       <r>     9.7315     1.3127    11.9286 </r>
       <r>     9.8154     1.2999    12.0377 </r>
       <r>     9.8993     1.3116    12.1478 </r>
       <r>     9.9833     1.2872    12.2559 </r>
       <r>    10.0672     1.2348    12.3595 </r>
       <r>    10.1511     1.2069    12.4608 </r>
       <r>    10.2351     1.2200    12.5632 </r>
       <r>    10.3190     1.2551    12.6686 </r>
       <r>    10.4029     1.3123    12.7787 </r>
       <r>    10.4869     1.4050    12.8966 </r>
       <r>    10.5708     1.4945    13.0221 </r>
       <r>    10.6547     1.4871    13.1469 </r>
       <r>    10.7387     1.3394    13.2593 </r>
       <r>    10.8226     1.1229    13.3536 </r>
       <r>    10.9065     0.9486    13.4332 </r>
       <r>    10.9905     0.8625    13.5056 </r>
       <r>    11.0744     0.8423    13.5763 </r>
       <r>    11.1583     0.8808    13.6502 </r>
       <r>    11.2423     1.0128    13.7352 </r>
       <r>    11.3262     1.2285    13.8383 </r>
       <r>    11.4101     1.4335    13.9586 </r>
       <r>    11.4941     1.5314    14.0872 </r>
       <r>    11.5780     1.4885    14.2121 </r>
       <r>    11.6619     1.3129    14.3223 </r>
       <r>    11.7459     1.0499    14.4104 </r>
       <r>    11.8298     0.7999    14.4776 </r>
       <r>    11.9137     0.6689    14.5337 </r>
       <r>    11.9977     0.6774    14.5906 </r>
       <r>    12.0816     0.7350    14.6523 </r>
       <r>    12.1655     0.7323    14.7137 </r>
       <r>    12.2495     0.6560    14.7688 </r>
       <r>    12.3334     0.5965    14.8188 </r>
       <r>    12.4173     0.6600    14.8742 </r>
       <r>    12.5013     0.8786    14.9480 </r>
       <r>    12.5852     1.1569    15.0451 </r>
       <r>    12.6691     1.3126    15.1553 </r>
       <r>    12.7531     1.2255    15.2581 </r>
       <r>    12.8370     0.9412    15.3371 </r>
       <r>    12.9209     0.6173    15.3889 </r>
       <r>    13.0049     0.4032    15.4228 </r>
       <r>    13.0888     0.3546    15.4526 </r>
       <r>    13.1727     0.4110    15.4870 </r>
       <r>    13.2567     0.4635    15.5259 </r>
       <r>    13.3406     0.4633    15.5648 </r>
       <r>    13.4245     0.4415    15.6019 </r>
       <r>    13.5085     0.4330    15.6382 </r>
       <r>    13.5924     0.4406    15.6752 </r>
       <r>    13.6763     0.4660    15.7143 </r>
       <r>    13.7603     0.5147    15.7575 </r>
       <r>    13.8442     0.5538    15.8040 </r>
       <r>    13.9281     0.5155    15.8473 </r>
       <r>    14.0121     0.3787    15.8791 </r>
       <r>    14.0960     0.2089    15.8966 </r>
       <r>    14.1799     0.0846    15.9037 </r>
       <r>    14.2639     0.0261    15.9059 </r>
       <r>    14.3478     0.0122    15.9069 </r>
       <r>    14.4317     0.0253    15.9090 </r>
       <r>    14.5157     0.0604    15.9141 </r>
       <r>    14.5996     0.1064    15.9230 </r>
       <r>    14.6835     0.1369    15.9345 </r>
       <r>    14.7675     0.1376    15.9461 </r>
       <r>    14.8514     0.1278    15.9568 </r>
       <r>    14.9353     0.1303    15.9677 </r>
       <r>    15.0193     0.1351    15.9791 </r>
       <r>    15.1032     0.1175    15.9889 </r>
       <r>    15.1871     0.0774    15.9954 </r>
       <r>    15.2711     0.0373    15.9986 </r>
       <r>    15.3550     0.0131    15.9997 </r>
       <r>    15.4389     0.0033    15.9999 </r>
       <r>    15.5229     0.0006    16.0000 </r>
       <r>    15.6068     0.0001    16.0000 </r>
       <r>    15.6907     0.0000    16.0000 </r>
       <r>    15.7747     0.0000    16.0000 </r>
       <r>    15.8586     0.0000    16.0000 </r>
       <r>    15.9425     0.0000    16.0000 </r>
       <r>    16.0265     0.0000    16.0000 </r>
       <r>    16.1104     0.0000    16.0000 </r>
       <r>    16.1943     0.0000    16.0000 </r>
       <r>    16.2783     0.0000    16.0000 </r>
       <r>    16.3622     0.0000    16.0000 </r>
       <r>    16.4461     0.0000    16.0000 </r>
       <r>    16.5301     0.0000    16.0000 </r>
       <r>    16.6140     0.0000    16.0000 </r>
       <r>    16.6979     0.0000    16.0000 </r>
       <r>    16.7819     0.0000    16.0000 </r>
       <r>    16.8658     0.0000    16.0000 </r>
       <r>    16.9497     0.0000    16.0000 </r>
       <r>    17.0337     0.0000    16.0000 </r>
      </set>
     </set>
    </array>
   </total>
  </dos>
 </calculation>
 <structure name="finalpos" >
  <crystal>
   <varray name="basis" >
    <v>       0.00000000       2.73364096       2.73364096 </v>
    <v>       2.73364096       0.00000000       2.73364096 </v>
    <v>       2.73364096       2.73364096      -0.00000000 </v>
   </varray>
   <i name="volume">     40.85586560 </i>
   <varray name="rec_basis" >
    <v>      -0.18290624       0.18290624       0.18290624 </v>
    <v>       0.18290624      -0.18290624       0.18290624 </v>
    <v>       0.18290624       0.18290624      -0.18290624 </v>
   </varray>
  </crystal>
  <varray name="positions" >
   <v>       0.50000000       0.50000000       0.50000000 </v>
   <v>       0.75000000       0.75000000       0.75000000 </v>
  </varray>
 </structure>
</modeling>
