    2    2   15    1
  0.2001288E+02  0.3839590E-09  0.3839590E-09  0.3839590E-09  0.5000000E-15
  1.000000000000000E-004
  CAR 
 unknown system                          
      8      4      8
 
  0.0000000E+00  0.0000000E+00  0.0000000E+00  0.3703704E-01
    1       -6.048442   1.000000
    2        5.983446   0.991809
    3        5.983446   0.991809
    4        5.983734   0.991763
    5        8.517277   0.000000
    6        8.517277   0.000000
    7        8.517483   0.000000
    8        9.313796   0.000000
 
  0.3333333E+00  0.6723763E-17  0.1473614E-18  0.2962963E+00
    1       -4.666441   1.000000
    2        0.592801   1.000000
    3        4.951880   1.000000
    4        4.952101   1.000000
    5        7.745043   0.000000
    6        9.495591   0.000000
    7        9.496008   0.000000
    8       13.831871   0.000000
 
  0.3333333E+00  0.3333333E+00  0.1682863E-16  0.2222222E+00
    1       -4.137736   1.000000
    2        0.932068   1.000000
    3        3.510177   1.000000
    4        3.510308   1.000000
    5        6.696735   0.004103
    6        7.961452   0.000000
    7       13.309988   0.000000
    8       13.310244   0.000000
 
 -0.3333333E+00  0.3333333E+00  0.1344753E-16  0.4444444E+00
    1       -2.769910   1.000000
    2       -0.840601   1.000000
    3        1.500395   1.000000
    4        3.818398   1.000000
    5        7.537512   0.000000
    6       11.859614   0.000000
    7       12.483666   0.000000
    8       13.108166   0.000000
