unknown system                          
   1.00000000000000     
     0.000000    2.652270    2.652270
     2.652270    0.000000    2.652270
     2.652270    2.652270    0.000000
   Si
     2
Direct
  0.000000  0.000000  0.000000
  0.250000  0.250000  0.250000
 
   36   36   36
 -.71541789246E+01 -.58988445319E+01 -.24504279839E+01 0.23485851139E+01 0.74133415881E+01
 0.11749248032E+02 0.14705437626E+02 0.16076383217E+02 0.16056502156E+02 0.15100604218E+02
 0.13742163228E+02 0.12313293941E+02 0.10946974777E+02 0.97331019589E+01 0.87244074091E+01
 0.79435290481E+01 0.73935635069E+01 0.70684182328E+01 0.69610219338E+01 0.70684401213E+01
 0.73935852534E+01 0.79435310660E+01 0.87243959055E+01 0.97331102194E+01 0.10947040737E+02
 0.12313422922E+02 0.13742295907E+02 0.15100626634E+02 0.16056316372E+02 0.16075994251E+02
 0.14704973182E+02 0.11748879796E+02 0.74131728557E+01 0.23485998503E+01 -.24503275347E+01
 -.58987636666E+01 -.58988445319E+01 -.33742079510E+01 0.10184163595E+01 0.62077430226E+01
 0.11072468862E+02 0.14765326128E+02 0.16883714230E+02 0.17469236433E+02 0.16888668863E+02
 0.15664107708E+02 0.14250089181E+02 0.12831141347E+02 0.11512054848E+02 0.10364851665E+02
 0.94313599536E+01 0.87301295030E+01 0.82651357784E+01 0.80339997309E+01 0.80340128529E+01
 0.82651607661E+01 0.87301401685E+01 0.94313485440E+01 0.10364840218E+02 0.11512083275E+02
 0.12831241243E+02 0.14250247373E+02 0.15664240478E+02 0.16888652846E+02 0.17469003986E+02
 0.16883331211E+02 0.14764957129E+02 0.11072247849E+02 0.62076813242E+01 0.10184333611E+01
 -.33741863077E+01 -.58988381742E+01 -.24504279839E+01 0.10184163595E+01 0.57714768905E+01
 0.10677448814E+02 0.14756569909E+02 0.17425357451E+02 0.18557453902E+02 0.18398556392E+02
 0.17409378410E+02 0.16082791697E+02 0.14682121972E+02 0.13319785217E+02 0.12079644143E+02
 0.11019643272E+02 0.10175187373E+02 0.95648244073E+01 0.91966914437E+01 0.90737531588E+01
 0.91967109885E+01 0.95648415958E+01 0.10175184614E+02 0.11019626419E+02 0.12079639031E+02
 0.13319824277E+02 0.14682225687E+02 0.16082939905E+02 0.17409495535E+02 0.18398551500E+02
 0.18557300708E+02 0.17425131065E+02 0.14756387665E+02 0.10677372418E+02 0.57714807973E+01
 0.10184408438E+01 -.24504151231E+01 -.37234494323E+01 0.23485851139E+01 0.62077430226E+01
 0.10677448814E+02 0.14746569437E+02 0.17699500828E+02 0.19247969209E+02 0.19496921059E+02
 0.18812361871E+02 0.17657763229E+02 0.16355478541E+02 0.15027312597E+02 0.13760531707E+02
 0.12622456760E+02 0.11662453778E+02 0.10915049617E+02 0.10403804622E+02 0.10144178931E+02
 0.10144188589E+02 0.10403823746E+02 0.10915060862E+02 0.11662450883E+02 0.12622448118E+02
 0.13760533873E+02 0.15027347104E+02 0.16355562642E+02 0.17657887257E+02 0.18812478681E+02
 0.19496974279E+02 0.19247940236E+02 0.17699425188E+02 0.14746506291E+02 0.10677435804E+02
 0.62077761538E+01 0.23486301582E+01 0.10432417385E+00 0.10430408377E+00 0.74133415881E+01
 0.11072468862E+02 0.14756569909E+02 0.17699500828E+02 0.19485268071E+02 0.20076743607E+02
 0.19723732181E+02 0.18819235601E+02 0.17697399951E+02 0.16488527397E+02 0.15276239817E+02
 0.14128989439E+02 0.13103299565E+02 0.12246459044E+02 0.11598862766E+02 0.11194270198E+02
 0.11056490847E+02 0.11194287024E+02 0.11598885805E+02 0.12246478369E+02 0.13103311708E+02
 0.14128994587E+02 0.15276244337E+02 0.16488550595E+02 0.17697465542E+02 0.18819347236E+02
 0.19723860650E+02 0.20076842396E+02 0.19485302533E+02 0.17699467968E+02 0.14756498517E+02
 0.11072400383E+02 0.74133017556E+01 0.47019499308E+01 0.36995978927E+01 0.47019631245E+01
 0.11749248032E+02 0.14765326128E+02 0.17425357451E+02 0.19247969209E+02 0.20076743607E+02
 0.20039957006E+02 0.19437278460E+02 0.18568563772E+02 0.17560688349E+02 0.16488526946E+02
 0.15414159735E+02 0.14392503922E+02 0.13475978614E+02 0.12717844202E+02 0.12171728044E+02
 0.11884554865E+02 0.11884567960E+02 0.12171760860E+02 0.12717884799E+02 0.13476018199E+02
 0.14392534397E+02 0.15414173379E+02 0.16488529359E+02 0.17560705566E+02 0.18568624046E+02
 0.19437382850E+02 0.20040072874E+02 0.20076823360E+02 0.19247972482E+02 0.17425264848E+02
 0.14765150471E+02 0.11749039592E+02 0.90954665344E+01 0.75364406898E+01 0.75365052471E+01
 0.90956350676E+01 0.14705437626E+02 0.16883714230E+02 0.18557453902E+02 0.19496921059E+02
 0.19723732181E+02 0.19437278460E+02 0.18870786978E+02 0.18128931882E+02 0.17273782935E+02
 0.16355477436E+02 0.15419131799E+02 0.14512409743E+02 0.13692327217E+02 0.13026249344E+02
 0.12584976361E+02 0.12429695303E+02 0.12585020028E+02 0.13026314245E+02 0.13692392546E+02
 0.14512467330E+02 0.15419174136E+02 0.16355497225E+02 0.17273791312E+02 0.18128957955E+02
 0.18870848502E+02 0.19437357383E+02 0.19723788583E+02 0.19496921142E+02 0.18557377298E+02
 0.16883549962E+02 0.14705198199E+02 0.12492720915E+02 0.10832385208E+02 0.10215065415E+02
 0.10832551463E+02 0.12492973731E+02 0.16076383217E+02 0.17469236433E+02 0.18398556392E+02
 0.18812361871E+02 0.18819235601E+02 0.18568563772E+02 0.18128931882E+02 0.17545855000E+02
 0.16853951919E+02 0.16082790485E+02 0.15266257584E+02 0.14452438064E+02 0.13704383761E+02
 0.13114285279E+02 0.12785133093E+02 0.12785172275E+02 0.13114376258E+02 0.13704477364E+02
 0.14452511302E+02 0.15266316650E+02 0.16082840995E+02 0.16853992257E+02 0.17545895531E+02
 0.18128988497E+02 0.18568629923E+02 0.18819275058E+02 0.18812341870E+02 0.18398476937E+02
 0.17469119667E+02 0.16076249749E+02 0.14465894813E+02 0.13031170834E+02 0.12182378422E+02
 0.12182419831E+02 0.13031276896E+02 0.14466028770E+02 0.16056502156E+02 0.16888668863E+02
 0.17409378410E+02 0.17657763229E+02 0.17697399951E+02 0.17560688349E+02 0.17273782935E+02
 0.16853951919E+02 0.16312573393E+02 0.15664106891E+02 0.14935192532E+02 0.14168763879E+02
 0.13463484240E+02 0.12957618790E+02 0.12772868934E+02 0.12957713469E+02 0.13463604540E+02
 0.14168846646E+02 0.14935234999E+02 0.15664145325E+02 0.16312632813E+02 0.16854032949E+02
 0.17273881039E+02 0.17560793445E+02 0.17697484136E+02 0.17657788125E+02 0.17409329080E+02
 0.16888579843E+02 0.16056436050E+02 0.14997411532E+02 0.13924420971E+02 0.13117837920E+02
 0.12817470313E+02 0.13117784344E+02 0.13924365541E+02 0.14997410952E+02 0.15100604218E+02
 0.15664107708E+02 0.16082791697E+02 0.16355478541E+02 0.16488527397E+02 0.16488526946E+02
 0.16355477436E+02 0.16082790485E+02 0.15664106891E+02 0.15100604102E+02 0.14403338607E+02
 0.13654147014E+02 0.13005795916E+02 0.12626553168E+02 0.12626612016E+02 0.13005923636E+02
 0.13654247590E+02 0.14403362359E+02 0.15100581862E+02 0.15664105349E+02 0.16082850002E+02
 0.16355593846E+02 0.16488673726E+02 0.16488673766E+02 0.16355593926E+02 0.16082850090E+02
 0.15664105507E+02 0.15100582119E+02 0.14403362600E+02 0.13654247642E+02 0.13005923394E+02
 0.12626611407E+02 0.12626552141E+02 0.13005794602E+02 0.13654145805E+02 0.14403337951E+02
 0.13742163228E+02 0.14250089181E+02 0.14682121972E+02 0.15027312597E+02 0.15276239817E+02
 0.15414159735E+02 0.15419131799E+02 0.15266257584E+02 0.14935192532E+02 0.14403338607E+02
 0.13713727409E+02 0.13004573578E+02 0.12466607289E+02 0.12265476033E+02 0.12466709209E+02
 0.13004694990E+02 0.13713776603E+02 0.14403290577E+02 0.14935101323E+02 0.15266206238E+02
 0.15419167182E+02 0.15414270390E+02 0.15276384204E+02 0.15027456966E+02 0.14682251418E+02
 0.14250193730E+02 0.13742235822E+02 0.13181739915E+02 0.12613348173E+02 0.12102857200E+02
 0.11740671177E+02 0.11608880576E+02 0.11740606134E+02 0.12102774253E+02 0.12613284791E+02
 0.13181687145E+02 0.12313293941E+02 0.12831141347E+02 0.13319785217E+02 0.13760531707E+02
 0.14128989439E+02 0.14392503922E+02 0.14512409743E+02 0.14452438064E+02 0.14168763879E+02
 0.13654147014E+02 0.13004573578E+02 0.12399273559E+02 0.12033325608E+02 0.12033376044E+02
 0.12399388959E+02 0.13004671603E+02 0.13654156504E+02 0.14168673967E+02 0.14452305277E+02
 0.14512316206E+02 0.14392494938E+02 0.14129050047E+02 0.13760617746E+02 0.13319871945E+02
 0.12831233218E+02 0.12313394305E+02 0.11785190444E+02 0.11273227047E+02 0.10817451622E+02
 0.10469209289E+02 0.10279102742E+02 0.10279098975E+02 0.10469195483E+02 0.10817417942E+02
 0.11273162239E+02 0.11785097594E+02 0.10946974777E+02 0.11512054848E+02 0.12079644143E+02
 0.12622456760E+02 0.13103299565E+02 0.13475978614E+02 0.13692327217E+02 0.13704383761E+02
 0.13463484240E+02 0.13005795916E+02 0.12466607289E+02 0.12033325608E+02 0.11867686285E+02
 0.12033397889E+02 0.12466712788E+02 0.13005874354E+02 0.13463485019E+02 0.13704297060E+02
 0.13692195734E+02 0.13475869584E+02 0.13103252985E+02 0.12622461411E+02 0.12079660889E+02
 0.11512064055E+02 0.10946986983E+02 0.10404696571E+02 0.99034880294E+01 0.94651388857E+01
 0.91176095578E+01 0.88919351931E+01 0.88134345382E+01 0.88919552596E+01 0.91176257415E+01
 0.94651298029E+01 0.99034584221E+01 0.10404669603E+02 0.97331019589E+01 0.10364851665E+02
 0.11019643272E+02 0.11662453778E+02 0.12246459044E+02 0.12717844202E+02 0.13026249344E+02
 0.13114285279E+02 0.12957618790E+02 0.12626553168E+02 0.12265476033E+02 0.12033376044E+02
 0.12033397889E+02 0.12265535410E+02 0.12626630822E+02 0.12957683683E+02 0.13114303294E+02
 0.13026202930E+02 0.12717751815E+02 0.12246365700E+02 0.11662397970E+02 0.11019626636E+02
 0.10364843878E+02 0.97330744512E+01 0.91479547575E+01 0.86252437801E+01 0.81776788411E+01
 0.78191746163E+01 0.75661063221E+01 0.74344891083E+01 0.74345087540E+01 0.75661568339E+01
 0.78192392756E+01 0.81777465883E+01 0.86253085748E+01 0.91480067602E+01 0.87244074091E+01
 0.94313599536E+01 0.10175187373E+02 0.10915049617E+02 0.11598862766E+02 0.12171728044E+02
 0.12584976361E+02 0.12785133093E+02 0.12772868934E+02 0.12626612016E+02 0.12466709209E+02
 0.12399388959E+02 0.12466712788E+02 0.12626630822E+02 0.12772913553E+02 0.12785197424E+02
 0.12585032351E+02 0.12171743484E+02 0.11598827060E+02 0.10914988172E+02 0.10175144167E+02
 0.94313594024E+01 0.87244318656E+01 0.80814494899E+01 0.75178667442E+01 0.70419749551E+01
 0.66596665976E+01 0.63776335333E+01 0.62037679669E+01 0.61449166736E+01 0.62038260379E+01
 0.63777378649E+01 0.66597899101E+01 0.70420781439E+01 0.75179172963E+01 0.80814453731E+01
 0.79435290481E+01 0.87301295030E+01 0.95648244073E+01 0.10403804622E+02 0.11194270198E+02
 0.11884554865E+02 0.12429695303E+02 0.12785172275E+02 0.12957713469E+02 0.13005923636E+02
 0.13004694990E+02 0.13004671603E+02 0.13005874354E+02 0.12957683683E+02 0.12785197424E+02
 0.12429776103E+02 0.11884658305E+02 0.11194347336E+02 0.10403821864E+02 0.95647924054E+01
 0.87300992577E+01 0.79435500841E+01 0.72348369255E+01 0.66197692493E+01 0.61041508398E+01
 0.56888997929E+01 0.53742840851E+01 0.51619821697E+01 0.50547743816E+01 0.50548068715E+01
 0.51620675357E+01 0.53743851037E+01 0.56889635780E+01 0.61041409465E+01 0.66196990924E+01
 0.72347648085E+01 0.73935635069E+01 0.82651357784E+01 0.91966914437E+01 0.10144178931E+02
 0.11056490847E+02 0.11884567960E+02 0.12585020028E+02 0.13114376258E+02 0.13463604540E+02
 0.13654247590E+02 0.13713776603E+02 0.13654156504E+02 0.13463485019E+02 0.13114303294E+02
 0.12585032351E+02 0.11884658305E+02 0.11056619664E+02 0.10144291756E+02 0.91967435476E+01
 0.82651238318E+01 0.73935357972E+01 0.66127999477E+01 0.59389934664E+01 0.53763030908E+01
 0.49221112252E+01 0.45719221171E+01 0.43224869374E+01 0.41726717099E+01 0.41226624787E+01
 0.41727024125E+01 0.43225168267E+01 0.45719082239E+01 0.49220339272E+01 0.53761911482E+01
 0.59389079886E+01 0.66127810777E+01 0.70684182328E+01 0.80339997309E+01 0.90737531588E+01
 0.10144188589E+02 0.11194287024E+02 0.12171760860E+02 0.13026314245E+02 0.13704477364E+02
 0.14168846646E+02 0.14403362359E+02 0.14403290577E+02 0.14168673967E+02 0.13704297060E+02
 0.13026202930E+02 0.12171743484E+02 0.11194347336E+02 0.10144291756E+02 0.90738554776E+01
 0.80340586706E+01 0.70684179325E+01 0.62075825098E+01 0.54673298594E+01 0.48505487917E+01
 0.43519149191E+01 0.39630824180E+01 0.36765480774E+01 0.34873964565E+01 0.33932271768E+01
 0.33932206031E+01 0.34873661319E+01 0.36764771274E+01 0.39629764420E+01 0.43518121781E+01
 0.48504946721E+01 0.54673362284E+01 0.62076133409E+01 0.69610219338E+01 0.80340128529E+01
 0.91967109885E+01 0.10403823746E+02 0.11598885805E+02 0.12717884799E+02 0.13692392546E+02
 0.14452511302E+02 0.14935234999E+02 0.15100581862E+02 0.14935101323E+02 0.14452305277E+02
 0.13692195734E+02 0.12717751815E+02 0.11598827060E+02 0.10403821864E+02 0.91967435476E+01
 0.80340586706E+01 0.69610558945E+01 0.60085293885E+01 0.51916392883E+01 0.45119232107E+01
 0.39617690195E+01 0.35296151371E+01 0.32041874435E+01 0.29768710274E+01 0.28422669128E+01
 0.27976510626E+01 0.28422235674E+01 0.29767919588E+01 0.32040983916E+01 0.35295553635E+01
 0.39617631192E+01 0.45119574842E+01 0.51916728508E+01 0.60085296514E+01 0.70684401213E+01
 0.82651607661E+01 0.95648415958E+01 0.10915060862E+02 0.12246478369E+02 0.13476018199E+02
 0.14512467330E+02 0.15266316650E+02 0.15664145325E+02 0.15664105349E+02 0.15266206238E+02
 0.14512316206E+02 0.13475869584E+02 0.12246365700E+02 0.10914988172E+02 0.95647924054E+01
 0.82651238318E+01 0.70684179325E+01 0.60085293885E+01 0.51011177745E+01 0.43466306599E+01
 0.37353035776E+01 0.32526614827E+01 0.28840219426E+01 0.26172263965E+01 0.24436467419E+01
 0.23580474427E+01 0.23580261067E+01 0.24435950712E+01 0.26171763671E+01 0.28840073603E+01
 0.32526918852E+01 0.37353551129E+01 0.43466694958E+01 0.51011332777E+01 0.60085387974E+01
 0.73935852534E+01 0.87301401685E+01 0.10175184614E+02 0.11662450883E+02 0.13103311708E+02
 0.14392534397E+02 0.15419174136E+02 0.16082840995E+02 0.16312632813E+02 0.16082850002E+02
 0.15419167182E+02 0.14392494938E+02 0.13103252985E+02 0.11662397970E+02 0.10175144167E+02
 0.87300992577E+01 0.73935357972E+01 0.62075825098E+01 0.51916392883E+01 0.43466306599E+01
 0.36611612667E+01 0.31179506358E+01 0.26989841485E+01 0.23886394241E+01 0.21749737041E+01
 0.20498567839E+01 0.20086433759E+01 0.20498385967E+01 0.21749602147E+01 0.23886551111E+01
 0.26990319113E+01 0.31180098309E+01 0.36612100378E+01 0.43466675480E+01 0.51916788998E+01
 0.62076317934E+01 0.79435310660E+01 0.94313485440E+01 0.11019626419E+02 0.12622448118E+02
 0.14128994587E+02 0.15414173379E+02 0.16355497225E+02 0.16853992257E+02 0.16854032949E+02
 0.16355593846E+02 0.15414270390E+02 0.14129050047E+02 0.12622461411E+02 0.11019626636E+02
 0.94313594024E+01 0.79435500841E+01 0.66127999477E+01 0.54673298594E+01 0.45119232107E+01
 0.37353035776E+01 0.31179506358E+01 0.26384911131E+01 0.22776762372E+01 0.20200918914E+01
 0.18544650234E+01 0.17734588736E+01 0.17734594351E+01 0.18544741579E+01 0.20201218370E+01
 0.22777270262E+01 0.26385493606E+01 0.31180032335E+01 0.37353462328E+01 0.45119539723E+01
 0.54673423064E+01 0.66127910598E+01 0.87243959055E+01 0.10364840218E+02 0.12079639031E+02
 0.13760533873E+02 0.15276244337E+02 0.16488529359E+02 0.17273791312E+02 0.17545895531E+02
 0.17273881039E+02 0.16488673726E+02 0.15276384204E+02 0.13760617746E+02 0.12079660889E+02
 0.10364843878E+02 0.87244318656E+01 0.72348369255E+01 0.59389934664E+01 0.48505487917E+01
 0.39617690195E+01 0.32526614827E+01 0.26989841485E+01 0.22776762372E+01 0.19695023430E+01
 0.17597345103E+01 0.16380086040E+01 0.15981282405E+01 0.16380245068E+01 0.17597665023E+01
 0.19695457034E+01 0.22777212095E+01 0.26990210688E+01 0.32526805740E+01 0.39617562099E+01
 0.48504931867E+01 0.59389074334E+01 0.72347590950E+01 0.97331102194E+01 0.11512083275E+02
 0.13319824277E+02 0.15027347104E+02 0.16488550595E+02 0.17560705566E+02 0.18128957955E+02
 0.18128988497E+02 0.17560793445E+02 0.16488673766E+02 0.15027456966E+02 0.13319871945E+02
 0.11512064055E+02 0.97330744512E+01 0.80814494899E+01 0.66197692493E+01 0.53763030908E+01
 0.43519149191E+01 0.35296151371E+01 0.28840219426E+01 0.23886394241E+01 0.20200918914E+01
 0.17597345103E+01 0.15937923868E+01 0.15131240663E+01 0.15131338891E+01 0.15938173182E+01
 0.17597635569E+01 0.20201135571E+01 0.23886443289E+01 0.28840000243E+01 0.35295550032E+01
 0.43518159516E+01 0.53761917056E+01 0.66196927864E+01 0.80814393909E+01 0.10947040737E+02
 0.12831241243E+02 0.14682225687E+02 0.16355562642E+02 0.17697465542E+02 0.18568624046E+02
 0.18870848502E+02 0.18568629923E+02 0.17697484136E+02 0.16355593926E+02 0.14682251418E+02
 0.12831233218E+02 0.10946986983E+02 0.91479547575E+01 0.75178667442E+01 0.61041508398E+01
 0.49221112252E+01 0.39630824180E+01 0.32041874435E+01 0.26172263965E+01 0.21749737041E+01
 0.18544650234E+01 0.16380086040E+01 0.15131240663E+01 0.14723355807E+01 0.15131373194E+01
 0.16380227720E+01 0.18544653157E+01 0.21749502516E+01 0.26171740941E+01 0.32041076065E+01
 0.39629914953E+01 0.49220435275E+01 0.61041398256E+01 0.75179164329E+01 0.91480303491E+01
 0.12313422922E+02 0.14250247373E+02 0.16082939905E+02 0.17657887257E+02 0.18819347236E+02
 0.19437382850E+02 0.19437357383E+02 0.18819275058E+02 0.17657788125E+02 0.16082850090E+02
 0.14250193730E+02 0.12313394305E+02 0.10404696571E+02 0.86252437801E+01 0.70419749551E+01
 0.56888997929E+01 0.45719221171E+01 0.36765480774E+01 0.29768710274E+01 0.24436467419E+01
 0.20498567839E+01 0.17734588736E+01 0.15981282405E+01 0.15131338891E+01 0.15131373194E+01
 0.15981319029E+01 0.17734492507E+01 0.20498242847E+01 0.24435917440E+01 0.29768063002E+01
 0.36765006930E+01 0.45719240387E+01 0.56889625357E+01 0.70420711508E+01 0.86253251617E+01
 0.10404739935E+02 0.13742295907E+02 0.15664240478E+02 0.17409495535E+02 0.18812478681E+02
 0.19723860650E+02 0.20040072874E+02 0.19723788583E+02 0.18812341870E+02 0.17409329080E+02
 0.15664105507E+02 0.13742235822E+02 0.11785190444E+02 0.99034880294E+01 0.81776788411E+01
 0.66596665976E+01 0.53742840851E+01 0.43224869374E+01 0.34873964565E+01 0.28422669128E+01
 0.23580474427E+01 0.20086433759E+01 0.17734594351E+01 0.16380245068E+01 0.15938173182E+01
 0.16380227720E+01 0.17734492507E+01 0.20086185129E+01 0.23580107799E+01 0.28422349515E+01
 0.34873955846E+01 0.43225376509E+01 0.53743788077E+01 0.66597638488E+01 0.81777318502E+01
 0.99034911280E+01 0.11785191676E+02 0.15100626634E+02 0.16888652846E+02 0.18398551500E+02
 0.19496974279E+02 0.20076842396E+02 0.20076823360E+02 0.19496921142E+02 0.18398476937E+02
 0.16888579843E+02 0.15100582119E+02 0.13181739915E+02 0.11273227047E+02 0.94651388857E+01
 0.78191746163E+01 0.63776335333E+01 0.51619821697E+01 0.41726717099E+01 0.33932271768E+01
 0.27976510626E+01 0.23580261067E+01 0.20498385967E+01 0.18544741579E+01 0.17597665023E+01
 0.17597635569E+01 0.18544653157E+01 0.20498242847E+01 0.23580107799E+01 0.27976476054E+01
 0.33932539557E+01 0.41727364365E+01 0.51620664697E+01 0.63776987921E+01 0.78191912085E+01
 0.94651126945E+01 0.11273194511E+02 0.13181739776E+02 0.16056316372E+02 0.17469003986E+02
 0.18557300708E+02 0.19247940236E+02 0.19485302533E+02 0.19247972482E+02 0.18557377298E+02
 0.17469119667E+02 0.16056436050E+02 0.14403362600E+02 0.12613348173E+02 0.10817451622E+02
 0.91176095578E+01 0.75661063221E+01 0.62037679669E+01 0.50547743816E+01 0.41226624787E+01
 0.33932206031E+01 0.28422235674E+01 0.24435950712E+01 0.21749602147E+01 0.20201218370E+01
 0.19695457034E+01 0.20201135571E+01 0.21749502516E+01 0.24435917440E+01 0.28422349515E+01
 0.33932539557E+01 0.41227161010E+01 0.50548293029E+01 0.62037973800E+01 0.75661001198E+01
 0.91175816667E+01 0.10817416349E+02 0.12613296935E+02 0.14403274773E+02 0.16075994251E+02
 0.16883331211E+02 0.17425131065E+02 0.17699425188E+02 0.17699467968E+02 0.17425264848E+02
 0.16883549962E+02 0.16076249749E+02 0.14997411532E+02 0.13654247642E+02 0.12102857200E+02
 0.10469209289E+02 0.88919351931E+01 0.74344891083E+01 0.61449166736E+01 0.50548068715E+01
 0.41727024125E+01 0.34873661319E+01 0.29767919588E+01 0.26171763671E+01 0.23886551111E+01
 0.22777270262E+01 0.22777212095E+01 0.23886443289E+01 0.26171740941E+01 0.29768063002E+01
 0.34873955846E+01 0.41727364365E+01 0.50548293029E+01 0.61449149492E+01 0.74344685254E+01
 0.88919148766E+01 0.10469193623E+02 0.12102812160E+02 0.13654123375E+02 0.14997196559E+02
 0.14704973182E+02 0.14764957129E+02 0.14756387665E+02 0.14746506291E+02 0.14756498517E+02
 0.14765150471E+02 0.14705198199E+02 0.14465894813E+02 0.13924420971E+02 0.13005923394E+02
 0.11740671177E+02 0.10279102742E+02 0.88134345382E+01 0.74345087540E+01 0.62038260379E+01
 0.51620675357E+01 0.43225168267E+01 0.36764771274E+01 0.32040983916E+01 0.28840073603E+01
 0.26990319113E+01 0.26385493606E+01 0.26990210688E+01 0.28840000243E+01 0.32041076065E+01
 0.36765006930E+01 0.43225376509E+01 0.51620664697E+01 0.62037973800E+01 0.74344685254E+01
 0.88134094120E+01 0.10279103443E+02 0.11740672594E+02 0.13005878085E+02 0.13924295692E+02
 0.14465697044E+02 0.11748879796E+02 0.11072247849E+02 0.10677372418E+02 0.10677435804E+02
 0.11072400383E+02 0.11749039592E+02 0.12492720915E+02 0.13031170834E+02 0.13117837920E+02
 0.12626611407E+02 0.11608880576E+02 0.10279098975E+02 0.88919552596E+01 0.75661568339E+01
 0.63777378649E+01 0.53743851037E+01 0.45719082239E+01 0.39629764420E+01 0.35295553635E+01
 0.32526918852E+01 0.31180098309E+01 0.31180032335E+01 0.32526805740E+01 0.35295550032E+01
 0.39629914953E+01 0.45719240387E+01 0.53743788077E+01 0.63776987921E+01 0.75661001198E+01
 0.88919148766E+01 0.10279103443E+02 0.11608930717E+02 0.12626679401E+02 0.13117881994E+02
 0.13031152504E+02 0.12492621513E+02 0.74131728557E+01 0.62076813242E+01 0.57714807973E+01
 0.62077761538E+01 0.74133017556E+01 0.90954665344E+01 0.10832385208E+02 0.12182378422E+02
 0.12817470313E+02 0.12626552141E+02 0.11740606134E+02 0.10469195483E+02 0.91176257415E+01
 0.78192392756E+01 0.66597899101E+01 0.56889635780E+01 0.49220339272E+01 0.43518121781E+01
 0.39617631192E+01 0.37353551129E+01 0.36612100378E+01 0.37353462328E+01 0.39617562099E+01
 0.43518159516E+01 0.49220435275E+01 0.56889625357E+01 0.66597638488E+01 0.78191912085E+01
 0.91175816667E+01 0.10469193623E+02 0.11740672594E+02 0.12626679401E+02 0.12817614486E+02
 0.12182478940E+02 0.10832395633E+02 0.90953828206E+01 0.23485998503E+01 0.10184333611E+01
 0.10184408438E+01 0.23486301582E+01 0.47019499308E+01 0.75364406898E+01 0.10215065415E+02
 0.12182419831E+02 0.13117784344E+02 0.13005794602E+02 0.12102774253E+02 0.10817417942E+02
 0.94651298029E+01 0.81777465883E+01 0.70420781439E+01 0.61041409465E+01 0.53761911482E+01
 0.48504946721E+01 0.45119574842E+01 0.43466694958E+01 0.43466675480E+01 0.45119539723E+01
 0.48504931867E+01 0.53761917056E+01 0.61041398256E+01 0.70420711508E+01 0.81777318502E+01
 0.94651126945E+01 0.10817416349E+02 0.12102812160E+02 0.13005878085E+02 0.13117881994E+02
 0.12182478940E+02 0.10215056719E+02 0.75363847718E+01 0.47018930903E+01 -.24503275347E+01
 -.33741863077E+01 -.24504151231E+01 0.10432417385E+00 0.36995978927E+01 0.75365052471E+01
 0.10832551463E+02 0.13031276896E+02 0.13924365541E+02 0.13654145805E+02 0.12613284791E+02
 0.11273162239E+02 0.99034584221E+01 0.86253085748E+01 0.75179172963E+01 0.66196990924E+01
 0.59389079886E+01 0.54673362284E+01 0.51916728508E+01 0.51011332777E+01 0.51916788998E+01
 0.54673423064E+01 0.59389074334E+01 0.66196927864E+01 0.75179164329E+01 0.86253251617E+01
 0.99034911280E+01 0.11273194511E+02 0.12613296935E+02 0.13654123375E+02 0.13924295692E+02
 0.13031152504E+02 0.10832395633E+02 0.75363847718E+01 0.36995801334E+01 0.10440462837E+00
 -.58987636666E+01 -.58988381742E+01 -.37234494323E+01 0.10430408377E+00 0.47019631245E+01
 0.90956350676E+01 0.12492973731E+02 0.14466028770E+02 0.14997410952E+02 0.14403337951E+02
 0.13181687145E+02 0.11785097594E+02 0.10404669603E+02 0.91480067602E+01 0.80814453731E+01
 0.72347648085E+01 0.66127810777E+01 0.62076133409E+01 0.60085296514E+01 0.60085387974E+01
 0.62076317934E+01 0.66127910598E+01 0.72347590950E+01 0.80814393909E+01 0.91480303491E+01
 0.10404739935E+02 0.11785191676E+02 0.13181739776E+02 0.14403274773E+02 0.14997196559E+02
 0.14465697044E+02 0.12492621513E+02 0.90953828206E+01 0.47018930903E+01 0.10440462837E+00
 -.37232905844E+01 -.58988446148E+01 -.33742094381E+01 0.10184149352E+01 0.62077425101E+01
 0.11072468615E+02 0.14765325992E+02 0.16883715094E+02 0.17469238124E+02 0.16888669755E+02
 0.15664107172E+02 0.14250088337E+02 0.12831140792E+02 0.11512053862E+02 0.10364850238E+02
 0.94313593278E+01 0.87301299575E+01 0.82651360703E+01 0.80339993938E+01 0.80340128887E+01
 0.82651614471E+01 0.87301403888E+01 0.94313480061E+01 0.10364840046E+02 0.11512083790E+02
 0.12831241333E+02 0.14250246710E+02 0.15664240171E+02 0.16888653238E+02 0.17469004036E+02
 0.16883330709E+02 0.14764957303E+02 0.11072249101E+02 0.62076825230E+01 0.10184340066E+01
 -.33741854343E+01 -.58988371141E+01 -.33742094381E+01 0.25343709373E+00 0.52267704978E+01
 0.10367391369E+02 0.14656378773E+02 0.17487187241E+02 0.18726216437E+02 0.18623093661E+02
 0.17648856024E+02 0.16312572951E+02 0.14896509912E+02 0.13516237197E+02 0.12257553652E+02
 0.11180215234E+02 0.10321098975E+02 0.96997544021E+01 0.93248755848E+01 0.91996696495E+01
 0.93248984790E+01 0.96997730556E+01 0.10321092772E+02 0.11180192808E+02 0.12257544702E+02
 0.13516276499E+02 0.14896621479E+02 0.16312740272E+02 0.17648999710E+02 0.18623109774E+02
 0.18726066932E+02 0.17486946068E+02 0.14656167008E+02 0.10367268809E+02 0.52267082581E+01
 0.25338707148E+00 -.33742481507E+01 -.47053048993E+01 0.10184149352E+01 0.52267704978E+01
 0.10109364932E+02 0.14573733451E+02 0.17848470645E+02 0.19620832724E+02 0.19996094140E+02
 0.19355664622E+02 0.18187444525E+02 0.16853951781E+02 0.15488769236E+02 0.14182167691E+02
 0.13004757370E+02 0.12009174202E+02 0.11232742004E+02 0.10701079608E+02 0.10430942001E+02
 0.10430956523E+02 0.10701105688E+02 0.11232749120E+02 0.12009152846E+02 0.13004723159E+02
 0.14182144889E+02 0.15488784851E+02 0.16854032564E+02 0.18187593739E+02 0.19355838852E+02
 0.19996223308E+02 0.19620874274E+02 0.17848439142E+02 0.14573675088E+02 0.10109312994E+02
 0.52267327229E+01 0.10183900200E+01 -.14274734866E+01 -.14274642093E+01 0.62077425101E+01
 0.10367391369E+02 0.14573733451E+02 0.17969578435E+02 0.20088586412E+02 0.20881505781E+02
 0.20611958689E+02 0.19701027633E+02 0.18535815068E+02 0.17273783532E+02 0.16001807909E+02
 0.14792198360E+02 0.13706122685E+02 0.12795786619E+02 0.12106145404E+02 0.11674675061E+02
 0.11527652229E+02 0.11674703931E+02 0.12106173857E+02 0.12795787743E+02 0.13706093027E+02
 0.14792150010E+02 0.16001757489E+02 0.17273758297E+02 0.18535855966E+02 0.19701165983E+02
 0.20612182352E+02 0.20881752110E+02 0.20088775798E+02 0.17969665651E+02 0.14573735841E+02
 0.10367365628E+02 0.62077320664E+01 0.31307480949E+01 0.19938510029E+01 0.31307432019E+01
 0.11072468615E+02 0.14656378773E+02 0.17848470645E+02 0.20088586412E+02 0.21187948590E+02
 0.21279274604E+02 0.20689203973E+02 0.19774725340E+02 0.18705724578E+02 0.17560688594E+02
 0.16405218370E+02 0.15299159053E+02 0.14301358260E+02 0.13472479313E+02 0.12873663129E+02
 0.12558024117E+02 0.12558044391E+02 0.12873707205E+02 0.13472513327E+02 0.14301359204E+02
 0.15299122501E+02 0.16405151328E+02 0.17560608937E+02 0.18705669640E+02 0.19774748423E+02
 0.20689345236E+02 0.21279522311E+02 0.21188226456E+02 0.20088790208E+02 0.17848536198E+02
 0.14656325536E+02 0.11072372385E+02 0.79323738938E+01 0.60905563911E+01 0.60905810270E+01
 0.79324464676E+01 0.14765325992E+02 0.17487187241E+02 0.19620832724E+02 0.20881505781E+02
 0.21279274604E+02 0.21032957337E+02 0.20433221667E+02 0.19635304381E+02 0.18705724224E+02
 0.17697399392E+02 0.16659406417E+02 0.15645816952E+02 0.14721781627E+02 0.13961555044E+02
 0.13453094126E+02 0.13273384332E+02 0.13453143265E+02 0.13961620413E+02 0.14721825042E+02
 0.15645817365E+02 0.16659360108E+02 0.17697314922E+02 0.18705628641E+02 0.19635243621E+02
 0.20433243998E+02 0.21033084191E+02 0.21279477236E+02 0.20881705674E+02 0.19620936882E+02
 0.17487142787E+02 0.14765158179E+02 0.12025219042E+02 0.99772216046E+01 0.92168786721E+01
 0.99773538852E+01 0.12025420215E+02 0.16883715094E+02 0.18726216437E+02 0.19996094140E+02
 0.20611958689E+02 0.20689203973E+02 0.20433221667E+02 0.19957761235E+02 0.19313055162E+02
 0.18535815325E+02 0.17657762972E+02 0.16717070825E+02 0.15759997750E+02 0.14860459456E+02
 0.14141849816E+02 0.13738546469E+02 0.13738584559E+02 0.14141938644E+02 0.14860546882E+02
 0.15760045279E+02 0.16717067243E+02 0.17657713294E+02 0.18535733907E+02 0.19312972444E+02
 0.19957716170E+02 0.20433238857E+02 0.20689277963E+02 0.20612055311E+02 0.19996161596E+02
 0.18726203959E+02 0.16883601058E+02 0.14786198348E+02 0.12931919340E+02 0.11838795109E+02
 0.11838864439E+02 0.12932089467E+02 0.14786381581E+02 0.17469238124E+02 0.18623093661E+02
 0.19355664622E+02 0.19701027633E+02 0.19774725340E+02 0.19635304381E+02 0.19313055162E+02
 0.18826612346E+02 0.18187446442E+02 0.17409378957E+02 0.16502129518E+02 0.15521358380E+02
 0.14607313931E+02 0.13948195996E+02 0.13706997017E+02 0.13948281962E+02 0.14607427799E+02
 0.15521439425E+02 0.16502158055E+02 0.17409368126E+02 0.18187414745E+02 0.18826572854E+02
 0.19313023839E+02 0.19635295178E+02 0.19774736563E+02 0.19701041285E+02 0.19355662045E+02
 0.18623068146E+02 0.17469195430E+02 0.16021046581E+02 0.14567421739E+02 0.13480537970E+02
 0.13076782786E+02 0.13480559967E+02 0.14567460997E+02 0.16021093761E+02 0.16888669755E+02
 0.17648856024E+02 0.18187444525E+02 0.18535815068E+02 0.18705724578E+02 0.18705724224E+02
 0.18535815325E+02 0.18187446442E+02 0.17648857601E+02 0.16888669171E+02 0.15922388584E+02
 0.14877718020E+02 0.13973648762E+02 0.13445335155E+02 0.13445380976E+02 0.13973749501E+02
 0.14877800774E+02 0.15922411238E+02 0.16888647584E+02 0.17648834099E+02 0.18187449940E+02
 0.18535846037E+02 0.18705769227E+02 0.18705769969E+02 0.18535846758E+02 0.18187449130E+02
 0.17648833254E+02 0.16888648212E+02 0.15922411881E+02 0.14877800018E+02 0.13973748964E+02
 0.13445382260E+02 0.13445336769E+02 0.13973649065E+02 0.14877718224E+02 0.15922389847E+02
 0.15664107172E+02 0.16312572951E+02 0.16853951781E+02 0.17273783532E+02 0.17560688594E+02
 0.17697399392E+02 0.17657762972E+02 0.17409378957E+02 0.16888669171E+02 0.16056501759E+02