   2   2   0   0
  0.1865749E+02  0.3750876E-09  0.3750876E-09  0.3750876E-09  0.5000000E-15
  1.000000000000000E-004
  CAR 
 unknown system                          
     18.58389654     -7.84206297  301      6.79223782      1.00000000
     -7.842  0.0000E+00  0.0000E+00
     -7.754  0.0000E+00  0.0000E+00
     -7.666  0.0000E+00  0.0000E+00
     -7.578  0.0000E+00  0.0000E+00
     -7.490  0.0000E+00  0.0000E+00
     -7.402  0.0000E+00  0.0000E+00
     -7.314  0.0000E+00  0.0000E+00
     -7.225  0.0000E+00  0.0000E+00
     -7.137  0.0000E+00  0.0000E+00
     -7.049  0.0000E+00  0.0000E+00
     -6.961  0.7549E-17  0.6650E-18
     -6.873  0.9056E-15  0.8043E-16
     -6.785  0.7601E-13  0.6776E-14
     -6.697  0.4357E-11  0.3906E-12
     -6.609  0.1708E-09  0.1544E-10
     -6.521  0.4587E-08  0.4195E-09
     -6.433  0.8461E-07  0.7873E-08
     -6.345  0.1077E-05  0.1027E-06
     -6.257  0.9524E-05  0.9417E-06
     -6.168  0.5923E-04  0.6159E-05
     -6.080  0.2639E-03  0.2940E-04
     -5.992  0.8643E-03  0.1055E-03
     -5.904  0.2151E-02  0.2950E-03
     -5.816  0.4210E-02  0.6658E-03
     -5.728  0.6703E-02  0.1256E-02
     -5.640  0.9060E-02  0.2054E-02
     -5.552  0.1104E-01  0.3027E-02
     -5.464  0.1293E-01  0.4166E-02
     -5.376  0.1491E-01  0.5480E-02
     -5.288  0.1649E-01  0.6932E-02
     -5.199  0.1715E-01  0.8442E-02
     -5.111  0.1758E-01  0.9991E-02
     -5.023  0.1919E-01  0.1168E-01
     -4.935  0.2193E-01  0.1361E-01
     -4.847  0.2385E-01  0.1571E-01
     -4.759  0.2373E-01  0.1780E-01
     -4.671  0.2300E-01  0.1983E-01
     -4.583  0.2377E-01  0.2192E-01
     -4.495  0.2591E-01  0.2421E-01
     -4.407  0.2799E-01  0.2667E-01
     -4.319  0.2967E-01  0.2929E-01
     -4.231  0.3146E-01  0.3206E-01
     -4.142  0.3300E-01  0.3496E-01
     -4.054  0.3333E-01  0.3790E-01
     -3.966  0.3229E-01  0.4074E-01
     -3.878  0.3120E-01  0.4349E-01
     -3.790  0.3276E-01  0.4638E-01
     -3.702  0.3836E-01  0.4976E-01
     -3.614  0.4515E-01  0.5373E-01
     -3.526  0.4888E-01  0.5804E-01
     -3.438  0.4911E-01  0.6237E-01
     -3.350  0.4858E-01  0.6665E-01
     -3.262  0.4904E-01  0.7096E-01
     -3.173  0.5000E-01  0.7537E-01
     -3.085  0.4951E-01  0.7973E-01
     -2.997  0.4631E-01  0.8381E-01
     -2.909  0.4307E-01  0.8760E-01
     -2.821  0.4425E-01  0.9150E-01
     -2.733  0.4947E-01  0.9586E-01
     -2.645  0.5282E-01  0.1005E+00
     -2.557  0.4953E-01  0.1049E+00
     -2.469  0.4073E-01  0.1085E+00
     -2.381  0.3127E-01  0.1112E+00
     -2.293  0.2474E-01  0.1134E+00
     -2.205  0.2225E-01  0.1154E+00
     -2.116  0.2409E-01  0.1175E+00
     -2.028  0.2960E-01  0.1201E+00
     -1.940  0.3559E-01  0.1232E+00
     -1.852  0.3741E-01  0.1265E+00
     -1.764  0.3274E-01  0.1294E+00
     -1.676  0.2336E-01  0.1315E+00
     -1.588  0.1323E-01  0.1326E+00
     -1.500  0.5739E-02  0.1331E+00
     -1.412  0.1872E-02  0.1333E+00
     -1.324  0.6855E-03  0.1334E+00
     -1.236  0.1514E-02  0.1335E+00
     -1.147  0.5594E-02  0.1340E+00
     -1.059  0.1516E-01  0.1353E+00
     -0.971  0.2924E-01  0.1379E+00
     -0.883  0.4116E-01  0.1415E+00
     -0.795  0.4519E-01  0.1455E+00
     -0.707  0.4472E-01  0.1494E+00
     -0.619  0.4773E-01  0.1536E+00
     -0.531  0.5603E-01  0.1586E+00
     -0.443  0.6454E-01  0.1643E+00
     -0.355  0.6906E-01  0.1703E+00
     -0.267  0.6916E-01  0.1764E+00
     -0.179  0.6512E-01  0.1822E+00
     -0.090  0.5758E-01  0.1872E+00
     -0.002  0.5037E-01  0.1917E+00
      0.086  0.4803E-01  0.1959E+00
      0.174  0.4928E-01  0.2003E+00
      0.262  0.4691E-01  0.2044E+00
      0.350  0.3656E-01  0.2076E+00
      0.438  0.2333E-01  0.2097E+00
      0.526  0.1682E-01  0.2111E+00
      0.614  0.2108E-01  0.2130E+00
      0.702  0.3107E-01  0.2157E+00
      0.790  0.3728E-01  0.2190E+00
      0.879  0.3456E-01  0.2221E+00
      0.967  0.2636E-01  0.2244E+00
      1.055  0.1912E-01  0.2261E+00
      1.143  0.1602E-01  0.2275E+00
      1.231  0.1786E-01  0.2291E+00
      1.319  0.2391E-01  0.2312E+00
      1.407  0.2942E-01  0.2338E+00
      1.495  0.2802E-01  0.2362E+00
      1.583  0.1967E-01  0.2380E+00
      1.671  0.1163E-01  0.2390E+00
      1.759  0.1122E-01  0.2400E+00
      1.847  0.2104E-01  0.2418E+00
      1.936  0.3829E-01  0.2452E+00
      2.024  0.5560E-01  0.2501E+00
      2.112  0.6611E-01  0.2559E+00
      2.200  0.6934E-01  0.2620E+00
      2.288  0.6970E-01  0.2682E+00
      2.376  0.6930E-01  0.2743E+00
      2.464  0.6589E-01  0.2801E+00
      2.552  0.5977E-01  0.2853E+00
      2.640  0.5701E-01  0.2904E+00
      2.728  0.6180E-01  0.2958E+00
      2.816  0.6995E-01  0.3020E+00
      2.904  0.7352E-01  0.3084E+00
      2.993  0.7019E-01  0.3146E+00
      3.081  0.6485E-01  0.3203E+00
      3.169  0.6340E-01  0.3259E+00
      3.257  0.6851E-01  0.3320E+00
      3.345  0.7836E-01  0.3389E+00
      3.433  0.8699E-01  0.3465E+00
      3.521  0.8992E-01  0.3544E+00
      3.609  0.8940E-01  0.3623E+00
      3.697  0.9057E-01  0.3703E+00
      3.785  0.9382E-01  0.3786E+00
      3.873  0.9448E-01  0.3869E+00
      3.962  0.8922E-01  0.3947E+00
      4.050  0.8060E-01  0.4018E+00
      4.138  0.7626E-01  0.4086E+00
      4.226  0.8198E-01  0.4158E+00
      4.314  0.9326E-01  0.4240E+00
      4.402  0.9799E-01  0.4326E+00
      4.490  0.8971E-01  0.4405E+00
      4.578  0.7447E-01  0.4471E+00
      4.666  0.6423E-01  0.4527E+00
      4.754  0.6597E-01  0.4586E+00
      4.842  0.7614E-01  0.4653E+00
      4.930  0.8452E-01  0.4727E+00
      5.019  0.8333E-01  0.4800E+00
      5.107  0.7339E-01  0.4865E+00
      5.195  0.6214E-01  0.4920E+00
      5.283  0.5588E-01  0.4969E+00
      5.371  0.5555E-01  0.5018E+00
      5.459  0.5726E-01  0.5068E+00
      5.547  0.5438E-01  0.5116E+00
      5.635  0.4392E-01  0.5155E+00
      5.723  0.3126E-01  0.5183E+00
      5.811  0.2421E-01  0.5204E+00
      5.899  0.2450E-01  0.5225E+00
      5.988  0.2694E-01  0.5249E+00
      6.076  0.2574E-01  0.5272E+00
      6.164  0.2046E-01  0.5290E+00
      6.252  0.1489E-01  0.5303E+00
      6.340  0.1141E-01  0.5313E+00
      6.428  0.9222E-02  0.5321E+00
      6.516  0.6857E-02  0.5327E+00
      6.604  0.4164E-02  0.5331E+00
      6.692  0.1945E-02  0.5333E+00
      6.780  0.7645E-03  0.5333E+00
      6.868  0.7005E-03  0.5334E+00
      6.956  0.1948E-02  0.5336E+00
      7.045  0.4813E-02  0.5340E+00
      7.133  0.8687E-02  0.5347E+00
      7.221  0.1197E-01  0.5358E+00
      7.309  0.1412E-01  0.5370E+00
      7.397  0.1671E-01  0.5385E+00
      7.485  0.2148E-01  0.5404E+00
      7.573  0.2765E-01  0.5428E+00
      7.661  0.3215E-01  0.5457E+00
      7.749  0.3348E-01  0.5486E+00
      7.837  0.3456E-01  0.5517E+00
      7.925  0.3824E-01  0.5550E+00
      8.014  0.4208E-01  0.5587E+00
      8.102  0.4229E-01  0.5625E+00
      8.190  0.4010E-01  0.5660E+00
      8.278  0.4010E-01  0.5695E+00
      8.366  0.4481E-01  0.5735E+00
      8.454  0.5354E-01  0.5782E+00
      8.542  0.6506E-01  0.5839E+00
      8.630  0.7804E-01  0.5908E+00
      8.718  0.8822E-01  0.5986E+00
      8.806  0.9071E-01  0.6066E+00
      8.894  0.8721E-01  0.6143E+00
      8.982  0.8518E-01  0.6218E+00
      9.071  0.8832E-01  0.6295E+00
      9.159  0.9290E-01  0.6377E+00
      9.247  0.9379E-01  0.6460E+00
      9.335  0.8946E-01  0.6539E+00
      9.423  0.8147E-01  0.6610E+00
      9.511  0.7413E-01  0.6676E+00
      9.599  0.7348E-01  0.6740E+00
      9.687  0.8298E-01  0.6813E+00
      9.775  0.1007E+00  0.6902E+00
      9.863  0.1207E+00  0.7008E+00
      9.951  0.1346E+00  0.7127E+00
     10.040  0.1337E+00  0.7245E+00
     10.128  0.1165E+00  0.7347E+00
     10.216  0.9409E-01  0.7430E+00
     10.304  0.8070E-01  0.7501E+00
     10.392  0.8126E-01  0.7573E+00
     10.480  0.9031E-01  0.7652E+00
     10.568  0.9917E-01  0.7740E+00
     10.656  0.1022E+00  0.7830E+00
     10.744  0.1004E+00  0.7918E+00
     10.832  0.9718E-01  0.8004E+00
     10.920  0.9131E-01  0.8084E+00
     11.008  0.7972E-01  0.8155E+00
     11.097  0.6549E-01  0.8212E+00
     11.185  0.5576E-01  0.8261E+00
     11.273  0.5524E-01  0.8310E+00
     11.361  0.6418E-01  0.8367E+00
     11.449  0.7779E-01  0.8435E+00
     11.537  0.8912E-01  0.8514E+00
     11.625  0.9589E-01  0.8598E+00
     11.713  0.9955E-01  0.8686E+00
     11.801  0.9822E-01  0.8772E+00
     11.889  0.8817E-01  0.8850E+00
     11.977  0.7103E-01  0.8913E+00
     12.065  0.5442E-01  0.8960E+00
     12.154  0.4623E-01  0.9001E+00
     12.242  0.4895E-01  0.9044E+00
     12.330  0.5872E-01  0.9096E+00
     12.418  0.6898E-01  0.9157E+00
     12.506  0.7535E-01  0.9223E+00
     12.594  0.7860E-01  0.9292E+00
     12.682  0.8284E-01  0.9365E+00
     12.770  0.8865E-01  0.9443E+00
     12.858  0.8904E-01  0.9522E+00
     12.946  0.7821E-01  0.9591E+00
     13.034  0.6187E-01  0.9645E+00
     13.123  0.5093E-01  0.9690E+00
     13.211  0.4903E-01  0.9733E+00
     13.299  0.5070E-01  0.9778E+00
     13.387  0.4803E-01  0.9820E+00
     13.475  0.3917E-01  0.9855E+00
     13.563  0.3112E-01  0.9882E+00
     13.651  0.3229E-01  0.9911E+00
     13.739  0.4420E-01  0.9950E+00
     13.827  0.6142E-01  0.1000E+01
     13.915  0.7625E-01  0.1007E+01
     14.003  0.8133E-01  0.1014E+01
     14.091  0.7205E-01  0.1021E+01
     14.180  0.5226E-01  0.1025E+01
     14.268  0.3413E-01  0.1028E+01
     14.356  0.2674E-01  0.1031E+01
     14.444  0.2856E-01  0.1033E+01
     14.532  0.3240E-01  0.1036E+01
     14.620  0.3265E-01  0.1039E+01
     14.708  0.2801E-01  0.1041E+01
     14.796  0.2178E-01  0.1043E+01
     14.884  0.1853E-01  0.1045E+01
     14.972  0.1921E-01  0.1047E+01
     15.060  0.2199E-01  0.1048E+01
     15.149  0.2629E-01  0.1051E+01
     15.237  0.3122E-01  0.1054E+01
     15.325  0.3198E-01  0.1056E+01
     15.413  0.2496E-01  0.1059E+01
     15.501  0.1399E-01  0.1060E+01
     15.589  0.5510E-02  0.1060E+01
     15.677  0.1518E-02  0.1060E+01
     15.765  0.3328E-03  0.1060E+01
     15.853  0.3060E-03  0.1060E+01
     15.941  0.1124E-02  0.1061E+01
     16.029  0.3230E-02  0.1061E+01
     16.117  0.6464E-02  0.1061E+01
     16.206  0.9190E-02  0.1062E+01
     16.294  0.9901E-02  0.1063E+01
     16.382  0.9303E-02  0.1064E+01
     16.470  0.8872E-02  0.1065E+01
     16.558  0.8406E-02  0.1065E+01
     16.646  0.6861E-02  0.1066E+01
     16.734  0.4356E-02  0.1066E+01
     16.822  0.2046E-02  0.1067E+01
     16.910  0.6910E-03  0.1067E+01
     16.998  0.1648E-03  0.1067E+01
     17.086  0.2743E-04  0.1067E+01
     17.175  0.3161E-05  0.1067E+01
     17.263  0.2510E-06  0.1067E+01
     17.351  0.1368E-07  0.1067E+01
     17.439  0.5108E-09  0.1067E+01
     17.527  0.1305E-10  0.1067E+01
     17.615  0.2278E-12  0.1067E+01
     17.703  0.2714E-14  0.1067E+01
     17.791  0.2363E-16  0.1067E+01
     17.879  0.0000E+00  0.1067E+01
     17.967  0.0000E+00  0.1067E+01
     18.055  0.0000E+00  0.1067E+01
     18.143  0.0000E+00  0.1067E+01
     18.232  0.0000E+00  0.1067E+01
     18.320  0.0000E+00  0.1067E+01
     18.408  0.0000E+00  0.1067E+01
     18.496  0.0000E+00  0.1067E+01
     18.584  0.0000E+00  0.1067E+01
