    2    2   15    1
  0.1865749E+02  0.3750876E-09  0.3750876E-09  0.3750876E-09  0.5000000E-15
  1.000000000000000E-004
  CAR 
 unknown system                          
      8     60      8
 
  0.6250000E-01  0.6250000E-01  0.6250000E-01  0.3906250E-02
    1       -5.842063   1.000000
    2        6.030419   1.000000
    3        6.471057   0.988429
    4        6.471057   0.988429
    5        9.271449   0.000000
    6        9.289663   0.000000
    7        9.289663   0.000000
    8       11.088555   0.000000
 
  0.1875000E+00  0.6250000E-01  0.6250000E-01  0.1171875E-01
    1       -5.553851   1.000000
    2        4.489020   1.000000
    3        5.590949   1.000000
    4        6.354990   0.999005
    5        9.459613   0.000000
    6        9.545539   0.000000
    7        9.916833   0.000000
    8       12.332794   0.000000
 
  0.3125000E+00  0.6250000E-01  0.6250000E-01  0.1171875E-01
    1       -4.855587   1.000000
    2        2.122713   1.000000
    3        5.086758   1.000000
    4        5.862588   1.000000
    5        9.075757   0.000000
    6       10.023041   0.000000
    7       10.331655   0.000000
    8       13.350276   0.000000
 
  0.4375000E+00  0.6250000E-01  0.6250000E-01  0.1171875E-01
    1       -3.867631   1.000000
    2        0.091003   1.000000
    3        4.871475   1.000000
    4        5.427933   1.000000
    5        8.767077   0.000000
    6       10.013997   0.000000
    7       10.028524   0.000000
    8       14.590576   0.000000
 
 -0.4375000E+00  0.6250000E-01  0.6250000E-01  0.1171875E-01
    1       -3.359902   1.000000
    2       -0.684319   1.000000
    3        4.935836   1.000000
    4        5.189181   1.000000
    5        8.680194   0.000000
    6        9.793626   0.000000
    7       10.082826   0.000000
    8       14.586332   0.000000
 
 -0.3125000E+00  0.6250000E-01  0.6250000E-01  0.1171875E-01
    1       -4.209135   1.000000
    2        0.696554   1.000000
    3        5.201007   1.000000
    4        5.244985   1.000000
    5        8.833362   0.000000
    6        9.844782   0.000000
    7       10.397512   0.000000
    8       13.671603   0.000000
 
 -0.1875000E+00  0.6250000E-01  0.6250000E-01  0.1171875E-01
    1       -5.129984   1.000000
    2        2.900779   1.000000
    3        5.486136   1.000000
    4        5.736404   1.000000
    5        9.130579   0.000000
    6        9.834576   0.000000
    7       10.545537   0.000000
    8       12.480973   0.000000
 
 -0.6250000E-01  0.6250000E-01  0.6250000E-01  0.1171875E-01
    1       -5.697296   1.000000
    2        5.278254   1.000000
    3        5.999456   1.000000
    4        6.202740   0.999985
    5        8.986071   0.000000
    6        9.732077   0.000000
    7        9.924165   0.000000
    8       11.689848   0.000000
 
  0.1875000E+00  0.1875000E+00  0.6250000E-01  0.1171875E-01
    1       -5.409012   1.000000
    2        4.392321   1.000000
    3        5.393647   1.000000
    4        5.522914   1.000000
    5        8.524906   0.000000
    6       10.591320   0.000000
    7       10.848083   0.000000
    8       11.442653   0.000000
 
  0.3125000E+00  0.1875000E+00  0.6250000E-01  0.2343750E-01
    1       -4.844008   1.000000
    2        2.816779   1.000000
    3        4.353342   1.000000
    4        5.238243   1.000000
    5        8.706260   0.000000
    6       10.728447   0.000000
    7       10.995539   0.000000
    8       11.683694   0.000000
 
  0.4375000E+00  0.1875000E+00  0.6250000E-01  0.2343750E-01
    1       -3.925776   1.000000
    2        0.798206   1.000000
    3        3.864465   1.000000
    4        4.779778   1.000000
    5        8.919565   0.000000
    6       10.499210   0.000000
    7       11.714419   0.000000
    8       11.859818   0.000000
 
 -0.4375000E+00  0.1875000E+00  0.6250000E-01  0.2343750E-01
    1       -3.073105   1.000000
    2       -0.538384   1.000000
    3        3.566999   1.000000
    4        4.673844   1.000000
    5        9.028955   0.000000
    6       10.098103   0.000000
    7       11.501894   0.000000
    8       14.073177   0.000000
 
 -0.3125000E+00  0.1875000E+00  0.6250000E-01  0.2343750E-01
    1       -3.589768   1.000000
    2        0.228994   1.000000
    3        3.469254   1.000000
    4        4.990372   1.000000
    5        9.411149   0.000000
    6        9.935087   0.000000
    7       11.462612   0.000000
    8       13.240940   0.000000
 
 -0.1875000E+00  0.1875000E+00  0.6250000E-01  0.2343750E-01
    1       -4.575100   1.000000
    2        2.114252   1.000000
    3        3.750379   1.000000
    4        5.549184   1.000000
    5        9.704594   0.000000
    6       10.022746   0.000000
    7       11.360221   0.000000
    8       11.720017   0.000000
 
 -0.6250000E-01  0.1875000E+00  0.6250000E-01  0.2343750E-01
    1       -5.268395   1.000000
    2        3.652576   1.000000
    3        4.967846   1.000000
    4        5.957950   1.000000
    5        9.156865   0.000000
    6       10.067765   0.000000
    7       10.639094   0.000000
    8       11.912327   0.000000
 
  0.3125000E+00  0.3125000E+00  0.6250000E-01  0.1171875E-01
    1       -4.414061   1.000000
    2        2.354953   1.000000
    3        4.199068   1.000000
    4        4.330832   1.000000
    5        7.636375   0.000000
    6        9.303221   0.000000
    7       12.878888   0.000000
    8       12.975625   0.000000
 
  0.4375000E+00  0.3125000E+00  0.6250000E-01  0.2343750E-01
    1       -3.601634   1.000000
    2        1.038727   1.000000
    3        3.336335   1.000000
    4        3.948917   1.000000
    5        7.957952   0.000000
    6        9.149092   0.000000
    7       12.818625   0.000000
    8       14.041312   0.000000
 
 -0.4375000E+00  0.3125000E+00  0.6250000E-01  0.2343750E-01
    1       -2.612308   1.000000
    2       -0.276404   1.000000
    3        2.423043   1.000000
    4        3.916908   1.000000
    5        8.184786   0.000000
    6       10.925158   0.000000
    7       12.361684   0.000000
    8       13.965822   0.000000
 
 -0.3125000E+00  0.3125000E+00  0.6250000E-01  0.2343750E-01
    1       -2.683281   1.000000
    2       -0.179271   1.000000
    3        2.025806   1.000000
    4        4.295112   1.000000
    5        8.634058   0.000000
    6       11.770749   0.000000
    7       13.167985   0.000000
    8       13.388804   0.000000
 
 -0.1875000E+00  0.3125000E+00  0.6250000E-01  0.2343750E-01
    1       -3.667723   1.000000
    2        0.815329   1.000000
    3        2.703304   1.000000
    4        4.938698   1.000000
    5        9.374730   0.000000
    6       10.619238   0.000000
    7       12.189435   0.000000
    8       12.371002   0.000000
 
 -0.6250000E-01  0.3125000E+00  0.6250000E-01  0.2343750E-01
    1       -4.450787   1.000000
    2        1.417450   1.000000
    3        4.512466   1.000000
    4        5.445781   1.000000
    5        9.245659   0.000000
    6        9.954370   0.000000
    7       10.829139   0.000000
    8       12.543642   0.000000
 
  0.4375000E+00  0.4375000E+00  0.6250000E-01  0.1171875E-01
    1       -2.900542   1.000000
    2        0.125938   1.000000
    3        3.448876   1.000000
    4        3.697511   1.000000
    5        7.179784   0.003069
    6        7.883625   0.000000
    7       15.257683   0.000000
    8       15.321926   0.000000
 
 -0.4375000E+00  0.4375000E+00  0.6250000E-01  0.2343750E-01
    1       -1.912360   1.000000
    2       -0.932433   1.000000
    3        2.821103   1.000000
    4        3.420686   1.000000
    5        7.624838   0.000000
    6        8.409550   0.000000
    7       14.994965   0.000000
    8       16.188188   0.000000
 
 -0.3125000E+00  0.4375000E+00  0.6250000E-01  0.2343750E-01
    1       -1.988402   1.000000
    2       -0.773606   1.000000
    3        2.006415   1.000000
    4        3.762804   1.000000
    5        8.022036   0.000000
    6       10.779045   0.000000
    7       13.373302   0.000000
    8       14.612921   0.000000
 
 -0.1875000E+00  0.4375000E+00  0.6250000E-01  0.2343750E-01
    1       -2.799209   1.000000
    2       -0.442915   1.000000
    3        2.688623   1.000000
    4        4.418829   1.000000
    5        8.777342   0.000000
    6       10.894180   0.000000
    7       12.535085   0.000000
    8       13.833850   0.000000
 
 -0.6250000E-01  0.4375000E+00  0.6250000E-01  0.2343750E-01
    1       -3.464055   1.000000
    2       -0.342056   1.000000
    3        4.348492   1.000000
    4        5.074878   1.000000
    5        9.094968   0.000000
    6        9.720312   0.000000
    7       10.603556   0.000000
    8       14.367677   0.000000
 
 -0.4375000E+00 -0.4375000E+00  0.6250000E-01  0.1171875E-01
    1       -1.974987   1.000000
    2       -0.956907   1.000000
    3        3.300376   1.000000
    4        3.568355   1.000000
    5        7.150944   0.005599
    6        7.531481   0.000000
    7       16.446715   0.000000
    8       16.583897   0.000000
 
 -0.3125000E+00 -0.4375000E+00  0.6250000E-01  0.2343750E-01
    1       -2.803570   1.000000
    2        0.060513   1.000000
    3        2.997429   1.000000
    4        3.590955   1.000000
    5        7.734825   0.000000
    6        8.657700   0.000000
    7       13.869635   0.000000
    8       15.290522   0.000000
 
 -0.1875000E+00 -0.4375000E+00  0.6250000E-01  0.2343750E-01
    1       -3.299645   1.000000
    2        0.248111   1.000000
    3        3.118596   1.000000
    4        4.243461   1.000000
    5        8.498084   0.000000
    6       11.090738   0.000000
    7       11.586674   0.000000
    8       12.792907   0.000000
 
 -0.3125000E+00 -0.3125000E+00  0.6250000E-01  0.1171875E-01
    1       -3.717927   1.000000
    2        1.243417   1.000000
    3        3.747373   1.000000
    4        3.953484   1.000000
    5        7.339762   0.000054
    6        8.481645   0.000000
    7       14.082876   0.000000
    8       14.097969   0.000000
 
 -0.1875000E+00 -0.3125000E+00  0.6250000E-01  0.2343750E-01
    1       -4.285806   1.000000
    2        1.957574   1.000000
    3        3.801157   1.000000
    4        4.513439   1.000000
    5        8.289126   0.000000
    6        9.875515   0.000000
    7       11.834067   0.000000
    8       12.831052   0.000000
 
 -0.1875000E+00 -0.1875000E+00  0.6250000E-01  0.1171875E-01
    1       -4.979858   1.000000
    2        3.415741   1.000000
    3        4.803066   1.000000
    4        4.818540   1.000000
    5        8.046576   0.000000
    6       10.309344   0.000000
    7       11.729683   0.000000
    8       11.886211   0.000000
 
  0.1875000E+00  0.1875000E+00  0.1875000E+00  0.3906250E-02
    1       -5.411965   1.000000
    2        3.707365   1.000000
    3        5.996555   1.000000
    4        5.996555   1.000000
    5        9.055365   0.000000
    6        9.943971   0.000000
    7        9.943971   0.000000
    8       13.039517   0.000000
 
  0.3125000E+00  0.1875000E+00  0.1875000E+00  0.1171875E-01
    1       -4.989049   1.000000
    2        2.866709   1.000000
    3        4.348054   1.000000
    4        6.034346   1.000000
    5        9.712523   0.000000
    6       10.062803   0.000000
    7       10.397315   0.000000
    8       12.659710   0.000000
 
  0.4375000E+00  0.1875000E+00  0.1875000E+00  0.1171875E-01
    1       -4.179308   1.000000
    2        1.437733   1.000000
    3        3.176833   1.000000
    4        5.484510   1.000000
    5        9.397955   0.000000
    6       10.854411   0.000000
    7       11.120464   0.000000
    8       12.869817   0.000000
 
 -0.4375000E+00  0.1875000E+00  0.1875000E+00  0.1171875E-01
    1       -3.191102   1.000000
    2       -0.204105   1.000000
    3        3.054513   1.000000
    4        4.904221   1.000000
    5        8.784364   0.000000
    6       11.150019   0.000000
    7       11.191132   0.000000
    8       14.678695   0.000000
 
 -0.3125000E+00  0.1875000E+00  0.1875000E+00  0.1171875E-01
    1       -3.175748   1.000000
    2       -0.232873   1.000000
    3        3.391847   1.000000
    4        4.554119   1.000000
    5        8.446327   0.000000
    6       11.243251   0.000000
    7       11.554575   0.000000
    8       12.698605   0.000000
 
 -0.1875000E+00  0.1875000E+00  0.1875000E+00  0.1171875E-01
    1       -4.163488   1.000000
    2        1.431443   1.000000
    3        4.046596   1.000000
    4        4.520141   1.000000
    5        8.373685   0.000000
    6       10.664101   0.000000
    7       11.582548   0.000000
    8       12.008875   0.000000
 
  0.3125000E+00  0.3125000E+00  0.1875000E+00  0.1171875E-01
    1       -4.711615   1.000000
    2        2.144725   1.000000
    3        4.958020   1.000000
    4        4.971203   1.000000
    5        8.857154   0.000000
    6       10.501555   0.000000
    7       11.239686   0.000000
    8       11.484918   0.000000
 
  0.4375000E+00  0.3125000E+00  0.1875000E+00  0.2343750E-01
    1       -4.033682   1.000000
    2        1.394406   1.000000
    3        3.237457   1.000000
    4        4.765648   1.000000
    5        9.339531   0.000000
    6       10.495866   0.000000
    7       10.932319   0.000000
    8       12.623593   0.000000
 
 -0.4375000E+00  0.3125000E+00  0.1875000E+00  0.2343750E-01
    1       -3.059578   1.000000
    2        0.238641   1.000000
    3        2.366615   1.000000
    4        4.129306   1.000000
    5        9.786955   0.000000
    6       10.340496   0.000000
    7       11.697003   0.000000
    8       13.758476   0.000000
 
 -0.3125000E+00  0.3125000E+00  0.1875000E+00  0.2343750E-01
    1       -2.514689   1.000000
    2       -0.449044   1.000000
    3        2.393412   1.000000
    4        3.779413   1.000000
    5        9.276167   0.000000
    6       10.680688   0.000000
    7       12.504989   0.000000
    8       13.992248   0.000000
 
 -0.1875000E+00  0.3125000E+00  0.1875000E+00  0.2343750E-01
    1       -3.376448   1.000000
    2        0.673421   1.000000
    3        2.834191   1.000000
    4        3.980308   1.000000
    5        9.007530   0.000000
    6       10.209927   0.000000
    7       11.363808   0.000000
    8       13.934940   0.000000
 
  0.4375000E+00  0.4375000E+00  0.1875000E+00  0.1171875E-01
    1       -3.496486   1.000000
    2        0.713927   1.000000
    3        3.214758   1.000000
    4        4.164871   1.000000
    5        7.934156   0.000000
    6       10.066965   0.000000
    7       12.766235   0.000000
    8       12.867918   0.000000
 
 -0.4375000E+00  0.4375000E+00  0.1875000E+00  0.2343750E-01
    1       -2.622777   1.000000
    2       -0.092193   1.000000
    3        2.552720   1.000000
    4        3.384529   1.000000
    5        8.770119   0.000000
    6        9.815193   0.000000
    7       12.268198   0.000000
    8       15.270680   0.000000
 
 -0.3125000E+00  0.4375000E+00  0.1875000E+00  0.2343750E-01
    1       -1.732873   1.000000
    2       -0.890951   1.000000
    3        2.182440   1.000000
    4        2.824922   1.000000
    5        9.941291   0.000000
    6       10.871986   0.000000
    7       11.829986   0.000000
    8       12.836387   0.000000
 
 -0.1875000E+00  0.4375000E+00  0.1875000E+00  0.2343750E-01
    1       -2.388687   1.000000
    2       -0.325106   1.000000
    3        2.193267   1.000000
    4        3.350463   1.000000
    5       10.028566   0.000000
    6       10.529709   0.000000
    7       11.442730   0.000000
    8       14.025760   0.000000
 
 -0.4375000E+00 -0.4375000E+00  0.1875000E+00  0.1171875E-01
    1       -1.920987   1.000000
    2       -0.886357   1.000000
    3        2.301655   1.000000
    4        3.797898   1.000000
    5        7.446539   0.000002
    6        9.497142   0.000000
    7       14.857488   0.000000
    8       15.229940   0.000000
 
 -0.3125000E+00 -0.4375000E+00  0.1875000E+00  0.2343750E-01
    1       -1.813198   1.000000
    2       -0.903830   1.000000
    3        2.404934   1.000000
    4        3.075886   1.000000
    5        8.647168   0.000000
    6        9.617457   0.000000
    7       13.309692   0.000000
    8       14.479761   0.000000
 
 -0.3125000E+00 -0.3125000E+00  0.1875000E+00  0.1171875E-01
    1       -2.730273   1.000000
    2       -0.065268   1.000000
    3        2.608431   1.000000
    4        3.921379   1.000000
    5        7.613500   0.000000
    6        9.683870   0.000000
    7       13.828007   0.000000
    8       13.989769   0.000000
 
  0.3125000E+00  0.3125000E+00  0.3125000E+00  0.3906250E-02
    1       -4.592559   1.000000
    2        1.361303   1.000000
    3        5.561382   1.000000
    4        5.561382   1.000000
    5        8.630353   0.000000
    6       10.109291   0.000000
    7       10.109291   0.000000
    8       14.379255   0.000000
 
  0.4375000E+00  0.3125000E+00  0.3125000E+00  0.1171875E-01
    1       -4.070700   1.000000
    2        0.766860   1.000000
    3        3.993250   1.000000
    4        5.472021   1.000000
    5        9.267734   0.000000
    6       10.381668   0.000000
    7       10.387894   0.000000
    8       13.757157   0.000000
 
 -0.4375000E+00  0.3125000E+00  0.3125000E+00  0.1171875E-01
    1       -3.206598   1.000000
    2        0.283855   1.000000
    3        2.281812   1.000000
    4        4.832540   1.000000
    5        8.669986   0.000000
    6       11.931446   0.000000
    7       12.168516   0.000000
    8       13.598450   0.000000
 
 -0.3125000E+00  0.3125000E+00  0.3125000E+00  0.1171875E-01
    1       -2.301551   1.000000
    2       -0.526342   1.000000
    3        1.885117   1.000000
    4        4.236382   1.000000
    5        7.964583   0.000000
    6       12.041807   0.000000
    7       13.282059   0.000000
    8       13.803937   0.000000
 
  0.4375000E+00  0.4375000E+00  0.3125000E+00  0.1171875E-01
    1       -3.723958   1.000000
    2        0.158875   1.000000
    3        4.385801   1.000000
    4        4.849230   1.000000
    5        8.823060   0.000000
    6       10.261924   0.000000
    7       10.886054   0.000000
    8       13.080666   0.000000
 
 -0.4375000E+00  0.4375000E+00  0.3125000E+00  0.2343750E-01
    1       -3.044996   1.000000
    2       -0.179708   1.000000
    3        2.939612   1.000000
    4        4.311693   1.000000
    5        9.550434   0.000000
    6        9.929554   0.000000
    7       12.671866   0.000000
    8       12.828312   0.000000
 
 -0.3125000E+00  0.4375000E+00  0.3125000E+00  0.2343750E-01
    1       -2.154737   1.000000
    2       -0.576341   1.000000
    3        1.984040   1.000000
    4        3.523030   1.000000
    5        9.134879   0.000000
    6       11.491119   0.000000
    7       12.427733   0.000000
    8       13.037579   0.000000
 
 -0.4375000E+00 -0.4375000E+00  0.3125000E+00  0.1171875E-01
    1       -2.648343   1.000000
    2       -0.459789   1.000000
    3        2.482468   1.000000
    4        4.344565   1.000000
    5        8.131561   0.000000
    6       11.998739   0.000000
    7       12.379244   0.000000
    8       12.817033   0.000000
 
  0.4375000E+00  0.4375000E+00  0.4375000E+00  0.3906250E-02
    1       -3.606582   1.000000
    2       -0.424676   1.000000
    3        5.332028   1.000000
    4        5.332028   1.000000
    5        8.383964   0.000000
    6        9.902069   0.000000
    7        9.902069   0.000000
    8       14.429731   0.000000
 
 -0.4375000E+00  0.4375000E+00  0.4375000E+00  0.1171875E-01
    1       -3.217362   1.000000
    2       -0.602629   1.000000
    3        4.035788   1.000000
    4        5.033091   1.000000
    5        8.919042   0.000000
    6       10.186830   0.000000
    7       10.530328   0.000000
    8       15.024555   0.000000
