 vasp.5.4.4.18Apr17-6-g9f103f2a35 (build Dec 09 2018 21:25:21) complex          
  
 executed on IFC18.0.1.163_CrayMP date 2019.04.01  15:58:33
 running on    8 total cores
 distrk:  each k-point on    8 cores,    1 groups
 distr:  one band on NCORES_PER_BAND=   1 cores,    8 groups


--------------------------------------------------------------------------------------------------------


 INCAR:
 POTCAR:   PAW_PBE Si 05Jan2001                   

 ----------------------------------------------------------------------------- 
|                                                                             |
|           W    W    AA    RRRRR   N    N  II  N    N   GGGG   !!!           |
|           W    W   A  A   R    R  NN   N  II  NN   N  G    G  !!!           |
|           W    W  A    A  R    R  N N  N  II  N N  N  G       !!!           |
|           W WW W  AAAAAA  RRRRR   N  N N  II  N  N N  G  GGG   !            |
|           WW  WW  A    A  R   R   N   NN  II  N   NN  G    G                |
|           W    W  A    A  R    R  N    N  II  N    N   GGGG   !!!           |
|                                                                             |
|      For optimal performance we recommend to set                            |
|        NCORE= 4 - approx SQRT( number of cores)                             |
|      NCORE specifies how many cores store one orbital (NPAR=cpu/NCORE).     |
|      This setting can  greatly improve the performance of VASP for DFT.     |
|      The default,   NCORE=1            might be grossly inefficient         |
|      on modern multi-core architectures or massively parallel machines.     |
|      Do your own testing !!!!                                               |
|      Unfortunately you need to use the default for GW and RPA calculations. |
|      (for HF NCORE is supported but not extensively tested yet)             |
|                                                                             |
 ----------------------------------------------------------------------------- 

 POTCAR:   PAW_PBE Si 05Jan2001                   
   VRHFIN =Si: s2p2                                                             
   LEXCH  = PE                                                                  
   EATOM  =   103.0669 eV,    7.5752 Ry                                         
                                                                                
   TITEL  = PAW_PBE Si 05Jan2001                                                
   LULTRA =        F    use ultrasoft PP ?                                      
   IUNSCR =        1    unscreen: 0-lin 1-nonlin 2-no                           
   RPACOR =    1.500    partial core radius                                     
   POMASS =   28.085; ZVAL   =    4.000    mass and valenz                      
   RCORE  =    1.900    outmost cutoff radius                                   
   RWIGS  =    2.480; RWIGS  =    1.312    wigner-seitz radius (au A)           
   ENMAX  =  245.345; ENMIN  =  184.009 eV                                      
   ICORE  =        2    local potential                                         
   LCOR   =        T    correct aug charges                                     
   LPAW   =        T    paw PP                                                  
   EAUG   =  322.069                                                            
   DEXC   =    -.007                                                            
   RMAX   =    2.944    core radius for proj-oper                               
   RAUG   =    1.300    factor for augmentation sphere                          
   RDEP   =    1.993    radius for radial grids                                 
   QCUT   =   -4.246; QGAM   =    8.493    optimization parameters              
                                                                                
   Description                                                                  
     l     E      TYP  RCUT    TYP  RCUT                                        
     0   .000     23  1.900                                                     
     0   .000     23  1.900                                                     
     1   .000     23  1.900                                                     
     1   .000     23  1.900                                                     
     2   .000      7  1.900                                                     
  local pseudopotential read in
  partial core-charges read in
  atomic valenz-charges read in
  non local Contribution for L=           0  read in
    real space projection operators read in
  non local Contribution for L=           0  read in
    real space projection operators read in
  non local Contribution for L=           1  read in
    real space projection operators read in
  non local Contribution for L=           1  read in
    real space projection operators read in
    PAW grid and wavefunctions read in
 
   number of l-projection  operators is LMAX  =           4
   number of lm-projection operators is LMMAX =           8
 
 PAW_PBE Si 05Jan2001                   :
 energy of atom  1       EATOM= -103.0669
 kinetic energy error for atom=    0.0013 (will be added to EATOM!!)
 
 
 POSCAR: Si2                                     
  positions in direct lattice
  No initial velocities read in
 exchange correlation table for  LEXCH =        8
   RHO(1)=    0.500       N(1)  =     2000
   RHO(2)=  100.500       N(2)  =     4000
 


--------------------------------------------------------------------------------------------------------


 ion  position               nearest neighbor table
   1  0.000  0.000  0.000-   2 2.30   2 2.30   2 2.30   2 2.30
   2  0.250  0.250  0.250-   1 2.30   1 2.30   1 2.30   1 2.30
 
  LATTYP: Found a face centered cubic cell.
 ALAT       =     5.3045400000
  
  Lattice vectors:
  
 A1 = (   0.0000000000,   2.6522700000,   2.6522700000)
 A2 = (   2.6522700000,   0.0000000000,   2.6522700000)
 A3 = (   2.6522700000,   2.6522700000,   0.0000000000)


Analysis of symmetry for initial positions (statically):
=====================================================================
 Subroutine PRICEL returns:
 Original cell was already a primitive cell.
 

 Routine SETGRP: Setting up the symmetry group for a 
 face centered cubic supercell.


 Subroutine GETGRP returns: Found 48 space group operations
 (whereof 24 operations were pure point group operations)
 out of a pool of 48 trial point group operations.


The static configuration has the point symmetry T_d .
 The point group associated with its full space group is O_h .


Analysis of symmetry for dynamics (positions and initial velocities):
=====================================================================
 Subroutine PRICEL returns:
 Original cell was already a primitive cell.
 

 Routine SETGRP: Setting up the symmetry group for a 
 face centered cubic supercell.


 Subroutine GETGRP returns: Found 48 space group operations
 (whereof 24 operations were pure point group operations)
 out of a pool of 48 trial point group operations.


The dynamic configuration has the point symmetry T_d .
 The point group associated with its full space group is O_h .


 Subroutine INISYM returns: Found 48 space group operations
 (whereof 24 operations are pure point group operations),
 and found     1 'primitive' translations

 
 
 KPOINTS: Automatic kpoint scheme                 

Automatic generation of k-mesh.
Space group operators:
 irot       det(A)        alpha          n_x          n_y          n_z        tau_x        tau_y        tau_z
    1     1.000000     0.000000     1.000000     0.000000     0.000000     0.000000     0.000000     0.000000
    2     1.000000   120.000000    -0.577350    -0.577350    -0.577350     0.000000     0.000000     0.000000
    3     1.000000   120.000000     0.577350     0.577350     0.577350     0.000000     0.000000     0.000000
    4    -1.000000    90.000000    -0.000000    -0.000000    -1.000000     0.000000     0.000000     0.000000
    5    -1.000000   180.000000    -0.000000     0.707107     0.707107     0.000000     0.000000     0.000000
    6    -1.000000    90.000000    -0.000000     1.000000    -0.000000     0.000000     0.000000     0.000000
    7     1.000000   180.000000    -0.000000     0.000000    -1.000000     0.000000     0.000000     0.000000
    8     1.000000   120.000000    -0.577350     0.577350     0.577350     0.000000     0.000000     0.000000
    9     1.000000   120.000000    -0.577350     0.577350    -0.577350     0.000000     0.000000     0.000000
   10    -1.000000    90.000000     0.000000     0.000000     1.000000     0.000000     0.000000     0.000000
   11    -1.000000    90.000000    -1.000000     0.000000     0.000000     0.000000     0.000000     0.000000
   12    -1.000000   180.000000     0.707107     0.000000     0.707107     0.000000     0.000000     0.000000
   13     1.000000   120.000000     0.577350    -0.577350     0.577350     0.000000     0.000000     0.000000
   14     1.000000   120.000000    -0.577350    -0.577350     0.577350     0.000000     0.000000     0.000000
   15     1.000000   180.000000     1.000000     0.000000     0.000000     0.000000     0.000000     0.000000
   16    -1.000000    90.000000     0.000000    -1.000000     0.000000     0.000000     0.000000     0.000000
   17    -1.000000   180.000000     0.707107     0.707107    -0.000000     0.000000     0.000000     0.000000
   18    -1.000000    90.000000     1.000000     0.000000     0.000000     0.000000     0.000000     0.000000
   19     1.000000   120.000000     0.577350    -0.577350    -0.577350     0.000000     0.000000     0.000000
   20     1.000000   180.000000    -0.000000    -1.000000    -0.000000     0.000000     0.000000     0.000000
   21     1.000000   120.000000     0.577350     0.577350    -0.577350     0.000000     0.000000     0.000000
   22    -1.000000   180.000000    -0.000000    -0.707107     0.707107     0.000000     0.000000     0.000000
   23    -1.000000   180.000000     0.707107    -0.707107     0.000000     0.000000     0.000000     0.000000
   24    -1.000000   180.000000     0.707107     0.000000    -0.707107     0.000000     0.000000     0.000000
   25    -1.000000     0.000000     1.000000     0.000000     0.000000     0.250000     0.250000     0.250000
   26    -1.000000   120.000000    -0.577350    -0.577350    -0.577350     0.250000     0.250000     0.250000
   27    -1.000000   120.000000     0.577350     0.577350     0.577350     0.250000     0.250000     0.250000
   28     1.000000    90.000000    -0.000000    -0.000000    -1.000000     0.250000     0.250000     0.250000
   29     1.000000   180.000000    -0.000000     0.707107     0.707107     0.250000     0.250000     0.250000
   30     1.000000    90.000000    -0.000000     1.000000    -0.000000     0.250000     0.250000     0.250000
   31    -1.000000   180.000000    -0.000000     0.000000    -1.000000     0.250000     0.250000     0.250000
   32    -1.000000   120.000000    -0.577350     0.577350     0.577350     0.250000     0.250000     0.250000
   33    -1.000000   120.000000    -0.577350     0.577350    -0.577350     0.250000     0.250000     0.250000
   34     1.000000    90.000000     0.000000     0.000000     1.000000     0.250000     0.250000     0.250000
   35     1.000000    90.000000    -1.000000     0.000000     0.000000     0.250000     0.250000     0.250000
   36     1.000000   180.000000     0.707107     0.000000     0.707107     0.250000     0.250000     0.250000
   37    -1.000000   120.000000     0.577350    -0.577350     0.577350     0.250000     0.250000     0.250000
   38    -1.000000   120.000000    -0.577350    -0.577350     0.577350     0.250000     0.250000     0.250000
   39    -1.000000   180.000000     1.000000     0.000000     0.000000     0.250000     0.250000     0.250000
   40     1.000000    90.000000     0.000000    -1.000000     0.000000     0.250000     0.250000     0.250000
   41     1.000000   180.000000     0.707107     0.707107    -0.000000     0.250000     0.250000     0.250000
   42     1.000000    90.000000     1.000000     0.000000     0.000000     0.250000     0.250000     0.250000
   43    -1.000000   120.000000     0.577350    -0.577350    -0.577350     0.250000     0.250000     0.250000
   44    -1.000000   180.000000    -0.000000    -1.000000    -0.000000     0.250000     0.250000     0.250000
   45    -1.000000   120.000000     0.577350     0.577350    -0.577350     0.250000     0.250000     0.250000
   46     1.000000   180.000000    -0.000000    -0.707107     0.707107     0.250000     0.250000     0.250000
   47     1.000000   180.000000     0.707107    -0.707107     0.000000     0.250000     0.250000     0.250000
   48     1.000000   180.000000     0.707107     0.000000    -0.707107     0.250000     0.250000     0.250000
 
 Subroutine IBZKPT returns following result:
 ===========================================
 
 Found     60 irreducible k-points:
 
 Following reciprocal coordinates:
            Coordinates               Weight
  0.062500  0.062500  0.062500     96.000000
  0.187500  0.062500  0.062500    288.000000
  0.312500  0.062500  0.062500    288.000000
  0.437500  0.062500  0.062500    288.000000
 -0.437500  0.062500  0.062500    288.000000
 -0.312500  0.062500  0.062500    288.000000
 -0.187500  0.062500  0.062500    288.000000
 -0.062500  0.062500  0.062500    288.000000
  0.187500  0.187500  0.062500    288.000000
  0.312500  0.187500  0.062500    576.000000
  0.437500  0.187500  0.062500    576.000000
 -0.437500  0.187500  0.062500    576.000000
 -0.312500  0.187500  0.062500    576.000000
 -0.187500  0.187500  0.062500    576.000000
 -0.062500  0.187500  0.062500    576.000000
  0.312500  0.312500  0.062500    288.000000
  0.437500  0.312500  0.062500    576.000000
 -0.437500  0.312500  0.062500    576.000000
 -0.312500  0.312500  0.062500    576.000000
 -0.187500  0.312500  0.062500    576.000000
 -0.062500  0.312500  0.062500    576.000000
  0.437500  0.437500  0.062500    288.000000
 -0.437500  0.437500  0.062500    576.000000
 -0.312500  0.437500  0.062500    576.000000
 -0.187500  0.437500  0.062500    576.000000
 -0.062500  0.437500  0.062500    576.000000
 -0.437500 -0.437500  0.062500    288.000000
 -0.312500 -0.437500  0.062500    576.000000
 -0.187500 -0.437500  0.062500    576.000000
 -0.312500 -0.312500  0.062500    288.000000
 -0.187500 -0.312500  0.062500    576.000000
 -0.187500 -0.187500  0.062500    288.000000
  0.187500  0.187500  0.187500     96.000000
  0.312500  0.187500  0.187500    288.000000
  0.437500  0.187500  0.187500    288.000000
 -0.437500  0.187500  0.187500    288.000000
 -0.312500  0.187500  0.187500    288.000000
 -0.187500  0.187500  0.187500    288.000000
  0.312500  0.312500  0.187500    288.000000
  0.437500  0.312500  0.187500    576.000000
 -0.437500  0.312500  0.187500    576.000000
 -0.312500  0.312500  0.187500    576.000000
 -0.187500  0.312500  0.187500    576.000000
  0.437500  0.437500  0.187500    288.000000
 -0.437500  0.437500  0.187500    576.000000
 -0.312500  0.437500  0.187500    576.000000
 -0.187500  0.437500  0.187500    576.000000
 -0.437500 -0.437500  0.187500    288.000000
 -0.312500 -0.437500  0.187500    576.000000
 -0.312500 -0.312500  0.187500    288.000000
  0.312500  0.312500  0.312500     96.000000
  0.437500  0.312500  0.312500    288.000000
 -0.437500  0.312500  0.312500    288.000000
 -0.312500  0.312500  0.312500    288.000000
  0.437500  0.437500  0.312500    288.000000
 -0.437500  0.437500  0.312500    576.000000
 -0.312500  0.437500  0.312500    576.000000
 -0.437500 -0.437500  0.312500    288.000000
  0.437500  0.437500  0.437500     96.000000
 -0.437500  0.437500  0.437500    288.000000
 
 Following cartesian coordinates:
            Coordinates               Weight
  0.011782  0.011782  0.011782     96.000000
 -0.011782  0.035347  0.035347    288.000000
 -0.035347  0.058912  0.058912    288.000000
 -0.058912  0.082477  0.082477    288.000000
  0.106041 -0.082477 -0.082477    288.000000
  0.082477 -0.058912 -0.058912    288.000000
  0.058912 -0.035347 -0.035347    288.000000
  0.035347 -0.011782 -0.011782    288.000000
  0.011782  0.011782  0.058912    288.000000
 -0.011782  0.035347  0.082477    576.000000
 -0.035347  0.058912  0.106041    576.000000
  0.129606 -0.106041 -0.058912    576.000000
  0.106041 -0.082477 -0.035347    576.000000
  0.082477 -0.058912 -0.011782    576.000000
  0.058912 -0.035347  0.011782    576.000000
  0.011782  0.011782  0.106041    288.000000
 -0.011782  0.035347  0.129606    576.000000
  0.153171 -0.129606 -0.035347    576.000000
  0.129606 -0.106041 -0.011782    576.000000
  0.106041 -0.082477  0.011782    576.000000
  0.082477 -0.058912  0.035347    576.000000
  0.011782  0.011782  0.153171    288.000000
  0.176735 -0.153171 -0.011782    576.000000
  0.153171 -0.129606  0.011782    576.000000
  0.129606 -0.106041  0.035347    576.000000
  0.106041 -0.082477  0.058912    576.000000
  0.011782  0.011782 -0.176735    288.000000
 -0.011782  0.035347 -0.153171    576.000000
 -0.035347  0.058912 -0.129606    576.000000
  0.011782  0.011782 -0.129606    288.000000
 -0.011782  0.035347 -0.106041    576.000000
  0.011782  0.011782 -0.082477    288.000000
  0.035347  0.035347  0.035347     96.000000
  0.011782  0.058912  0.058912    288.000000
 -0.011782  0.082477  0.082477    288.000000
  0.153171 -0.082477 -0.082477    288.000000
  0.129606 -0.058912 -0.058912    288.000000
  0.106041 -0.035347 -0.035347    288.000000
  0.035347  0.035347  0.082477    288.000000
  0.011782  0.058912  0.106041    576.000000
  0.176735 -0.106041 -0.058912    576.000000
  0.153171 -0.082477 -0.035347    576.000000
  0.129606 -0.058912 -0.011782    576.000000
  0.035347  0.035347  0.129606    288.000000
  0.200300 -0.129606 -0.035347    576.000000
  0.176735 -0.106041 -0.011782    576.000000
  0.153171 -0.082477  0.011782    576.000000
  0.035347  0.035347 -0.200300    288.000000
  0.011782  0.058912 -0.176735    576.000000
  0.035347  0.035347 -0.153171    288.000000
  0.058912  0.058912  0.058912     96.000000
  0.035347  0.082477  0.082477    288.000000
  0.200300 -0.082477 -0.082477    288.000000
  0.176735 -0.058912 -0.058912    288.000000
  0.058912  0.058912  0.106041    288.000000
  0.223865 -0.106041 -0.058912    576.000000
  0.200300 -0.082477 -0.035347    576.000000
  0.058912  0.058912 -0.223865    288.000000
  0.082477  0.082477  0.082477     96.000000
  0.247430 -0.082477 -0.082477    288.000000
 


--------------------------------------------------------------------------------------------------------




 Dimension of arrays:
   k-points           NKPTS =     60   k-points in BZ     NKDIM =     60   number of bands    NBANDS=      8
   number of dos      NEDOS =    301   number of ions     NIONS =      2
   non local maximal  LDIM  =      4   non local SUM 2l+1 LMDIM =      8
   total plane-waves  NPLWV =   5832
   max r-space proj   IRMAX =      1   max aug-charges    IRDMAX=   5424
   dimension x,y,z NGX =    18 NGY =   18 NGZ =   18
   dimension x,y,z NGXF=    36 NGYF=   36 NGZF=   36
   support grid    NGXF=    36 NGYF=   36 NGZF=   36
   ions per type =               2
   NGX,Y,Z   is equivalent  to a cutoff of   7.98,  7.98,  7.98 a.u.
   NGXF,Y,Z  is equivalent  to a cutoff of  15.96, 15.96, 15.96 a.u.

 SYSTEM =  unknown system                          
 POSCAR =  Si2                                     

 Startparameter for this run:
   NWRITE =      2    write-flag & timer
   PREC   = normal    normal or accurate (medium, high low for compatibility)
   ISTART =      0    job   : 0-new  1-cont  2-samecut
   ICHARG =      2    charge: 1-file 2-atom 10-const
   ISPIN  =      1    spin polarized calculation?
   LNONCOLLINEAR =      F non collinear calculations
   LSORBIT =      F    spin-orbit coupling
   INIWAV =      1    electr: 0-lowe 1-rand  2-diag
   LASPH  =      F    aspherical Exc in radial PAW
   METAGGA=      F    non-selfconsistent MetaGGA calc.

 Electronic Relaxation 1
   ENCUT  =  350.0 eV  25.72 Ry    5.07 a.u.   5.72  5.72  5.72*2*pi/ulx,y,z
   ENINI  =  350.0     initial cutoff
   ENAUG  =  322.1 eV  augmentation charge cutoff
   NELM   =     60;   NELMIN=  2; NELMDL= -5     # of ELM steps 
   EDIFF  = 0.4E-03   stopping-criterion for ELM
   LREAL  =      F    real-space projection
   NLSPLINE    = F    spline interpolate recip. space projectors
   LCOMPAT=      F    compatible to vasp.4.4
   GGA_COMPAT  = T    GGA compatible to vasp.4.4-vasp.4.6
   LMAXPAW     = -100 max onsite density
   LMAXMIX     =    2 max onsite mixed and CHGCAR
   VOSKOWN=      0    Vosko Wilk Nusair interpolation
   ROPT   =    0.00000
 Ionic relaxation
   EDIFFG = -.1E-01   stopping-criterion for IOM
   NSW    =     15    number of steps for IOM
   NBLOCK =      1;   KBLOCK =     15    inner block; outer block 
   IBRION =      2    ionic relax: 0-MD 1-quasi-New 2-CG
   NFREE  =      1    steps in history (QN), initial steepest desc. (CG)
   ISIF   =      2    stress and relaxation
   IWAVPR =     11    prediction:  0-non 1-charg 2-wave 3-comb
   ISYM   =      2    0-nonsym 1-usesym 2-fastsym
   LCORR  =      T    Harris-Foulkes like correction to forces

   POTIM  = 0.5000    time-step for ionic-motion
   TEIN   =    0.0    initial temperature
   TEBEG  =    0.0;   TEEND  =   0.0 temperature during run
   SMASS  =  -3.00    Nose mass-parameter (am)
   estimated Nose-frequenzy (Omega)   =  0.10E-29 period in steps =****** mass=  -0.322E-27a.u.
   SCALEE = 1.0000    scale energy and forces
   NPACO  =    256;   APACO  = 16.0  distance and # of slots for P.C.
   PSTRESS=    0.0 pullay stress

  Mass of Ions in am
   POMASS =  28.09
  Ionic Valenz
   ZVAL   =   4.00
  Atomic Wigner-Seitz radii
   RWIGS  =  -1.00
  virtual crystal weights 
   VCA    =   1.00
   NELECT =       8.0000    total number of electrons
   NUPDOWN=      -1.0000    fix difference up-down

 DOS related values:
   EMIN   =  10.00;   EMAX   =-10.00  energy-range for DOS
   EFERMI =   0.00
   ISMEAR =     0;   SIGMA  =   0.20  broadening in eV -4-tet -1-fermi 0-gaus

 Electronic relaxation 2 (details)
   IALGO  =     38    algorithm
   LDIAG  =      T    sub-space diagonalisation (order eigenvalues)
   LSUBROT=      F    optimize rotation matrix (better conditioning)
   TURBO    =      0    0=normal 1=particle mesh
   IRESTART =      0    0=no restart 2=restart with 2 vectors
   NREBOOT  =      0    no. of reboots
   NMIN     =      0    reboot dimension
   EREF     =   0.00    reference energy to select bands
   IMIX   =      4    mixing-type and parameters
     AMIX     =   0.40;   BMIX     =  1.00
     AMIX_MAG =   1.60;   BMIX_MAG =  1.00
     AMIN     =   0.10
     WC   =   100.;   INIMIX=   1;  MIXPRE=   1;  MAXMIX= -45

 Intra band minimization:
   WEIMIN = 0.0010     energy-eigenvalue tresh-hold
   EBREAK =  0.13E-04  absolut break condition
   DEPER  =   0.30     relativ break condition  

   TIME   =   0.40     timestep for ELM

  volume/ion in A,a.u.               =      18.66       125.91
  Fermi-wavevector in a.u.,A,eV,Ry     =   0.979814  1.851580 13.062083  0.960036
  Thomas-Fermi vector in A             =   2.110696
 
 Write flags
   LWAVE        =      T    write WAVECAR
   LDOWNSAMPLE  =      F    k-point downsampling of WAVECAR
   LCHARG       =      T    write CHGCAR
   LVTOT        =      F    write LOCPOT, total local potential
   LVHAR        =      F    write LOCPOT, Hartree potential only
   LELF         =      F    write electronic localiz. function (ELF)
   LORBIT       =      0    0 simple, 1 ext, 2 COOP (PROOUT), +10 PAW based schemes


 Dipole corrections
   LMONO  =      F    monopole corrections only (constant potential shift)
   LDIPOL =      F    correct potential (dipole corrections)
   IDIPOL =      0    1-x, 2-y, 3-z, 4-all directions 
   EPSILON=  1.0000000 bulk dielectric constant

 Exchange correlation treatment:
   GGA     =    --    GGA type
   LEXCH   =     8    internal setting for exchange type
   VOSKOWN=      0    Vosko Wilk Nusair interpolation
   LHFCALC =     F    Hartree Fock is set to
   LHFONE  =     F    Hartree Fock one center treatment
   AEXX    =    0.0000 exact exchange contribution

 Linear response parameters
   LEPSILON=     F    determine dielectric tensor
   LRPA    =     F    only Hartree local field effects (RPA)
   LNABLA  =     F    use nabla operator in PAW spheres
   LVEL    =     F    velocity operator in full k-point grid
   LINTERFAST=   F  fast interpolation
   KINTER  =     0    interpolate to denser k-point grid
   CSHIFT  =0.1000    complex shift for real part using Kramers Kronig
   OMEGAMAX=  -1.0    maximum frequency
   DEG_THRESHOLD= 0.2000000E-02 threshold for treating states as degnerate
   RTIME   =   -0.100 relaxation time in fs
  (WPLASMAI=    0.000 imaginary part of plasma frequency in eV, 0.658/RTIME)
   DFIELD  = 0.0000000 0.0000000 0.0000000 field for delta impulse in time
 
 Orbital magnetization related:
   ORBITALMAG=     F  switch on orbital magnetization
   LCHIMAG   =     F  perturbation theory with respect to B field
   DQ        =  0.001000  dq finite difference perturbation B field
   LLRAUG    =     F  two centre corrections for induced B field



--------------------------------------------------------------------------------------------------------


 conjugate gradient relaxation of ions
 charge density and potential will be updated during run
 non-spin polarized calculation
 Variant of blocked Davidson
 Davidson routine will perform the subspace rotation
 perform sub-space diagonalisation
    after iterative eigenvector-optimisation
 modified Broyden-mixing scheme, WC =      100.0
 initial mixing is a Kerker type mixing with AMIX =  0.4000 and BMIX =      1.0000
 Hartree-type preconditioning will be used
 using additional bands            4
 reciprocal scheme for non local part
 use partial core corrections
 calculate Harris-corrections to forces 
   (improved forces if not selfconsistent)
 use gradient corrections 
 use of overlap-Matrix (Vanderbilt PP)
 Gauss-broadening in eV      SIGMA  =   0.20


--------------------------------------------------------------------------------------------------------


  energy-cutoff  :      350.00
  volume of cell :       37.31
      direct lattice vectors                 reciprocal lattice vectors
     0.000000000  2.652270000  2.652270000    -0.188517760  0.188517760  0.188517760
     2.652270000  0.000000000  2.652270000     0.188517760 -0.188517760  0.188517760
     2.652270000  2.652270000  0.000000000     0.188517760  0.188517760 -0.188517760

  length of vectors
     3.750876205  3.750876205  3.750876205     0.326522339  0.326522339  0.326522339


 
 k-points in units of 2pi/SCALE and weight: Automatic kpoint scheme                 
   0.01178236  0.01178236  0.01178236       0.004
  -0.01178236  0.03534708  0.03534708       0.012
  -0.03534708  0.05891180  0.05891180       0.012
  -0.05891180  0.08247652  0.08247652       0.012
   0.10604124 -0.08247652 -0.08247652       0.012
   0.08247652 -0.05891180 -0.05891180       0.012
   0.05891180 -0.03534708 -0.03534708       0.012
   0.03534708 -0.01178236 -0.01178236       0.012
   0.01178236  0.01178236  0.05891180       0.012
  -0.01178236  0.03534708  0.08247652       0.023
  -0.03534708  0.05891180  0.10604124       0.023
   0.12960596 -0.10604124 -0.05891180       0.023
   0.10604124 -0.08247652 -0.03534708       0.023
   0.08247652 -0.05891180 -0.01178236       0.023
   0.05891180 -0.03534708  0.01178236       0.023
   0.01178236  0.01178236  0.10604124       0.012
  -0.01178236  0.03534708  0.12960596       0.023
   0.15317068 -0.12960596 -0.03534708       0.023
   0.12960596 -0.10604124 -0.01178236       0.023
   0.10604124 -0.08247652  0.01178236       0.023
   0.08247652 -0.05891180  0.03534708       0.023
   0.01178236  0.01178236  0.15317068       0.012
   0.17673540 -0.15317068 -0.01178236       0.023
   0.15317068 -0.12960596  0.01178236       0.023
   0.12960596 -0.10604124  0.03534708       0.023
   0.10604124 -0.08247652  0.05891180       0.023
   0.01178236  0.01178236 -0.17673540       0.012
  -0.01178236  0.03534708 -0.15317068       0.023
  -0.03534708  0.05891180 -0.12960596       0.023
   0.01178236  0.01178236 -0.12960596       0.012
  -0.01178236  0.03534708 -0.10604124       0.023
   0.01178236  0.01178236 -0.08247652       0.012
   0.03534708  0.03534708  0.03534708       0.004
   0.01178236  0.05891180  0.05891180       0.012
  -0.01178236  0.08247652  0.08247652       0.012
   0.15317068 -0.08247652 -0.08247652       0.012
   0.12960596 -0.05891180 -0.05891180       0.012
   0.10604124 -0.03534708 -0.03534708       0.012
   0.03534708  0.03534708  0.08247652       0.012
   0.01178236  0.05891180  0.10604124       0.023
   0.17673540 -0.10604124 -0.05891180       0.023
   0.15317068 -0.08247652 -0.03534708       0.023
   0.12960596 -0.05891180 -0.01178236       0.023
   0.03534708  0.03534708  0.12960596       0.012
   0.20030012 -0.12960596 -0.03534708       0.023
   0.17673540 -0.10604124 -0.01178236       0.023
   0.15317068 -0.08247652  0.01178236       0.023
   0.03534708  0.03534708 -0.20030012       0.012
   0.01178236  0.05891180 -0.17673540       0.023
   0.03534708  0.03534708 -0.15317068       0.012
   0.05891180  0.05891180  0.05891180       0.004
   0.03534708  0.08247652  0.08247652       0.012
   0.20030012 -0.08247652 -0.08247652       0.012
   0.17673540 -0.05891180 -0.05891180       0.012
   0.05891180  0.05891180  0.10604124       0.012
   0.22386484 -0.10604124 -0.05891180       0.023
   0.20030012 -0.08247652 -0.03534708       0.023
   0.05891180  0.05891180 -0.22386484       0.012
   0.08247652  0.08247652  0.08247652       0.004
   0.24742956 -0.08247652 -0.08247652       0.012
 
 k-points in reciprocal lattice and weights: Automatic kpoint scheme                 
   0.06250000  0.06250000  0.06250000       0.004
   0.18750000  0.06250000  0.06250000       0.012
   0.31250000  0.06250000  0.06250000       0.012
   0.43750000  0.06250000  0.06250000       0.012
  -0.43750000  0.06250000  0.06250000       0.012
  -0.31250000  0.06250000  0.06250000       0.012
  -0.18750000  0.06250000  0.06250000       0.012
  -0.06250000  0.06250000  0.06250000       0.012
   0.18750000  0.18750000  0.06250000       0.012
   0.31250000  0.18750000  0.06250000       0.023
   0.43750000  0.18750000  0.06250000       0.023
  -0.43750000  0.18750000  0.06250000       0.023
  -0.31250000  0.18750000  0.06250000       0.023
  -0.18750000  0.18750000  0.06250000       0.023
  -0.06250000  0.18750000  0.06250000       0.023
   0.31250000  0.31250000  0.06250000       0.012
   0.43750000  0.31250000  0.06250000       0.023
  -0.43750000  0.31250000  0.06250000       0.023
  -0.31250000  0.31250000  0.06250000       0.023
  -0.18750000  0.31250000  0.06250000       0.023
  -0.06250000  0.31250000  0.06250000       0.023
   0.43750000  0.43750000  0.06250000       0.012
  -0.43750000  0.43750000  0.06250000       0.023
  -0.31250000  0.43750000  0.06250000       0.023
  -0.18750000  0.43750000  0.06250000       0.023
  -0.06250000  0.43750000  0.06250000       0.023
  -0.43750000 -0.43750000  0.06250000       0.012
  -0.31250000 -0.43750000  0.06250000       0.023
  -0.18750000 -0.43750000  0.06250000       0.023
  -0.31250000 -0.31250000  0.06250000       0.012
  -0.18750000 -0.31250000  0.06250000       0.023
  -0.18750000 -0.18750000  0.06250000       0.012
   0.18750000  0.18750000  0.18750000       0.004
   0.31250000  0.18750000  0.18750000       0.012
   0.43750000  0.18750000  0.18750000       0.012
  -0.43750000  0.18750000  0.18750000       0.012
  -0.31250000  0.18750000  0.18750000       0.012
  -0.18750000  0.18750000  0.18750000       0.012
   0.31250000  0.31250000  0.18750000       0.012
   0.43750000  0.31250000  0.18750000       0.023
  -0.43750000  0.31250000  0.18750000       0.023
  -0.31250000  0.31250000  0.18750000       0.023
  -0.18750000  0.31250000  0.18750000       0.023
   0.43750000  0.43750000  0.18750000       0.012
  -0.43750000  0.43750000  0.18750000       0.023
  -0.31250000  0.43750000  0.18750000       0.023
  -0.18750000  0.43750000  0.18750000       0.023
  -0.43750000 -0.43750000  0.18750000       0.012
  -0.31250000 -0.43750000  0.18750000       0.023
  -0.31250000 -0.31250000  0.18750000       0.012
   0.31250000  0.31250000  0.31250000       0.004
   0.43750000  0.31250000  0.31250000       0.012
  -0.43750000  0.31250000  0.31250000       0.012
  -0.31250000  0.31250000  0.31250000       0.012
   0.43750000  0.43750000  0.31250000       0.012
  -0.43750000  0.43750000  0.31250000       0.023
  -0.31250000  0.43750000  0.31250000       0.023
  -0.43750000 -0.43750000  0.31250000       0.012
   0.43750000  0.43750000  0.43750000       0.004
  -0.43750000  0.43750000  0.43750000       0.012
 
 position of ions in fractional coordinates (direct lattice) 
   0.00000000  0.00000000  0.00000000
   0.25000000  0.25000000  0.25000000
 
 position of ions in cartesian coordinates  (Angst):
   0.00000000  0.00000000  0.00000000
   1.32613500  1.32613500  1.32613500
 


--------------------------------------------------------------------------------------------------------


 k-point  1 :   0.0625 0.0625 0.0625  plane waves:     540
 k-point  2 :   0.1875 0.0625 0.0625  plane waves:     553
 k-point  3 :   0.3125 0.0625 0.0625  plane waves:     556
 k-point  4 :   0.4375 0.0625 0.0625  plane waves:     557
 k-point  5 :  -0.4375 0.0625 0.0625  plane waves:     564
 k-point  6 :  -0.3125 0.0625 0.0625  plane waves:     559
 k-point  7 :  -0.1875 0.0625 0.0625  plane waves:     559
 k-point  8 :  -0.0625 0.0625 0.0625  plane waves:     551
 k-point  9 :   0.1875 0.1875 0.0625  plane waves:     556
 k-point 10 :   0.3125 0.1875 0.0625  plane waves:     557
 k-point 11 :   0.4375 0.1875 0.0625  plane waves:     557
 k-point 12 :  -0.4375 0.1875 0.0625  plane waves:     557
 k-point 13 :  -0.3125 0.1875 0.0625  plane waves:     555
 k-point 14 :  -0.1875 0.1875 0.0625  plane waves:     553
 k-point 15 :  -0.0625 0.1875 0.0625  plane waves:     557
 k-point 16 :   0.3125 0.3125 0.0625  plane waves:     562
 k-point 17 :   0.4375 0.3125 0.0625  plane waves:     553
 k-point 18 :  -0.4375 0.3125 0.0625  plane waves:     554
 k-point 19 :  -0.3125 0.3125 0.0625  plane waves:     550
 k-point 20 :  -0.1875 0.3125 0.0625  plane waves:     553
 k-point 21 :  -0.0625 0.3125 0.0625  plane waves:     557
 k-point 22 :   0.4375 0.4375 0.0625  plane waves:     553
 k-point 23 :  -0.4375 0.4375 0.0625  plane waves:     555
 k-point 24 :  -0.3125 0.4375 0.0625  plane waves:     551
 k-point 25 :  -0.1875 0.4375 0.0625  plane waves:     556
 k-point 26 :  -0.0625 0.4375 0.0625  plane waves:     558
 k-point 27 :  -0.4375-0.4375 0.0625  plane waves:     556
 k-point 28 :  -0.3125-0.4375 0.0625  plane waves:     557
 k-point 29 :  -0.1875-0.4375 0.0625  plane waves:     554
 k-point 30 :  -0.3125-0.3125 0.0625  plane waves:     560
 k-point 31 :  -0.1875-0.3125 0.0625  plane waves:     553
 k-point 32 :  -0.1875-0.1875 0.0625  plane waves:     561
 k-point 33 :   0.1875 0.1875 0.1875  plane waves:     552
 k-point 34 :   0.3125 0.1875 0.1875  plane waves:     557
 k-point 35 :   0.4375 0.1875 0.1875  plane waves:     554
 k-point 36 :  -0.4375 0.1875 0.1875  plane waves:     559
 k-point 37 :  -0.3125 0.1875 0.1875  plane waves:     555
 k-point 38 :  -0.1875 0.1875 0.1875  plane waves:     553
 k-point 39 :   0.3125 0.3125 0.1875  plane waves:     555
 k-point 40 :   0.4375 0.3125 0.1875  plane waves:     556
 k-point 41 :  -0.4375 0.3125 0.1875  plane waves:     554
 k-point 42 :  -0.3125 0.3125 0.1875  plane waves:     552
 k-point 43 :  -0.1875 0.3125 0.1875  plane waves:     554
 k-point 44 :   0.4375 0.4375 0.1875  plane waves:     552
 k-point 45 :  -0.4375 0.4375 0.1875  plane waves:     556
 k-point 46 :  -0.3125 0.4375 0.1875  plane waves:     544
 k-point 47 :  -0.1875 0.4375 0.1875  plane waves:     554
 k-point 48 :  -0.4375-0.4375 0.1875  plane waves:     553
 k-point 49 :  -0.3125-0.4375 0.1875  plane waves:     550
 k-point 50 :  -0.3125-0.3125 0.1875  plane waves:     554
 k-point 51 :   0.3125 0.3125 0.3125  plane waves:     561
 k-point 52 :   0.4375 0.3125 0.3125  plane waves:     561
 k-point 53 :  -0.4375 0.3125 0.3125  plane waves:     551
 k-point 54 :  -0.3125 0.3125 0.3125  plane waves:     551
 k-point 55 :   0.4375 0.4375 0.3125  plane waves:     559
 k-point 56 :  -0.4375 0.4375 0.3125  plane waves:     554
 k-point 57 :  -0.3125 0.4375 0.3125  plane waves:     547
 k-point 58 :  -0.4375-0.4375 0.3125  plane waves:     555
 k-point 59 :   0.4375 0.4375 0.4375  plane waves:     556
 k-point 60 :  -0.4375 0.4375 0.4375  plane waves:     561

 maximum and minimum number of plane-waves per node :       564      540

 maximum number of plane-waves:       564
 maximum index in each direction: 
   IXMAX=    6   IYMAX=    6   IZMAX=    5
   IXMIN=   -6   IYMIN=   -6   IZMIN=   -6


 serial   3D FFT for wavefunctions
 parallel 3D FFT for charge:
    minimum data exchange during FFTs selected (reduces bandwidth)


 total amount of memory used by VASP MPI-rank0    33573. kBytes
=======================================================================

   base      :      30000. kBytes
   nonl-proj :       2199. kBytes
   fftplans  :        247. kBytes
   grid      :        561. kBytes
   one-center:          6. kBytes
   wavefun   :        560. kBytes
 
     INWAV:  cpu time    0.0000: real time    0.0005
 Broyden mixing: mesh for mixing (old mesh)
   NGX = 11   NGY = 11   NGZ = 11
  (NGX  = 36   NGY  = 36   NGZ  = 36)
  gives a total of   1331 points

 initial charge density was supplied:
 charge density of overlapping atoms calculated
 number of electron       8.0000000 magnetization 
 keeping initial charge density in first step


--------------------------------------------------------------------------------------------------------


 Maximum index for augmentation-charges          769 (set IRDMAX)


--------------------------------------------------------------------------------------------------------


 First call to EWALD:  gamma=   0.530
 Maximum number of real-space cells 3x 3x 3
 Maximum number of reciprocal cells 3x 3x 3

    FEWALD:  cpu time    0.0080: real time    0.0071


--------------------------------------- Iteration      1(   1)  ---------------------------------------


    POTLOK:  cpu time    0.0360: real time    0.0471
    SETDIJ:  cpu time    0.0120: real time    0.0092
     EDDAV:  cpu time    0.7800: real time    0.7843
       DOS:  cpu time    0.0000: real time    0.0035
    --------------------------------------------
      LOOP:  cpu time    0.8280: real time    0.8448

 eigenvalue-minimisations  :   960
 total energy-change (2. order) : 0.3327235E+01  (-0.2795096E+03)
 number of electron       8.0000000 magnetization 
 augmentation part        8.0000000 magnetization 

 Free energy of the ion-electron system (eV)
  ---------------------------------------------------
  alpha Z        PSCENC =         3.60853253
  Ewald energy   TEWEN  =      -233.96938101
  -Hartree energ DENC   =        -9.97412236
  -exchange      EXHF   =         0.00000000
  -V(xc)+E(xc)   XCENC  =       -18.32016169
  PAW double counting   =        65.95520812      -30.76852678
  entropy T*S    EENTRO =        -0.00980443
  eigenvalues    EBANDS =        20.67423680
  atomic energy  EATOM  =       206.13125414
  Solvation  Ediel_sol  =         0.00000000
  ---------------------------------------------------
  free energy    TOTEN  =         3.32723531 eV

  energy without entropy =        3.33703974  energy(sigma->0) =        3.33213752


--------------------------------------------------------------------------------------------------------




--------------------------------------- Iteration      1(   2)  ---------------------------------------


     EDDAV:  cpu time    1.1640: real time    1.1691
       DOS:  cpu time    0.0040: real time    0.0032
    --------------------------------------------
      LOOP:  cpu time    1.1680: real time    1.1728

 eigenvalue-minimisations  :  1464
 total energy-change (2. order) :-0.1412174E+02  (-0.1358176E+02)
 number of electron       8.0000000 magnetization 
 augmentation part        8.0000000 magnetization 

 Free energy of the ion-electron system (eV)
  ---------------------------------------------------
  alpha Z        PSCENC =         3.60853253
  Ewald energy   TEWEN  =      -233.96938101
  -Hartree energ DENC   =        -9.97412236
  -exchange      EXHF   =         0.00000000
  -V(xc)+E(xc)   XCENC  =       -18.32016169
  PAW double counting   =        65.95520812      -30.76852678
  entropy T*S    EENTRO =        -0.00000366
  eigenvalues    EBANDS =         6.54269127
  atomic energy  EATOM  =       206.13125414
  Solvation  Ediel_sol  =         0.00000000
  ---------------------------------------------------
  free energy    TOTEN  =       -10.79450945 eV

  energy without entropy =      -10.79450579  energy(sigma->0) =      -10.79450762


--------------------------------------------------------------------------------------------------------




--------------------------------------- Iteration      1(   3)  ---------------------------------------


     EDDAV:  cpu time    0.9360: real time    0.9445
       DOS:  cpu time    0.0040: real time    0.0031
    --------------------------------------------
      LOOP:  cpu time    0.9400: real time    0.9470

 eigenvalue-minimisations  :  1160
 total energy-change (2. order) :-0.1753164E+00  (-0.1753164E+00)
 number of electron       8.0000000 magnetization 
 augmentation part        8.0000000 magnetization 

 Free energy of the ion-electron system (eV)
  ---------------------------------------------------
  alpha Z        PSCENC =         3.60853253
  Ewald energy   TEWEN  =      -233.96938101
  -Hartree energ DENC   =        -9.97412236
  -exchange      EXHF   =         0.00000000
  -V(xc)+E(xc)   XCENC  =       -18.32016169
  PAW double counting   =        65.95520812      -30.76852678
  entropy T*S    EENTRO =        -0.00000343
  eigenvalues    EBANDS =         6.36737466
  atomic energy  EATOM  =       206.13125414
  Solvation  Ediel_sol  =         0.00000000
  ---------------------------------------------------
  free energy    TOTEN  =       -10.96982583 eV

  energy without entropy =      -10.96982240  energy(sigma->0) =      -10.96982411


--------------------------------------------------------------------------------------------------------




--------------------------------------- Iteration      1(   4)  ---------------------------------------


     EDDAV:  cpu time    1.2840: real time    1.2861
       DOS:  cpu time    0.0000: real time    0.0031
    --------------------------------------------
      LOOP:  cpu time    1.2840: real time    1.2893

 eigenvalue-minimisations  :  1600
 total energy-change (2. order) :-0.8016269E-03  (-0.8016269E-03)
 number of electron       8.0000000 magnetization 
 augmentation part        8.0000000 magnetization 

 Free energy of the ion-electron system (eV)
  ---------------------------------------------------
  alpha Z        PSCENC =         3.60853253
  Ewald energy   TEWEN  =      -233.96938101
  -Hartree energ DENC   =        -9.97412236
  -exchange      EXHF   =         0.00000000
  -V(xc)+E(xc)   XCENC  =       -18.32016169
  PAW double counting   =        65.95520812      -30.76852678
  entropy T*S    EENTRO =        -0.00000343
  eigenvalues    EBANDS =         6.36657303
  atomic energy  EATOM  =       206.13125414
  Solvation  Ediel_sol  =         0.00000000
  ---------------------------------------------------
  free energy    TOTEN  =       -10.97062745 eV

  energy without entropy =      -10.97062403  energy(sigma->0) =      -10.97062574


--------------------------------------------------------------------------------------------------------




--------------------------------------- Iteration      1(   5)  ---------------------------------------


     EDDAV:  cpu time    0.9520: real time    0.9557
       DOS:  cpu time    0.0040: real time    0.0034
    CHARGE:  cpu time    0.0600: real time    0.0627
    MIXING:  cpu time    0.0040: real time    0.0023
    --------------------------------------------
      LOOP:  cpu time    1.0200: real time    1.0242

 eigenvalue-minimisations  :  1176
 total energy-change (2. order) :-0.3281428E-06  (-0.3279445E-06)
 number of electron       8.0000003 magnetization 
 augmentation part       -0.4756589 magnetization 

 Broyden mixing:
  rms(total) = 0.31879E+00    rms(broyden)= 0.31878E+00
  rms(prec ) = 0.94236E+00
  weight for this iteration     100.00

 Free energy of the ion-electron system (eV)
  ---------------------------------------------------
  alpha Z        PSCENC =         3.60853253
  Ewald energy   TEWEN  =      -233.96938101
  -Hartree energ DENC   =        -9.97412236
  -exchange      EXHF   =         0.00000000
  -V(xc)+E(xc)   XCENC  =       -18.32016169
  PAW double counting   =        65.95520812      -30.76852678
  entropy T*S    EENTRO =        -0.00000343
  eigenvalues    EBANDS =         6.36657270
  atomic energy  EATOM  =       206.13125414
  Solvation  Ediel_sol  =         0.00000000
  ---------------------------------------------------
  free energy    TOTEN  =       -10.97062778 eV

  energy without entropy =      -10.97062436  energy(sigma->0) =      -10.97062607


--------------------------------------------------------------------------------------------------------




--------------------------------------- Iteration      1(   6)  ---------------------------------------


    POTLOK:  cpu time    0.0280: real time    0.0326
    SETDIJ:  cpu time    0.0080: real time    0.0086
     EDDAV:  cpu time    0.9120: real time    0.9140
       DOS:  cpu time    0.0040: real time    0.0032
    CHARGE:  cpu time    0.0600: real time    0.0609
    MIXING:  cpu time    0.0040: real time    0.0020
    --------------------------------------------
      LOOP:  cpu time    1.0160: real time    1.0212

 eigenvalue-minimisations  :  1136
 total energy-change (2. order) : 0.1573917E+00  (-0.1088950E-01)
 number of electron       8.0000003 magnetization 
 augmentation part       -0.4687679 magnetization 

 Broyden mixing:
  rms(total) = 0.18668E+00    rms(broyden)= 0.18668E+00
  rms(prec ) = 0.54690E+00
  weight for this iteration     100.00

 eigenvalues of (default mixing * dielectric matrix)
  average eigenvalue GAMMA=   2.3916
  2.3916

 Free energy of the ion-electron system (eV)
  ---------------------------------------------------
  alpha Z        PSCENC =         3.60853253
  Ewald energy   TEWEN  =      -233.96938101
  -Hartree energ DENC   =       -11.57652522
  -exchange      EXHF   =         0.00000000
  -V(xc)+E(xc)   XCENC  =       -18.06282272
  PAW double counting   =        70.99019790      -35.94404619
  entropy T*S    EENTRO =        -0.00002621
  eigenvalues    EBANDS =         8.00958064
  atomic energy  EATOM  =       206.13125414
  Solvation  Ediel_sol  =         0.00000000
  ---------------------------------------------------
  free energy    TOTEN  =       -10.81323612 eV

  energy without entropy =      -10.81320991  energy(sigma->0) =      -10.81322301


--------------------------------------------------------------------------------------------------------




--------------------------------------- Iteration      1(   7)  ---------------------------------------


    POTLOK:  cpu time    0.0280: real time    0.0329
    SETDIJ:  cpu time    0.0080: real time    0.0087
     EDDAV:  cpu time    1.0080: real time    1.0088
       DOS:  cpu time    0.0040: real time    0.0034
    CHARGE:  cpu time    0.0600: real time    0.0599
    MIXING:  cpu time    0.0000: real time    0.0018
    --------------------------------------------
      LOOP:  cpu time    1.1080: real time    1.1154

 eigenvalue-minimisations  :  1264
 total energy-change (2. order) : 0.6846872E-01  (-0.1867063E-01)
 number of electron       8.0000003 magnetization 
 augmentation part       -0.4605935 magnetization 

 Broyden mixing:
  rms(total) = 0.16863E-01    rms(broyden)= 0.16863E-01
  rms(prec ) = 0.44194E-01
  weight for this iteration     100.00

 eigenvalues of (default mixing * dielectric matrix)
  average eigenvalue GAMMA=   2.4417
  2.4417  2.4417

 Free energy of the ion-electron system (eV)
  ---------------------------------------------------
  alpha Z        PSCENC =         3.60853253
  Ewald energy   TEWEN  =      -233.96938101
  -Hartree energ DENC   =       -14.07583445
  -exchange      EXHF   =         0.00000000
  -V(xc)+E(xc)   XCENC  =       -17.65392359
  PAW double counting   =        77.71429836      -42.84793957
  entropy T*S    EENTRO =        -0.00020277
  eigenvalues    EBANDS =        10.34842896
  atomic energy  EATOM  =       206.13125414
  Solvation  Ediel_sol  =         0.00000000
  ---------------------------------------------------
  free energy    TOTEN  =       -10.74476739 eV

  energy without entropy =      -10.74456463  energy(sigma->0) =      -10.74466601


--------------------------------------------------------------------------------------------------------




--------------------------------------- Iteration      1(   8)  ---------------------------------------


    POTLOK:  cpu time    0.0280: real time    0.0342
    SETDIJ:  cpu time    0.0080: real time    0.0087
     EDDAV:  cpu time    0.9360: real time    0.9358
       DOS:  cpu time    0.0040: real time    0.0045
    CHARGE:  cpu time    0.0600: real time    0.0600
    MIXING:  cpu time    0.0000: real time    0.0018
    --------------------------------------------
      LOOP:  cpu time    1.0360: real time    1.0451

 eigenvalue-minimisations  :  1168
 total energy-change (2. order) :-0.1308813E-02  (-0.4658980E-03)
 number of electron       8.0000003 magnetization 
 augmentation part       -0.4616573 magnetization 

 Broyden mixing:
  rms(total) = 0.25176E-02    rms(broyden)= 0.25167E-02
  rms(prec ) = 0.84561E-02
  weight for this iteration     100.00

 eigenvalues of (default mixing * dielectric matrix)
  average eigenvalue GAMMA=   2.1091
  1.4015  2.7810  2.1449

 Free energy of the ion-electron system (eV)
  ---------------------------------------------------
  alpha Z        PSCENC =         3.60853253
  Ewald energy   TEWEN  =      -233.96938101
  -Hartree energ DENC   =       -14.04544774
  -exchange      EXHF   =         0.00000000
  -V(xc)+E(xc)   XCENC  =       -17.64095127
  PAW double counting   =        76.83758219      -41.94197754
  entropy T*S    EENTRO =        -0.00016302
  eigenvalues    EBANDS =        10.27447551
  atomic energy  EATOM  =       206.13125414
  Solvation  Ediel_sol  =         0.00000000
  ---------------------------------------------------
  free energy    TOTEN  =       -10.74607621 eV

  energy without entropy =      -10.74591318  energy(sigma->0) =      -10.74599470


--------------------------------------------------------------------------------------------------------




--------------------------------------- Iteration      1(   9)  ---------------------------------------


    POTLOK:  cpu time    0.0280: real time    0.0341
    SETDIJ:  cpu time    0.0080: real time    0.0086
     EDDAV:  cpu time    0.7440: real time    0.7428
       DOS:  cpu time    0.0040: real time    0.0033
    --------------------------------------------
      LOOP:  cpu time    0.7840: real time    0.7887

 eigenvalue-minimisations  :   856
 total energy-change (2. order) :-0.7652894E-04  (-0.8652662E-05)
 number of electron       8.0000003 magnetization 
 augmentation part       -0.4616573 magnetization 

 Free energy of the ion-electron system (eV)
  ---------------------------------------------------
  alpha Z        PSCENC =         3.60853253
  Ewald energy   TEWEN  =      -233.96938101
  -Hartree energ DENC   =       -14.08499322
  -exchange      EXHF   =         0.00000000
  -V(xc)+E(xc)   XCENC  =       -17.63411581
  PAW double counting   =        76.85740143      -41.96258431
  entropy T*S    EENTRO =        -0.00016292
  eigenvalues    EBANDS =        10.30789643
  atomic energy  EATOM  =       206.13125414
  Solvation  Ediel_sol  =         0.00000000
  ---------------------------------------------------
  free energy    TOTEN  =       -10.74615274 eV

  energy without entropy =      -10.74598981  energy(sigma->0) =      -10.74607127


--------------------------------------------------------------------------------------------------------




 average (electrostatic) potential at core
  the test charge radii are     0.9892
  (the norm of the test charge is              1.0000)
       1 -82.4426       2 -82.4426
 
 
 
 E-fermi :   6.7922     XC(G=0):  -9.6905     alpha+bet :-12.8552


 k-point     1 :       0.0625    0.0625    0.0625
  band No.  band energies     occupation 
      1      -5.8421      2.00000
      2       6.0304      2.00000
      3       6.4711      1.97686
      4       6.4711      1.97686
      5       9.2714      0.00000
      6       9.2897      0.00000
      7       9.2897      0.00000
      8      11.0886      0.00000

 k-point     2 :       0.1875    0.0625    0.0625
  band No.  band energies     occupation 
      1      -5.5539      2.00000
      2       4.4890      2.00000
      3       5.5909      2.00000
      4       6.3550      1.99801
      5       9.4596      0.00000
      6       9.5455      0.00000
      7       9.9168      0.00000
      8      12.3328      0.00000

 k-point     3 :       0.3125    0.0625    0.0625
  band No.  band energies     occupation 
      1      -4.8556      2.00000
      2       2.1227      2.00000
      3       5.0868      2.00000
      4       5.8626      2.00000
      5       9.0758      0.00000
      6      10.0230      0.00000
      7      10.3317      0.00000
      8      13.3503      0.00000

 k-point     4 :       0.4375    0.0625    0.0625
  band No.  band energies     occupation 
      1      -3.8676      2.00000
      2       0.0910      2.00000
      3       4.8715      2.00000
      4       5.4279      2.00000
      5       8.7671      0.00000
      6      10.0140      0.00000
      7      10.0285      0.00000
      8      14.5906      0.00000

 k-point     5 :      -0.4375    0.0625    0.0625
  band No.  band energies     occupation 
      1      -3.3599      2.00000
      2      -0.6843      2.00000
      3       4.9358      2.00000
      4       5.1892      2.00000
      5       8.6802      0.00000
      6       9.7936      0.00000
      7      10.0828      0.00000
      8      14.5863      0.00000

 k-point     6 :      -0.3125    0.0625    0.0625
  band No.  band energies     occupation 
      1      -4.2091      2.00000
      2       0.6966      2.00000
      3       5.2010      2.00000
      4       5.2450      2.00000
      5       8.8334      0.00000
      6       9.8448      0.00000
      7      10.3975      0.00000
      8      13.6716      0.00000

 k-point     7 :      -0.1875    0.0625    0.0625
  band No.  band energies     occupation 
      1      -5.1300      2.00000
      2       2.9008      2.00000
      3       5.4861      2.00000
      4       5.7364      2.00000
      5       9.1306      0.00000
      6       9.8346      0.00000
      7      10.5455      0.00000
      8      12.4810      0.00000

 k-point     8 :      -0.0625    0.0625    0.0625
  band No.  band energies     occupation 
      1      -5.6973      2.00000
      2       5.2783      2.00000
      3       5.9995      2.00000
      4       6.2027      1.99997
      5       8.9861      0.00000
      6       9.7321      0.00000
      7       9.9242      0.00000
      8      11.6898      0.00000

 k-point     9 :       0.1875    0.1875    0.0625
  band No.  band energies     occupation 
      1      -5.4090      2.00000
      2       4.3923      2.00000
      3       5.3936      2.00000
      4       5.5229      2.00000
      5       8.5249      0.00000
      6      10.5913      0.00000
      7      10.8481      0.00000
      8      11.4427      0.00000

 k-point    10 :       0.3125    0.1875    0.0625
  band No.  band energies     occupation 
      1      -4.8440      2.00000
      2       2.8168      2.00000
      3       4.3533      2.00000
      4       5.2382      2.00000
      5       8.7063      0.00000
      6      10.7284      0.00000
      7      10.9955      0.00000
      8      11.6837      0.00000

 k-point    11 :       0.4375    0.1875    0.0625
  band No.  band energies     occupation 
      1      -3.9258      2.00000
      2       0.7982      2.00000
      3       3.8645      2.00000
      4       4.7798      2.00000
      5       8.9196      0.00000
      6      10.4992      0.00000
      7      11.7144      0.00000
      8      11.8598      0.00000

 k-point    12 :      -0.4375    0.1875    0.0625
  band No.  band energies     occupation 
      1      -3.0731      2.00000
      2      -0.5384      2.00000
      3       3.5670      2.00000
      4       4.6738      2.00000
      5       9.0290      0.00000
      6      10.0981      0.00000
      7      11.5019      0.00000
      8      14.0732      0.00000

 k-point    13 :      -0.3125    0.1875    0.0625
  band No.  band energies     occupation 
      1      -3.5898      2.00000
      2       0.2290      2.00000
      3       3.4693      2.00000
      4       4.9904      2.00000
      5       9.4111      0.00000
      6       9.9351      0.00000
      7      11.4626      0.00000
      8      13.2409      0.00000

 k-point    14 :      -0.1875    0.1875    0.0625
  band No.  band energies     occupation 
      1      -4.5751      2.00000
      2       2.1143      2.00000
      3       3.7504      2.00000
      4       5.5492      2.00000
      5       9.7046      0.00000
      6      10.0227      0.00000
      7      11.3602      0.00000
      8      11.7200      0.00000

 k-point    15 :      -0.0625    0.1875    0.0625
  band No.  band energies     occupation 
      1      -5.2684      2.00000
      2       3.6526      2.00000
      3       4.9678      2.00000
      4       5.9580      2.00000
      5       9.1569      0.00000
      6      10.0678      0.00000
      7      10.6391      0.00000
      8      11.9123      0.00000

 k-point    16 :       0.3125    0.3125    0.0625
  band No.  band energies     occupation 
      1      -4.4141      2.00000
      2       2.3550      2.00000
      3       4.1991      2.00000
      4       4.3308      2.00000
      5       7.6364      0.00000
      6       9.3032      0.00000
      7      12.8789      0.00000
      8      12.9756      0.00000

 k-point    17 :       0.4375    0.3125    0.0625
  band No.  band energies     occupation 
      1      -3.6016      2.00000
      2       1.0387      2.00000
      3       3.3363      2.00000
      4       3.9489      2.00000
      5       7.9580      0.00000
      6       9.1491      0.00000
      7      12.8186      0.00000
      8      14.0413      0.00000

 k-point    18 :      -0.4375    0.3125    0.0625
  band No.  band energies     occupation 
      1      -2.6123      2.00000
      2      -0.2764      2.00000
      3       2.4230      2.00000
      4       3.9169      2.00000
      5       8.1848      0.00000
      6      10.9252      0.00000
      7      12.3617      0.00000
      8      13.9658      0.00000

 k-point    19 :      -0.3125    0.3125    0.0625
  band No.  band energies     occupation 
      1      -2.6833      2.00000
      2      -0.1793      2.00000
      3       2.0258      2.00000
      4       4.2951      2.00000
      5       8.6341      0.00000
      6      11.7707      0.00000
      7      13.1680      0.00000
      8      13.3888      0.00000

 k-point    20 :      -0.1875    0.3125    0.0625
  band No.  band energies     occupation 
      1      -3.6677      2.00000
      2       0.8153      2.00000
      3       2.7033      2.00000
      4       4.9387      2.00000
      5       9.3747      0.00000
      6      10.6192      0.00000
      7      12.1894      0.00000
      8      12.3710      0.00000

 k-point    21 :      -0.0625    0.3125    0.0625
  band No.  band energies     occupation 
      1      -4.4508      2.00000
      2       1.4174      2.00000
      3       4.5125      2.00000
      4       5.4458      2.00000
      5       9.2457      0.00000
      6       9.9544      0.00000
      7      10.8291      0.00000
      8      12.5436      0.00000

 k-point    22 :       0.4375    0.4375    0.0625
  band No.  band energies     occupation 
      1      -2.9005      2.00000
      2       0.1259      2.00000
      3       3.4489      2.00000
      4       3.6975      2.00000
      5       7.1798      0.00614
      6       7.8836      0.00000
      7      15.2577      0.00000
      8      15.3219      0.00000

 k-point    23 :      -0.4375    0.4375    0.0625
  band No.  band energies     occupation 
      1      -1.9124      2.00000
      2      -0.9324      2.00000
      3       2.8211      2.00000
      4       3.4207      2.00000
      5       7.6248      0.00000
      6       8.4096      0.00000
      7      14.9950      0.00000
      8      16.1882      0.00000

 k-point    24 :      -0.3125    0.4375    0.0625
  band No.  band energies     occupation 
      1      -1.9884      2.00000
      2      -0.7736      2.00000
      3       2.0064      2.00000
      4       3.7628      2.00000
      5       8.0220      0.00000
      6      10.7790      0.00000
      7      13.3733      0.00000
      8      14.6129      0.00000

 k-point    25 :      -0.1875    0.4375    0.0625
  band No.  band energies     occupation 
      1      -2.7992      2.00000
      2      -0.4429      2.00000
      3       2.6886      2.00000
      4       4.4188      2.00000
      5       8.7773      0.00000
      6      10.8942      0.00000
      7      12.5351      0.00000
      8      13.8339      0.00000

 k-point    26 :      -0.0625    0.4375    0.0625
  band No.  band energies     occupation 
      1      -3.4641      2.00000
      2      -0.3421      2.00000
      3       4.3485      2.00000
      4       5.0749      2.00000
      5       9.0950      0.00000
      6       9.7203      0.00000
      7      10.6036      0.00000
      8      14.3677      0.00000

 k-point    27 :      -0.4375   -0.4375    0.0625
  band No.  band energies     occupation 
      1      -1.9750      2.00000
      2      -0.9569      2.00000
      3       3.3004      2.00000
      4       3.5684      2.00000
      5       7.1509      0.01120
      6       7.5315      0.00000
      7      16.4467      0.00000
      8      16.5839      0.00000

 k-point    28 :      -0.3125   -0.4375    0.0625
  band No.  band energies     occupation 
      1      -2.8036      2.00000
      2       0.0605      2.00000
      3       2.9974      2.00000
      4       3.5910      2.00000
      5       7.7348      0.00000
      6       8.6577      0.00000
      7      13.8696      0.00000
      8      15.2905      0.00000

 k-point    29 :      -0.1875   -0.4375    0.0625
  band No.  band energies     occupation 
      1      -3.2996      2.00000
      2       0.2481      2.00000
      3       3.1186      2.00000
      4       4.2435      2.00000
      5       8.4981      0.00000
      6      11.0907      0.00000
      7      11.5867      0.00000
      8      12.7929      0.00000

 k-point    30 :      -0.3125   -0.3125    0.0625
  band No.  band energies     occupation 
      1      -3.7179      2.00000
      2       1.2434      2.00000
      3       3.7474      2.00000
      4       3.9535      2.00000
      5       7.3398      0.00011
      6       8.4816      0.00000
      7      14.0829      0.00000
      8      14.0980      0.00000

 k-point    31 :      -0.1875   -0.3125    0.0625
  band No.  band energies     occupation 
      1      -4.2858      2.00000
      2       1.9576      2.00000
      3       3.8012      2.00000
      4       4.5134      2.00000
      5       8.2891      0.00000
      6       9.8755      0.00000
      7      11.8341      0.00000
      8      12.8311      0.00000

 k-point    32 :      -0.1875   -0.1875    0.0625
  band No.  band energies     occupation 
      1      -4.9799      2.00000
      2       3.4157      2.00000
      3       4.8031      2.00000
      4       4.8185      2.00000
      5       8.0466      0.00000
      6      10.3093      0.00000
      7      11.7297      0.00000
      8      11.8862      0.00000

 k-point    33 :       0.1875    0.1875    0.1875
  band No.  band energies     occupation 
      1      -5.4120      2.00000
      2       3.7074      2.00000
      3       5.9966      2.00000
      4       5.9966      2.00000
      5       9.0554      0.00000
      6       9.9440      0.00000
      7       9.9440      0.00000
      8      13.0395      0.00000

 k-point    34 :       0.3125    0.1875    0.1875
  band No.  band energies     occupation 
      1      -4.9890      2.00000
      2       2.8667      2.00000
      3       4.3481      2.00000
      4       6.0343      2.00000
      5       9.7125      0.00000
      6      10.0628      0.00000
      7      10.3973      0.00000
      8      12.6597      0.00000

 k-point    35 :       0.4375    0.1875    0.1875
  band No.  band energies     occupation 
      1      -4.1793      2.00000
      2       1.4377      2.00000
      3       3.1768      2.00000
      4       5.4845      2.00000
      5       9.3980      0.00000
      6      10.8544      0.00000
      7      11.1205      0.00000
      8      12.8698      0.00000

 k-point    36 :      -0.4375    0.1875    0.1875
  band No.  band energies     occupation 
      1      -3.1911      2.00000
      2      -0.2041      2.00000
      3       3.0545      2.00000
      4       4.9042      2.00000
      5       8.7844      0.00000
      6      11.1500      0.00000
      7      11.1911      0.00000
      8      14.6787      0.00000

 k-point    37 :      -0.3125    0.1875    0.1875
  band No.  band energies     occupation 
      1      -3.1757      2.00000
      2      -0.2329      2.00000
      3       3.3918      2.00000
      4       4.5541      2.00000
      5       8.4463      0.00000
      6      11.2433      0.00000
      7      11.5546      0.00000
      8      12.6986      0.00000

 k-point    38 :      -0.1875    0.1875    0.1875
  band No.  band energies     occupation 
      1      -4.1635      2.00000
      2       1.4314      2.00000
      3       4.0466      2.00000
      4       4.5201      2.00000
      5       8.3737      0.00000
      6      10.6641      0.00000
      7      11.5825      0.00000
      8      12.0089      0.00000

 k-point    39 :       0.3125    0.3125    0.1875
  band No.  band energies     occupation 
      1      -4.7116      2.00000
      2       2.1447      2.00000
      3       4.9580      2.00000
      4       4.9712      2.00000
      5       8.8572      0.00000
      6      10.5016      0.00000
      7      11.2397      0.00000
      8      11.4849      0.00000

 k-point    40 :       0.4375    0.3125    0.1875
  band No.  band energies     occupation 
      1      -4.0337      2.00000
      2       1.3944      2.00000
      3       3.2375      2.00000
      4       4.7656      2.00000
      5       9.3395      0.00000
      6      10.4959      0.00000
      7      10.9323      0.00000
      8      12.6236      0.00000

 k-point    41 :      -0.4375    0.3125    0.1875
  band No.  band energies     occupation 
      1      -3.0596      2.00000
      2       0.2386      2.00000
      3       2.3666      2.00000
      4       4.1293      2.00000
      5       9.7870      0.00000
      6      10.3405      0.00000
      7      11.6970      0.00000
      8      13.7585      0.00000

 k-point    42 :      -0.3125    0.3125    0.1875
  band No.  band energies     occupation 
      1      -2.5147      2.00000
      2      -0.4490      2.00000
      3       2.3934      2.00000
      4       3.7794      2.00000
      5       9.2762      0.00000
      6      10.6807      0.00000
      7      12.5050      0.00000
      8      13.9922      0.00000

 k-point    43 :      -0.1875    0.3125    0.1875
  band No.  band energies     occupation 
      1      -3.3764      2.00000
      2       0.6734      2.00000
      3       2.8342      2.00000
      4       3.9803      2.00000
      5       9.0075      0.00000
      6      10.2099      0.00000
      7      11.3638      0.00000
      8      13.9349      0.00000

 k-point    44 :       0.4375    0.4375    0.1875
  band No.  band energies     occupation 
      1      -3.4965      2.00000
      2       0.7139      2.00000
      3       3.2148      2.00000
      4       4.1649      2.00000
      5       7.9342      0.00000
      6      10.0670      0.00000
      7      12.7662      0.00000
      8      12.8679      0.00000

 k-point    45 :      -0.4375    0.4375    0.1875
  band No.  band energies     occupation 
      1      -2.6228      2.00000
      2      -0.0922      2.00000
      3       2.5527      2.00000
      4       3.3845      2.00000
      5       8.7701      0.00000
      6       9.8152      0.00000
      7      12.2682      0.00000
      8      15.2707      0.00000

 k-point    46 :      -0.3125    0.4375    0.1875
  band No.  band energies     occupation 
      1      -1.7329      2.00000
      2      -0.8910      2.00000
      3       2.1824      2.00000
      4       2.8249      2.00000
      5       9.9413      0.00000
      6      10.8720      0.00000
      7      11.8300      0.00000
      8      12.8364      0.00000

 k-point    47 :      -0.1875    0.4375    0.1875
  band No.  band energies     occupation 
      1      -2.3887      2.00000
      2      -0.3251      2.00000
      3       2.1933      2.00000
      4       3.3505      2.00000
      5      10.0286      0.00000
      6      10.5297      0.00000
      7      11.4427      0.00000
      8      14.0258      0.00000

 k-point    48 :      -0.4375   -0.4375    0.1875
  band No.  band energies     occupation 
      1      -1.9210      2.00000
      2      -0.8864      2.00000
      3       2.3017      2.00000
      4       3.7979      2.00000
      5       7.4465      0.00000
      6       9.4971      0.00000
      7      14.8575      0.00000
      8      15.2299      0.00000

 k-point    49 :      -0.3125   -0.4375    0.1875
  band No.  band energies     occupation 
      1      -1.8132      2.00000
      2      -0.9038      2.00000
      3       2.4049      2.00000
      4       3.0759      2.00000
      5       8.6472      0.00000
      6       9.6175      0.00000
      7      13.3097      0.00000
      8      14.4798      0.00000

 k-point    50 :      -0.3125   -0.3125    0.1875
  band No.  band energies     occupation 
      1      -2.7303      2.00000
      2      -0.0653      2.00000
      3       2.6084      2.00000
      4       3.9214      2.00000
      5       7.6135      0.00000
      6       9.6839      0.00000
      7      13.8280      0.00000
      8      13.9898      0.00000

 k-point    51 :       0.3125    0.3125    0.3125
  band No.  band energies     occupation 
      1      -4.5926      2.00000
      2       1.3613      2.00000
      3       5.5614      2.00000
      4       5.5614      2.00000
      5       8.6304      0.00000
      6      10.1093      0.00000
      7      10.1093      0.00000
      8      14.3793      0.00000

 k-point    52 :       0.4375    0.3125    0.3125
  band No.  band energies     occupation 
      1      -4.0707      2.00000
      2       0.7669      2.00000
      3       3.9932      2.00000
      4       5.4720      2.00000
      5       9.2677      0.00000
      6      10.3817      0.00000
      7      10.3879      0.00000
      8      13.7572      0.00000

 k-point    53 :      -0.4375    0.3125    0.3125
  band No.  band energies     occupation 
      1      -3.2066      2.00000
      2       0.2839      2.00000
      3       2.2818      2.00000
      4       4.8325      2.00000
      5       8.6700      0.00000
      6      11.9314      0.00000
      7      12.1685      0.00000
      8      13.5984      0.00000

 k-point    54 :      -0.3125    0.3125    0.3125
  band No.  band energies     occupation 
      1      -2.3016      2.00000
      2      -0.5263      2.00000
      3       1.8851      2.00000
      4       4.2364      2.00000
      5       7.9646      0.00000
      6      12.0418      0.00000
      7      13.2821      0.00000
      8      13.8039      0.00000

 k-point    55 :       0.4375    0.4375    0.3125
  band No.  band energies     occupation 
      1      -3.7240      2.00000
      2       0.1589      2.00000
      3       4.3858      2.00000
      4       4.8492      2.00000
      5       8.8231      0.00000
      6      10.2619      0.00000
      7      10.8861      0.00000
      8      13.0807      0.00000

 k-point    56 :      -0.4375    0.4375    0.3125
  band No.  band energies     occupation 
      1      -3.0450      2.00000
      2      -0.1797      2.00000
      3       2.9396      2.00000
      4       4.3117      2.00000
      5       9.5504      0.00000
      6       9.9296      0.00000
      7      12.6719      0.00000
      8      12.8283      0.00000

 k-point    57 :      -0.3125    0.4375    0.3125
  band No.  band energies     occupation 
      1      -2.1547      2.00000
      2      -0.5763      2.00000
      3       1.9840      2.00000
      4       3.5230      2.00000
      5       9.1349      0.00000
      6      11.4911      0.00000
      7      12.4277      0.00000
      8      13.0376      0.00000

 k-point    58 :      -0.4375   -0.4375    0.3125
  band No.  band energies     occupation 
      1      -2.6483      2.00000
      2      -0.4598      2.00000
      3       2.4825      2.00000
      4       4.3446      2.00000
      5       8.1316      0.00000
      6      11.9987      0.00000
      7      12.3792      0.00000
      8      12.8170      0.00000

 k-point    59 :       0.4375    0.4375    0.4375
  band No.  band energies     occupation 
      1      -3.6066      2.00000
      2      -0.4247      2.00000
      3       5.3320      2.00000
      4       5.3320      2.00000
      5       8.3840      0.00000
      6       9.9021      0.00000
      7       9.9021      0.00000
      8      14.4297      0.00000

 k-point    60 :      -0.4375    0.4375    0.4375
  band No.  band energies     occupation 
      1      -3.2174      2.00000
      2      -0.6026      2.00000
      3       4.0358      2.00000
      4       5.0331      2.00000
      5       8.9190      0.00000
      6      10.1868      0.00000
      7      10.5303      0.00000
      8      15.0246      0.00000


--------------------------------------------------------------------------------------------------------


 soft charge-density along one line, spin component           1
         0         1         2         3         4         5         6         7         8         9
 total charge-density along one line
 
 pseudopotential strength for first ion, spin component:           1
 18.333  -0.002  -0.000  -0.000  -0.000   0.000   0.000   0.000
 -0.002   0.006   0.000   0.000   0.000  -0.000  -0.000  -0.000
 -0.000   0.000   4.171  -0.000  -0.000  -0.005   0.000   0.000
 -0.000   0.000  -0.000   4.171  -0.000   0.000  -0.005   0.000
 -0.000   0.000  -0.000  -0.000   4.171   0.000   0.000  -0.005
  0.000  -0.000  -0.005   0.000   0.000   0.005  -0.000  -0.000
  0.000  -0.000   0.000  -0.005   0.000  -0.000   0.005  -0.000
  0.000  -0.000   0.000   0.000  -0.005  -0.000  -0.000   0.005
 total augmentation occupancy for first ion, spin component:           1
  1.484  -0.893  -0.000   0.000   0.000  -0.000   0.000   0.000
 -0.893   0.941   0.000   0.000   0.000   0.000   0.000   0.000
  0.000  -0.000   1.081   0.000   0.000  -0.628   0.000   0.000
 -0.000  -0.000   0.000   1.081   0.000   0.000  -0.628  -0.000
 -0.000   0.000   0.000   0.000   1.081   0.000  -0.000  -0.628
 -0.000  -0.000  -0.628   0.000   0.000   0.430   0.000   0.000
  0.000   0.000   0.000  -0.628   0.000   0.000   0.430  -0.000
  0.000   0.000   0.000   0.000  -0.628   0.000  -0.000   0.430


------------------------ aborting loop because EDIFF is reached ----------------------------------------


    CHARGE:  cpu time    0.0600: real time    0.0603
    FORLOC:  cpu time    0.0000: real time    0.0009
    FORNL :  cpu time    0.0240: real time    0.0231
    STRESS:  cpu time    0.2520: real time    0.2526
    FORCOR:  cpu time    0.0200: real time    0.0219
    FORHAR:  cpu time    0.0080: real time    0.0053
    MIXING:  cpu time    0.0000: real time    0.0016
    OFIELD:  cpu time    0.0000: real time    0.0005

  FORCE on cell =-STRESS in cart. coord.  units (eV):
  Direction    XX          YY          ZZ          XY          YZ          ZX
  --------------------------------------------------------------------------------------
  Alpha Z     3.60853     3.60853     3.60853
  Ewald     -77.98983   -77.98983   -77.98983     0.00000     0.00000    -0.00000
  Hartree     4.69750     4.69750     4.69750     0.00000     0.00000     0.00000
  E(xc)     -25.79362   -25.79362   -25.79362    -0.00000    -0.00000    -0.00000
  Local     -28.30319   -28.30319   -28.30319     0.00003     0.00003     0.00003
  n-local    79.25206    81.83509    76.95919     1.15075    -1.24458     0.05041
  augment   -11.69828   -11.69828   -11.69828    -0.00003    -0.00003    -0.00003
  Kinetic    60.17223    57.14766    57.94259     0.72228    -0.81930     0.04539
  Fock        0.00000     0.00000     0.00000     0.00000     0.00000     0.00000
  -------------------------------------------------------------------------------------
  Total       2.29072     2.29072     2.29072     0.00000     0.00000    -0.00000
  in kB      98.35550    98.35550    98.35550     0.00000     0.00000    -0.00000
  external pressure =       98.36 kB  Pullay stress =        0.00 kB


 VOLUME and BASIS-vectors are now :
 -----------------------------------------------------------------------------
  energy-cutoff  :      350.00
  volume of cell :       37.31
      direct lattice vectors                 reciprocal lattice vectors
     0.000000000  2.652270000  2.652270000    -0.188517760  0.188517760  0.188517760
     2.652270000  0.000000000  2.652270000     0.188517760 -0.188517760  0.188517760
     2.652270000  2.652270000  0.000000000     0.188517760  0.188517760 -0.188517760

  length of vectors
     3.750876205  3.750876205  3.750876205     0.326522339  0.326522339  0.326522339


 FORCES acting on ions
    electron-ion (+dipol)            ewald-force                    non-local-force                 convergence-correction
 -----------------------------------------------------------------------------------------------
   0.410E-06 0.410E-06 0.471E-06   -.625E-14 0.841E-14 -.909E-14   -.324E-17 -.102E-16 -.322E-17   -.327E-06 -.327E-06 -.327E-06
   -.410E-06 -.410E-06 -.471E-06   0.634E-14 -.797E-14 0.907E-14   0.166E-17 0.103E-16 0.381E-17   0.327E-06 0.327E-06 0.327E-06
 -----------------------------------------------------------------------------------------------
   -.475E-13 -.348E-13 -.148E-13   0.871E-16 0.449E-15 -.199E-16   -.158E-17 0.157E-18 0.589E-18   0.105E-14 0.202E-14 -.179E-14
 
 
 POSITION                                       TOTAL-FORCE (eV/Angst)
 -----------------------------------------------------------------------------------
      0.00000      0.00000      0.00000        -0.000000     -0.000000     -0.000000
      1.32614      1.32614      1.32614         0.000000      0.000000      0.000000
 -----------------------------------------------------------------------------------
    total drift:                               -0.000000     -0.000000     -0.000000


--------------------------------------------------------------------------------------------------------



  FREE ENERGIE OF THE ION-ELECTRON SYSTEM (eV)
  ---------------------------------------------------
  free  energy   TOTEN  =       -10.74615274 eV

  energy  without entropy=      -10.74598981  energy(sigma->0) =      -10.74607127
 


--------------------------------------------------------------------------------------------------------


    POTLOK:  cpu time    0.0400: real time    0.0510


--------------------------------------------------------------------------------------------------------




--------------------------------------------------------------------------------------------------------


  
 reached required accuracy - stopping structural energy minimisation
 writing wavefunctions
     LOOP+:  cpu time   10.8400: real time   11.4460
    4ORBIT:  cpu time    0.0000: real time    0.0000

 total amount of memory used by VASP MPI-rank0    33573. kBytes
=======================================================================

   base      :      30000. kBytes
   nonl-proj :       2199. kBytes
   fftplans  :        247. kBytes
   grid      :        561. kBytes
   one-center:          6. kBytes
   wavefun   :        560. kBytes
 
  
  
 General timing and accounting informations for this job:
 ========================================================
  
                  Total CPU time used (sec):       15.556
                            User time (sec):       13.600
                          System time (sec):        1.956
                         Elapsed time (sec):       17.148
  
                   Maximum memory used (kb):        9656.
                   Average memory used (kb):           0.
  
                          Minor page faults:        38126
                          Major page faults:           22
                 Voluntary context switches:        39785
