 running on    8 total cores
 distrk:  each k-point on    8 cores,    1 groups
 distr:  one band on    1 cores,    8 groups
 using from now: INCAR     
 vasp.5.4.4.18Apr17-6-g9f103f2a35 (build Dec 09 2018 21:25:21) complex          
  
 POSCAR found type information on POSCAR  Si
 POSCAR found :  1 types and       2 ions
 scaLAPACK will be used

 ----------------------------------------------------------------------------- 
|                                                                             |
|           W    W    AA    RRRRR   N    N  II  N    N   GGGG   !!!           |
|           W    W   A  A   R    R  NN   N  II  NN   N  G    G  !!!           |
|           W    W  A    A  R    R  N N  N  II  N N  N  G       !!!           |
|           W WW W  AAAAAA  RRRRR   N  N N  II  N  N N  G  GGG   !            |
|           WW  WW  A    A  R   R   N   NN  II  N   NN  G    G                |
|           W    W  A    A  R    R  N    N  II  N    N   GGGG   !!!           |
|                                                                             |
|      For optimal performance we recommend to set                            |
|        NCORE= 4 - approx SQRT( number of cores)                             |
|      NCORE specifies how many cores store one orbital (NPAR=cpu/NCORE).     |
|      This setting can  greatly improve the performance of VASP for DFT.     |
|      The default,   NCORE=1            might be grossly inefficient         |
|      on modern multi-core architectures or massively parallel machines.     |
|      Do your own testing !!!!                                               |
|      Unfortunately you need to use the default for GW and RPA calculations. |
|      (for HF NCORE is supported but not extensively tested yet)             |
|                                                                             |
 ----------------------------------------------------------------------------- 

 LDA part: xc-table for Pade appr. of Perdew
 POSCAR, INCAR and KPOINTS ok, starting setup
 FFT: planning ...
 WAVECAR not read
 entering main loop
       N       E                     dE             d eps       ncg     rms          rms(c)
DAV:   1     0.332723530899E+01    0.33272E+01   -0.27951E+03   960   0.569E+02
DAV:   2    -0.107945094534E+02   -0.14122E+02   -0.13582E+02  1464   0.727E+01
DAV:   3    -0.109698258270E+02   -0.17532E+00   -0.17532E+00  1160   0.996E+00
DAV:   4    -0.109706274538E+02   -0.80163E-03   -0.80163E-03  1600   0.727E-01
DAV:   5    -0.109706277820E+02   -0.32814E-06   -0.32794E-06  1176   0.129E-02    0.319E+00
DAV:   6    -0.108132361153E+02    0.15739E+00   -0.10890E-01  1136   0.173E+00    0.187E+00
DAV:   7    -0.107447673938E+02    0.68469E-01   -0.18671E-01  1264   0.239E+00    0.169E-01
DAV:   8    -0.107460762066E+02   -0.13088E-02   -0.46590E-03  1168   0.521E-01    0.252E-02
DAV:   9    -0.107461527355E+02   -0.76529E-04   -0.86527E-05   856   0.791E-02
   1 F= -.10746153E+02 E0= -.10746071E+02  d E =-.107462E+02
 curvature:   0.00 expect dE= 0.000E+00 dE for cont linesearch  0.000E+00
 trial: gam= 0.00000 g(F)=  0.360E-46 g(S)=  0.000E+00 ort = 0.000E+00 (trialstep = 0.100E+01)
 search vector abs. value=  0.100E-09
 reached required accuracy - stopping structural energy minimisation
 writing wavefunctions
