<?xml version="1.0" encoding="ISO-8859-1"?>
<modeling>
 <generator>
  <i name="program" type="string">vasp </i>
  <i name="version" type="string">5.4.4.18Apr17-6-g9f103f2a35  </i>
  <i name="subversion" type="string">(build Dec 09 2018 21:25:21) complex            parallel </i>
  <i name="platform" type="string">IFC18.0.1.163_CrayMPICH7.7.0_MKL18.0.1.163 </i>
  <i name="date" type="string">2019 04 01 </i>
  <i name="time" type="string">15:58:33 </i>
 </generator>
 <incar>
  <i type="string" name="PREC">normal</i>
  <i type="int" name="IBRION">     2</i>
  <i name="EDIFF">      0.00040000</i>
  <i name="EDIFFG">     -0.01000000</i>
  <i type="int" name="NSW">    15</i>
  <i type="int" name="ISIF">     2</i>
  <i name="ENCUT">    350.00000000</i>
  <i type="int" name="NBANDS">     8</i>
  <i type="logical" name="LREAL"> F  </i>
  <i type="int" name="ISMEAR">     0</i>
  <i name="SIGMA">      0.20000000</i>
  <v type="int" name="KPOINT_BSE">    -1     0     0     0</v>
 </incar>
 <structure name="primitive_cell" >
  <crystal>
   <varray name="basis" >
    <v>       0.00000000       2.65227000       2.65227000 </v>
    <v>       2.65227000       0.00000000       2.65227000 </v>
    <v>       2.65227000       2.65227000       0.00000000 </v>
   </varray>
   <i name="volume">     37.31497840 </i>
   <varray name="rec_basis" >
    <v>      -0.18851776       0.18851776       0.18851776 </v>
    <v>       0.18851776      -0.18851776       0.18851776 </v>
    <v>       0.18851776       0.18851776      -0.18851776 </v>
   </varray>
  </crystal>
  <varray name="positions" >
   <v>       0.00000000       0.00000000       0.00000000 </v>
   <v>       0.25000000       0.25000000       0.25000000 </v>
  </varray>
 </structure>
 <varray name="primitive_index" >
  <v type="int" >        1 </v>
  <v type="int" >        2 </v>
 </varray>
 <kpoints>
  <generation param="Monkhorst-Pack">
   <v type="int" name="divisions">       8        8        8 </v>
   <v name="usershift">      0.00000000       0.00000000       0.00000000 </v>
   <v name="genvec1">      0.12500000       0.00000000      -0.00000000 </v>
   <v name="genvec2">      0.00000000       0.12500000       0.00000000 </v>
   <v name="genvec3">     -0.00000000      -0.00000000       0.12500000 </v>
   <v name="shift">      0.50000000       0.50000000       0.50000000 </v>
  </generation>
  <varray name="kpointlist" >
   <v>       0.06250000       0.06250000       0.06250000 </v>
   <v>       0.18750000       0.06250000       0.06250000 </v>
   <v>       0.31250000       0.06250000       0.06250000 </v>
   <v>       0.43750000       0.06250000       0.06250000 </v>
   <v>      -0.43750000       0.06250000       0.06250000 </v>
   <v>      -0.31250000       0.06250000       0.06250000 </v>
   <v>      -0.18750000       0.06250000       0.06250000 </v>
   <v>      -0.06250000       0.06250000       0.06250000 </v>
   <v>       0.18750000       0.18750000       0.06250000 </v>
   <v>       0.31250000       0.18750000       0.06250000 </v>
   <v>       0.43750000       0.18750000       0.06250000 </v>
   <v>      -0.43750000       0.18750000       0.06250000 </v>
   <v>      -0.31250000       0.18750000       0.06250000 </v>
   <v>      -0.18750000       0.18750000       0.06250000 </v>
   <v>      -0.06250000       0.18750000       0.06250000 </v>
   <v>       0.31250000       0.31250000       0.06250000 </v>
   <v>       0.43750000       0.31250000       0.06250000 </v>
   <v>      -0.43750000       0.31250000       0.06250000 </v>
   <v>      -0.31250000       0.31250000       0.06250000 </v>
   <v>      -0.18750000       0.31250000       0.06250000 </v>
   <v>      -0.06250000       0.31250000       0.06250000 </v>
   <v>       0.43750000       0.43750000       0.06250000 </v>
   <v>      -0.43750000       0.43750000       0.06250000 </v>
   <v>      -0.31250000       0.43750000       0.06250000 </v>
   <v>      -0.18750000       0.43750000       0.06250000 </v>
   <v>      -0.06250000       0.43750000       0.06250000 </v>
   <v>      -0.43750000      -0.43750000       0.06250000 </v>
   <v>      -0.31250000      -0.43750000       0.06250000 </v>
   <v>      -0.18750000      -0.43750000       0.06250000 </v>
   <v>      -0.31250000      -0.31250000       0.06250000 </v>
   <v>      -0.18750000      -0.31250000       0.06250000 </v>
   <v>      -0.18750000      -0.18750000       0.06250000 </v>
   <v>       0.18750000       0.18750000       0.18750000 </v>
   <v>       0.31250000       0.18750000       0.18750000 </v>
   <v>       0.43750000       0.18750000       0.18750000 </v>
   <v>      -0.43750000       0.18750000       0.18750000 </v>
   <v>      -0.31250000       0.18750000       0.18750000 </v>
   <v>      -0.18750000       0.18750000       0.18750000 </v>
   <v>       0.31250000       0.31250000       0.18750000 </v>
   <v>       0.43750000       0.31250000       0.18750000 </v>
   <v>      -0.43750000       0.31250000       0.18750000 </v>
   <v>      -0.31250000       0.31250000       0.18750000 </v>
   <v>      -0.18750000       0.31250000       0.18750000 </v>
   <v>       0.43750000       0.43750000       0.18750000 </v>
   <v>      -0.43750000       0.43750000       0.18750000 </v>
   <v>      -0.31250000       0.43750000       0.18750000 </v>
   <v>      -0.18750000       0.43750000       0.18750000 </v>
   <v>      -0.43750000      -0.43750000       0.18750000 </v>
   <v>      -0.31250000      -0.43750000       0.18750000 </v>
   <v>      -0.31250000      -0.31250000       0.18750000 </v>
   <v>       0.31250000       0.31250000       0.31250000 </v>
   <v>       0.43750000       0.31250000       0.31250000 </v>
   <v>      -0.43750000       0.31250000       0.31250000 </v>
   <v>      -0.31250000       0.31250000       0.31250000 </v>
   <v>       0.43750000       0.43750000       0.31250000 </v>
   <v>      -0.43750000       0.43750000       0.31250000 </v>
   <v>      -0.31250000       0.43750000       0.31250000 </v>
   <v>      -0.43750000      -0.43750000       0.31250000 </v>
   <v>       0.43750000       0.43750000       0.43750000 </v>
   <v>      -0.43750000       0.43750000       0.43750000 </v>
  </varray>
  <varray name="weights" >
   <v>       0.00390625 </v>
   <v>       0.01171875 </v>
   <v>       0.01171875 </v>
   <v>       0.01171875 </v>
   <v>       0.01171875 </v>
   <v>       0.01171875 </v>
   <v>       0.01171875 </v>
   <v>       0.01171875 </v>
   <v>       0.01171875 </v>
   <v>       0.02343750 </v>
   <v>       0.02343750 </v>
   <v>       0.02343750 </v>
   <v>       0.02343750 </v>
   <v>       0.02343750 </v>
   <v>       0.02343750 </v>
   <v>       0.01171875 </v>
   <v>       0.02343750 </v>
   <v>       0.02343750 </v>
   <v>       0.02343750 </v>
   <v>       0.02343750 </v>
   <v>       0.02343750 </v>
   <v>       0.01171875 </v>
   <v>       0.02343750 </v>
   <v>       0.02343750 </v>
   <v>       0.02343750 </v>
   <v>       0.02343750 </v>
   <v>       0.01171875 </v>
   <v>       0.02343750 </v>
   <v>       0.02343750 </v>
   <v>       0.01171875 </v>
   <v>       0.02343750 </v>
   <v>       0.01171875 </v>
   <v>       0.00390625 </v>
   <v>       0.01171875 </v>
   <v>       0.01171875 </v>
   <v>       0.01171875 </v>
   <v>       0.01171875 </v>
   <v>       0.01171875 </v>
   <v>       0.01171875 </v>
   <v>       0.02343750 </v>
   <v>       0.02343750 </v>
   <v>       0.02343750 </v>
   <v>       0.02343750 </v>
   <v>       0.01171875 </v>
   <v>       0.02343750 </v>
   <v>       0.02343750 </v>
   <v>       0.02343750 </v>
   <v>       0.01171875 </v>
   <v>       0.02343750 </v>
   <v>       0.01171875 </v>
   <v>       0.00390625 </v>
   <v>       0.01171875 </v>
   <v>       0.01171875 </v>
   <v>       0.01171875 </v>
   <v>       0.01171875 </v>
   <v>       0.02343750 </v>
   <v>       0.02343750 </v>
   <v>       0.01171875 </v>
   <v>       0.00390625 </v>
   <v>       0.01171875 </v>
  </varray>
 </kpoints>
 <parameters>
  <separator name="general" >
   <i type="string" name="SYSTEM">unknown system</i>
   <i type="logical" name="LCOMPAT"> F  </i>
  </separator>
  <separator name="electronic" >
   <i type="string" name="PREC">normal</i>
   <i name="ENMAX">    350.00000000</i>
   <i name="ENAUG">    322.06900000</i>
   <i name="EDIFF">      0.00040000</i>
   <i type="int" name="IALGO">    38</i>
   <i type="int" name="IWAVPR">    11</i>
   <i type="int" name="NBANDS">     8</i>
   <i name="NELECT">      8.00000000</i>
   <i type="int" name="TURBO">     0</i>
   <i type="int" name="IRESTART">     0</i>
   <i type="int" name="NREBOOT">     0</i>
   <i type="int" name="NMIN">     0</i>
   <i name="EREF">      0.00000000</i>
   <separator name="electronic smearing" >
    <i type="int" name="ISMEAR">     0</i>
    <i name="SIGMA">      0.20000000</i>
    <i name="KSPACING">      0.50000000</i>
    <i type="logical" name="KGAMMA"> T  </i>
   </separator>
   <separator name="electronic projectors" >
    <i type="logical" name="LREAL"> F  </i>
    <v name="ROPT">      0.00000000</v>
    <i type="int" name="LMAXPAW">  -100</i>
    <i type="int" name="LMAXMIX">     2</i>
    <i type="logical" name="NLSPLINE"> F  </i>
   </separator>
   <separator name="electronic startup" >
    <i type="int" name="ISTART">     0</i>
    <i type="int" name="ICHARG">     2</i>
    <i type="int" name="INIWAV">     1</i>
   </separator>
   <separator name="electronic spin" >
    <i type="int" name="ISPIN">     1</i>
    <i type="logical" name="LNONCOLLINEAR"> F  </i>
    <v name="MAGMOM">      1.00000000      1.00000000</v>
    <i name="NUPDOWN">     -1.00000000</i>
    <i type="logical" name="LSORBIT"> F  </i>
    <v name="SAXIS">      0.00000000      0.00000000      1.00000000</v>
    <i type="logical" name="LSPIRAL"> F  </i>
    <v name="QSPIRAL">      0.00000000      0.00000000      0.00000000</v>
    <i type="logical" name="LZEROZ"> F  </i>
   </separator>
   <separator name="electronic exchange-correlation" >
    <i type="logical" name="LASPH"> F  </i>
    <i type="logical" name="LMETAGGA"> F  </i>
   </separator>
   <separator name="electronic convergence" >
    <i type="int" name="NELM">    60</i>
    <i type="int" name="NELMDL">    -5</i>
    <i type="int" name="NELMIN">     2</i>
    <i name="ENINI">    350.00000000</i>
    <separator name="electronic convergence detail" >
     <i type="logical" name="LDIAG"> T  </i>
     <i type="logical" name="LSUBROT"> F  </i>
     <i name="WEIMIN">      0.00100000</i>
     <i name="EBREAK">      0.00001250</i>
     <i name="DEPER">      0.30000000</i>
     <i type="int" name="NRMM">     4</i>
     <i name="TIME">      0.40000000</i>
    </separator>
   </separator>
   <separator name="electronic mixer" >
    <i name="AMIX">      0.40000000</i>
    <i name="BMIX">      1.00000000</i>
    <i name="AMIN">      0.10000000</i>
    <i name="AMIX_MAG">      1.60000000</i>
    <i name="BMIX_MAG">      1.00000000</i>
    <separator name="electronic mixer details" >
     <i type="int" name="IMIX">     4</i>
     <i type="logical" name="MIXFIRST"> F  </i>
     <i type="int" name="MAXMIX">   -45</i>
     <i name="WC">    100.00000000</i>
     <i type="int" name="INIMIX">     1</i>
     <i type="int" name="MIXPRE">     1</i>
     <i type="int" name="MREMOVE">     5</i>
    </separator>
   </separator>
   <separator name="electronic dipolcorrection" >
    <i type="logical" name="LDIPOL"> F  </i>
    <i type="logical" name="LMONO"> F  </i>
    <i type="int" name="IDIPOL">     0</i>
    <i name="EPSILON">      1.00000000</i>
    <v name="DIPOL">   -100.00000000   -100.00000000   -100.00000000</v>
    <i name="EFIELD">      0.00000000</i>
   </separator>
  </separator>
  <separator name="grids" >
   <i type="int" name="NGX">    18</i>
   <i type="int" name="NGY">    18</i>
   <i type="int" name="NGZ">    18</i>
   <i type="int" name="NGXF">    36</i>
   <i type="int" name="NGYF">    36</i>
   <i type="int" name="NGZF">    36</i>
   <i type="logical" name="ADDGRID"> F  </i>
  </separator>
  <separator name="ionic" >
   <i type="int" name="NSW">    15</i>
   <i type="int" name="IBRION">     2</i>
   <i type="int" name="MDALGO">     0</i>
   <i type="int" name="ISIF">     2</i>
   <i name="PSTRESS">      0.00000000</i>
   <i name="EDIFFG">     -0.01000000</i>
   <i type="int" name="NFREE">     1</i>
   <i name="POTIM">      0.50000000</i>
   <i name="SMASS">     -3.00000000</i>
   <i name="SCALEE">      1.00000000</i>
  </separator>
  <separator name="ionic md" >
   <i name="TEBEG">      0.00010000</i>
   <i name="TEEND">      0.00010000</i>
   <i type="int" name="NBLOCK">     1</i>
   <i type="int" name="KBLOCK">    15</i>
   <i type="int" name="NPACO">   256</i>
   <i name="APACO">     16.00000000</i>
  </separator>
  <separator name="symmetry" >
   <i type="int" name="ISYM">     2</i>
   <i name="SYMPREC">      0.00001000</i>
  </separator>
  <separator name="dos" >
   <i type="int" name="LORBIT">     0</i>
   <v name="RWIGS">     -1.00000000</v>
   <i type="int" name="NEDOS">   301</i>
   <i name="EMIN">     10.00000000</i>
   <i name="EMAX">    -10.00000000</i>
   <i name="EFERMI">      0.00000000</i>
  </separator>
  <separator name="writing" >
   <i type="int" name="NWRITE">     2</i>
   <i type="logical" name="LWAVE"> T  </i>
   <i type="logical" name="LDOWNSAMPLE"> F  </i>
   <i type="logical" name="LCHARG"> T  </i>
   <i type="logical" name="LPARD"> F  </i>
   <i type="logical" name="LVTOT"> F  </i>
   <i type="logical" name="LVHAR"> F  </i>
   <i type="logical" name="LELF"> F  </i>
   <i type="logical" name="LOPTICS"> F  </i>
   <v name="STM">      0.00000000      0.00000000      0.00000000      0.00000000      0.00000000      0.00000000      0.00000000</v>
  </separator>
  <separator name="performance" >
   <i type="int" name="NPAR">     8</i>
   <i type="int" name="NSIM">     4</i>
   <i type="int" name="NBLK">    -1</i>
   <i type="logical" name="LPLANE"> T  </i>
   <i type="logical" name="LSCALAPACK"> T  </i>
   <i type="logical" name="LSCAAWARE"> F  </i>
   <i type="logical" name="LSCALU"> F  </i>
   <i type="logical" name="LASYNC"> F  </i>
   <i type="logical" name="LORBITALREAL"> F  </i>
  </separator>
  <separator name="miscellaneous" >
   <i type="int" name="IDIOT">     3</i>
   <i type="int" name="ISPECIAL">     0</i>
   <i type="logical" name="LMUSIC"> F  </i>
   <v name="POMASS">     28.08500000</v>
   <v name="DARWINR">      0.00000000</v>
   <v name="DARWINV">      1.00000000</v>
   <i type="logical" name="LCORR"> T  </i>
  </separator>
  <i type="logical" name="GGA_COMPAT"> T  </i>
  <i type="logical" name="LBERRY"> F  </i>
  <i type="int" name="ICORELEVEL">     0</i>
  <i type="logical" name="LDAU"> F  </i>
  <i type="int" name="I_CONSTRAINED_M">     0</i>
  <separator name="electronic exchange-correlation" >
   <i type="string" name="GGA">--</i>
   <i type="int" name="VOSKOWN">     0</i>
   <i type="logical" name="LHFCALC"> F  </i>
   <i type="string" name="PRECFOCK"></i>
   <i type="logical" name="LSYMGRAD"> F  </i>
   <i type="logical" name="LHFONE"> F  </i>
   <i type="logical" name="LRHFCALC"> F  </i>
   <i type="logical" name="LTHOMAS"> F  </i>
   <i type="logical" name="LMODELHF"> F  </i>
   <i name="ENCUT4O">     -1.00000000</i>
   <i type="int" name="EXXOEP">     0</i>
   <i type="int" name="FOURORBIT">     0</i>
   <i name="AEXX">      0.00000000</i>
   <i name="HFALPHA">      0.00000000</i>
   <i name="MCALPHA">      0.00000000</i>
   <i name="ALDAX">      1.00000000</i>
   <i name="AGGAX">      1.00000000</i>
   <i name="ALDAC">      1.00000000</i>
   <i name="AGGAC">      1.00000000</i>
   <i type="int" name="NKREDX">     1</i>
   <i type="int" name="NKREDY">     1</i>
   <i type="int" name="NKREDZ">     1</i>
   <i type="logical" name="SHIFTRED"> F  </i>
   <i type="logical" name="ODDONLY"> F  </i>
   <i type="logical" name="EVENONLY"> F  </i>
   <i type="int" name="LMAXFOCK">     0</i>
   <i type="int" name="NMAXFOCKAE">     0</i>
   <i type="logical" name="LFOCKAEDFT"> F  </i>
   <i name="HFSCREEN">      0.00000000</i>
   <i name="HFSCREENC">      0.00000000</i>
   <i type="int" name="NBANDSGWLOW">     0</i>
  </separator>
  <separator name="vdW DFT" >
   <i type="logical" name="LUSE_VDW"> F  </i>
   <i name="Zab_VDW">     -0.84910000</i>
   <i name="PARAM1">      0.12340000</i>
   <i name="PARAM2">      1.00000000</i>
   <i name="PARAM3">      0.00000000</i>
  </separator>
  <separator name="model GW" >
   <i type="int" name="MODEL_GW">     0</i>
   <i name="MODEL_EPS0">     11.19449352</i>
   <i name="MODEL_ALPHA">      1.00000000</i>
  </separator>
  <separator name="linear response parameters" >
   <i type="logical" name="LEPSILON"> F  </i>
   <i type="logical" name="LRPA"> F  </i>
   <i type="logical" name="LNABLA"> F  </i>
   <i type="logical" name="LVEL"> F  </i>
   <i type="int" name="KINTER">     0</i>
   <i name="CSHIFT">      0.10000000</i>
   <i name="OMEGAMAX">     -1.00000000</i>
   <i name="DEG_THRESHOLD">      0.00200000</i>
   <i name="RTIME">     -0.10000000</i>
   <i name="WPLASMAI">      0.00000000</i>
   <v name="DFIELD">      0.00000000      0.00000000      0.00000000</v>
   <v name="WPLASMA">      0.00000000      0.00000000      0.00000000      0.00000000      0.00000000      0.00000000      0.00000000      0.00000000      0.00000000</v>
  </separator>
  <separator name="orbital magnetization" >
   <i type="logical" name="NUCIND"> F  </i>
   <v name="MAGPOS">      0.00000000      0.00000000      0.00000000</v>
   <i type="logical" name="LNICSALL"> T  </i>
   <i type="logical" name="ORBITALMAG"> F  </i>
   <i type="logical" name="LMAGBLOCH"> F  </i>
   <i type="logical" name="LCHIMAG"> F  </i>
   <i type="logical" name="LGAUGE"> T  </i>
   <i type="int" name="MAGATOM">     0</i>
   <v name="MAGDIPOL">      0.00000000      0.00000000      0.00000000</v>
   <v name="AVECCONST">      0.00000000      0.00000000      0.00000000</v>
  </separator>
  <separator name="response functions" >
   <i type="logical" name="LADDER"> F  </i>
   <i type="logical" name="LRPAFORCE"> F  </i>
   <i type="logical" name="LFXC"> F  </i>
   <i type="logical" name="LHARTREE"> T  </i>
   <i type="int" name="IBSE">     0</i>
   <v type="int" name="KPOINT">    -1     0     0     0</v>
   <i type="logical" name="LTCTE"> F  </i>
   <i type="logical" name="LTETE"> F  </i>
   <i type="logical" name="LTRIPLET"> F  </i>
   <i type="logical" name="LFXCEPS"> F  </i>
   <i type="logical" name="LFXHEG"> F  </i>
   <i type="int" name="NATURALO">     2</i>
   <i type="logical" name="L2ORDER"> F  </i>
   <i type="logical" name="LMP2LT"> F  </i>
   <i type="logical" name="LUSEW"> F  </i>
   <i name="ENCUTGW">     -2.00000000</i>
   <i name="ENCUTGWSOFT">     -2.00000000</i>
   <i name="ENCUTLF">     -1.00000000</i>
   <i type="int" name="LMAXMP2">    -1</i>
   <i name="SCISSOR">      0.00000000</i>
   <i type="int" name="NOMEGA">     0</i>
   <i type="int" name="NOMEGAR">     0</i>
   <i type="int" name="NBANDSGW">    -1</i>
   <i type="int" name="NBANDSO">    -1</i>
   <i type="int" name="NBANDSV">    -1</i>
   <i type="int" name="NELM">     1</i>
   <i type="int" name="NELMHF">     1</i>
   <i type="int" name="DIM">     3</i>
   <i type="int" name="ANTIRES">     0</i>
   <i name="OMEGAMAX">    -30.00000000</i>
   <i name="OMEGAMIN">    -30.00000000</i>
   <i name="OMEGATL">   -200.00000000</i>
   <i type="int" name="OMEGAGRID">   140</i>
   <i name="CSHIFT">     -0.10000000</i>
   <i type="logical" name="SELFENERGY"> F  </i>
   <i type="logical" name="LSPECTRAL"> F  </i>
   <i type="logical" name="LSPECTRALGW"> F  </i>
   <i type="logical" name="LSINGLES"> F  </i>
   <i type="logical" name="LFERMIGW"> F  </i>
   <i type="logical" name="ODDONLYGW"> F  </i>
   <i type="logical" name="EVENONLYGW"> F  </i>
   <i type="int" name="NKREDLFX">     1</i>
   <i type="int" name="NKREDLFY">     1</i>
   <i type="int" name="NKREDLFZ">     1</i>
   <i type="int" name="MAXMEM">  2800</i>
   <i type="int" name="TELESCOPE">     0</i>
   <i type="int" name="TAUPAR">     1</i>
   <i type="int" name="OMEGAPAR">    -1</i>
   <i name="LAMBDA">      1.00000000</i>
  </separator>
  <separator name="External order field" >
   <i name="OFIELD_KAPPA">      0.00000000</i>
   <v name="OFIELD_K">      0.00000000      0.00000000      0.00000000</v>
   <i name="OFIELD_Q6_NEAR">      0.00000000</i>
   <i name="OFIELD_Q6_FAR">      0.00000000</i>
   <i name="OFIELD_A">      0.00000000</i>
  </separator>
 </parameters>
 <atominfo>
  <atoms>       2 </atoms>
  <types>       1 </types>
  <array name="atoms" >
   <dimension dim="1">ion</dimension>
   <field type="string">element</field>
   <field type="int">atomtype</field>
   <set>
    <rc><c>Si</c><c>   1</c></rc>
    <rc><c>Si</c><c>   1</c></rc>
   </set>
  </array>
  <array name="atomtypes" >
   <dimension dim="1">type</dimension>
   <field type="int">atomspertype</field>
   <field type="string">element</field>
   <field>mass</field>
   <field>valence</field>
   <field type="string">pseudopotential</field>
   <set>
    <rc><c>   2</c><c>Si</c><c>     28.08500000</c><c>      4.00000000</c><c> PAW_PBE Si 05Jan2001                   </c></rc>
   </set>
  </array>
 </atominfo>
 <structure name="initialpos" >
  <crystal>
   <varray name="basis" >
    <v>       0.00000000       2.65227000       2.65227000 </v>
    <v>       2.65227000       0.00000000       2.65227000 </v>
    <v>       2.65227000       2.65227000       0.00000000 </v>
   </varray>
   <i name="volume">     37.31497840 </i>
   <varray name="rec_basis" >
    <v>      -0.18851776       0.18851776       0.18851776 </v>
    <v>       0.18851776      -0.18851776       0.18851776 </v>
    <v>       0.18851776       0.18851776      -0.18851776 </v>
   </varray>
  </crystal>
  <varray name="positions" >
   <v>       0.00000000       0.00000000       0.00000000 </v>
   <v>       0.25000000       0.25000000       0.25000000 </v>
  </varray>
 </structure>
 <calculation>
  <scstep>
   <time name="dav">    0.78    0.78</time>
   <time name="total">    0.83    0.84</time>
   <energy>
    <i name="alphaZ">      3.60853253 </i>
    <i name="ewald">   -233.96938101 </i>
    <i name="hartreedc">     -9.97412236 </i>
    <i name="XCdc">    -18.32016169 </i>
    <i name="pawpsdc">     65.95520812 </i>
    <i name="pawaedc">    -30.76852678 </i>
    <i name="eentropy">     -0.00980443 </i>
    <i name="bandstr">     20.67423680 </i>
    <i name="atom">    206.13125414 </i>
    <i name="e_fr_energy">      3.32723531 </i>
    <i name="e_wo_entrp">      3.33703974 </i>
    <i name="e_0_energy">      3.33213752 </i>
   </energy>
  </scstep>
  <scstep>
   <time name="dav">    1.16    1.17</time>
   <time name="total">    1.17    1.17</time>
   <energy>
    <i name="e_fr_energy">    -10.79450945 </i>
    <i name="e_wo_entrp">    -10.79450579 </i>
    <i name="e_0_energy">    -10.79450762 </i>
   </energy>
  </scstep>
  <scstep>
   <time name="dav">    0.94    0.94</time>
   <time name="total">    0.94    0.95</time>
   <energy>
    <i name="e_fr_energy">    -10.96982583 </i>
    <i name="e_wo_entrp">    -10.96982240 </i>
    <i name="e_0_energy">    -10.96982411 </i>
   </energy>
  </scstep>
  <scstep>
   <time name="dav">    1.28    1.29</time>
   <time name="total">    1.28    1.29</time>
   <energy>
    <i name="e_fr_energy">    -10.97062745 </i>
    <i name="e_wo_entrp">    -10.97062403 </i>
    <i name="e_0_energy">    -10.97062574 </i>
   </energy>
  </scstep>
  <scstep>
   <time name="dav">    0.95    0.96</time>
   <time name="total">    1.02    1.02</time>
   <energy>
    <i name="e_fr_energy">    -10.97062778 </i>
    <i name="e_wo_entrp">    -10.97062436 </i>
    <i name="e_0_energy">    -10.97062607 </i>
   </energy>
  </scstep>
  <scstep>
   <time name="dav">    0.91    0.91</time>
   <time name="total">    1.02    1.02</time>
   <energy>
    <i name="e_fr_energy">    -10.81323612 </i>
    <i name="e_wo_entrp">    -10.81320991 </i>
    <i name="e_0_energy">    -10.81322301 </i>
   </energy>
  </scstep>
  <scstep>
   <time name="dav">    1.01    1.01</time>
   <time name="total">    1.11    1.12</time>
   <energy>
    <i name="e_fr_energy">    -10.74476739 </i>
    <i name="e_wo_entrp">    -10.74456463 </i>
    <i name="e_0_energy">    -10.74466601 </i>
   </energy>
  </scstep>
  <scstep>
   <time name="dav">    0.94    0.94</time>
   <time name="total">    1.04    1.05</time>
   <energy>
    <i name="e_fr_energy">    -10.74607621 </i>
    <i name="e_wo_entrp">    -10.74591318 </i>
    <i name="e_0_energy">    -10.74599470 </i>
   </energy>
  </scstep>
  <scstep>
   <time name="dav">    0.74    0.74</time>
   <time name="total">    0.78    0.79</time>
   <energy>
    <i name="alphaZ">      3.60853253 </i>
    <i name="ewald">   -233.96938101 </i>
    <i name="hartreedc">    -14.08499322 </i>
    <i name="XCdc">    -17.63411581 </i>
    <i name="pawpsdc">     76.85740143 </i>
    <i name="pawaedc">    -41.96258431 </i>
    <i name="eentropy">     -0.00016292 </i>
    <i name="bandstr">     10.30789643 </i>
    <i name="atom">    206.13125414 </i>
    <i name="e_fr_energy">    -10.74615274 </i>
    <i name="e_wo_entrp">    -10.74598981 </i>
    <i name="e_0_energy">    -10.74607127 </i>
   </energy>
  </scstep>
  <structure>
   <crystal>
    <varray name="basis" >
     <v>       0.00000000       2.65227000       2.65227000 </v>
     <v>       2.65227000       0.00000000       2.65227000 </v>
     <v>       2.65227000       2.65227000       0.00000000 </v>
    </varray>
    <i name="volume">     37.31497840 </i>
    <varray name="rec_basis" >
     <v>      -0.18851776       0.18851776       0.18851776 </v>
     <v>       0.18851776      -0.18851776       0.18851776 </v>
     <v>       0.18851776       0.18851776      -0.18851776 </v>
    </varray>
   </crystal>
   <varray name="positions" >
    <v>       0.00000000       0.00000000       0.00000000 </v>
    <v>       0.25000000       0.25000000       0.25000000 </v>
   </varray>
  </structure>
  <varray name="forces" >
   <v>      -0.00000000      -0.00000000      -0.00000000 </v>
   <v>       0.00000000       0.00000000       0.00000000 </v>
  </varray>
  <varray name="stress" >
   <v>      98.35549835       0.00000000      -0.00000000 </v>
   <v>       0.00000000      98.35549835       0.00000000 </v>
   <v>       0.00000000       0.00000000      98.35549835 </v>
  </varray>
  <energy>
   <i name="e_fr_energy">    -10.74615274 </i>
   <i name="e_wo_entrp">    -10.74607127 </i>
   <i name="e_0_energy">     -0.00016292 </i>
  </energy>
  <time name="totalsc">   10.84   11.45</time>
  <eigenvalues>
   <array>
    <dimension dim="1">band</dimension>
    <dimension dim="2">kpoint</dimension>
    <dimension dim="3">spin</dimension>
    <field>eigene</field>
    <field>occ</field>
    <set>
     <set comment="spin 1">
      <set comment="kpoint 1">
       <r>   -5.8421    1.0000 </r>
       <r>    6.0304    1.0000 </r>
       <r>    6.4711    0.9884 </r>
       <r>    6.4711    0.9884 </r>
       <r>    9.2714    0.0000 </r>
       <r>    9.2897    0.0000 </r>
       <r>    9.2897    0.0000 </r>
       <r>   11.0886    0.0000 </r>
      </set>
      <set comment="kpoint 2">
       <r>   -5.5539    1.0000 </r>
       <r>    4.4890    1.0000 </r>
       <r>    5.5909    1.0000 </r>
       <r>    6.3550    0.9990 </r>
       <r>    9.4596    0.0000 </r>
       <r>    9.5455    0.0000 </r>
       <r>    9.9168    0.0000 </r>
       <r>   12.3328    0.0000 </r>
      </set>
      <set comment="kpoint 3">
       <r>   -4.8556    1.0000 </r>
       <r>    2.1227    1.0000 </r>
       <r>    5.0868    1.0000 </r>
       <r>    5.8626    1.0000 </r>
       <r>    9.0758    0.0000 </r>
       <r>   10.0230    0.0000 </r>
       <r>   10.3317    0.0000 </r>
       <r>   13.3503    0.0000 </r>
      </set>
      <set comment="kpoint 4">
       <r>   -3.8676    1.0000 </r>
       <r>    0.0910    1.0000 </r>
       <r>    4.8715    1.0000 </r>
       <r>    5.4279    1.0000 </r>
       <r>    8.7671    0.0000 </r>
       <r>   10.0140    0.0000 </r>
       <r>   10.0285    0.0000 </r>
       <r>   14.5906    0.0000 </r>
      </set>
      <set comment="kpoint 5">
       <r>   -3.3599    1.0000 </r>
       <r>   -0.6843    1.0000 </r>
       <r>    4.9358    1.0000 </r>
       <r>    5.1892    1.0000 </r>
       <r>    8.6802    0.0000 </r>
       <r>    9.7936    0.0000 </r>
       <r>   10.0828    0.0000 </r>
       <r>   14.5863    0.0000 </r>
      </set>
      <set comment="kpoint 6">
       <r>   -4.2091    1.0000 </r>
       <r>    0.6966    1.0000 </r>
       <r>    5.2010    1.0000 </r>
       <r>    5.2450    1.0000 </r>
       <r>    8.8334    0.0000 </r>
       <r>    9.8448    0.0000 </r>
       <r>   10.3975    0.0000 </r>
       <r>   13.6716    0.0000 </r>
      </set>
      <set comment="kpoint 7">
       <r>   -5.1300    1.0000 </r>
       <r>    2.9008    1.0000 </r>
       <r>    5.4861    1.0000 </r>
       <r>    5.7364    1.0000 </r>
       <r>    9.1306    0.0000 </r>
       <r>    9.8346    0.0000 </r>
       <r>   10.5455    0.0000 </r>
       <r>   12.4810    0.0000 </r>
      </set>
      <set comment="kpoint 8">
       <r>   -5.6973    1.0000 </r>
       <r>    5.2783    1.0000 </r>
       <r>    5.9995    1.0000 </r>
       <r>    6.2027    1.0000 </r>
       <r>    8.9861    0.0000 </r>
       <r>    9.7321    0.0000 </r>
       <r>    9.9242    0.0000 </r>
       <r>   11.6898    0.0000 </r>
      </set>
      <set comment="kpoint 9">
       <r>   -5.4090    1.0000 </r>
       <r>    4.3923    1.0000 </r>
       <r>    5.3936    1.0000 </r>
       <r>    5.5229    1.0000 </r>
       <r>    8.5249    0.0000 </r>
       <r>   10.5913    0.0000 </r>
       <r>   10.8481    0.0000 </r>
       <r>   11.4427    0.0000 </r>
      </set>
      <set comment="kpoint 10">
       <r>   -4.8440    1.0000 </r>
       <r>    2.8168    1.0000 </r>
       <r>    4.3533    1.0000 </r>
       <r>    5.2382    1.0000 </r>
       <r>    8.7063    0.0000 </r>
       <r>   10.7284    0.0000 </r>
       <r>   10.9955    0.0000 </r>
       <r>   11.6837    0.0000 </r>
      </set>
      <set comment="kpoint 11">
       <r>   -3.9258    1.0000 </r>
       <r>    0.7982    1.0000 </r>
       <r>    3.8645    1.0000 </r>
       <r>    4.7798    1.0000 </r>
       <r>    8.9196    0.0000 </r>
       <r>   10.4992    0.0000 </r>
       <r>   11.7144    0.0000 </r>
       <r>   11.8598    0.0000 </r>
      </set>
      <set comment="kpoint 12">
       <r>   -3.0731    1.0000 </r>
       <r>   -0.5384    1.0000 </r>
       <r>    3.5670    1.0000 </r>
       <r>    4.6738    1.0000 </r>
       <r>    9.0290    0.0000 </r>
       <r>   10.0981    0.0000 </r>
       <r>   11.5019    0.0000 </r>
       <r>   14.0732    0.0000 </r>
      </set>
      <set comment="kpoint 13">
       <r>   -3.5898    1.0000 </r>
       <r>    0.2290    1.0000 </r>
       <r>    3.4693    1.0000 </r>
       <r>    4.9904    1.0000 </r>
       <r>    9.4111    0.0000 </r>
       <r>    9.9351    0.0000 </r>
       <r>   11.4626    0.0000 </r>
       <r>   13.2409    0.0000 </r>
      </set>
      <set comment="kpoint 14">
       <r>   -4.5751    1.0000 </r>
       <r>    2.1143    1.0000 </r>
       <r>    3.7504    1.0000 </r>
       <r>    5.5492    1.0000 </r>
       <r>    9.7046    0.0000 </r>
       <r>   10.0227    0.0000 </r>
       <r>   11.3602    0.0000 </r>
       <r>   11.7200    0.0000 </r>
      </set>
      <set comment="kpoint 15">
       <r>   -5.2684    1.0000 </r>
       <r>    3.6526    1.0000 </r>
       <r>    4.9678    1.0000 </r>
       <r>    5.9580    1.0000 </r>
       <r>    9.1569    0.0000 </r>
       <r>   10.0678    0.0000 </r>
       <r>   10.6391    0.0000 </r>
       <r>   11.9123    0.0000 </r>
      </set>
      <set comment="kpoint 16">
       <r>   -4.4141    1.0000 </r>
       <r>    2.3550    1.0000 </r>
       <r>    4.1991    1.0000 </r>
       <r>    4.3308    1.0000 </r>
       <r>    7.6364    0.0000 </r>
       <r>    9.3032    0.0000 </r>
       <r>   12.8789    0.0000 </r>
       <r>   12.9756    0.0000 </r>
      </set>
      <set comment="kpoint 17">
       <r>   -3.6016    1.0000 </r>
       <r>    1.0387    1.0000 </r>
       <r>    3.3363    1.0000 </r>
       <r>    3.9489    1.0000 </r>
       <r>    7.9580    0.0000 </r>
       <r>    9.1491    0.0000 </r>
       <r>   12.8186    0.0000 </r>
       <r>   14.0413    0.0000 </r>
      </set>
      <set comment="kpoint 18">
       <r>   -2.6123    1.0000 </r>
       <r>   -0.2764    1.0000 </r>
       <r>    2.4230    1.0000 </r>
       <r>    3.9169    1.0000 </r>
       <r>    8.1848    0.0000 </r>
       <r>   10.9252    0.0000 </r>
       <r>   12.3617    0.0000 </r>
       <r>   13.9658    0.0000 </r>
      </set>
      <set comment="kpoint 19">
       <r>   -2.6833    1.0000 </r>
       <r>   -0.1793    1.0000 </r>
       <r>    2.0258    1.0000 </r>
       <r>    4.2951    1.0000 </r>
       <r>    8.6341    0.0000 </r>
       <r>   11.7707    0.0000 </r>
       <r>   13.1680    0.0000 </r>
       <r>   13.3888    0.0000 </r>
      </set>
      <set comment="kpoint 20">
       <r>   -3.6677    1.0000 </r>
       <r>    0.8153    1.0000 </r>
       <r>    2.7033    1.0000 </r>
       <r>    4.9387    1.0000 </r>
       <r>    9.3747    0.0000 </r>
       <r>   10.6192    0.0000 </r>
       <r>   12.1894    0.0000 </r>
       <r>   12.3710    0.0000 </r>
      </set>
      <set comment="kpoint 21">
       <r>   -4.4508    1.0000 </r>
       <r>    1.4174    1.0000 </r>
       <r>    4.5125    1.0000 </r>
       <r>    5.4458    1.0000 </r>
       <r>    9.2457    0.0000 </r>
       <r>    9.9544    0.0000 </r>
       <r>   10.8291    0.0000 </r>
       <r>   12.5436    0.0000 </r>
      </set>
      <set comment="kpoint 22">
       <r>   -2.9005    1.0000 </r>
       <r>    0.1259    1.0000 </r>
       <r>    3.4489    1.0000 </r>
       <r>    3.6975    1.0000 </r>
       <r>    7.1798    0.0031 </r>
       <r>    7.8836    0.0000 </r>
       <r>   15.2577    0.0000 </r>
       <r>   15.3219    0.0000 </r>
      </set>
      <set comment="kpoint 23">
       <r>   -1.9124    1.0000 </r>
       <r>   -0.9324    1.0000 </r>
       <r>    2.8211    1.0000 </r>
       <r>    3.4207    1.0000 </r>
       <r>    7.6248    0.0000 </r>
       <r>    8.4096    0.0000 </r>
       <r>   14.9950    0.0000 </r>
       <r>   16.1882    0.0000 </r>
      </set>
      <set comment="kpoint 24">
       <r>   -1.9884    1.0000 </r>
       <r>   -0.7736    1.0000 </r>
       <r>    2.0064    1.0000 </r>
       <r>    3.7628    1.0000 </r>
       <r>    8.0220    0.0000 </r>
       <r>   10.7790    0.0000 </r>
       <r>   13.3733    0.0000 </r>
       <r>   14.6129    0.0000 </r>
      </set>
      <set comment="kpoint 25">
       <r>   -2.7992    1.0000 </r>
       <r>   -0.4429    1.0000 </r>
       <r>    2.6886    1.0000 </r>
       <r>    4.4188    1.0000 </r>
       <r>    8.7773    0.0000 </r>
       <r>   10.8942    0.0000 </r>
       <r>   12.5351    0.0000 </r>
       <r>   13.8339    0.0000 </r>
      </set>
      <set comment="kpoint 26">
       <r>   -3.4641    1.0000 </r>
       <r>   -0.3421    1.0000 </r>
       <r>    4.3485    1.0000 </r>
       <r>    5.0749    1.0000 </r>
       <r>    9.0950    0.0000 </r>
       <r>    9.7203    0.0000 </r>
       <r>   10.6036    0.0000 </r>
       <r>   14.3677    0.0000 </r>
      </set>
      <set comment="kpoint 27">
       <r>   -1.9750    1.0000 </r>
       <r>   -0.9569    1.0000 </r>
       <r>    3.3004    1.0000 </r>
       <r>    3.5684    1.0000 </r>
       <r>    7.1509    0.0056 </r>
       <r>    7.5315    0.0000 </r>
       <r>   16.4467    0.0000 </r>
       <r>   16.5839    0.0000 </r>
      </set>
      <set comment="kpoint 28">
       <r>   -2.8036    1.0000 </r>
       <r>    0.0605    1.0000 </r>
       <r>    2.9974    1.0000 </r>
       <r>    3.5910    1.0000 </r>
       <r>    7.7348    0.0000 </r>
       <r>    8.6577    0.0000 </r>
       <r>   13.8696    0.0000 </r>
       <r>   15.2905    0.0000 </r>
      </set>
      <set comment="kpoint 29">
       <r>   -3.2996    1.0000 </r>
       <r>    0.2481    1.0000 </r>
       <r>    3.1186    1.0000 </r>
       <r>    4.2435    1.0000 </r>
       <r>    8.4981    0.0000 </r>
       <r>   11.0907    0.0000 </r>
       <r>   11.5867    0.0000 </r>
       <r>   12.7929    0.0000 </r>
      </set>
      <set comment="kpoint 30">
       <r>   -3.7179    1.0000 </r>
       <r>    1.2434    1.0000 </r>
       <r>    3.7474    1.0000 </r>
       <r>    3.9535    1.0000 </r>
       <r>    7.3398    0.0001 </r>
       <r>    8.4816    0.0000 </r>
       <r>   14.0829    0.0000 </r>
       <r>   14.0980    0.0000 </r>
      </set>
      <set comment="kpoint 31">
       <r>   -4.2858    1.0000 </r>
       <r>    1.9576    1.0000 </r>
       <r>    3.8012    1.0000 </r>
       <r>    4.5134    1.0000 </r>
       <r>    8.2891    0.0000 </r>
       <r>    9.8755    0.0000 </r>
       <r>   11.8341    0.0000 </r>
       <r>   12.8311    0.0000 </r>
      </set>
      <set comment="kpoint 32">
       <r>   -4.9799    1.0000 </r>
       <r>    3.4157    1.0000 </r>
       <r>    4.8031    1.0000 </r>
       <r>    4.8185    1.0000 </r>
       <r>    8.0466    0.0000 </r>
       <r>   10.3093    0.0000 </r>
       <r>   11.7297    0.0000 </r>
       <r>   11.8862    0.0000 </r>
      </set>
      <set comment="kpoint 33">
       <r>   -5.4120    1.0000 </r>
       <r>    3.7074    1.0000 </r>
       <r>    5.9966    1.0000 </r>
       <r>    5.9966    1.0000 </r>
       <r>    9.0554    0.0000 </r>
       <r>    9.9440    0.0000 </r>
       <r>    9.9440    0.0000 </r>
       <r>   13.0395    0.0000 </r>
      </set>
      <set comment="kpoint 34">
       <r>   -4.9890    1.0000 </r>
       <r>    2.8667    1.0000 </r>
       <r>    4.3481    1.0000 </r>
       <r>    6.0343    1.0000 </r>
       <r>    9.7125    0.0000 </r>
       <r>   10.0628    0.0000 </r>
       <r>   10.3973    0.0000 </r>
       <r>   12.6597    0.0000 </r>
      </set>
      <set comment="kpoint 35">
       <r>   -4.1793    1.0000 </r>
       <r>    1.4377    1.0000 </r>
       <r>    3.1768    1.0000 </r>
       <r>    5.4845    1.0000 </r>
       <r>    9.3980    0.0000 </r>
       <r>   10.8544    0.0000 </r>
       <r>   11.1205    0.0000 </r>
       <r>   12.8698    0.0000 </r>
      </set>
      <set comment="kpoint 36">
       <r>   -3.1911    1.0000 </r>
       <r>   -0.2041    1.0000 </r>
       <r>    3.0545    1.0000 </r>
       <r>    4.9042    1.0000 </r>
       <r>    8.7844    0.0000 </r>
       <r>   11.1500    0.0000 </r>
       <r>   11.1911    0.0000 </r>
       <r>   14.6787    0.0000 </r>
      </set>
      <set comment="kpoint 37">
       <r>   -3.1757    1.0000 </r>
       <r>   -0.2329    1.0000 </r>
       <r>    3.3918    1.0000 </r>
       <r>    4.5541    1.0000 </r>
       <r>    8.4463    0.0000 </r>
       <r>   11.2433    0.0000 </r>
       <r>   11.5546    0.0000 </r>
       <r>   12.6986    0.0000 </r>
      </set>
      <set comment="kpoint 38">
       <r>   -4.1635    1.0000 </r>
       <r>    1.4314    1.0000 </r>
       <r>    4.0466    1.0000 </r>
       <r>    4.5201    1.0000 </r>
       <r>    8.3737    0.0000 </r>
       <r>   10.6641    0.0000 </r>
       <r>   11.5825    0.0000 </r>
       <r>   12.0089    0.0000 </r>
      </set>
      <set comment="kpoint 39">
       <r>   -4.7116    1.0000 </r>
       <r>    2.1447    1.0000 </r>
       <r>    4.9580    1.0000 </r>
       <r>    4.9712    1.0000 </r>
       <r>    8.8572    0.0000 </r>
       <r>   10.5016    0.0000 </r>
       <r>   11.2397    0.0000 </r>
       <r>   11.4849    0.0000 </r>
      </set>
      <set comment="kpoint 40">
       <r>   -4.0337    1.0000 </r>
       <r>    1.3944    1.0000 </r>
       <r>    3.2375    1.0000 </r>
       <r>    4.7656    1.0000 </r>
       <r>    9.3395    0.0000 </r>
       <r>   10.4959    0.0000 </r>
       <r>   10.9323    0.0000 </r>
       <r>   12.6236    0.0000 </r>
      </set>
      <set comment="kpoint 41">
       <r>   -3.0596    1.0000 </r>
       <r>    0.2386    1.0000 </r>
       <r>    2.3666    1.0000 </r>
       <r>    4.1293    1.0000 </r>
       <r>    9.7870    0.0000 </r>
       <r>   10.3405    0.0000 </r>
       <r>   11.6970    0.0000 </r>
       <r>   13.7585    0.0000 </r>
      </set>
      <set comment="kpoint 42">
       <r>   -2.5147    1.0000 </r>
       <r>   -0.4490    1.0000 </r>
       <r>    2.3934    1.0000 </r>
       <r>    3.7794    1.0000 </r>
       <r>    9.2762    0.0000 </r>
       <r>   10.6807    0.0000 </r>
       <r>   12.5050    0.0000 </r>
       <r>   13.9922    0.0000 </r>
      </set>
      <set comment="kpoint 43">
       <r>   -3.3764    1.0000 </r>
       <r>    0.6734    1.0000 </r>
       <r>    2.8342    1.0000 </r>
       <r>    3.9803    1.0000 </r>
       <r>    9.0075    0.0000 </r>
       <r>   10.2099    0.0000 </r>
       <r>   11.3638    0.0000 </r>
       <r>   13.9349    0.0000 </r>
      </set>
      <set comment="kpoint 44">
       <r>   -3.4965    1.0000 </r>
       <r>    0.7139    1.0000 </r>
       <r>    3.2148    1.0000 </r>
       <r>    4.1649    1.0000 </r>
       <r>    7.9342    0.0000 </r>
       <r>   10.0670    0.0000 </r>
       <r>   12.7662    0.0000 </r>
       <r>   12.8679    0.0000 </r>
      </set>
      <set comment="kpoint 45">
       <r>   -2.6228    1.0000 </r>
       <r>   -0.0922    1.0000 </r>
       <r>    2.5527    1.0000 </r>
       <r>    3.3845    1.0000 </r>
       <r>    8.7701    0.0000 </r>
       <r>    9.8152    0.0000 </r>
       <r>   12.2682    0.0000 </r>
       <r>   15.2707    0.0000 </r>
      </set>
      <set comment="kpoint 46">
       <r>   -1.7329    1.0000 </r>
       <r>   -0.8910    1.0000 </r>
       <r>    2.1824    1.0000 </r>
       <r>    2.8249    1.0000 </r>
       <r>    9.9413    0.0000 </r>
       <r>   10.8720    0.0000 </r>
       <r>   11.8300    0.0000 </r>
       <r>   12.8364    0.0000 </r>
      </set>
      <set comment="kpoint 47">
       <r>   -2.3887    1.0000 </r>
       <r>   -0.3251    1.0000 </r>
       <r>    2.1933    1.0000 </r>
       <r>    3.3505    1.0000 </r>
       <r>   10.0286    0.0000 </r>
       <r>   10.5297    0.0000 </r>
       <r>   11.4427    0.0000 </r>
       <r>   14.0258    0.0000 </r>
      </set>
      <set comment="kpoint 48">
       <r>   -1.9210    1.0000 </r>
       <r>   -0.8864    1.0000 </r>
       <r>    2.3017    1.0000 </r>
       <r>    3.7979    1.0000 </r>
       <r>    7.4465    0.0000 </r>
       <r>    9.4971    0.0000 </r>
       <r>   14.8575    0.0000 </r>
       <r>   15.2299    0.0000 </r>
      </set>
      <set comment="kpoint 49">
       <r>   -1.8132    1.0000 </r>
       <r>   -0.9038    1.0000 </r>
       <r>    2.4049    1.0000 </r>
       <r>    3.0759    1.0000 </r>
       <r>    8.6472    0.0000 </r>
       <r>    9.6175    0.0000 </r>
       <r>   13.3097    0.0000 </r>
       <r>   14.4798    0.0000 </r>
      </set>
      <set comment="kpoint 50">
       <r>   -2.7303    1.0000 </r>
       <r>   -0.0653    1.0000 </r>
       <r>    2.6084    1.0000 </r>
       <r>    3.9214    1.0000 </r>
       <r>    7.6135    0.0000 </r>
       <r>    9.6839    0.0000 </r>
       <r>   13.8280    0.0000 </r>
       <r>   13.9898    0.0000 </r>
      </set>
      <set comment="kpoint 51">
       <r>   -4.5926    1.0000 </r>
       <r>    1.3613    1.0000 </r>
       <r>    5.5614    1.0000 </r>
       <r>    5.5614    1.0000 </r>
       <r>    8.6304    0.0000 </r>
       <r>   10.1093    0.0000 </r>
       <r>   10.1093    0.0000 </r>
       <r>   14.3793    0.0000 </r>
      </set>
      <set comment="kpoint 52">
       <r>   -4.0707    1.0000 </r>
       <r>    0.7669    1.0000 </r>
       <r>    3.9932    1.0000 </r>
       <r>    5.4720    1.0000 </r>
       <r>    9.2677    0.0000 </r>
       <r>   10.3817    0.0000 </r>
       <r>   10.3879    0.0000 </r>
       <r>   13.7572    0.0000 </r>
      </set>
      <set comment="kpoint 53">
       <r>   -3.2066    1.0000 </r>
       <r>    0.2839    1.0000 </r>
       <r>    2.2818    1.0000 </r>
       <r>    4.8325    1.0000 </r>
       <r>    8.6700    0.0000 </r>
       <r>   11.9314    0.0000 </r>
       <r>   12.1685    0.0000 </r>
       <r>   13.5984    0.0000 </r>
      </set>
      <set comment="kpoint 54">
       <r>   -2.3016    1.0000 </r>
       <r>   -0.5263    1.0000 </r>
       <r>    1.8851    1.0000 </r>
       <r>    4.2364    1.0000 </r>
       <r>    7.9646    0.0000 </r>
       <r>   12.0418    0.0000 </r>
       <r>   13.2821    0.0000 </r>
       <r>   13.8039    0.0000 </r>
      </set>
      <set comment="kpoint 55">
       <r>   -3.7240    1.0000 </r>
       <r>    0.1589    1.0000 </r>
       <r>    4.3858    1.0000 </r>
       <r>    4.8492    1.0000 </r>
       <r>    8.8231    0.0000 </r>
       <r>   10.2619    0.0000 </r>
       <r>   10.8861    0.0000 </r>
       <r>   13.0807    0.0000 </r>
      </set>
      <set comment="kpoint 56">
       <r>   -3.0450    1.0000 </r>
       <r>   -0.1797    1.0000 </r>
       <r>    2.9396    1.0000 </r>
       <r>    4.3117    1.0000 </r>
       <r>    9.5504    0.0000 </r>
       <r>    9.9296    0.0000 </r>
       <r>   12.6719    0.0000 </r>
       <r>   12.8283    0.0000 </r>
      </set>
      <set comment="kpoint 57">
       <r>   -2.1547    1.0000 </r>
       <r>   -0.5763    1.0000 </r>
       <r>    1.9840    1.0000 </r>
       <r>    3.5230    1.0000 </r>
       <r>    9.1349    0.0000 </r>
       <r>   11.4911    0.0000 </r>
       <r>   12.4277    0.0000 </r>
       <r>   13.0376    0.0000 </r>
      </set>
      <set comment="kpoint 58">
       <r>   -2.6483    1.0000 </r>
       <r>   -0.4598    1.0000 </r>
       <r>    2.4825    1.0000 </r>
       <r>    4.3446    1.0000 </r>
       <r>    8.1316    0.0000 </r>
       <r>   11.9987    0.0000 </r>
       <r>   12.3792    0.0000 </r>
       <r>   12.8170    0.0000 </r>
      </set>
      <set comment="kpoint 59">
       <r>   -3.6066    1.0000 </r>
       <r>   -0.4247    1.0000 </r>
       <r>    5.3320    1.0000 </r>
       <r>    5.3320    1.0000 </r>
       <r>    8.3840    0.0000 </r>
       <r>    9.9021    0.0000 </r>
       <r>    9.9021    0.0000 </r>
       <r>   14.4297    0.0000 </r>
      </set>
      <set comment="kpoint 60">
       <r>   -3.2174    1.0000 </r>
       <r>   -0.6026    1.0000 </r>
       <r>    4.0358    1.0000 </r>
       <r>    5.0331    1.0000 </r>
       <r>    8.9190    0.0000 </r>
       <r>   10.1868    0.0000 </r>
       <r>   10.5303    0.0000 </r>
       <r>   15.0246    0.0000 </r>
      </set>
     </set>
    </set>
   </array>
  </eigenvalues>
  <separator name="orbital magnetization" >
   <v name="MAGDIPOLOUT">      0.00000000      0.00000000      0.00000000</v>
  </separator>
  <dos>
   <i name="efermi">      6.79223782 </i>
   <total>
    <array>
     <dimension dim="1">gridpoints</dimension>
     <dimension dim="2">spin</dimension>
     <field>energy</field>
     <field>total</field>
     <field>integrated</field>
     <set>
      <set comment="spin 1">
       <r>    -7.8421     0.0000     0.0000 </r>
       <r>    -7.7540     0.0000     0.0000 </r>
       <r>    -7.6659     0.0000     0.0000 </r>
       <r>    -7.5778     0.0000     0.0000 </r>
       <r>    -7.4897     0.0000     0.0000 </r>
       <r>    -7.4016     0.0000     0.0000 </r>
       <r>    -7.3135     0.0000     0.0000 </r>
       <r>    -7.2255     0.0000     0.0000 </r>
       <r>    -7.1374     0.0000     0.0000 </r>
       <r>    -7.0493     0.0000     0.0000 </r>
       <r>    -6.9612     0.0000     0.0000 </r>
       <r>    -6.8731     0.0000     0.0000 </r>
       <r>    -6.7850     0.0000     0.0000 </r>
       <r>    -6.6969     0.0000     0.0000 </r>
       <r>    -6.6089     0.0000     0.0000 </r>
       <r>    -6.5208     0.0000     0.0000 </r>
       <r>    -6.4327     0.0000     0.0000 </r>
       <r>    -6.3446     0.0000     0.0000 </r>
       <r>    -6.2565     0.0001     0.0000 </r>
       <r>    -6.1684     0.0009     0.0001 </r>
       <r>    -6.0803     0.0040     0.0004 </r>
       <r>    -5.9922     0.0130     0.0016 </r>
       <r>    -5.9042     0.0323     0.0044 </r>
       <r>    -5.8161     0.0631     0.0100 </r>
       <r>    -5.7280     0.1005     0.0188 </r>
       <r>    -5.6399     0.1359     0.0308 </r>
       <r>    -5.5518     0.1656     0.0454 </r>
       <r>    -5.4637     0.1940     0.0625 </r>
       <r>    -5.3756     0.2237     0.0822 </r>
       <r>    -5.2876     0.2473     0.1040 </r>
       <r>    -5.1995     0.2572     0.1266 </r>
       <r>    -5.1114     0.2637     0.1499 </r>
       <r>    -5.0233     0.2879     0.1752 </r>
       <r>    -4.9352     0.3289     0.2042 </r>
       <r>    -4.8471     0.3578     0.2357 </r>
       <r>    -4.7590     0.3560     0.2671 </r>
       <r>    -4.6709     0.3450     0.2975 </r>
       <r>    -4.5829     0.3565     0.3289 </r>
       <r>    -4.4948     0.3887     0.3631 </r>
       <r>    -4.4067     0.4199     0.4001 </r>
       <r>    -4.3186     0.4451     0.4393 </r>
       <r>    -4.2305     0.4719     0.4809 </r>
       <r>    -4.1424     0.4949     0.5245 </r>
       <r>    -4.0543     0.4999     0.5685 </r>
       <r>    -3.9663     0.4843     0.6112 </r>
       <r>    -3.8782     0.4680     0.6524 </r>
       <r>    -3.7901     0.4915     0.6957 </r>
       <r>    -3.7020     0.5754     0.7464 </r>
       <r>    -3.6139     0.6773     0.8060 </r>
       <r>    -3.5258     0.7332     0.8706 </r>
       <r>    -3.4377     0.7367     0.9355 </r>
       <r>    -3.3496     0.7287     0.9997 </r>
       <r>    -3.2616     0.7355     1.0645 </r>
       <r>    -3.1735     0.7500     1.1305 </r>
       <r>    -3.0854     0.7426     1.1960 </r>
       <r>    -2.9973     0.6947     1.2571 </r>
       <r>    -2.9092     0.6460     1.3141 </r>
       <r>    -2.8211     0.6638     1.3725 </r>
       <r>    -2.7330     0.7420     1.4379 </r>
       <r>    -2.6450     0.7923     1.5077 </r>
       <r>    -2.5569     0.7430     1.5731 </r>
       <r>    -2.4688     0.6109     1.6269 </r>
       <r>    -2.3807     0.4691     1.6683 </r>
       <r>    -2.2926     0.3712     1.7010 </r>
       <r>    -2.2045     0.3337     1.7304 </r>
       <r>    -2.1164     0.3613     1.7622 </r>
       <r>    -2.0284     0.4439     1.8013 </r>
       <r>    -1.9403     0.5338     1.8483 </r>
       <r>    -1.8522     0.5611     1.8977 </r>
       <r>    -1.7641     0.4911     1.9410 </r>
       <r>    -1.6760     0.3503     1.9719 </r>
       <r>    -1.5879     0.1984     1.9893 </r>
       <r>    -1.4998     0.0861     1.9969 </r>
       <r>    -1.4117     0.0281     1.9994 </r>
       <r>    -1.3237     0.0103     2.0003 </r>
       <r>    -1.2356     0.0227     2.0023 </r>
       <r>    -1.1475     0.0839     2.0097 </r>
       <r>    -1.0594     0.2275     2.0297 </r>
       <r>    -0.9713     0.4387     2.0684 </r>
       <r>    -0.8832     0.6174     2.1227 </r>
       <r>    -0.7951     0.6778     2.1825 </r>
       <r>    -0.7071     0.6707     2.2415 </r>
       <r>    -0.6190     0.7160     2.3046 </r>
       <r>    -0.5309     0.8404     2.3786 </r>
       <r>    -0.4428     0.9681     2.4639 </r>
       <r>    -0.3547     1.0358     2.5552 </r>
       <r>    -0.2666     1.0374     2.6465 </r>
       <r>    -0.1785     0.9768     2.7326 </r>
       <r>    -0.0904     0.8638     2.8087 </r>
       <r>    -0.0024     0.7556     2.8752 </r>
       <r>     0.0857     0.7204     2.9387 </r>
       <r>     0.1738     0.7392     3.0038 </r>
       <r>     0.2619     0.7037     3.0658 </r>
       <r>     0.3500     0.5484     3.1141 </r>
       <r>     0.4381     0.3500     3.1449 </r>
       <r>     0.5262     0.2523     3.1671 </r>
       <r>     0.6142     0.3162     3.1950 </r>
       <r>     0.7023     0.4660     3.2360 </r>
       <r>     0.7904     0.5592     3.2853 </r>
       <r>     0.8785     0.5184     3.3310 </r>
       <r>     0.9666     0.3954     3.3658 </r>
       <r>     1.0547     0.2867     3.3910 </r>
       <r>     1.1428     0.2403     3.4122 </r>
       <r>     1.2308     0.2679     3.4358 </r>
       <r>     1.3189     0.3587     3.4674 </r>
       <r>     1.4070     0.4413     3.5063 </r>
       <r>     1.4951     0.4203     3.5433 </r>
       <r>     1.5832     0.2950     3.5693 </r>
       <r>     1.6713     0.1745     3.5847 </r>
       <r>     1.7594     0.1683     3.5995 </r>
       <r>     1.8475     0.3155     3.6273 </r>
       <r>     1.9355     0.5744     3.6779 </r>
       <r>     2.0236     0.8340     3.7513 </r>
       <r>     2.1117     0.9916     3.8387 </r>
       <r>     2.1998     1.0401     3.9303 </r>
       <r>     2.2879     1.0456     4.0224 </r>
       <r>     2.3760     1.0395     4.1140 </r>
       <r>     2.4641     0.9884     4.2010 </r>
       <r>     2.5521     0.8965     4.2800 </r>
       <r>     2.6402     0.8551     4.3553 </r>
       <r>     2.7283     0.9270     4.4370 </r>
       <r>     2.8164     1.0493     4.5294 </r>
       <r>     2.9045     1.1028     4.6265 </r>
       <r>     2.9926     1.0528     4.7193 </r>
       <r>     3.0807     0.9727     4.8050 </r>
       <r>     3.1688     0.9510     4.8887 </r>
       <r>     3.2568     1.0277     4.9793 </r>
       <r>     3.3449     1.1753     5.0828 </r>
       <r>     3.4330     1.3048     5.1977 </r>
       <r>     3.5211     1.3488     5.3165 </r>
       <r>     3.6092     1.3410     5.4347 </r>
       <r>     3.6973     1.3585     5.5543 </r>
       <r>     3.7854     1.4073     5.6783 </r>
       <r>     3.8734     1.4173     5.8032 </r>
       <r>     3.9615     1.3383     5.9210 </r>
       <r>     4.0496     1.2090     6.0275 </r>
       <r>     4.1377     1.1440     6.1283 </r>
       <r>     4.2258     1.2297     6.2366 </r>
       <r>     4.3139     1.3989     6.3598 </r>
       <r>     4.4020     1.4699     6.4893 </r>
       <r>     4.4901     1.3457     6.6079 </r>
       <r>     4.5781     1.1170     6.7063 </r>
       <r>     4.6662     0.9634     6.7911 </r>
       <r>     4.7543     0.9896     6.8783 </r>
       <r>     4.8424     1.1422     6.9789 </r>
       <r>     4.9305     1.2679     7.0906 </r>
       <r>     5.0186     1.2500     7.2007 </r>
       <r>     5.1067     1.1009     7.2977 </r>
       <r>     5.1947     0.9322     7.3798 </r>
       <r>     5.2828     0.8382     7.4536 </r>
       <r>     5.3709     0.8332     7.5270 </r>
       <r>     5.4590     0.8589     7.6027 </r>
       <r>     5.5471     0.8156     7.6745 </r>
       <r>     5.6352     0.6588     7.7325 </r>
       <r>     5.7233     0.4689     7.7738 </r>
       <r>     5.8113     0.3632     7.8058 </r>
       <r>     5.8994     0.3674     7.8382 </r>
       <r>     5.9875     0.4041     7.8738 </r>
       <r>     6.0756     0.3861     7.9078 </r>
       <r>     6.1637     0.3069     7.9348 </r>
       <r>     6.2518     0.2233     7.9545 </r>
       <r>     6.3399     0.1712     7.9696 </r>
       <r>     6.4280     0.1383     7.9818 </r>
       <r>     6.5160     0.1028     7.9908 </r>
       <r>     6.6041     0.0625     7.9963 </r>
       <r>     6.6922     0.0292     7.9989 </r>
       <r>     6.7803     0.0115     7.9999 </r>
       <r>     6.8684     0.0105     8.0008 </r>
       <r>     6.9565     0.0292     8.0034 </r>
       <r>     7.0446     0.0722     8.0098 </r>
       <r>     7.1326     0.1303     8.0212 </r>
       <r>     7.2207     0.1796     8.0371 </r>
       <r>     7.3088     0.2118     8.0557 </r>
       <r>     7.3969     0.2507     8.0778 </r>
       <r>     7.4850     0.3221     8.1062 </r>
       <r>     7.5731     0.4148     8.1427 </r>
       <r>     7.6612     0.4823     8.1852 </r>
       <r>     7.7493     0.5022     8.2294 </r>
       <r>     7.8373     0.5184     8.2751 </r>
       <r>     7.9254     0.5736     8.3256 </r>
       <r>     8.0135     0.6313     8.3812 </r>
       <r>     8.1016     0.6344     8.4371 </r>
       <r>     8.1897     0.6015     8.4901 </r>
       <r>     8.2778     0.6014     8.5431 </r>
       <r>     8.3659     0.6721     8.6023 </r>
       <r>     8.4539     0.8032     8.6730 </r>
       <r>     8.5420     0.9760     8.7590 </r>
       <r>     8.6301     1.1705     8.8621 </r>
       <r>     8.7182     1.3233     8.9787 </r>
       <r>     8.8063     1.3607     9.0985 </r>
       <r>     8.8944     1.3081     9.2138 </r>
       <r>     8.9825     1.2776     9.3263 </r>
       <r>     9.0706     1.3249     9.4430 </r>
       <r>     9.1586     1.3935     9.5657 </r>
       <r>     9.2467     1.4068     9.6897 </r>
       <r>     9.3348     1.3419     9.8079 </r>
       <r>     9.4229     1.2221     9.9155 </r>
       <r>     9.5110     1.1119    10.0135 </r>
       <r>     9.5991     1.1022    10.1105 </r>
       <r>     9.6872     1.2446    10.2202 </r>
       <r>     9.7752     1.5101    10.3532 </r>
       <r>     9.8633     1.8103    10.5127 </r>
       <r>     9.9514     2.0191    10.6905 </r>
       <r>    10.0395     2.0051    10.8671 </r>
       <r>    10.1276     1.7477    11.0211 </r>
       <r>    10.2157     1.4113    11.1454 </r>
       <r>    10.3038     1.2105    11.2520 </r>
       <r>    10.3918     1.2189    11.3594 </r>
       <r>    10.4799     1.3546    11.4787 </r>
       <r>    10.5680     1.4876    11.6098 </r>
       <r>    10.6561     1.5337    11.7449 </r>
       <r>    10.7442     1.5063    11.8775 </r>
       <r>    10.8323     1.4577    12.0059 </r>
       <r>    10.9204     1.3696    12.1266 </r>
       <r>    11.0085     1.1958    12.2319 </r>
       <r>    11.0965     0.9823    12.3184 </r>
       <r>    11.1846     0.8364    12.3921 </r>
       <r>    11.2727     0.8286    12.4651 </r>
       <r>    11.3608     0.9627    12.5499 </r>
       <r>    11.4489     1.1669    12.6527 </r>
       <r>    11.5370     1.3367    12.7704 </r>
       <r>    11.6251     1.4383    12.8971 </r>
       <r>    11.7131     1.4933    13.0287 </r>
       <r>    11.8012     1.4733    13.1585 </r>
       <r>    11.8893     1.3226    13.2750 </r>
       <r>    11.9774     1.0654    13.3688 </r>
       <r>    12.0655     0.8163    13.4407 </r>
       <r>    12.1536     0.6935    13.5018 </r>
       <r>    12.2417     0.7342    13.5665 </r>
       <r>    12.3298     0.8808    13.6441 </r>
       <r>    12.4178     1.0347    13.7352 </r>
       <r>    12.5059     1.1303    13.8348 </r>
       <r>    12.5940     1.1790    13.9386 </r>
       <r>    12.6821     1.2426    14.0481 </r>
       <r>    12.7702     1.3298    14.1652 </r>
       <r>    12.8583     1.3356    14.2829 </r>
       <r>    12.9464     1.1731    14.3862 </r>
       <r>    13.0344     0.9280    14.4679 </r>
       <r>    13.1225     0.7640    14.5352 </r>
       <r>    13.2106     0.7355    14.6000 </r>
       <r>    13.2987     0.7605    14.6670 </r>
       <r>    13.3868     0.7205    14.7305 </r>
       <r>    13.4749     0.5876    14.7822 </r>
       <r>    13.5630     0.4667    14.8234 </r>
       <r>    13.6511     0.4844    14.8660 </r>
       <r>    13.7391     0.6630    14.9244 </r>
       <r>    13.8272     0.9213    15.0056 </r>
       <r>    13.9153     1.1437    15.1063 </r>
       <r>    14.0034     1.2199    15.2138 </r>
       <r>    14.0915     1.0808    15.3090 </r>
       <r>    14.1796     0.7839    15.3780 </r>
       <r>    14.2677     0.5119    15.4231 </r>
       <r>    14.3557     0.4012    15.4585 </r>
       <r>    14.4438     0.4283    15.4962 </r>
       <r>    14.5319     0.4860    15.5390 </r>
       <r>    14.6200     0.4898    15.5821 </r>
       <r>    14.7081     0.4201    15.6192 </r>
       <r>    14.7962     0.3267    15.6479 </r>
       <r>    14.8843     0.2779    15.6724 </r>
       <r>    14.9723     0.2881    15.6978 </r>
       <r>    15.0604     0.3298    15.7268 </r>
       <r>    15.1485     0.3943    15.7616 </r>
       <r>    15.2366     0.4683    15.8028 </r>
       <r>    15.3247     0.4796    15.8451 </r>
       <r>    15.4128     0.3743    15.8780 </r>
       <r>    15.5009     0.2098    15.8965 </r>
       <r>    15.5890     0.0827    15.9038 </r>
       <r>    15.6770     0.0228    15.9058 </r>
       <r>    15.7651     0.0050    15.9063 </r>
       <r>    15.8532     0.0046    15.9067 </r>
       <r>    15.9413     0.0169    15.9081 </r>
       <r>    16.0294     0.0485    15.9124 </r>
       <r>    16.1175     0.0970    15.9210 </r>
       <r>    16.2056     0.1378    15.9331 </r>
       <r>    16.2936     0.1485    15.9462 </r>
       <r>    16.3817     0.1395    15.9585 </r>
       <r>    16.4698     0.1331    15.9702 </r>
       <r>    16.5579     0.1261    15.9813 </r>
       <r>    16.6460     0.1029    15.9904 </r>
       <r>    16.7341     0.0653    15.9961 </r>
       <r>    16.8222     0.0307    15.9988 </r>
       <r>    16.9103     0.0104    15.9997 </r>
       <r>    16.9983     0.0025    16.0000 </r>
       <r>    17.0864     0.0004    16.0000 </r>
       <r>    17.1745     0.0000    16.0000 </r>
       <r>    17.2626     0.0000    16.0000 </r>
       <r>    17.3507     0.0000    16.0000 </r>
       <r>    17.4388     0.0000    16.0000 </r>
       <r>    17.5269     0.0000    16.0000 </r>
       <r>    17.6149     0.0000    16.0000 </r>
       <r>    17.7030     0.0000    16.0000 </r>
       <r>    17.7911     0.0000    16.0000 </r>
       <r>    17.8792     0.0000    16.0000 </r>
       <r>    17.9673     0.0000    16.0000 </r>
       <r>    18.0554     0.0000    16.0000 </r>
       <r>    18.1435     0.0000    16.0000 </r>
       <r>    18.2316     0.0000    16.0000 </r>
       <r>    18.3196     0.0000    16.0000 </r>
       <r>    18.4077     0.0000    16.0000 </r>
       <r>    18.4958     0.0000    16.0000 </r>
       <r>    18.5839     0.0000    16.0000 </r>
      </set>
     </set>
    </array>
   </total>
  </dos>
 </calculation>
 <structure name="finalpos" >
  <crystal>
   <varray name="basis" >
    <v>       0.00000000       2.65227000       2.65227000 </v>
    <v>       2.65227000       0.00000000       2.65227000 </v>
    <v>       2.65227000       2.65227000       0.00000000 </v>
   </varray>
   <i name="volume">     37.31497840 </i>
   <varray name="rec_basis" >
    <v>      -0.18851776       0.18851776       0.18851776 </v>
    <v>       0.18851776      -0.18851776       0.18851776 </v>
    <v>       0.18851776       0.18851776      -0.18851776 </v>
   </varray>
  </crystal>
  <varray name="positions" >
   <v>       0.00000000       0.00000000       0.00000000 </v>
   <v>       0.25000000       0.25000000       0.25000000 </v>
  </varray>
 </structure>
</modeling>
