   2   2   0   0
  0.2001288E+02  0.3839590E-09  0.3839590E-09  0.3839590E-09  0.5000000E-15
  1.000000000000000E-004
  CAR 
 unknown system                          
     17.56230036     -8.09903762  301      6.12472245      1.00000000
     -8.099  0.0000E+00  0.0000E+00
     -8.013  0.0000E+00  0.0000E+00
     -7.928  0.0000E+00  0.0000E+00
     -7.842  0.0000E+00  0.0000E+00
     -7.757  0.0000E+00  0.0000E+00
     -7.671  0.0000E+00  0.0000E+00
     -7.586  0.0000E+00  0.0000E+00
     -7.500  0.0000E+00  0.0000E+00
     -7.415  0.0000E+00  0.0000E+00
     -7.329  0.0000E+00  0.0000E+00
     -7.244  0.8653E-18  0.7401E-19
     -7.158  0.1101E-15  0.9489E-17
     -7.073  0.9255E-14  0.8012E-15
     -6.987  0.5463E-12  0.4753E-13
     -6.902  0.2263E-10  0.1984E-11
     -6.816  0.6603E-09  0.5846E-10
     -6.730  0.1362E-07  0.1223E-08
     -6.645  0.1996E-06  0.1829E-07
     -6.559  0.2093E-05  0.1973E-06
     -6.474  0.1583E-04  0.1551E-05
     -6.388  0.8727E-04  0.9016E-05
     -6.303  0.3553E-03  0.3941E-04
     -6.217  0.1087E-02  0.1324E-03
     -6.132  0.2557E-02  0.3511E-03
     -6.046  0.4780E-02  0.7600E-03
     -5.961  0.7416E-02  0.1394E-02
     -5.875  0.1001E-01  0.2250E-02
     -5.790  0.1226E-01  0.3299E-02
     -5.704  0.1415E-01  0.4509E-02
     -5.618  0.1590E-01  0.5870E-02
     -5.533  0.1757E-01  0.7373E-02
     -5.447  0.1893E-01  0.8992E-02
     -5.362  0.2007E-01  0.1071E-01
     -5.276  0.2145E-01  0.1254E-01
     -5.191  0.2310E-01  0.1452E-01
     -5.105  0.2455E-01  0.1662E-01
     -5.020  0.2543E-01  0.1879E-01
     -4.934  0.2602E-01  0.2102E-01
     -4.849  0.2727E-01  0.2335E-01
     -4.763  0.2947E-01  0.2587E-01
     -4.678  0.3149E-01  0.2857E-01
     -4.592  0.3221E-01  0.3132E-01
     -4.506  0.3227E-01  0.3408E-01
     -4.421  0.3321E-01  0.3692E-01
     -4.335  0.3551E-01  0.3996E-01
     -4.250  0.3823E-01  0.4323E-01
     -4.164  0.4064E-01  0.4671E-01
     -4.079  0.4283E-01  0.5037E-01
     -3.993  0.4474E-01  0.5420E-01
     -3.908  0.4638E-01  0.5816E-01
     -3.822  0.4882E-01  0.6234E-01
     -3.737  0.5280E-01  0.6686E-01
     -3.651  0.5663E-01  0.7170E-01
     -3.566  0.5751E-01  0.7662E-01
     -3.480  0.5537E-01  0.8136E-01
     -3.394  0.5259E-01  0.8586E-01
     -3.309  0.4957E-01  0.9010E-01
     -3.223  0.4548E-01  0.9399E-01
     -3.138  0.4224E-01  0.9760E-01
     -3.052  0.4272E-01  0.1013E+00
     -2.967  0.4574E-01  0.1052E+00
     -2.881  0.4673E-01  0.1092E+00
     -2.796  0.4272E-01  0.1128E+00
     -2.710  0.3521E-01  0.1158E+00
     -2.625  0.2813E-01  0.1182E+00
     -2.539  0.2471E-01  0.1203E+00
     -2.454  0.2584E-01  0.1226E+00
     -2.368  0.2930E-01  0.1251E+00
     -2.282  0.3082E-01  0.1277E+00
     -2.197  0.2740E-01  0.1300E+00
     -2.111  0.1980E-01  0.1317E+00
     -2.026  0.1139E-01  0.1327E+00
     -1.940  0.5296E-02  0.1332E+00
     -1.855  0.2894E-02  0.1334E+00
     -1.769  0.4690E-02  0.1338E+00
     -1.684  0.1107E-01  0.1348E+00
     -1.598  0.2054E-01  0.1365E+00
     -1.513  0.2834E-01  0.1389E+00
     -1.427  0.3015E-01  0.1415E+00
     -1.342  0.2750E-01  0.1439E+00
     -1.256  0.2675E-01  0.1462E+00
     -1.170  0.3380E-01  0.1491E+00
     -1.085  0.4996E-01  0.1533E+00
     -0.999  0.7026E-01  0.1593E+00
     -0.914  0.8510E-01  0.1666E+00
     -0.828  0.8676E-01  0.1740E+00
     -0.743  0.7616E-01  0.1806E+00
     -0.657  0.6206E-01  0.1859E+00
     -0.572  0.5197E-01  0.1903E+00
     -0.486  0.4573E-01  0.1942E+00
     -0.401  0.4035E-01  0.1977E+00
     -0.315  0.3707E-01  0.2008E+00
     -0.230  0.3838E-01  0.2041E+00
     -0.144  0.4132E-01  0.2077E+00
     -0.058  0.3992E-01  0.2111E+00
      0.027  0.3360E-01  0.2139E+00
      0.113  0.2821E-01  0.2164E+00
      0.198  0.2778E-01  0.2187E+00
      0.284  0.2939E-01  0.2212E+00
      0.369  0.2785E-01  0.2236E+00
      0.455  0.2286E-01  0.2256E+00
      0.540  0.1890E-01  0.2272E+00
      0.626  0.1955E-01  0.2289E+00
      0.711  0.2391E-01  0.2309E+00
      0.797  0.2712E-01  0.2332E+00
      0.882  0.2487E-01  0.2354E+00
      0.968  0.1850E-01  0.2370E+00
      1.054  0.1352E-01  0.2381E+00
      1.139  0.1354E-01  0.2393E+00
      1.225  0.1753E-01  0.2408E+00
      1.310  0.2247E-01  0.2427E+00
      1.396  0.2714E-01  0.2450E+00
      1.481  0.3299E-01  0.2478E+00
      1.567  0.4163E-01  0.2514E+00
      1.652  0.5327E-01  0.2559E+00
      1.738  0.6651E-01  0.2616E+00
      1.823  0.7704E-01  0.2682E+00
      1.909  0.7923E-01  0.2750E+00
      1.994  0.7289E-01  0.2812E+00
      2.080  0.6505E-01  0.2868E+00
      2.165  0.6305E-01  0.2922E+00
      2.251  0.6741E-01  0.2980E+00
      2.337  0.7257E-01  0.3042E+00
      2.422  0.7404E-01  0.3105E+00
      2.508  0.7312E-01  0.3168E+00
      2.593  0.7310E-01  0.3230E+00
      2.679  0.7434E-01  0.3294E+00
      2.764  0.7641E-01  0.3359E+00
      2.850  0.8142E-01  0.3429E+00
      2.935  0.9027E-01  0.3506E+00
      3.021  0.9817E-01  0.3590E+00
      3.106  0.9933E-01  0.3675E+00
      3.192  0.9514E-01  0.3756E+00
      3.277  0.9284E-01  0.3836E+00
      3.363  0.9552E-01  0.3917E+00
      3.449  0.9801E-01  0.4001E+00
      3.534  0.9536E-01  0.4083E+00
      3.620  0.9027E-01  0.4160E+00
      3.705  0.8817E-01  0.4235E+00
      3.791  0.8947E-01  0.4312E+00
      3.876  0.9007E-01  0.4389E+00
      3.962  0.8688E-01  0.4463E+00
      4.047  0.8125E-01  0.4533E+00
      4.133  0.7765E-01  0.4599E+00
      4.218  0.7929E-01  0.4667E+00
      4.304  0.8377E-01  0.4739E+00
      4.389  0.8422E-01  0.4811E+00
      4.475  0.7747E-01  0.4877E+00
      4.561  0.6830E-01  0.4935E+00
      4.646  0.6262E-01  0.4989E+00
      4.732  0.5995E-01  0.5040E+00
      4.817  0.5565E-01  0.5088E+00
      4.903  0.4807E-01  0.5129E+00
      4.988  0.4027E-01  0.5163E+00
      5.074  0.3489E-01  0.5193E+00
      5.159  0.3113E-01  0.5220E+00
      5.245  0.2728E-01  0.5243E+00
      5.330  0.2346E-01  0.5263E+00
      5.416  0.2057E-01  0.5281E+00
      5.501  0.1818E-01  0.5296E+00
      5.587  0.1513E-01  0.5309E+00
      5.673  0.1141E-01  0.5319E+00
      5.758  0.7830E-02  0.5326E+00
      5.844  0.4824E-02  0.5330E+00
      5.929  0.2519E-02  0.5332E+00
      6.015  0.1045E-02  0.5333E+00
      6.100  0.3531E-03  0.5333E+00
      6.186  0.2377E-03  0.5333E+00
      6.271  0.7014E-03  0.5334E+00
      6.357  0.2094E-02  0.5336E+00
      6.442  0.4665E-02  0.5340E+00
      6.528  0.8015E-02  0.5347E+00
      6.613  0.1161E-01  0.5357E+00
      6.699  0.1574E-01  0.5370E+00
      6.785  0.2081E-01  0.5388E+00
      6.870  0.2596E-01  0.5410E+00
      6.956  0.2987E-01  0.5436E+00
      7.041  0.3225E-01  0.5463E+00
      7.127  0.3351E-01  0.5492E+00
      7.212  0.3449E-01  0.5521E+00
      7.298  0.3716E-01  0.5553E+00
      7.383  0.4330E-01  0.5590E+00
      7.469  0.5215E-01  0.5635E+00
      7.554  0.6011E-01  0.5686E+00
      7.640  0.6386E-01  0.5741E+00
      7.725  0.6448E-01  0.5796E+00
      7.811  0.6748E-01  0.5854E+00
      7.897  0.7652E-01  0.5919E+00
      7.982  0.8832E-01  0.5995E+00
      8.068  0.9672E-01  0.6078E+00
      8.153  0.9997E-01  0.6163E+00
      8.239  0.1007E+00  0.6249E+00
      8.324  0.1006E+00  0.6335E+00
      8.410  0.9854E-01  0.6420E+00
      8.495  0.9294E-01  0.6499E+00
      8.581  0.8490E-01  0.6572E+00
      8.666  0.7742E-01  0.6638E+00
      8.752  0.7335E-01  0.6701E+00
      8.837  0.7450E-01  0.6764E+00
      8.923  0.8196E-01  0.6834E+00
      9.009  0.9516E-01  0.6916E+00
      9.094  0.1104E+00  0.7010E+00
      9.180  0.1224E+00  0.7115E+00
      9.265  0.1276E+00  0.7224E+00
      9.351  0.1266E+00  0.7332E+00
      9.436  0.1217E+00  0.7437E+00
      9.522  0.1143E+00  0.7534E+00
      9.607  0.1057E+00  0.7625E+00
      9.693  0.9766E-01  0.7708E+00
      9.778  0.9172E-01  0.7787E+00
      9.864  0.8788E-01  0.7862E+00
      9.949  0.8707E-01  0.7936E+00
     10.035  0.8974E-01  0.8013E+00
     10.121  0.9218E-01  0.8092E+00
     10.206  0.8972E-01  0.8169E+00
     10.292  0.8357E-01  0.8240E+00
     10.377  0.7920E-01  0.8308E+00
     10.463  0.7860E-01  0.8375E+00
     10.548  0.7885E-01  0.8443E+00
     10.634  0.7853E-01  0.8510E+00
     10.719  0.8032E-01  0.8579E+00
     10.805  0.8576E-01  0.8652E+00
     10.890  0.9157E-01  0.8730E+00
     10.976  0.9271E-01  0.8810E+00
     11.061  0.8735E-01  0.8884E+00
     11.147  0.7791E-01  0.8951E+00
     11.233  0.6860E-01  0.9010E+00
     11.318  0.6298E-01  0.9063E+00
     11.404  0.6323E-01  0.9118E+00
     11.489  0.6915E-01  0.9177E+00
     11.575  0.7734E-01  0.9243E+00
     11.660  0.8298E-01  0.9314E+00
     11.746  0.8382E-01  0.9385E+00
     11.831  0.8076E-01  0.9455E+00
     11.917  0.7463E-01  0.9518E+00
     12.002  0.6550E-01  0.9574E+00
     12.088  0.5523E-01  0.9622E+00
     12.173  0.4805E-01  0.9663E+00
     12.259  0.4723E-01  0.9703E+00
     12.344  0.5225E-01  0.9748E+00
     12.430  0.6007E-01  0.9799E+00
     12.516  0.6764E-01  0.9857E+00
     12.601  0.7272E-01  0.9919E+00
     12.687  0.7378E-01  0.9982E+00
     12.772  0.6939E-01  0.1004E+01
     12.858  0.5938E-01  0.1009E+01
     12.943  0.4707E-01  0.1013E+01
     13.029  0.3721E-01  0.1016E+01
     13.114  0.3145E-01  0.1019E+01
     13.200  0.2842E-01  0.1022E+01
     13.285  0.2713E-01  0.1024E+01
     13.371  0.2842E-01  0.1026E+01
     13.456  0.3406E-01  0.1029E+01
     13.542  0.4440E-01  0.1033E+01
     13.628  0.5513E-01  0.1038E+01
     13.713  0.5768E-01  0.1043E+01
     13.799  0.4768E-01  0.1047E+01
     13.884  0.3127E-01  0.1049E+01
     13.970  0.1856E-01  0.1051E+01
     14.055  0.1350E-01  0.1052E+01
     14.141  0.1302E-01  0.1053E+01
     14.226  0.1273E-01  0.1054E+01
     14.312  0.1152E-01  0.1055E+01
     14.397  0.1146E-01  0.1056E+01
     14.483  0.1420E-01  0.1058E+01
     14.568  0.1819E-01  0.1059E+01
     14.654  0.1951E-01  0.1061E+01
     14.740  0.1594E-01  0.1062E+01
     14.825  0.9539E-02  0.1063E+01
     14.911  0.4166E-02  0.1063E+01
     14.996  0.1576E-02  0.1063E+01
     15.082  0.1340E-02  0.1064E+01
     15.167  0.2566E-02  0.1064E+01
     15.253  0.4343E-02  0.1064E+01
     15.338  0.5690E-02  0.1065E+01
     15.424  0.6163E-02  0.1065E+01
     15.509  0.5926E-02  0.1066E+01
     15.595  0.5023E-02  0.1066E+01
     15.680  0.3481E-02  0.1066E+01
     15.766  0.1839E-02  0.1067E+01
     15.852  0.7117E-03  0.1067E+01
     15.937  0.1982E-03  0.1067E+01
     16.023  0.3936E-04  0.1067E+01
     16.108  0.5548E-05  0.1067E+01
     16.194  0.5530E-06  0.1067E+01
     16.279  0.3887E-07  0.1067E+01
     16.365  0.1922E-08  0.1067E+01
     16.450  0.6673E-10  0.1067E+01
     16.536  0.1623E-11  0.1067E+01
     16.621  0.2764E-13  0.1067E+01
     16.707  0.3292E-15  0.1067E+01
     16.792  0.2077E-17  0.1067E+01
     16.878  0.0000E+00  0.1067E+01
     16.964  0.0000E+00  0.1067E+01
     17.049  0.0000E+00  0.1067E+01
     17.135  0.0000E+00  0.1067E+01
     17.220  0.0000E+00  0.1067E+01
     17.306  0.0000E+00  0.1067E+01
     17.391  0.0000E+00  0.1067E+01
     17.477  0.0000E+00  0.1067E+01
     17.562  0.0000E+00  0.1067E+01
