 vasp.5.4.4.18Apr17-6-g9f103f2a35 (build Dec 09 2018 21:25:21) complex          
  
 executed on IFC18.0.1.163_CrayMP date 2019.03.19  13:30:53
 running on    8 total cores
 distrk:  each k-point on    8 cores,    1 groups
 distr:  one band on NCORES_PER_BAND=   1 cores,    8 groups


--------------------------------------------------------------------------------------------------------


 INCAR:
 POTCAR:   PAW_PBE Si 05Jan2001                   

 ----------------------------------------------------------------------------- 
|                                                                             |
|           W    W    AA    RRRRR   N    N  II  N    N   GGGG   !!!           |
|           W    W   A  A   R    R  NN   N  II  NN   N  G    G  !!!           |
|           W    W  A    A  R    R  N N  N  II  N N  N  G       !!!           |
|           W WW W  AAAAAA  RRRRR   N  N N  II  N  N N  G  GGG   !            |
|           WW  WW  A    A  R   R   N   NN  II  N   NN  G    G                |
|           W    W  A    A  R    R  N    N  II  N    N   GGGG   !!!           |
|                                                                             |
|      For optimal performance we recommend to set                            |
|        NCORE= 4 - approx SQRT( number of cores)                             |
|      NCORE specifies how many cores store one orbital (NPAR=cpu/NCORE).     |
|      This setting can  greatly improve the performance of VASP for DFT.     |
|      The default,   NCORE=1            might be grossly inefficient         |
|      on modern multi-core architectures or massively parallel machines.     |
|      Do your own testing !!!!                                               |
|      Unfortunately you need to use the default for GW and RPA calculations. |
|      (for HF NCORE is supported but not extensively tested yet)             |
|                                                                             |
 ----------------------------------------------------------------------------- 

 POTCAR:   PAW_PBE Si 05Jan2001                   
   VRHFIN =Si: s2p2                                                             
   LEXCH  = PE                                                                  
   EATOM  =   103.0669 eV,    7.5752 Ry                                         
                                                                                
   TITEL  = PAW_PBE Si 05Jan2001                                                
   LULTRA =        F    use ultrasoft PP ?                                      
   IUNSCR =        1    unscreen: 0-lin 1-nonlin 2-no                           
   RPACOR =    1.500    partial core radius                                     
   POMASS =   28.085; ZVAL   =    4.000    mass and valenz                      
   RCORE  =    1.900    outmost cutoff radius                                   
   RWIGS  =    2.480; RWIGS  =    1.312    wigner-seitz radius (au A)           
   ENMAX  =  245.345; ENMIN  =  184.009 eV                                      
   ICORE  =        2    local potential                                         
   LCOR   =        T    correct aug charges                                     
   LPAW   =        T    paw PP                                                  
   EAUG   =  322.069                                                            
   DEXC   =    -.007                                                            
   RMAX   =    2.944    core radius for proj-oper                               
   RAUG   =    1.300    factor for augmentation sphere                          
   RDEP   =    1.993    radius for radial grids                                 
   QCUT   =   -4.246; QGAM   =    8.493    optimization parameters              
                                                                                
   Description                                                                  
     l     E      TYP  RCUT    TYP  RCUT                                        
     0   .000     23  1.900                                                     
     0   .000     23  1.900                                                     
     1   .000     23  1.900                                                     
     1   .000     23  1.900                                                     
     2   .000      7  1.900                                                     
  local pseudopotential read in
  partial core-charges read in
  atomic valenz-charges read in
  non local Contribution for L=           0  read in
    real space projection operators read in
  non local Contribution for L=           0  read in
    real space projection operators read in
  non local Contribution for L=           1  read in
    real space projection operators read in
  non local Contribution for L=           1  read in
    real space projection operators read in
    PAW grid and wavefunctions read in
 
   number of l-projection  operators is LMAX  =           4
   number of lm-projection operators is LMMAX =           8
 
 PAW_PBE Si 05Jan2001                   :
 energy of atom  1       EATOM= -103.0669
 kinetic energy error for atom=    0.0052 (will be added to EATOM!!)
 
 
 POSCAR: Si2                                     
  positions in direct lattice
  No initial velocities read in
 exchange correlation table for  LEXCH =        8
   RHO(1)=    0.500       N(1)  =     2000
   RHO(2)=  100.500       N(2)  =     4000
 


--------------------------------------------------------------------------------------------------------


 ion  position               nearest neighbor table
   1  0.500  0.500  0.500-   2 2.35   2 2.35   2 2.35   2 2.35
   2  0.750  0.750  0.750-   1 2.35   1 2.35   1 2.35   1 2.35
 
  LATTYP: Found a face centered cubic cell.
 ALAT       =     5.4300000000
  
  Lattice vectors:
  
 A1 = (   0.0000000000,   2.7150000000,   2.7150000000)
 A2 = (   2.7150000000,   0.0000000000,   2.7150000000)
 A3 = (   2.7150000000,   2.7150000000,   0.0000000000)


Analysis of symmetry for initial positions (statically):
=====================================================================
 Subroutine PRICEL returns:
 Original cell was already a primitive cell.
 

 Routine SETGRP: Setting up the symmetry group for a 
 face centered cubic supercell.


 Subroutine GETGRP returns: Found 48 space group operations
 (whereof 24 operations were pure point group operations)
 out of a pool of 48 trial point group operations.


The static configuration has the point symmetry T_d .
 The point group associated with its full space group is O_h .


Analysis of symmetry for dynamics (positions and initial velocities):
=====================================================================
 Subroutine PRICEL returns:
 Original cell was already a primitive cell.
 

 Routine SETGRP: Setting up the symmetry group for a 
 face centered cubic supercell.


 Subroutine GETGRP returns: Found 48 space group operations
 (whereof 24 operations were pure point group operations)
 out of a pool of 48 trial point group operations.


The dynamic configuration has the point symmetry T_d .
 The point group associated with its full space group is O_h .


 Subroutine INISYM returns: Found 48 space group operations
 (whereof 24 operations are pure point group operations),
 and found     1 'primitive' translations

 
 
 KPOINTS: Automatic kpoint scheme                 

Automatic generation of k-mesh.
Space group operators:
 irot       det(A)        alpha          n_x          n_y          n_z        tau_x        tau_y        tau_z
    1     1.000000     0.000001     1.000000     0.000000     0.000000     0.000000     0.000000     0.000000
    2     1.000000   120.000000    -0.577350    -0.577350    -0.577350     0.000000     0.000000     0.000000
    3     1.000000   120.000000     0.577350     0.577350     0.577350     0.000000     0.000000     0.000000
    4    -1.000000    90.000000    -0.000000    -0.000000    -1.000000     0.000000     0.000000     0.000000
    5    -1.000000   180.000000    -0.000000     0.707107     0.707107     0.000000     0.000000     0.000000
    6    -1.000000    90.000000    -0.000000     1.000000    -0.000000     0.000000     0.000000     0.000000
    7     1.000000   180.000000     0.000000     0.000000    -1.000000     0.000000     0.000000     0.000000
    8     1.000000   120.000000    -0.577350     0.577350     0.577350     0.000000     0.000000     0.000000
    9     1.000000   120.000000    -0.577350     0.577350    -0.577350     0.000000     0.000000     0.000000
   10    -1.000000    90.000000     0.000000     0.000000     1.000000     0.000000     0.000000     0.000000
   11    -1.000000    90.000000    -1.000000     0.000000    -0.000000     0.000000     0.000000     0.000000
   12    -1.000000   180.000000     0.707107     0.000000     0.707107     0.000000     0.000000     0.000000
   13     1.000000   120.000000     0.577350    -0.577350     0.577350     0.000000     0.000000     0.000000
   14     1.000000   120.000000    -0.577350    -0.577350     0.577350     0.000000     0.000000     0.000000
   15     1.000000   180.000000     1.000000     0.000000     0.000000     0.000000     0.000000     0.000000
   16    -1.000000    90.000000     0.000000    -1.000000     0.000000     0.000000     0.000000     0.000000
   17    -1.000000   180.000000     0.707107     0.707107    -0.000000     0.000000     0.000000     0.000000
   18    -1.000000    90.000000     1.000000     0.000000     0.000000     0.000000     0.000000     0.000000
   19     1.000000   120.000000     0.577350    -0.577350    -0.577350     0.000000     0.000000     0.000000
   20     1.000000   180.000000     0.000000    -1.000000     0.000000     0.000000     0.000000     0.000000
   21     1.000000   120.000000     0.577350     0.577350    -0.577350     0.000000     0.000000     0.000000
   22    -1.000000   180.000000    -0.000000    -0.707107     0.707107     0.000000     0.000000     0.000000
   23    -1.000000   180.000000     0.707107    -0.707107    -0.000000     0.000000     0.000000     0.000000
   24    -1.000000   180.000000    -0.707107     0.000000     0.707107     0.000000     0.000000     0.000000
   25    -1.000000     0.000001     1.000000     0.000000     0.000000     0.250000     0.250000     0.250000
   26    -1.000000   120.000000    -0.577350    -0.577350    -0.577350     0.250000     0.250000     0.250000
   27    -1.000000   120.000000     0.577350     0.577350     0.577350     0.250000     0.250000     0.250000
   28     1.000000    90.000000    -0.000000    -0.000000    -1.000000     0.250000     0.250000     0.250000
   29     1.000000   180.000000    -0.000000     0.707107     0.707107     0.250000     0.250000     0.250000
   30     1.000000    90.000000    -0.000000     1.000000    -0.000000     0.250000     0.250000     0.250000
   31    -1.000000   180.000000     0.000000     0.000000    -1.000000     0.250000     0.250000     0.250000
   32    -1.000000   120.000000    -0.577350     0.577350     0.577350     0.250000     0.250000     0.250000
   33    -1.000000   120.000000    -0.577350     0.577350    -0.577350     0.250000     0.250000     0.250000
   34     1.000000    90.000000     0.000000     0.000000     1.000000     0.250000     0.250000     0.250000
   35     1.000000    90.000000    -1.000000     0.000000    -0.000000     0.250000     0.250000     0.250000
   36     1.000000   180.000000     0.707107     0.000000     0.707107     0.250000     0.250000     0.250000
   37    -1.000000   120.000000     0.577350    -0.577350     0.577350     0.250000     0.250000     0.250000
   38    -1.000000   120.000000    -0.577350    -0.577350     0.577350     0.250000     0.250000     0.250000
   39    -1.000000   180.000000     1.000000     0.000000     0.000000     0.250000     0.250000     0.250000
   40     1.000000    90.000000     0.000000    -1.000000     0.000000     0.250000     0.250000     0.250000
   41     1.000000   180.000000     0.707107     0.707107    -0.000000     0.250000     0.250000     0.250000
   42     1.000000    90.000000     1.000000     0.000000     0.000000     0.250000     0.250000     0.250000
   43    -1.000000   120.000000     0.577350    -0.577350    -0.577350     0.250000     0.250000     0.250000
   44    -1.000000   180.000000     0.000000    -1.000000     0.000000     0.250000     0.250000     0.250000
   45    -1.000000   120.000000     0.577350     0.577350    -0.577350     0.250000     0.250000     0.250000
   46     1.000000   180.000000    -0.000000    -0.707107     0.707107     0.250000     0.250000     0.250000
   47     1.000000   180.000000     0.707107    -0.707107    -0.000000     0.250000     0.250000     0.250000
   48     1.000000   180.000000    -0.707107     0.000000     0.707107     0.250000     0.250000     0.250000
 
 Subroutine IBZKPT returns following result:
 ===========================================
 
 Found    110 irreducible k-points:
 
 Following reciprocal coordinates:
            Coordinates               Weight
  0.050000  0.050000  0.050000     96.000000
  0.150000  0.050000  0.050000    288.000000
  0.250000  0.050000  0.050000    288.000000
  0.350000  0.050000  0.050000    288.000000
  0.450000  0.050000  0.050000    288.000000
 -0.450000  0.050000  0.050000    288.000000
 -0.350000  0.050000  0.050000    288.000000
 -0.250000  0.050000  0.050000    288.000000
 -0.150000  0.050000  0.050000    288.000000
 -0.050000  0.050000  0.050000    288.000000
  0.150000  0.150000  0.050000    288.000000
  0.250000  0.150000  0.050000    576.000000
  0.350000  0.150000  0.050000    576.000000
  0.450000  0.150000  0.050000    576.000000
 -0.450000  0.150000  0.050000    576.000000
 -0.350000  0.150000  0.050000    576.000000
 -0.250000  0.150000  0.050000    576.000000
 -0.150000  0.150000  0.050000    576.000000
 -0.050000  0.150000  0.050000    576.000000
  0.250000  0.250000  0.050000    288.000000
  0.350000  0.250000  0.050000    576.000000
  0.450000  0.250000  0.050000    576.000000
 -0.450000  0.250000  0.050000    576.000000
 -0.350000  0.250000  0.050000    576.000000
 -0.250000  0.250000  0.050000    576.000000
 -0.150000  0.250000  0.050000    576.000000
 -0.050000  0.250000  0.050000    576.000000
  0.350000  0.350000  0.050000    288.000000
  0.450000  0.350000  0.050000    576.000000
 -0.450000  0.350000  0.050000    576.000000
 -0.350000  0.350000  0.050000    576.000000
 -0.250000  0.350000  0.050000    576.000000
 -0.150000  0.350000  0.050000    576.000000
 -0.050000  0.350000  0.050000    576.000000
  0.450000  0.450000  0.050000    288.000000
 -0.450000  0.450000  0.050000    576.000000
 -0.350000  0.450000  0.050000    576.000000
 -0.250000  0.450000  0.050000    576.000000
 -0.150000  0.450000  0.050000    576.000000
 -0.050000  0.450000  0.050000    576.000000
 -0.450000 -0.450000  0.050000    288.000000
 -0.350000 -0.450000  0.050000    576.000000
 -0.250000 -0.450000  0.050000    576.000000
 -0.150000 -0.450000  0.050000    576.000000
 -0.350000 -0.350000  0.050000    288.000000
 -0.250000 -0.350000  0.050000    576.000000
 -0.150000 -0.350000  0.050000    576.000000
 -0.250000 -0.250000  0.050000    288.000000
 -0.150000 -0.250000  0.050000    576.000000
 -0.150000 -0.150000  0.050000    288.000000
  0.150000  0.150000  0.150000     96.000000
  0.250000  0.150000  0.150000    288.000000
  0.350000  0.150000  0.150000    288.000000
  0.450000  0.150000  0.150000    288.000000
 -0.450000  0.150000  0.150000    288.000000
 -0.350000  0.150000  0.150000    288.000000
 -0.250000  0.150000  0.150000    288.000000
 -0.150000  0.150000  0.150000    288.000000
  0.250000  0.250000  0.150000    288.000000
  0.350000  0.250000  0.150000    576.000000
  0.450000  0.250000  0.150000    576.000000
 -0.450000  0.250000  0.150000    576.000000
 -0.350000  0.250000  0.150000    576.000000
 -0.250000  0.250000  0.150000    576.000000
 -0.150000  0.250000  0.150000    576.000000
  0.350000  0.350000  0.150000    288.000000
  0.450000  0.350000  0.150000    576.000000
 -0.450000  0.350000  0.150000    576.000000
 -0.350000  0.350000  0.150000    576.000000
 -0.250000  0.350000  0.150000    576.000000
 -0.150000  0.350000  0.150000    576.000000
  0.450000  0.450000  0.150000    288.000000
 -0.450000  0.450000  0.150000    576.000000
 -0.350000  0.450000  0.150000    576.000000
 -0.250000  0.450000  0.150000    576.000000
 -0.150000  0.450000  0.150000    576.000000
 -0.450000 -0.450000  0.150000    288.000000
 -0.350000 -0.450000  0.150000    576.000000
 -0.250000 -0.450000  0.150000    576.000000
 -0.350000 -0.350000  0.150000    288.000000
 -0.250000 -0.350000  0.150000    576.000000
 -0.250000 -0.250000  0.150000    288.000000
  0.250000  0.250000  0.250000     96.000000
  0.350000  0.250000  0.250000    288.000000
  0.450000  0.250000  0.250000    288.000000
 -0.450000  0.250000  0.250000    288.000000
 -0.350000  0.250000  0.250000    288.000000
 -0.250000  0.250000  0.250000    288.000000
  0.350000  0.350000  0.250000    288.000000
  0.450000  0.350000  0.250000    576.000000
 -0.450000  0.350000  0.250000    576.000000
 -0.350000  0.350000  0.250000    576.000000
 -0.250000  0.350000  0.250000    576.000000
  0.450000  0.450000  0.250000    288.000000
 -0.450000  0.450000  0.250000    576.000000
 -0.350000  0.450000  0.250000    576.000000
 -0.250000  0.450000  0.250000    576.000000
 -0.450000 -0.450000  0.250000    288.000000
 -0.350000 -0.450000  0.250000    576.000000
 -0.350000 -0.350000  0.250000    288.000000
  0.350000  0.350000  0.350000     96.000000
  0.450000  0.350000  0.350000    288.000000
 -0.450000  0.350000  0.350000    288.000000
 -0.350000  0.350000  0.350000    288.000000
  0.450000  0.450000  0.350000    288.000000
 -0.450000  0.450000  0.350000    576.000000
 -0.350000  0.450000  0.350000    576.000000
 -0.450000 -0.450000  0.350000    288.000000
  0.450000  0.450000  0.450000     96.000000
 -0.450000  0.450000  0.450000    288.000000
 
 Following cartesian coordinates:
            Coordinates               Weight
  0.009208  0.009208  0.009208     96.000000
 -0.009208  0.027624  0.027624    288.000000
 -0.027624  0.046041  0.046041    288.000000
 -0.046041  0.064457  0.064457    288.000000
 -0.064457  0.082873  0.082873    288.000000
  0.101289 -0.082873 -0.082873    288.000000
  0.082873 -0.064457 -0.064457    288.000000
  0.064457 -0.046041 -0.046041    288.000000
  0.046041 -0.027624 -0.027624    288.000000
  0.027624 -0.009208 -0.009208    288.000000
  0.009208  0.009208  0.046041    288.000000
 -0.009208  0.027624  0.064457    576.000000
 -0.027624  0.046041  0.082873    576.000000
 -0.046041  0.064457  0.101289    576.000000
  0.119705 -0.101289 -0.064457    576.000000
  0.101289 -0.082873 -0.046041    576.000000
  0.082873 -0.064457 -0.027624    576.000000
  0.064457 -0.046041 -0.009208    576.000000
  0.046041 -0.027624  0.009208    576.000000
  0.009208  0.009208  0.082873    288.000000
 -0.009208  0.027624  0.101289    576.000000
 -0.027624  0.046041  0.119705    576.000000
  0.138122 -0.119705 -0.046041    576.000000
  0.119705 -0.101289 -0.027624    576.000000
  0.101289 -0.082873 -0.009208    576.000000
  0.082873 -0.064457  0.009208    576.000000
  0.064457 -0.046041  0.027624    576.000000
  0.009208  0.009208  0.119705    288.000000
 -0.009208  0.027624  0.138122    576.000000
  0.156538 -0.138122 -0.027624    576.000000
  0.138122 -0.119705 -0.009208    576.000000
  0.119705 -0.101289  0.009208    576.000000
  0.101289 -0.082873  0.027624    576.000000
  0.082873 -0.064457  0.046041    576.000000
  0.009208  0.009208  0.156538    288.000000
  0.174954 -0.156538 -0.009208    576.000000
  0.156538 -0.138122  0.009208    576.000000
  0.138122 -0.119705  0.027624    576.000000
  0.119705 -0.101289  0.046041    576.000000
  0.101289 -0.082873  0.064457    576.000000
  0.009208  0.009208 -0.174954    288.000000
 -0.009208  0.027624 -0.156538    576.000000
 -0.027624  0.046041 -0.138122    576.000000
 -0.046041  0.064457 -0.119705    576.000000
  0.009208  0.009208 -0.138122    288.000000
 -0.009208  0.027624 -0.119705    576.000000
 -0.027624  0.046041 -0.101289    576.000000
  0.009208  0.009208 -0.101289    288.000000
 -0.009208  0.027624 -0.082873    576.000000
  0.009208  0.009208 -0.064457    288.000000
  0.027624  0.027624  0.027624     96.000000
  0.009208  0.046041  0.046041    288.000000
 -0.009208  0.064457  0.064457    288.000000
 -0.027624  0.082873  0.082873    288.000000
  0.138122 -0.082873 -0.082873    288.000000
  0.119705 -0.064457 -0.064457    288.000000
  0.101289 -0.046041 -0.046041    288.000000
  0.082873 -0.027624 -0.027624    288.000000
  0.027624  0.027624  0.064457    288.000000
  0.009208  0.046041  0.082873    576.000000
 -0.009208  0.064457  0.101289    576.000000
  0.156538 -0.101289 -0.064457    576.000000
  0.138122 -0.082873 -0.046041    576.000000
  0.119705 -0.064457 -0.027624    576.000000
  0.101289 -0.046041 -0.009208    576.000000
  0.027624  0.027624  0.101289    288.000000
  0.009208  0.046041  0.119705    576.000000
  0.174954 -0.119705 -0.046041    576.000000
  0.156538 -0.101289 -0.027624    576.000000
  0.138122 -0.082873 -0.009208    576.000000
  0.119705 -0.064457  0.009208    576.000000
  0.027624  0.027624  0.138122    288.000000
  0.193370 -0.138122 -0.027624    576.000000
  0.174954 -0.119705 -0.009208    576.000000
  0.156538 -0.101289  0.009208    576.000000
  0.138122 -0.082873  0.027624    576.000000
  0.027624  0.027624 -0.193370    288.000000
  0.009208  0.046041 -0.174954    576.000000
 -0.009208  0.064457 -0.156538    576.000000
  0.027624  0.027624 -0.156538    288.000000
  0.009208  0.046041 -0.138122    576.000000
  0.027624  0.027624 -0.119705    288.000000
  0.046041  0.046041  0.046041     96.000000
  0.027624  0.064457  0.064457    288.000000
  0.009208  0.082873  0.082873    288.000000
  0.174954 -0.082873 -0.082873    288.000000
  0.156538 -0.064457 -0.064457    288.000000
  0.138122 -0.046041 -0.046041    288.000000
  0.046041  0.046041  0.082873    288.000000
  0.027624  0.064457  0.101289    576.000000
  0.193370 -0.101289 -0.064457    576.000000
  0.174954 -0.082873 -0.046041    576.000000
  0.156538 -0.064457 -0.027624    576.000000
  0.046041  0.046041  0.119705    288.000000
  0.211786 -0.119705 -0.046041    576.000000
  0.193370 -0.101289 -0.027624    576.000000
  0.174954 -0.082873 -0.009208    576.000000
  0.046041  0.046041 -0.211786    288.000000
  0.027624  0.064457 -0.193370    576.000000
  0.046041  0.046041 -0.174954    288.000000
  0.064457  0.064457  0.064457     96.000000
  0.046041  0.082873  0.082873    288.000000
  0.211786 -0.082873 -0.082873    288.000000
  0.193370 -0.064457 -0.064457    288.000000
  0.064457  0.064457  0.101289    288.000000
  0.230203 -0.101289 -0.064457    576.000000
  0.211786 -0.082873 -0.046041    576.000000
  0.064457  0.064457 -0.230203    288.000000
  0.082873  0.082873  0.082873     96.000000
  0.248619 -0.082873 -0.082873    288.000000
 


--------------------------------------------------------------------------------------------------------




 Dimension of arrays:
   k-points           NKPTS =    110   k-points in BZ     NKDIM =    110   number of bands    NBANDS=      8
   number of dos      NEDOS =    301   number of ions     NIONS =      2
   non local maximal  LDIM  =      4   non local SUM 2l+1 LMDIM =      8
   total plane-waves  NPLWV =   4096
   max r-space proj   IRMAX =      1   max aug-charges    IRDMAX=   3621
   dimension x,y,z NGX =    16 NGY =   16 NGZ =   16
   dimension x,y,z NGXF=    32 NGYF=   32 NGZF=   32
   support grid    NGXF=    32 NGYF=   32 NGZF=   32
   ions per type =               2
   NGX,Y,Z   is equivalent  to a cutoff of   6.93,  6.93,  6.93 a.u.
   NGXF,Y,Z  is equivalent  to a cutoff of  13.86, 13.86, 13.86 a.u.

 SYSTEM =  unknown system                          
 POSCAR =  Si2                                     

 Startparameter for this run:
   NWRITE =      2    write-flag & timer
   PREC   = normal    normal or accurate (medium, high low for compatibility)
   ISTART =      0    job   : 0-new  1-cont  2-samecut
   ICHARG =      2    charge: 1-file 2-atom 10-const
   ISPIN  =      1    spin polarized calculation?
   LNONCOLLINEAR =      F non collinear calculations
   LSORBIT =      F    spin-orbit coupling
   INIWAV =      1    electr: 0-lowe 1-rand  2-diag
   LASPH  =      F    aspherical Exc in radial PAW
   METAGGA=      F    non-selfconsistent MetaGGA calc.

 Electronic Relaxation 1
   ENCUT  =  250.0 eV  18.37 Ry    4.29 a.u.   4.95  4.95  4.95*2*pi/ulx,y,z
   ENINI  =  250.0     initial cutoff
   ENAUG  =  322.1 eV  augmentation charge cutoff
   NELM   =     60;   NELMIN=  2; NELMDL= -5     # of ELM steps 
   EDIFF  = 0.4E-03   stopping-criterion for ELM
   LREAL  =      F    real-space projection
   NLSPLINE    = F    spline interpolate recip. space projectors
   LCOMPAT=      F    compatible to vasp.4.4
   GGA_COMPAT  = T    GGA compatible to vasp.4.4-vasp.4.6
   LMAXPAW     = -100 max onsite density
   LMAXMIX     =    2 max onsite mixed and CHGCAR
   VOSKOWN=      0    Vosko Wilk Nusair interpolation
   ROPT   =    0.00000
 Ionic relaxation
   EDIFFG = -.1E-01   stopping-criterion for IOM
   NSW    =     15    number of steps for IOM
   NBLOCK =      1;   KBLOCK =     15    inner block; outer block 
   IBRION =      2    ionic relax: 0-MD 1-quasi-New 2-CG
   NFREE  =      1    steps in history (QN), initial steepest desc. (CG)
   ISIF   =      2    stress and relaxation
   IWAVPR =     11    prediction:  0-non 1-charg 2-wave 3-comb
   ISYM   =      2    0-nonsym 1-usesym 2-fastsym
   LCORR  =      T    Harris-Foulkes like correction to forces

   POTIM  = 0.5000    time-step for ionic-motion
   TEIN   =    0.0    initial temperature
   TEBEG  =    0.0;   TEEND  =   0.0 temperature during run
   SMASS  =  -3.00    Nose mass-parameter (am)
   estimated Nose-frequenzy (Omega)   =  0.10E-29 period in steps =****** mass=  -0.337E-27a.u.
   SCALEE = 1.0000    scale energy and forces
   NPACO  =    256;   APACO  = 16.0  distance and # of slots for P.C.
   PSTRESS=    0.0 pullay stress

  Mass of Ions in am
   POMASS =  28.09
  Ionic Valenz
   ZVAL   =   4.00
  Atomic Wigner-Seitz radii
   RWIGS  =  -1.00
  virtual crystal weights 
   VCA    =   1.00
   NELECT =       8.0000    total number of electrons
   NUPDOWN=      -1.0000    fix difference up-down

 DOS related values:
   EMIN   =  10.00;   EMAX   =-10.00  energy-range for DOS
   EFERMI =   0.00
   ISMEAR =     0;   SIGMA  =   0.20  broadening in eV -4-tet -1-fermi 0-gaus

 Electronic relaxation 2 (details)
   IALGO  =     38    algorithm
   LDIAG  =      T    sub-space diagonalisation (order eigenvalues)
   LSUBROT=      F    optimize rotation matrix (better conditioning)
   TURBO    =      0    0=normal 1=particle mesh
   IRESTART =      0    0=no restart 2=restart with 2 vectors
   NREBOOT  =      0    no. of reboots
   NMIN     =      0    reboot dimension
   EREF     =   0.00    reference energy to select bands
   IMIX   =      4    mixing-type and parameters
     AMIX     =   0.40;   BMIX     =  1.00
     AMIX_MAG =   1.60;   BMIX_MAG =  1.00
     AMIN     =   0.10
     WC   =   100.;   INIMIX=   1;  MIXPRE=   1;  MAXMIX= -45

 Intra band minimization:
   WEIMIN = 0.0010     energy-eigenvalue tresh-hold
   EBREAK =  0.13E-04  absolut break condition
   DEPER  =   0.30     relativ break condition  

   TIME   =   0.40     timestep for ELM

  volume/ion in A,a.u.               =      20.01       135.05
  Fermi-wavevector in a.u.,A,eV,Ry     =   0.957176  1.808800 12.465458  0.916185
  Thomas-Fermi vector in A             =   2.086170
 
 Write flags
   LWAVE        =      T    write WAVECAR
   LDOWNSAMPLE  =      F    k-point downsampling of WAVECAR
   LCHARG       =      T    write CHGCAR
   LVTOT        =      F    write LOCPOT, total local potential
   LVHAR        =      F    write LOCPOT, Hartree potential only
   LELF         =      F    write electronic localiz. function (ELF)
   LORBIT       =      0    0 simple, 1 ext, 2 COOP (PROOUT), +10 PAW based schemes


 Dipole corrections
   LMONO  =      F    monopole corrections only (constant potential shift)
   LDIPOL =      F    correct potential (dipole corrections)
   IDIPOL =      0    1-x, 2-y, 3-z, 4-all directions 
   EPSILON=  1.0000000 bulk dielectric constant

 Exchange correlation treatment:
   GGA     =    --    GGA type
   LEXCH   =     8    internal setting for exchange type
   VOSKOWN=      0    Vosko Wilk Nusair interpolation
   LHFCALC =     F    Hartree Fock is set to
   LHFONE  =     F    Hartree Fock one center treatment
   AEXX    =    0.0000 exact exchange contribution

 Linear response parameters
   LEPSILON=     F    determine dielectric tensor
   LRPA    =     F    only Hartree local field effects (RPA)
   LNABLA  =     F    use nabla operator in PAW spheres
   LVEL    =     F    velocity operator in full k-point grid
   LINTERFAST=   F  fast interpolation
   KINTER  =     0    interpolate to denser k-point grid
   CSHIFT  =0.1000    complex shift for real part using Kramers Kronig
   OMEGAMAX=  -1.0    maximum frequency
   DEG_THRESHOLD= 0.2000000E-02 threshold for treating states as degnerate
   RTIME   =   -0.100 relaxation time in fs
  (WPLASMAI=    0.000 imaginary part of plasma frequency in eV, 0.658/RTIME)
   DFIELD  = 0.0000000 0.0000000 0.0000000 field for delta impulse in time
 
 Orbital magnetization related:
   ORBITALMAG=     F  switch on orbital magnetization
   LCHIMAG   =     F  perturbation theory with respect to B field
   DQ        =  0.001000  dq finite difference perturbation B field
   LLRAUG    =     F  two centre corrections for induced B field



--------------------------------------------------------------------------------------------------------


 conjugate gradient relaxation of ions
 charge density and potential will be updated during run
 non-spin polarized calculation
 Variant of blocked Davidson
 Davidson routine will perform the subspace rotation
 perform sub-space diagonalisation
    after iterative eigenvector-optimisation
 modified Broyden-mixing scheme, WC =      100.0
 initial mixing is a Kerker type mixing with AMIX =  0.4000 and BMIX =      1.0000
 Hartree-type preconditioning will be used
 using additional bands            4
 reciprocal scheme for non local part
 use partial core corrections
 calculate Harris-corrections to forces 
   (improved forces if not selfconsistent)
 use gradient corrections 
 use of overlap-Matrix (Vanderbilt PP)
 Gauss-broadening in eV      SIGMA  =   0.20


--------------------------------------------------------------------------------------------------------


  energy-cutoff  :      250.00
  volume of cell :       40.03
      direct lattice vectors                 reciprocal lattice vectors
     0.000000000  2.715000000  2.715000000    -0.184162063  0.184162063  0.184162063
     2.715000000  0.000000000  2.715000000     0.184162063 -0.184162063  0.184162063
     2.715000000  2.715000000  0.000000000     0.184162063  0.184162063 -0.184162063

  length of vectors
     3.839589822  3.839589822  3.839589822     0.318978049  0.318978049  0.318978049


 
 k-points in units of 2pi/SCALE and weight: Automatic kpoint scheme                 
   0.00920810  0.00920810  0.00920810       0.002
  -0.00920810  0.02762431  0.02762431       0.006
  -0.02762431  0.04604052  0.04604052       0.006
  -0.04604052  0.06445672  0.06445672       0.006
  -0.06445672  0.08287293  0.08287293       0.006
   0.10128913 -0.08287293 -0.08287293       0.006
   0.08287293 -0.06445672 -0.06445672       0.006
   0.06445672 -0.04604052 -0.04604052       0.006
   0.04604052 -0.02762431 -0.02762431       0.006
   0.02762431 -0.00920810 -0.00920810       0.006
   0.00920810  0.00920810  0.04604052       0.006
  -0.00920810  0.02762431  0.06445672       0.012
  -0.02762431  0.04604052  0.08287293       0.012
  -0.04604052  0.06445672  0.10128913       0.012
   0.11970534 -0.10128913 -0.06445672       0.012
   0.10128913 -0.08287293 -0.04604052       0.012
   0.08287293 -0.06445672 -0.02762431       0.012
   0.06445672 -0.04604052 -0.00920810       0.012
   0.04604052 -0.02762431  0.00920810       0.012
   0.00920810  0.00920810  0.08287293       0.006
  -0.00920810  0.02762431  0.10128913       0.012
  -0.02762431  0.04604052  0.11970534       0.012
   0.13812155 -0.11970534 -0.04604052       0.012
   0.11970534 -0.10128913 -0.02762431       0.012
   0.10128913 -0.08287293 -0.00920810       0.012
   0.08287293 -0.06445672  0.00920810       0.012
   0.06445672 -0.04604052  0.02762431       0.012
   0.00920810  0.00920810  0.11970534       0.006
  -0.00920810  0.02762431  0.13812155       0.012
   0.15653775 -0.13812155 -0.02762431       0.012
   0.13812155 -0.11970534 -0.00920810       0.012
   0.11970534 -0.10128913  0.00920810       0.012
   0.10128913 -0.08287293  0.02762431       0.012
   0.08287293 -0.06445672  0.04604052       0.012
   0.00920810  0.00920810  0.15653775       0.006
   0.17495396 -0.15653775 -0.00920810       0.012
   0.15653775 -0.13812155  0.00920810       0.012
   0.13812155 -0.11970534  0.02762431       0.012
   0.11970534 -0.10128913  0.04604052       0.012
   0.10128913 -0.08287293  0.06445672       0.012
   0.00920810  0.00920810 -0.17495396       0.006
  -0.00920810  0.02762431 -0.15653775       0.012
  -0.02762431  0.04604052 -0.13812155       0.012
  -0.04604052  0.06445672 -0.11970534       0.012
   0.00920810  0.00920810 -0.13812155       0.006
  -0.00920810  0.02762431 -0.11970534       0.012
  -0.02762431  0.04604052 -0.10128913       0.012
   0.00920810  0.00920810 -0.10128913       0.006
  -0.00920810  0.02762431 -0.08287293       0.012
   0.00920810  0.00920810 -0.06445672       0.006
   0.02762431  0.02762431  0.02762431       0.002
   0.00920810  0.04604052  0.04604052       0.006
  -0.00920810  0.06445672  0.06445672       0.006
  -0.02762431  0.08287293  0.08287293       0.006
   0.13812155 -0.08287293 -0.08287293       0.006
   0.11970534 -0.06445672 -0.06445672       0.006
   0.10128913 -0.04604052 -0.04604052       0.006
   0.08287293 -0.02762431 -0.02762431       0.006
   0.02762431  0.02762431  0.06445672       0.006
   0.00920810  0.04604052  0.08287293       0.012
  -0.00920810  0.06445672  0.10128913       0.012
   0.15653775 -0.10128913 -0.06445672       0.012
   0.13812155 -0.08287293 -0.04604052       0.012
   0.11970534 -0.06445672 -0.02762431       0.012
   0.10128913 -0.04604052 -0.00920810       0.012
   0.02762431  0.02762431  0.10128913       0.006
   0.00920810  0.04604052  0.11970534       0.012
   0.17495396 -0.11970534 -0.04604052       0.012
   0.15653775 -0.10128913 -0.02762431       0.012
   0.13812155 -0.08287293 -0.00920810       0.012
   0.11970534 -0.06445672  0.00920810       0.012
   0.02762431  0.02762431  0.13812155       0.006
   0.19337017 -0.13812155 -0.02762431       0.012
   0.17495396 -0.11970534 -0.00920810       0.012
   0.15653775 -0.10128913  0.00920810       0.012
   0.13812155 -0.08287293  0.02762431       0.012
   0.02762431  0.02762431 -0.19337017       0.006
   0.00920810  0.04604052 -0.17495396       0.012
  -0.00920810  0.06445672 -0.15653775       0.012
   0.02762431  0.02762431 -0.15653775       0.006
   0.00920810  0.04604052 -0.13812155       0.012
   0.02762431  0.02762431 -0.11970534       0.006
   0.04604052  0.04604052  0.04604052       0.002
   0.02762431  0.06445672  0.06445672       0.006
   0.00920810  0.08287293  0.08287293       0.006
   0.17495396 -0.08287293 -0.08287293       0.006
   0.15653775 -0.06445672 -0.06445672       0.006
   0.13812155 -0.04604052 -0.04604052       0.006
   0.04604052  0.04604052  0.08287293       0.006
   0.02762431  0.06445672  0.10128913       0.012
   0.19337017 -0.10128913 -0.06445672       0.012
   0.17495396 -0.08287293 -0.04604052       0.012
   0.15653775 -0.06445672 -0.02762431       0.012
   0.04604052  0.04604052  0.11970534       0.006
   0.21178637 -0.11970534 -0.04604052       0.012
   0.19337017 -0.10128913 -0.02762431       0.012
   0.17495396 -0.08287293 -0.00920810       0.012
   0.04604052  0.04604052 -0.21178637       0.006
   0.02762431  0.06445672 -0.19337017       0.012
   0.04604052  0.04604052 -0.17495396       0.006
   0.06445672  0.06445672  0.06445672       0.002
   0.04604052  0.08287293  0.08287293       0.006
   0.21178637 -0.08287293 -0.08287293       0.006
   0.19337017 -0.06445672 -0.06445672       0.006
   0.06445672  0.06445672  0.10128913       0.006
   0.23020258 -0.10128913 -0.06445672       0.012
   0.21178637 -0.08287293 -0.04604052       0.012
   0.06445672  0.06445672 -0.23020258       0.006
   0.08287293  0.08287293  0.08287293       0.002
   0.24861878 -0.08287293 -0.08287293       0.006
 
 k-points in reciprocal lattice and weights: Automatic kpoint scheme                 
   0.05000000  0.05000000  0.05000000       0.002
   0.15000000  0.05000000  0.05000000       0.006
   0.25000000  0.05000000  0.05000000       0.006
   0.35000000  0.05000000  0.05000000       0.006
   0.45000000  0.05000000  0.05000000       0.006
  -0.45000000  0.05000000  0.05000000       0.006
  -0.35000000  0.05000000  0.05000000       0.006
  -0.25000000  0.05000000  0.05000000       0.006
  -0.15000000  0.05000000  0.05000000       0.006
  -0.05000000  0.05000000  0.05000000       0.006
   0.15000000  0.15000000  0.05000000       0.006
   0.25000000  0.15000000  0.05000000       0.012
   0.35000000  0.15000000  0.05000000       0.012
   0.45000000  0.15000000  0.05000000       0.012
  -0.45000000  0.15000000  0.05000000       0.012
  -0.35000000  0.15000000  0.05000000       0.012
  -0.25000000  0.15000000  0.05000000       0.012
  -0.15000000  0.15000000  0.05000000       0.012
  -0.05000000  0.15000000  0.05000000       0.012
   0.25000000  0.25000000  0.05000000       0.006
   0.35000000  0.25000000  0.05000000       0.012
   0.45000000  0.25000000  0.05000000       0.012
  -0.45000000  0.25000000  0.05000000       0.012
  -0.35000000  0.25000000  0.05000000       0.012
  -0.25000000  0.25000000  0.05000000       0.012
  -0.15000000  0.25000000  0.05000000       0.012
  -0.05000000  0.25000000  0.05000000       0.012
   0.35000000  0.35000000  0.05000000       0.006
   0.45000000  0.35000000  0.05000000       0.012
  -0.45000000  0.35000000  0.05000000       0.012
  -0.35000000  0.35000000  0.05000000       0.012
  -0.25000000  0.35000000  0.05000000       0.012
  -0.15000000  0.35000000  0.05000000       0.012
  -0.05000000  0.35000000  0.05000000       0.012
   0.45000000  0.45000000  0.05000000       0.006
  -0.45000000  0.45000000  0.05000000       0.012
  -0.35000000  0.45000000  0.05000000       0.012
  -0.25000000  0.45000000  0.05000000       0.012
  -0.15000000  0.45000000  0.05000000       0.012
  -0.05000000  0.45000000  0.05000000       0.012
  -0.45000000 -0.45000000  0.05000000       0.006
  -0.35000000 -0.45000000  0.05000000       0.012
  -0.25000000 -0.45000000  0.05000000       0.012
  -0.15000000 -0.45000000  0.05000000       0.012
  -0.35000000 -0.35000000  0.05000000       0.006
  -0.25000000 -0.35000000  0.05000000       0.012
  -0.15000000 -0.35000000  0.05000000       0.012
  -0.25000000 -0.25000000  0.05000000       0.006
  -0.15000000 -0.25000000  0.05000000       0.012
  -0.15000000 -0.15000000  0.05000000       0.006
   0.15000000  0.15000000  0.15000000       0.002
   0.25000000  0.15000000  0.15000000       0.006
   0.35000000  0.15000000  0.15000000       0.006
   0.45000000  0.15000000  0.15000000       0.006
  -0.45000000  0.15000000  0.15000000       0.006
  -0.35000000  0.15000000  0.15000000       0.006
  -0.25000000  0.15000000  0.15000000       0.006
  -0.15000000  0.15000000  0.15000000       0.006
   0.25000000  0.25000000  0.15000000       0.006
   0.35000000  0.25000000  0.15000000       0.012
   0.45000000  0.25000000  0.15000000       0.012
  -0.45000000  0.25000000  0.15000000       0.012
  -0.35000000  0.25000000  0.15000000       0.012
  -0.25000000  0.25000000  0.15000000       0.012
  -0.15000000  0.25000000  0.15000000       0.012
   0.35000000  0.35000000  0.15000000       0.006
   0.45000000  0.35000000  0.15000000       0.012
  -0.45000000  0.35000000  0.15000000       0.012
  -0.35000000  0.35000000  0.15000000       0.012
  -0.25000000  0.35000000  0.15000000       0.012
  -0.15000000  0.35000000  0.15000000       0.012
   0.45000000  0.45000000  0.15000000       0.006
  -0.45000000  0.45000000  0.15000000       0.012
  -0.35000000  0.45000000  0.15000000       0.012
  -0.25000000  0.45000000  0.15000000       0.012
  -0.15000000  0.45000000  0.15000000       0.012
  -0.45000000 -0.45000000  0.15000000       0.006
  -0.35000000 -0.45000000  0.15000000       0.012
  -0.25000000 -0.45000000  0.15000000       0.012
  -0.35000000 -0.35000000  0.15000000       0.006
  -0.25000000 -0.35000000  0.15000000       0.012
  -0.25000000 -0.25000000  0.15000000       0.006
   0.25000000  0.25000000  0.25000000       0.002
   0.35000000  0.25000000  0.25000000       0.006
   0.45000000  0.25000000  0.25000000       0.006
  -0.45000000  0.25000000  0.25000000       0.006
  -0.35000000  0.25000000  0.25000000       0.006
  -0.25000000  0.25000000  0.25000000       0.006
   0.35000000  0.35000000  0.25000000       0.006
   0.45000000  0.35000000  0.25000000       0.012
  -0.45000000  0.35000000  0.25000000       0.012
  -0.35000000  0.35000000  0.25000000       0.012
  -0.25000000  0.35000000  0.25000000       0.012
   0.45000000  0.45000000  0.25000000       0.006
  -0.45000000  0.45000000  0.25000000       0.012
  -0.35000000  0.45000000  0.25000000       0.012
  -0.25000000  0.45000000  0.25000000       0.012
  -0.45000000 -0.45000000  0.25000000       0.006
  -0.35000000 -0.45000000  0.25000000       0.012
  -0.35000000 -0.35000000  0.25000000       0.006
   0.35000000  0.35000000  0.35000000       0.002
   0.45000000  0.35000000  0.35000000       0.006
  -0.45000000  0.35000000  0.35000000       0.006
  -0.35000000  0.35000000  0.35000000       0.006
   0.45000000  0.45000000  0.35000000       0.006
  -0.45000000  0.45000000  0.35000000       0.012
  -0.35000000  0.45000000  0.35000000       0.012
  -0.45000000 -0.45000000  0.35000000       0.006
   0.45000000  0.45000000  0.45000000       0.002
  -0.45000000  0.45000000  0.45000000       0.006
 
 position of ions in fractional coordinates (direct lattice) 
   0.50000000  0.50000000  0.50000000
   0.75000000  0.75000000  0.75000000
 
 position of ions in cartesian coordinates  (Angst):
   2.71500000  2.71500000  2.71500000
   4.07250000  4.07250000  4.07250000
 


--------------------------------------------------------------------------------------------------------


 k-point  1 :   0.0500 0.0500 0.0500  plane waves:     338
 k-point  2 :   0.1500 0.0500 0.0500  plane waves:     345
 k-point  3 :   0.2500 0.0500 0.0500  plane waves:     356
 k-point  4 :   0.3500 0.0500 0.0500  plane waves:     356
 k-point  5 :   0.4500 0.0500 0.0500  plane waves:     360
 k-point  6 :  -0.4500 0.0500 0.0500  plane waves:     358
 k-point  7 :  -0.3500 0.0500 0.0500  plane waves:     355
 k-point  8 :  -0.2500 0.0500 0.0500  plane waves:     353
 k-point  9 :  -0.1500 0.0500 0.0500  plane waves:     354
 k-point 10 :  -0.0500 0.0500 0.0500  plane waves:     341
 k-point 11 :   0.1500 0.1500 0.0500  plane waves:     347
 k-point 12 :   0.2500 0.1500 0.0500  plane waves:     352
 k-point 13 :   0.3500 0.1500 0.0500  plane waves:     359
 k-point 14 :   0.4500 0.1500 0.0500  plane waves:     362
 k-point 15 :  -0.4500 0.1500 0.0500  plane waves:     361
 k-point 16 :  -0.3500 0.1500 0.0500  plane waves:     361
 k-point 17 :  -0.2500 0.1500 0.0500  plane waves:     355
 k-point 18 :  -0.1500 0.1500 0.0500  plane waves:     357
 k-point 19 :  -0.0500 0.1500 0.0500  plane waves:     351
 k-point 20 :   0.2500 0.2500 0.0500  plane waves:     349
 k-point 21 :   0.3500 0.2500 0.0500  plane waves:     354
 k-point 22 :   0.4500 0.2500 0.0500  plane waves:     356
 k-point 23 :  -0.4500 0.2500 0.0500  plane waves:     363
 k-point 24 :  -0.3500 0.2500 0.0500  plane waves:     363
 k-point 25 :  -0.2500 0.2500 0.0500  plane waves:     358
 k-point 26 :  -0.1500 0.2500 0.0500  plane waves:     357
 k-point 27 :  -0.0500 0.2500 0.0500  plane waves:     356
 k-point 28 :   0.3500 0.3500 0.0500  plane waves:     353
 k-point 29 :   0.4500 0.3500 0.0500  plane waves:     355
 k-point 30 :  -0.4500 0.3500 0.0500  plane waves:     358
 k-point 31 :  -0.3500 0.3500 0.0500  plane waves:     365
 k-point 32 :  -0.2500 0.3500 0.0500  plane waves:     364
 k-point 33 :  -0.1500 0.3500 0.0500  plane waves:     361
 k-point 34 :  -0.0500 0.3500 0.0500  plane waves:     357
 k-point 35 :   0.4500 0.4500 0.0500  plane waves:     355
 k-point 36 :  -0.4500 0.4500 0.0500  plane waves:     358
 k-point 37 :  -0.3500 0.4500 0.0500  plane waves:     364
 k-point 38 :  -0.2500 0.4500 0.0500  plane waves:     363
 k-point 39 :  -0.1500 0.4500 0.0500  plane waves:     364
 k-point 40 :  -0.0500 0.4500 0.0500  plane waves:     360
 k-point 41 :  -0.4500-0.4500 0.0500  plane waves:     353
 k-point 42 :  -0.3500-0.4500 0.0500  plane waves:     358
 k-point 43 :  -0.2500-0.4500 0.0500  plane waves:     358
 k-point 44 :  -0.1500-0.4500 0.0500  plane waves:     362
 k-point 45 :  -0.3500-0.3500 0.0500  plane waves:     355
 k-point 46 :  -0.2500-0.3500 0.0500  plane waves:     353
 k-point 47 :  -0.1500-0.3500 0.0500  plane waves:     356
 k-point 48 :  -0.2500-0.2500 0.0500  plane waves:     350
 k-point 49 :  -0.1500-0.2500 0.0500  plane waves:     353
 k-point 50 :  -0.1500-0.1500 0.0500  plane waves:     353
 k-point 51 :   0.1500 0.1500 0.1500  plane waves:     350
 k-point 52 :   0.2500 0.1500 0.1500  plane waves:     357
 k-point 53 :   0.3500 0.1500 0.1500  plane waves:     357
 k-point 54 :   0.4500 0.1500 0.1500  plane waves:     356
 k-point 55 :  -0.4500 0.1500 0.1500  plane waves:     361
 k-point 56 :  -0.3500 0.1500 0.1500  plane waves:     363
 k-point 57 :  -0.2500 0.1500 0.1500  plane waves:     361
 k-point 58 :  -0.1500 0.1500 0.1500  plane waves:     354
 k-point 59 :   0.2500 0.2500 0.1500  plane waves:     355
 k-point 60 :   0.3500 0.2500 0.1500  plane waves:     355
 k-point 61 :   0.4500 0.2500 0.1500  plane waves:     357
 k-point 62 :  -0.4500 0.2500 0.1500  plane waves:     362
 k-point 63 :  -0.3500 0.2500 0.1500  plane waves:     365
 k-point 64 :  -0.2500 0.2500 0.1500  plane waves:     364
 k-point 65 :  -0.1500 0.2500 0.1500  plane waves:     355
 k-point 66 :   0.3500 0.3500 0.1500  plane waves:     353
 k-point 67 :   0.4500 0.3500 0.1500  plane waves:     355
 k-point 68 :  -0.4500 0.3500 0.1500  plane waves:     360
 k-point 69 :  -0.3500 0.3500 0.1500  plane waves:     367
 k-point 70 :  -0.2500 0.3500 0.1500  plane waves:     364
 k-point 71 :  -0.1500 0.3500 0.1500  plane waves:     358
 k-point 72 :   0.4500 0.4500 0.1500  plane waves:     356
 k-point 73 :  -0.4500 0.4500 0.1500  plane waves:     359
 k-point 74 :  -0.3500 0.4500 0.1500  plane waves:     365
 k-point 75 :  -0.2500 0.4500 0.1500  plane waves:     369
 k-point 76 :  -0.1500 0.4500 0.1500  plane waves:     363
 k-point 77 :  -0.4500-0.4500 0.1500  plane waves:     360
 k-point 78 :  -0.3500-0.4500 0.1500  plane waves:     363
 k-point 79 :  -0.2500-0.4500 0.1500  plane waves:     361
 k-point 80 :  -0.3500-0.3500 0.1500  plane waves:     360
 k-point 81 :  -0.2500-0.3500 0.1500  plane waves:     352
 k-point 82 :  -0.2500-0.2500 0.1500  plane waves:     353
 k-point 83 :   0.2500 0.2500 0.2500  plane waves:     356
 k-point 84 :   0.3500 0.2500 0.2500  plane waves:     354
 k-point 85 :   0.4500 0.2500 0.2500  plane waves:     361
 k-point 86 :  -0.4500 0.2500 0.2500  plane waves:     363
 k-point 87 :  -0.3500 0.2500 0.2500  plane waves:     363
 k-point 88 :  -0.2500 0.2500 0.2500  plane waves:     362
 k-point 89 :   0.3500 0.3500 0.2500  plane waves:     358
 k-point 90 :   0.4500 0.3500 0.2500  plane waves:     358
 k-point 91 :  -0.4500 0.3500 0.2500  plane waves:     361
 k-point 92 :  -0.3500 0.3500 0.2500  plane waves:     365
 k-point 93 :  -0.2500 0.3500 0.2500  plane waves:     365
 k-point 94 :   0.4500 0.4500 0.2500  plane waves:     358
 k-point 95 :  -0.4500 0.4500 0.2500  plane waves:     363
 k-point 96 :  -0.3500 0.4500 0.2500  plane waves:     366
 k-point 97 :  -0.2500 0.4500 0.2500  plane waves:     367
 k-point 98 :  -0.4500-0.4500 0.2500  plane waves:     361
 k-point 99 :  -0.3500-0.4500 0.2500  plane waves:     364
 k-point ** :  -0.3500-0.3500 0.2500  plane waves:     367
 k-point ** :   0.3500 0.3500 0.3500  plane waves:     359
 k-point ** :   0.4500 0.3500 0.3500  plane waves:     357
 k-point ** :  -0.4500 0.3500 0.3500  plane waves:     361
 k-point ** :  -0.3500 0.3500 0.3500  plane waves:     364
 k-point ** :   0.4500 0.4500 0.3500  plane waves:     361
 k-point ** :  -0.4500 0.4500 0.3500  plane waves:     365
 k-point ** :  -0.3500 0.4500 0.3500  plane waves:     365
 k-point ** :  -0.4500-0.4500 0.3500  plane waves:     363
 k-point ** :   0.4500 0.4500 0.4500  plane waves:     356
 k-point ** :  -0.4500 0.4500 0.4500  plane waves:     363

 maximum and minimum number of plane-waves per node :       369      338

 maximum number of plane-waves:       369
 maximum index in each direction: 
   IXMAX=    5   IYMAX=    5   IZMAX=    4
   IXMIN=   -5   IYMIN=   -5   IZMIN=   -5


 serial   3D FFT for wavefunctions
 parallel 3D FFT for charge:
    minimum data exchange during FFTs selected (reduces bandwidth)


 total amount of memory used by VASP MPI-rank0    33886. kBytes
=======================================================================

   base      :      30000. kBytes
   nonl-proj :       2659. kBytes
   fftplans  :        160. kBytes
   grid      :        372. kBytes
   one-center:          6. kBytes
   wavefun   :        689. kBytes
 
     INWAV:  cpu time    0.0000: real time    0.0004
 Broyden mixing: mesh for mixing (old mesh)
   NGX =  9   NGY =  9   NGZ =  9
  (NGX  = 32   NGY  = 32   NGZ  = 32)
  gives a total of    729 points

 initial charge density was supplied:
 charge density of overlapping atoms calculated
 number of electron       8.0000000 magnetization 
 keeping initial charge density in first step


--------------------------------------------------------------------------------------------------------


 Maximum index for augmentation-charges          433 (set IRDMAX)


--------------------------------------------------------------------------------------------------------


 First call to EWALD:  gamma=   0.518
 Maximum number of real-space cells 3x 3x 3
 Maximum number of reciprocal cells 3x 3x 3

    FEWALD:  cpu time    0.0040: real time    0.0072


--------------------------------------- Iteration      1(   1)  ---------------------------------------


    POTLOK:  cpu time    0.0280: real time    0.0390
    SETDIJ:  cpu time    0.0080: real time    0.0090
     EDDAV:  cpu time    0.9360: real time    0.9398
       DOS:  cpu time    0.0080: real time    0.0054
    --------------------------------------------
      LOOP:  cpu time    0.9800: real time    0.9940

 eigenvalue-minimisations  :  1808
 total energy-change (2. order) : 0.6100957E+00  (-0.2338038E+03)
 number of electron       8.0000000 magnetization 
 augmentation part        8.0000000 magnetization 

 Free energy of the ion-electron system (eV)
  ---------------------------------------------------
  alpha Z        PSCENC =         3.36414203
  Ewald energy   TEWEN  =      -228.56352493
  -Hartree energ DENC   =       -11.00108243
  -exchange      EXHF   =         0.00000000
  -V(xc)+E(xc)   XCENC  =       -18.60181216
  PAW double counting   =        65.95520812      -30.76852678
  entropy T*S    EENTRO =        -0.01451159
  eigenvalues    EBANDS =        14.11670426
  atomic energy  EATOM  =       206.12349923
  Solvation  Ediel_sol  =         0.00000000
  ---------------------------------------------------
  free energy    TOTEN  =         0.61009574 eV

  energy without entropy =        0.62460733  energy(sigma->0) =        0.61735154


--------------------------------------------------------------------------------------------------------




--------------------------------------- Iteration      1(   2)  ---------------------------------------


     EDDAV:  cpu time    1.4880: real time    1.5058
       DOS:  cpu time    0.0040: real time    0.0047
    --------------------------------------------
      LOOP:  cpu time    1.4920: real time    1.5105

 eigenvalue-minimisations  :  2784
 total energy-change (2. order) :-0.1149538E+02  (-0.1102930E+02)
 number of electron       8.0000000 magnetization 
 augmentation part        8.0000000 magnetization 

 Free energy of the ion-electron system (eV)
  ---------------------------------------------------
  alpha Z        PSCENC =         3.36414203
  Ewald energy   TEWEN  =      -228.56352493
  -Hartree energ DENC   =       -11.00108243
  -exchange      EXHF   =         0.00000000
  -V(xc)+E(xc)   XCENC  =       -18.60181216
  PAW double counting   =        65.95520812      -30.76852678
  entropy T*S    EENTRO =        -0.00000126
  eigenvalues    EBANDS =         2.60680998
  atomic energy  EATOM  =       206.12349923
  Solvation  Ediel_sol  =         0.00000000
  ---------------------------------------------------
  free energy    TOTEN  =       -10.88528821 eV

  energy without entropy =      -10.88528695  energy(sigma->0) =      -10.88528758


--------------------------------------------------------------------------------------------------------




--------------------------------------- Iteration      1(   3)  ---------------------------------------


     EDDAV:  cpu time    1.1760: real time    1.1805
       DOS:  cpu time    0.0040: real time    0.0048
    --------------------------------------------
      LOOP:  cpu time    1.1800: real time    1.1853

 eigenvalue-minimisations  :  2216
 total energy-change (2. order) :-0.1172050E+00  (-0.1172050E+00)
 number of electron       8.0000000 magnetization 
 augmentation part        8.0000000 magnetization 

 Free energy of the ion-electron system (eV)
  ---------------------------------------------------
  alpha Z        PSCENC =         3.36414203
  Ewald energy   TEWEN  =      -228.56352493
  -Hartree energ DENC   =       -11.00108243
  -exchange      EXHF   =         0.00000000
  -V(xc)+E(xc)   XCENC  =       -18.60181216
  PAW double counting   =        65.95520812      -30.76852678
  entropy T*S    EENTRO =        -0.00000173
  eigenvalues    EBANDS =         2.48960541
  atomic energy  EATOM  =       206.12349923
  Solvation  Ediel_sol  =         0.00000000
  ---------------------------------------------------
  free energy    TOTEN  =       -11.00249326 eV

  energy without entropy =      -11.00249152  energy(sigma->0) =      -11.00249239


--------------------------------------------------------------------------------------------------------




--------------------------------------- Iteration      1(   4)  ---------------------------------------


     EDDAV:  cpu time    1.5600: real time    1.5622
       DOS:  cpu time    0.0040: real time    0.0048
    --------------------------------------------
      LOOP:  cpu time    1.5640: real time    1.5670

 eigenvalue-minimisations  :  2880
 total energy-change (2. order) :-0.3503166E-03  (-0.3503168E-03)
 number of electron       8.0000000 magnetization 
 augmentation part        8.0000000 magnetization 

 Free energy of the ion-electron system (eV)
  ---------------------------------------------------
  alpha Z        PSCENC =         3.36414203
  Ewald energy   TEWEN  =      -228.56352493
  -Hartree energ DENC   =       -11.00108243
  -exchange      EXHF   =         0.00000000
  -V(xc)+E(xc)   XCENC  =       -18.60181216
  PAW double counting   =        65.95520812      -30.76852678
  entropy T*S    EENTRO =        -0.00000173
  eigenvalues    EBANDS =         2.48925509
  atomic energy  EATOM  =       206.12349923
  Solvation  Ediel_sol  =         0.00000000
  ---------------------------------------------------
  free energy    TOTEN  =       -11.00284357 eV

  energy without entropy =      -11.00284184  energy(sigma->0) =      -11.00284271


--------------------------------------------------------------------------------------------------------




--------------------------------------- Iteration      1(   5)  ---------------------------------------


     EDDAV:  cpu time    1.1720: real time    1.1779
       DOS:  cpu time    0.0040: real time    0.0048
    CHARGE:  cpu time    0.0280: real time    0.0278
    MIXING:  cpu time    0.0040: real time    0.0020
    --------------------------------------------
      LOOP:  cpu time    1.2080: real time    1.2126

 eigenvalue-minimisations  :  2216
 total energy-change (2. order) :-0.2324369E-06  (-0.2319655E-06)
 number of electron       7.9999994 magnetization 
 augmentation part       -0.4695034 magnetization 

 Broyden mixing:
  rms(total) = 0.29990E+00    rms(broyden)= 0.29985E+00
  rms(prec ) = 0.87016E+00
  weight for this iteration     100.00

 Free energy of the ion-electron system (eV)
  ---------------------------------------------------
  alpha Z        PSCENC =         3.36414203
  Ewald energy   TEWEN  =      -228.56352493
  -Hartree energ DENC   =       -11.00108243
  -exchange      EXHF   =         0.00000000
  -V(xc)+E(xc)   XCENC  =       -18.60181216
  PAW double counting   =        65.95520812      -30.76852678
  entropy T*S    EENTRO =        -0.00000173
  eigenvalues    EBANDS =         2.48925486
  atomic energy  EATOM  =       206.12349923
  Solvation  Ediel_sol  =         0.00000000
  ---------------------------------------------------
  free energy    TOTEN  =       -11.00284381 eV

  energy without entropy =      -11.00284207  energy(sigma->0) =      -11.00284294


--------------------------------------------------------------------------------------------------------




--------------------------------------- Iteration      1(   6)  ---------------------------------------


    POTLOK:  cpu time    0.0160: real time    0.0245
    SETDIJ:  cpu time    0.0120: real time    0.0086
     EDDAV:  cpu time    1.0960: real time    1.0977
       DOS:  cpu time    0.0040: real time    0.0048
    CHARGE:  cpu time    0.0280: real time    0.0266
    MIXING:  cpu time    0.0000: real time    0.0016
    --------------------------------------------
      LOOP:  cpu time    1.1560: real time    1.1638

 eigenvalue-minimisations  :  2096
 total energy-change (2. order) : 0.1241155E+00  (-0.8166586E-02)
 number of electron       7.9999994 magnetization 
 augmentation part       -0.4636850 magnetization 

 Broyden mixing:
  rms(total) = 0.17761E+00    rms(broyden)= 0.17761E+00
  rms(prec ) = 0.51202E+00
  weight for this iteration     100.00

 eigenvalues of (default mixing * dielectric matrix)
  average eigenvalue GAMMA=   2.4321
  2.4321

 Free energy of the ion-electron system (eV)
  ---------------------------------------------------
  alpha Z        PSCENC =         3.36414203
  Ewald energy   TEWEN  =      -228.56352493
  -Hartree energ DENC   =       -12.49420262
  -exchange      EXHF   =         0.00000000
  -V(xc)+E(xc)   XCENC  =       -18.36135479
  PAW double counting   =        70.20011377      -35.12651689
  entropy T*S    EENTRO =        -0.00001033
  eigenvalues    EBANDS =         3.97912628
  atomic energy  EATOM  =       206.12349923
  Solvation  Ediel_sol  =         0.00000000
  ---------------------------------------------------
  free energy    TOTEN  =       -10.87872827 eV

  energy without entropy =      -10.87871793  energy(sigma->0) =      -10.87872310


--------------------------------------------------------------------------------------------------------




--------------------------------------- Iteration      1(   7)  ---------------------------------------


    POTLOK:  cpu time    0.0200: real time    0.0252
    SETDIJ:  cpu time    0.0080: real time    0.0085
     EDDAV:  cpu time    1.1920: real time    1.1896
       DOS:  cpu time    0.0040: real time    0.0052
    CHARGE:  cpu time    0.0240: real time    0.0261
    MIXING:  cpu time    0.0040: real time    0.0016
    --------------------------------------------
      LOOP:  cpu time    1.2520: real time    1.2564

 eigenvalue-minimisations  :  2272
 total energy-change (2. order) : 0.5642045E-01  (-0.1498767E-01)
 number of electron       7.9999994 magnetization 
 augmentation part       -0.4567284 magnetization 

 Broyden mixing:
  rms(total) = 0.15284E-01    rms(broyden)= 0.15283E-01
  rms(prec ) = 0.39842E-01
  weight for this iteration     100.00

 eigenvalues of (default mixing * dielectric matrix)
  average eigenvalue GAMMA=   2.4590
  2.4590  2.4590

 Free energy of the ion-electron system (eV)
  ---------------------------------------------------
  alpha Z        PSCENC =         3.36414203
  Ewald energy   TEWEN  =      -228.56352493
  -Hartree energ DENC   =       -14.89199160
  -exchange      EXHF   =         0.00000000
  -V(xc)+E(xc)   XCENC  =       -17.96935254
  PAW double counting   =        75.87174235      -40.94332698
  entropy T*S    EENTRO =        -0.00007148
  eigenvalues    EBANDS =         6.18657610
  atomic energy  EATOM  =       206.12349923
  Solvation  Ediel_sol  =         0.00000000
  ---------------------------------------------------
  free energy    TOTEN  =       -10.82230782 eV

  energy without entropy =      -10.82223634  energy(sigma->0) =      -10.82227208


--------------------------------------------------------------------------------------------------------




--------------------------------------- Iteration      1(   8)  ---------------------------------------


    POTLOK:  cpu time    0.0200: real time    0.0264
    SETDIJ:  cpu time    0.0080: real time    0.0086
     EDDAV:  cpu time    1.0560: real time    1.0549
       DOS:  cpu time    0.0040: real time    0.0050
    CHARGE:  cpu time    0.0240: real time    0.0262
    MIXING:  cpu time    0.0040: real time    0.0016
    --------------------------------------------
      LOOP:  cpu time    1.1160: real time    1.1227

 eigenvalue-minimisations  :  1984
 total energy-change (2. order) :-0.1289006E-02  (-0.3888838E-03)
 number of electron       7.9999994 magnetization 
 augmentation part       -0.4576899 magnetization 

 Broyden mixing:
  rms(total) = 0.24887E-02    rms(broyden)= 0.24870E-02
  rms(prec ) = 0.82247E-02
  weight for this iteration     100.00

 eigenvalues of (default mixing * dielectric matrix)
  average eigenvalue GAMMA=   2.1262
  1.3740  2.8077  2.1970

 Free energy of the ion-electron system (eV)
  ---------------------------------------------------
  alpha Z        PSCENC =         3.36414203
  Ewald energy   TEWEN  =      -228.56352493
  -Hartree energ DENC   =       -14.86006620
  -exchange      EXHF   =         0.00000000
  -V(xc)+E(xc)   XCENC  =       -17.96079671
  PAW double counting   =        74.99637001      -40.03992943
  entropy T*S    EENTRO =        -0.00005701
  eigenvalues    EBANDS =         6.11676619
  atomic energy  EATOM  =       206.12349923
  Solvation  Ediel_sol  =         0.00000000
  ---------------------------------------------------
  free energy    TOTEN  =       -10.82359683 eV

  energy without entropy =      -10.82353981  energy(sigma->0) =      -10.82356832


--------------------------------------------------------------------------------------------------------




--------------------------------------- Iteration      1(   9)  ---------------------------------------


    POTLOK:  cpu time    0.0200: real time    0.0263
    SETDIJ:  cpu time    0.0080: real time    0.0086
     EDDAV:  cpu time    0.8720: real time    0.8714
       DOS:  cpu time    0.0040: real time    0.0050
    --------------------------------------------
      LOOP:  cpu time    0.9040: real time    0.9113

 eigenvalue-minimisations  :  1520
 total energy-change (2. order) :-0.9217329E-04  (-0.9070177E-05)
 number of electron       7.9999994 magnetization 
 augmentation part       -0.4576899 magnetization 

 Free energy of the ion-electron system (eV)
  ---------------------------------------------------
  alpha Z        PSCENC =         3.36414203
  Ewald energy   TEWEN  =      -228.56352493
  -Hartree energ DENC   =       -14.89818450
  -exchange      EXHF   =         0.00000000
  -V(xc)+E(xc)   XCENC  =       -17.95435700
  PAW double counting   =        74.98856865      -40.03212284
  entropy T*S    EENTRO =        -0.00005658
  eigenvalues    EBANDS =         6.14834694
  atomic energy  EATOM  =       206.12349923
  Solvation  Ediel_sol  =         0.00000000
  ---------------------------------------------------
  free energy    TOTEN  =       -10.82368900 eV

  energy without entropy =      -10.82363242  energy(sigma->0) =      -10.82366071


--------------------------------------------------------------------------------------------------------




 average (electrostatic) potential at core
  the test charge radii are     0.9892
  (the norm of the test charge is              1.0000)
       1 -83.2522       2 -83.2522
 
 
 
 E-fermi :   6.1379     XC(G=0):  -9.4142     alpha+bet :-11.9845


 k-point     1 :       0.0500    0.0500    0.0500
  band No.  band energies     occupation 
      1      -6.0991      2.00000
      2       5.4822      2.00000
      3       5.7843      1.98758
      4       5.7843      1.98758
      5       8.4688      0.00000
      6       8.4902      0.00000
      7       8.4902      0.00000
      8       9.4475      0.00000

 k-point     2 :       0.1500    0.0500    0.0500
  band No.  band energies     occupation 
      1      -5.9249      2.00000
      2       4.3405      2.00000
      3       5.2077      2.00000
      4       5.7085      1.99760
      5       8.5509      0.00000
      6       8.6555      0.00000
      7       8.9037      0.00000
      8      10.5260      0.00000

 k-point     3 :       0.2500    0.0500    0.0500
  band No.  band energies     occupation 
      1      -5.4976      2.00000
      2       2.5128      2.00000
      3       4.7724      2.00000
      4       5.3570      2.00000
      5       8.2064      0.00000
      6       9.1172      0.00000
      7       9.4479      0.00000
      8      11.9795      0.00000

 k-point     4 :       0.3500    0.0500    0.0500
  band No.  band energies     occupation 
      1      -4.8499      2.00000
      2       0.7737      2.00000
      3       4.4820      2.00000
      4       4.9888      2.00000
      5       7.8760      0.00000
      6       9.3050      0.00000
      7       9.5002      0.00000
      8      13.1319      0.00000

 k-point     5 :       0.4500    0.0500    0.0500
  band No.  band energies     occupation 
      1      -4.1053      2.00000
      2      -0.6178      2.00000
      3       4.3568      2.00000
      4       4.7132      2.00000
      5       7.6673      0.00000
      6       9.2775      0.00000
      7       9.2831      0.00000
      8      13.7112      0.00000

 k-point     6 :      -0.4500    0.0500    0.0500
  band No.  band energies     occupation 
      1      -3.7861      2.00000
      2      -1.1008      2.00000
      3       4.3959      2.00000
      4       4.5690      2.00000
      5       7.6159      0.00000
      6       9.1395      0.00000
      7       9.3252      0.00000
      8      13.6849      0.00000

 k-point     7 :      -0.3500    0.0500    0.0500
  band No.  band energies     occupation 
      1      -4.3461      2.00000
      2      -0.2144      2.00000
      3       4.5765      2.00000
      4       4.5852      2.00000
      5       7.7259      0.00000
      6       9.1498      0.00000
      7       9.5107      0.00000
      8      13.3727      0.00000

 k-point     8 :      -0.2500    0.0500    0.0500
  band No.  band energies     occupation 
      1      -5.0859      2.00000
      2       1.3279      2.00000
      3       4.7449      2.00000
      4       4.9027      2.00000
      5       7.9799      0.00000
      6       9.1667      0.00000
      7       9.6798      0.00000
      8      12.2798      0.00000

 k-point     9 :      -0.1500    0.0500    0.0500
  band No.  band energies     occupation 
      1      -5.6668      2.00000
      2       3.1309      2.00000
      3       5.0651      2.00000
      4       5.2975      2.00000
      5       8.3025      0.00000
      6       8.8830      0.00000
      7       9.4762      0.00000
      8      11.4229      0.00000

 k-point    10 :      -0.0500    0.0500    0.0500
  band No.  band energies     occupation 
      1      -6.0117      2.00000
      2       4.9298      2.00000
      3       5.4775      2.00000
      4       5.6101      1.99981
      5       8.2954      0.00000
      6       8.7459      0.00000
      7       8.9007      0.00000
      8       9.9668      0.00000

 k-point    11 :       0.1500    0.1500    0.0500
  band No.  band energies     occupation 
      1      -5.8374      2.00000
      2       4.2394      2.00000
      3       5.0350      2.00000
      4       5.1475      2.00000
      5       7.9771      0.00000
      6       9.3202      0.00000
      7       9.5439      0.00000
      8      10.4731      0.00000

 k-point    12 :       0.2500    0.1500    0.0500
  band No.  band energies     occupation 
      1      -5.4934      2.00000
      2       2.9916      2.00000
      3       4.2839      2.00000
      4       4.9556      2.00000
      5       8.0403      0.00000
      6       9.5141      0.00000
      7      10.1708      0.00000
      8      10.6472      0.00000

 k-point    13 :       0.3500    0.1500    0.0500
  band No.  band energies     occupation 
      1      -4.9140      2.00000
      2       1.3389      2.00000
      3       3.8539      2.00000
      4       4.5862      2.00000
      5       8.2651      0.00000
      6       9.4540      0.00000
      7      10.4299      0.00000
      8      10.8694      0.00000

 k-point    14 :       0.4500    0.1500    0.0500
  band No.  band energies     occupation 
      1      -4.1744      2.00000
      2      -0.1497      2.00000
      3       3.5823      2.00000
      4       4.3030      2.00000
      5       8.2225      0.00000
      6       9.2801      0.00000
      7      10.2879      0.00000
      8      12.0413      0.00000

 k-point    15 :      -0.4500    0.1500    0.0500
  band No.  band energies     occupation 
      1      -3.6118      2.00000
      2      -1.0210      2.00000
      3       3.4028      2.00000
      4       4.2571      2.00000
      5       8.2255      0.00000
      6       9.1332      0.00000
      7      10.1193      0.00000
      8      13.6622      0.00000

 k-point    16 :      -0.3500    0.1500    0.0500
  band No.  band energies     occupation 
      1      -3.9356      2.00000
      2      -0.5396      2.00000
      3       3.3395      2.00000
      4       4.4494      2.00000
      5       8.3613      0.00000
      6       9.1374      0.00000
      7      10.0912      0.00000
      8      13.1136      0.00000

 k-point    17 :      -0.2500    0.1500    0.0500
  band No.  band energies     occupation 
      1      -4.6809      2.00000
      2       0.8141      2.00000
      3       3.4554      2.00000
      4       4.8082      2.00000
      5       8.5905      0.00000
      6       9.2162      0.00000
      7      10.1482      0.00000
      8      11.7161      0.00000

 k-point    18 :      -0.1500    0.1500    0.0500
  band No.  band energies     occupation 
      1      -5.3265      2.00000
      2       2.4128      2.00000
      3       3.8349      2.00000
      4       5.2192      2.00000
      5       8.6973      0.00000
      6       9.1015      0.00000
      7       9.9407      0.00000
      8      11.1087      0.00000

 k-point    19 :      -0.0500    0.1500    0.0500
  band No.  band energies     occupation 
      1      -5.7517      2.00000
      2       3.6771      2.00000
      3       4.7591      2.00000
      4       5.4526      2.00000
      5       8.3759      0.00000
      6       8.9535      0.00000
      7       9.4242      0.00000
      8      10.9874      0.00000

 k-point    20 :       0.2500    0.2500    0.0500
  band No.  band energies     occupation 
      1      -5.2328      2.00000
      2       2.6527      2.00000
      3       4.1240      2.00000
      4       4.1516      2.00000
      5       7.2604      0.00000
      6       9.4325      0.00000
      7      11.0039      0.00000
      8      11.1179      0.00000

 k-point    21 :       0.3500    0.2500    0.0500
  band No.  band energies     occupation 
      1      -4.7290      2.00000
      2       1.5514      2.00000
      3       3.4280      2.00000
      4       3.9077      2.00000
      5       7.3952      0.00000
      6       9.0253      0.00000
      7      11.1613      0.00000
      8      11.8733      0.00000

 k-point    22 :       0.4500    0.2500    0.0500
  band No.  band energies     occupation 
      1      -4.0277      2.00000
      2       0.2517      2.00000
      3       2.8124      2.00000
      4       3.6794      2.00000
      5       7.6437      0.00000
      6       9.7390      0.00000
      7      10.8650      0.00000
      8      11.9394      0.00000

 k-point    23 :      -0.4500    0.2500    0.0500
  band No.  band energies     occupation 
      1      -3.3274      2.00000
      2      -0.7886      2.00000
      3       2.3315      2.00000
      4       3.7004      2.00000
      5       7.7609      0.00000
      6      10.4910      0.00000
      7      11.3960      0.00000
      8      11.7469      0.00000

 k-point    24 :      -0.3500    0.2500    0.0500
  band No.  band energies     occupation 
      1      -3.3514      2.00000
      2      -0.7489      2.00000
      3       2.0793      2.00000
      4       3.9527      2.00000
      5       8.0455      0.00000
      6      10.2696      0.00000
      7      11.5504      0.00000
      8      13.0001      0.00000

 k-point    25 :      -0.2500    0.2500    0.0500
  band No.  band energies     occupation 
      1      -4.0592      2.00000
      2       0.2782      2.00000
      3       2.1763      2.00000
      4       4.3754      2.00000
      5       8.5026      0.00000
      6      10.0281      0.00000
      7      11.2969      0.00000
      8      11.5470      0.00000

 k-point    26 :      -0.1500    0.2500    0.0500
  band No.  band energies     occupation 
      1      -4.7516      2.00000
      2       1.2665      2.00000
      3       2.9362      2.00000
      4       4.8452      2.00000
      5       8.9049      0.00000
      6       9.3184      0.00000
      7      10.5578      0.00000
      8      11.1086      0.00000

 k-point    27 :      -0.0500    0.2500    0.0500
  band No.  band energies     occupation 
      1      -5.2458      2.00000
      2       1.9108      2.00000
      3       4.3298      2.00000
      4       5.0859      2.00000
      5       8.3605      0.00000
      6       9.0968      0.00000
      7       9.8491      0.00000
      8      11.5597      0.00000

 k-point    28 :       0.3500    0.3500    0.0500
  band No.  band energies     occupation 
      1      -4.3007      2.00000
      2       0.9343      2.00000
      3       3.3626      2.00000
      4       3.4758      2.00000
      5       6.7259      0.00003
      6       8.0371      0.00000
      7      12.7875      0.00000
      8      12.8469      0.00000

 k-point    29 :       0.4500    0.3500    0.0500
  band No.  band energies     occupation 
      1      -3.6560      2.00000
      2      -0.0029      2.00000
      3       2.8112      2.00000
      4       3.2076      2.00000
      5       6.9831      0.00000
      6       7.9182      0.00000
      7      12.7877      0.00000
      8      13.7213      0.00000

 k-point    30 :      -0.4500    0.3500    0.0500
  band No.  band energies     occupation 
      1      -2.9053      2.00000
      2      -0.8959      2.00000
      3       1.9880      2.00000
      4       3.2169      2.00000
      5       7.1951      0.00000
      6       9.1485      0.00000
      7      12.4456      0.00000
      8      13.6905      0.00000

 k-point    31 :      -0.3500    0.3500    0.0500
  band No.  band energies     occupation 
      1      -2.6725      2.00000
      2      -1.1281      2.00000
      3       1.4813      2.00000
      4       3.4602      2.00000
      5       7.4792      0.00000
      6      11.0072      0.00000
      7      12.1077      0.00000
      8      13.1003      0.00000

 k-point    32 :      -0.2500    0.3500    0.0500
  band No.  band energies     occupation 
      1      -3.3181      2.00000
      2      -0.5290      2.00000
      3       1.6486      2.00000
      4       3.8907      2.00000
      5       7.9696      0.00000
      6      10.9274      0.00000
      7      12.1287      0.00000
      8      12.3377      0.00000

 k-point    33 :      -0.1500    0.3500    0.0500
  band No.  band energies     occupation 
      1      -4.0144      2.00000
      2      -0.0978      2.00000
      3       2.6720      2.00000
      4       4.4026      2.00000
      5       8.5020      0.00000
      6       9.5208      0.00000
      7      10.7215      0.00000
      8      12.2376      0.00000

 k-point    34 :      -0.0500    0.3500    0.0500
  band No.  band energies     occupation 
      1      -4.5430      2.00000
      2       0.2777      2.00000
      3       4.0842      2.00000
      4       4.7242      2.00000
      5       8.1149      0.00000
      6       9.1573      0.00000
      7       9.7736      0.00000
      8      12.5412      0.00000

 k-point    35 :       0.4500    0.4500    0.0500
  band No.  band energies     occupation 
      1      -3.0695      2.00000
      2      -0.7747      2.00000
      3       2.9349      2.00000
      4       3.0869      2.00000
      5       6.5257      0.00609
      6       7.0836      0.00000
      7      14.6535      0.00000
      8      14.6727      0.00000

 k-point    36 :      -0.4500    0.4500    0.0500
  band No.  band energies     occupation 
      1      -2.3221      2.00000
      2      -1.5706      2.00000
      3       2.5291      2.00000
      4       2.9208      2.00000
      5       6.8537      0.00000
      6       7.3756      0.00000
      7      14.5328      0.00000
      8      15.2967      0.00000

 k-point    37 :      -0.3500    0.4500    0.0500
  band No.  band energies     occupation 
      1      -2.3359      2.00000
      2      -1.4691      2.00000
      3       1.8085      2.00000
      4       3.1283      2.00000
      5       7.0991      0.00000
      6       9.0328      0.00000
      7      13.2733      0.00000
      8      14.2009      0.00000

 k-point    38 :      -0.2500    0.4500    0.0500
  band No.  band energies     occupation 
      1      -2.9316      2.00000
      2      -1.0010      2.00000
      3       1.7964      2.00000
      4       3.5396      2.00000
      5       7.5756      0.00000
      6      10.9948      0.00000
      7      11.4555      0.00000
      8      12.5871      0.00000

 k-point    39 :      -0.1500    0.4500    0.0500
  band No.  band energies     occupation 
      1      -3.4420      2.00000
      2      -0.9601      2.00000
      3       2.7190      2.00000
      4       4.0745      2.00000
      5       8.1703      0.00000
      6       9.6129      0.00000
      7      10.7920      0.00000
      8      13.5199      0.00000

 k-point    40 :      -0.0500    0.4500    0.0500
  band No.  band energies     occupation 
      1      -3.8471      2.00000
      2      -0.8987      2.00000
      3       3.9861      2.00000
      4       4.5028      2.00000
      5       7.9650      0.00000
[...]
      4       2.7624      2.00000
      5       8.7689      0.00000
      6      10.5929      0.00000
      7      11.3181      0.00000
      8      11.7760      0.00000

 k-point    76 :      -0.1500    0.4500    0.1500
  band No.  band energies     occupation 
      1      -3.1742      2.00000
      2      -0.7816      2.00000
      3       2.0247      2.00000
      4       3.3610      2.00000
      5       9.0092      0.00000
      6       9.3234      0.00000
      7      11.5458      0.00000
      8      12.7420      0.00000

 k-point    77 :      -0.4500   -0.4500    0.1500
  band No.  band energies     occupation 
      1      -2.3210      2.00000
      2      -1.5379      2.00000
      3       2.1266      2.00000
      4       3.1472      2.00000
      5       6.7476      0.00002
      6       8.1196      0.00000
      7      14.4051      0.00000
      8      14.6581      0.00000

 k-point    78 :      -0.3500   -0.4500    0.1500
  band No.  band energies     occupation 
      1      -2.2631      2.00000
      2      -1.5447      2.00000
      3       2.1927      2.00000
      4       2.6784      2.00000
      5       7.5129      0.00000
      6       8.1978      0.00000
      7      13.2612      0.00000
      8      14.1702      0.00000

 k-point    79 :      -0.2500   -0.4500    0.1500
  band No.  band energies     occupation 
      1      -2.7836      2.00000
      2      -0.9397      2.00000
      3       1.9662      2.00000
      4       2.6794      2.00000
      5       8.4736      0.00000
      6       9.3040      0.00000
      7      11.1728      0.00000
      8      13.8095      0.00000

 k-point    80 :      -0.3500   -0.3500    0.1500
  band No.  band energies     occupation 
      1      -2.9764      2.00000
      2      -0.8291      2.00000
      3       2.2655      2.00000
      4       3.2236      2.00000
      5       6.8360      0.00000
      6       8.2529      0.00000
      7      13.6373      0.00000
      8      13.6929      0.00000

 k-point    81 :      -0.2500   -0.3500    0.1500
  band No.  band energies     occupation 
      1      -3.5318      2.00000
      2      -0.1522      2.00000
      3       2.4428      2.00000
      4       3.1267      2.00000
      5       7.6905      0.00000
      6       8.6494      0.00000
      7      11.6144      0.00000
      8      13.6938      0.00000

 k-point    82 :      -0.2500   -0.2500    0.1500
  band No.  band energies     occupation 
      1      -4.1607      2.00000
      2       0.5823      2.00000
      3       2.9709      2.00000
      4       3.6003      2.00000
      5       7.2515      0.00000
      6       8.9326      0.00000
      7      11.8042      0.00000
      8      12.0954      0.00000

 k-point    83 :       0.2500    0.2500    0.2500
  band No.  band energies     occupation 
      1      -5.3319      2.00000
      2       1.9071      2.00000
      3       5.0769      2.00000
      4       5.0769      2.00000
      5       7.8727      0.00000
      6       9.3546      0.00000
      7       9.3546      0.00000
      8      12.7615      0.00000

 k-point    84 :       0.3500    0.2500    0.2500
  band No.  band energies     occupation 
      1      -5.0014      2.00000
      2       1.3422      2.00000
      3       3.8981      2.00000
      4       5.1264      2.00000
      5       8.4100      0.00000
      6       9.3851      0.00000
      7       9.6251      0.00000
      8      12.2760      0.00000

 k-point    85 :       0.4500    0.2500    0.2500
  band No.  band energies     occupation 
      1      -4.4391      2.00000
      2       0.7594      2.00000
      3       2.5212      2.00000
      4       4.7535      2.00000
      5       8.5371      0.00000
      6      10.1608      0.00000
      7      10.4181      0.00000
      8      11.9069      0.00000

 k-point    86 :      -0.4500    0.2500    0.2500
  band No.  band energies     occupation 
      1      -3.7103      2.00000
      2      -0.1410      2.00000
      3       1.8616      2.00000
      4       4.2637      2.00000
      5       8.0350      0.00000
      6      11.0048      0.00000
      7      11.2487      0.00000
      8      12.5270      0.00000

 k-point    87 :      -0.3500    0.2500    0.2500
  band No.  band energies     occupation 
      1      -3.1137      2.00000
      2      -0.9319      2.00000
      3       1.8894      2.00000
      4       3.8606      2.00000
      5       7.6002      0.00000
      6      11.3247      0.00000
      7      11.4213      0.00000
      8      12.3254      0.00000

 k-point    88 :      -0.2500    0.2500    0.2500
  band No.  band energies     occupation 
      1      -3.4126      2.00000
      2      -0.5506      2.00000
      3       2.2985      2.00000
      4       3.6286      2.00000
      5       7.3662      0.00000
      6      10.3004      0.00000
      7      11.5961      0.00000
      8      11.7794      0.00000

 k-point    89 :       0.3500    0.3500    0.2500
  band No.  band energies     occupation 
      1      -4.7633      2.00000
      2       0.7950      2.00000
      3       4.3441      2.00000
      4       4.4078      2.00000
      5       8.1608      0.00000
      6       9.2317      0.00000
      7      10.0853      0.00000
      8      11.6165      0.00000

 k-point    90 :       0.4500    0.3500    0.2500
  band No.  band energies     occupation 
      1      -4.2900      2.00000
      2       0.3294      2.00000
      3       3.0200      2.00000
      4       4.2949      2.00000
      5       8.5902      0.00000
      6       9.3039      0.00000
      7      10.9005      0.00000
      8      11.2113      0.00000

 k-point    91 :      -0.4500    0.3500    0.2500
  band No.  band energies     occupation 
      1      -3.6212      2.00000
      2      -0.1793      2.00000
      3       1.9203      2.00000
      4       3.8078      2.00000
      5       8.7692      0.00000
      6       9.8162      0.00000
      7      11.0351      0.00000
      8      12.4540      0.00000

 k-point    92 :      -0.3500    0.3500    0.2500
  band No.  band energies     occupation 
      1      -2.9026      2.00000
      2      -0.8874      2.00000
      3       1.5581      2.00000
      4       3.3418      2.00000
      5       8.2519      0.00000
      6      10.7669      0.00000
      7      11.8468      0.00000
      8      12.3447      0.00000

 k-point    93 :      -0.2500    0.3500    0.2500
  band No.  band energies     occupation 
      1      -2.8260      2.00000
      2      -0.9807      2.00000
      3       1.8290      2.00000
      4       3.0809      2.00000
      5       7.9107      0.00000
      6      10.1416      0.00000
      7      11.2417      0.00000
      8      13.6724      0.00000

 k-point    94 :       0.4500    0.4500    0.2500
  band No.  band energies     occupation 
      1      -3.9138      2.00000
      2      -0.1302      2.00000
      3       2.9320      2.00000
      4       3.8346      2.00000
      5       7.6468      0.00000
      6      10.5795      0.00000
      7      10.7283      0.00000
      8      11.1356      0.00000

 k-point    95 :      -0.4500    0.4500    0.2500
  band No.  band energies     occupation 
      1      -3.3395      2.00000
      2      -0.5508      2.00000
      3       2.1759      2.00000
      4       3.3508      2.00000
      5       8.0859      0.00000
      6      10.2376      0.00000
      7      10.6205      0.00000
      8      12.7796      0.00000

 k-point    96 :      -0.3500    0.4500    0.2500
  band No.  band energies     occupation 
      1      -2.6335      2.00000
      2      -1.0715      2.00000
      3       1.7315      2.00000
      4       2.6550      2.00000
      5       9.4767      0.00000
      6       9.8546      0.00000
      7      10.5546      0.00000
      8      12.5440      0.00000

 k-point    97 :      -0.2500    0.4500    0.2500
  band No.  band energies     occupation 
      1      -2.1548      2.00000
      2      -1.5087      2.00000
      3       1.7968      2.00000
      4       2.2788      2.00000
      5       9.4340      0.00000
      6      10.1523      0.00000
      7      10.8606      0.00000
      8      11.6336      0.00000

 k-point    98 :      -0.4500   -0.4500    0.2500
  band No.  band energies     occupation 
      1      -2.8992      2.00000
      2      -0.9667      2.00000
      3       1.8202      2.00000
      4       3.4883      2.00000
      5       7.1664      0.00000
      6      10.0943      0.00000
      7      12.4842      0.00000
      8      12.5358      0.00000

 k-point    99 :      -0.3500   -0.4500    0.2500
  band No.  band energies     occupation 
      1      -2.3901      2.00000
      2      -1.3614      2.00000
      3       1.6300      2.00000
      4       2.9525      2.00000
      5       7.8208      0.00000
      6      10.0508      0.00000
      7      12.0229      0.00000
      8      12.9657      0.00000

 k-point   100 :      -0.3500   -0.3500    0.2500
  band No.  band energies     occupation 
      1      -2.4763      2.00000
      2      -1.3267      2.00000
      3       1.5627      2.00000
      4       3.4171      2.00000
      5       7.0631      0.00000
      6       9.9915      0.00000
      7      13.1645      0.00000
      8      13.4875      0.00000

 k-point   101 :       0.3500    0.3500    0.3500
  band No.  band energies     occupation 
      1      -4.6285      2.00000
      2       0.2432      2.00000
      3       4.7978      2.00000
      4       4.7978      2.00000
      5       7.5665      0.00000
      6       9.3373      0.00000
      7       9.3373      0.00000
      8      13.7336      0.00000

 k-point   102 :       0.4500    0.3500    0.3500
  band No.  band energies     occupation 
      1      -4.2620      2.00000
      2      -0.1740      2.00000
      3       3.7344      2.00000
      4       4.7435      2.00000
      5       8.1456      0.00000
      6       9.4202      0.00000
      7       9.5031      0.00000
      8      13.4843      0.00000

 k-point   103 :      -0.4500    0.3500    0.3500
  band No.  band energies     occupation 
      1      -3.6934      2.00000
      2      -0.4629      2.00000
      3       2.3489      2.00000
      4       4.3030      2.00000
      5       8.0867      0.00000
      6      10.4556      0.00000
      7      10.5261      0.00000
      8      13.3733      0.00000

 k-point   104 :      -0.3500    0.3500    0.3500
  band No.  band energies     occupation 
      1      -2.9931      2.00000
      2      -0.8484      2.00000
      3       1.4937      2.00000
      4       3.8003      2.00000
      5       7.5079      0.00000
      6      11.8819      0.00000
      7      12.0137      0.00000
      8      12.5796      0.00000

 k-point   105 :       0.4500    0.4500    0.3500
  band No.  band energies     occupation 
      1      -4.0182      2.00000
      2      -0.5798      2.00000
      3       3.9854      2.00000
      4       4.3507      2.00000
      5       8.0217      0.00000
      6       9.1647      0.00000
      7       9.8193      0.00000
      8      12.9815      0.00000

 k-point   106 :      -0.4500    0.4500    0.3500
  band No.  band energies     occupation 
      1      -3.5900      2.00000
      2      -0.7999      2.00000
      3       2.8871      2.00000
      4       4.0349      2.00000
      5       8.6191      0.00000
      6       9.0013      0.00000
      7      10.8843      0.00000
      8      12.7699      0.00000

 k-point   107 :      -0.3500    0.4500    0.3500
  band No.  band energies     occupation 
      1      -3.0266      2.00000
      2      -0.9432      2.00000
      3       1.8821      2.00000
      4       3.4514      2.00000
      5       8.3361      0.00000
      6      10.0848      0.00000
      7      12.2960      0.00000
      8      12.6112      0.00000

 k-point   108 :      -0.4500   -0.4500    0.3500
  band No.  band energies     occupation 
      1      -3.3522      2.00000
      2      -0.9515      2.00000
      3       2.5197      2.00000
      4       3.9782      2.00000
      5       7.7708      0.00000
      6      10.4901      0.00000
      7      10.7987      0.00000
      8      12.4378      0.00000

 k-point   109 :       0.4500    0.4500    0.4500
  band No.  band energies     occupation 
      1      -3.9338      2.00000
      2      -0.9426      2.00000
      3       4.6546      2.00000
      4       4.6546      2.00000
      5       7.4025      0.00000
      6       9.2141      0.00000
      7       9.2141      0.00000
      8      13.5940      0.00000

 k-point   110 :      -0.4500    0.4500    0.4500
  band No.  band energies     occupation 
      1      -3.6994      2.00000
      2      -1.0574      2.00000
      3       3.7714      2.00000
      4       4.4699      2.00000
      5       8.0076      0.00000
      6       9.2089      0.00000
      7       9.5978      0.00000
      8      13.9689      0.00000


--------------------------------------------------------------------------------------------------------


 soft charge-density along one line, spin component           1
         0         1         2         3         4         5         6         7         8         9
 total charge-density along one line
 
 pseudopotential strength for first ion, spin component:           1
 18.416  -0.001  -0.000  -0.000  -0.000   0.000   0.000   0.000
 -0.001   0.006   0.000   0.000   0.000  -0.000  -0.000  -0.000
 -0.000   0.000   4.179  -0.000  -0.000  -0.005   0.000   0.000
 -0.000   0.000  -0.000   4.179  -0.000   0.000  -0.005   0.000
 -0.000   0.000  -0.000  -0.000   4.179   0.000   0.000  -0.005
  0.000  -0.000  -0.005   0.000   0.000   0.005  -0.000  -0.000
  0.000  -0.000   0.000  -0.005   0.000  -0.000   0.005  -0.000
  0.000  -0.000   0.000   0.000  -0.005  -0.000  -0.000   0.005
 total augmentation occupancy for first ion, spin component:           1
  1.492  -0.854  -0.000  -0.000   0.000   0.000   0.000   0.000
 -0.854   0.865   0.000   0.000   0.000   0.000   0.000   0.000
 -0.000   0.000   1.028  -0.000   0.000  -0.651   0.000  -0.000
 -0.000   0.000  -0.000   1.028   0.000   0.000  -0.651  -0.000
  0.000   0.000   0.000   0.000   1.028  -0.000  -0.000  -0.651
  0.000   0.000  -0.651   0.000  -0.000   0.470  -0.000   0.000
  0.000   0.000   0.000  -0.651  -0.000  -0.000   0.470   0.000
  0.000   0.000  -0.000  -0.000  -0.651   0.000   0.000   0.470


------------------------ aborting loop because EDIFF is reached ----------------------------------------


    CHARGE:  cpu time    0.0280: real time    0.0258
    FORLOC:  cpu time    0.0000: real time    0.0007
    FORNL :  cpu time    0.0240: real time    0.0243
    STRESS:  cpu time    0.3000: real time    0.3008
    FORCOR:  cpu time    0.0160: real time    0.0143
    FORHAR:  cpu time    0.0000: real time    0.0038
    MIXING:  cpu time    0.0000: real time    0.0012
    OFIELD:  cpu time    0.0000: real time    0.0004

  FORCE on cell =-STRESS in cart. coord.  units (eV):
  Direction    XX          YY          ZZ          XY          YZ          ZX
  --------------------------------------------------------------------------------------
  Alpha Z     3.36414     3.36414     3.36414
  Ewald     -76.18788   -76.18788   -76.18788    -0.00000    -0.00000     0.00000
  Hartree     4.96919     4.96919     4.96919    -0.00000    -0.00000    -0.00000
  E(xc)     -25.38565   -25.38565   -25.38565     0.00000     0.00000     0.00000
  Local     -29.33559   -29.33559   -29.33559     0.00005     0.00005     0.00005
  n-local    77.98519    80.46449    75.53103     1.08858    -1.12476     0.02843
  augment   -11.62390   -11.62390   -11.62390    -0.00004    -0.00004    -0.00004
  Kinetic    58.27260    55.97408    55.73673     0.84323    -0.88147     0.02725
  Fock        0.00000     0.00000     0.00000     0.00000     0.00000     0.00000
  -------------------------------------------------------------------------------------
  Total       0.45502     0.45502     0.45502     0.00000     0.00000    -0.00000
  in kB      18.21389    18.21389    18.21389     0.00000     0.00000    -0.00000
  external pressure =       18.21 kB  Pullay stress =        0.00 kB


 VOLUME and BASIS-vectors are now :
 -----------------------------------------------------------------------------
  energy-cutoff  :      250.00
  volume of cell :       40.03
      direct lattice vectors                 reciprocal lattice vectors
     0.000000000  2.715000000  2.715000000    -0.184162063  0.184162063  0.184162063
     2.715000000  0.000000000  2.715000000     0.184162063 -0.184162063  0.184162063
     2.715000000  2.715000000  0.000000000     0.184162063  0.184162063 -0.184162063

  length of vectors
     3.839589822  3.839589822  3.839589822     0.318978049  0.318978049  0.318978049


 FORCES acting on ions
    electron-ion (+dipol)            ewald-force                    non-local-force                 convergence-correction
 -----------------------------------------------------------------------------------------------
   0.280E-05 0.280E-05 0.275E-05   -.476E-15 -.149E-14 0.391E-14   -.140E-16 -.140E-16 -.435E-17   -.141E-05 -.141E-05 -.141E-05
   -.280E-05 -.280E-05 -.275E-05   0.623E-15 0.106E-14 -.375E-14   0.117E-16 0.152E-16 0.280E-17   0.141E-05 0.141E-05 0.141E-05
 -----------------------------------------------------------------------------------------------
   0.945E-13 0.229E-13 0.100E-14   0.147E-15 -.426E-15 0.164E-15   -.225E-17 0.122E-17 -.155E-17   0.399E-14 0.210E-14 0.144E-14
 
 
 POSITION                                       TOTAL-FORCE (eV/Angst)
 -----------------------------------------------------------------------------------
      2.71500      2.71500      2.71500        -0.000000     -0.000000     -0.000000
      4.07250      4.07250      4.07250         0.000000      0.000000      0.000000
 -----------------------------------------------------------------------------------
    total drift:                                0.000000      0.000000      0.000000


--------------------------------------------------------------------------------------------------------



  FREE ENERGIE OF THE ION-ELECTRON SYSTEM (eV)
  ---------------------------------------------------
  free  energy   TOTEN  =       -10.82368900 eV

  energy  without entropy=      -10.82363242  energy(sigma->0) =      -10.82366071
 


--------------------------------------------------------------------------------------------------------


    POTLOK:  cpu time    0.0320: real time    0.0447


--------------------------------------------------------------------------------------------------------




--------------------------------------------------------------------------------------------------------


  
 reached required accuracy - stopping structural energy minimisation
 writing wavefunctions
     LOOP+:  cpu time   12.3560: real time   13.1830
    4ORBIT:  cpu time    0.0000: real time    0.0000

 total amount of memory used by VASP MPI-rank0    33886. kBytes
=======================================================================

   base      :      30000. kBytes
   nonl-proj :       2659. kBytes
   fftplans  :        160. kBytes
   grid      :        372. kBytes
   one-center:          6. kBytes
   wavefun   :        689. kBytes
 
  
  
 General timing and accounting informations for this job:
 ========================================================
  
                  Total CPU time used (sec):       32.192
                            User time (sec):       30.492
                          System time (sec):        1.700
                         Elapsed time (sec):       34.533
  
                   Maximum memory used (kb):        9716.
                   Average memory used (kb):           0.
  
                          Minor page faults:        38185
                          Major page faults:           16
                 Voluntary context switches:        37420
