   2   2   0   0
  0.1529437E+02  0.3691622E-09  0.3691622E-09  0.3691622E-09  0.5000000E-15
  1.000000000000000E-004
  CAR 
 unknown system                          
     21.98479680     -6.24228491  301      9.23818063      1.00000000
     -6.242  0.0000E+00  0.0000E+00
     -6.148  0.0000E+00  0.0000E+00
     -6.054  0.0000E+00  0.0000E+00
     -5.960  0.0000E+00  0.0000E+00
     -5.866  0.0000E+00  0.0000E+00
     -5.772  0.0000E+00  0.0000E+00
     -5.678  0.0000E+00  0.0000E+00
     -5.584  0.0000E+00  0.0000E+00
     -5.490  0.0000E+00  0.0000E+00
     -5.395  0.1475E-16  0.1388E-17
     -5.301  0.3058E-14  0.2891E-15
     -5.207  0.3900E-12  0.3699E-13
     -5.113  0.3217E-10  0.3064E-11
     -5.019  0.1717E-08  0.1647E-09
     -4.925  0.5942E-07  0.5756E-08
     -4.831  0.1334E-05  0.1312E-06
     -4.737  0.1944E-04  0.1960E-05
     -4.643  0.1842E-03  0.1929E-04
     -4.549  0.1136E-02  0.1262E-03
     -4.455  0.4564E-02  0.5556E-03
     -4.360  0.1195E-01  0.1680E-02
     -4.266  0.2043E-01  0.3603E-02
     -4.172  0.2279E-01  0.5747E-02
     -4.078  0.1659E-01  0.7308E-02
     -3.984  0.7885E-02  0.8050E-02
     -3.890  0.2444E-02  0.8280E-02
     -3.796  0.4947E-03  0.8327E-02
     -3.702  0.8054E-04  0.8334E-02
     -3.608  0.1416E-03  0.8348E-02
     -3.514  0.7717E-03  0.8420E-02
     -3.420  0.2850E-02  0.8688E-02
     -3.325  0.6873E-02  0.9335E-02
     -3.231  0.1088E-01  0.1036E-01
     -3.137  0.1176E-01  0.1147E-01
     -3.043  0.1112E-01  0.1251E-01
     -2.949  0.1630E-01  0.1404E-01
     -2.855  0.3133E-01  0.1699E-01
     -2.761  0.4839E-01  0.2155E-01
     -2.667  0.5670E-01  0.2688E-01
     -2.573  0.5786E-01  0.3232E-01
     -2.479  0.5601E-01  0.3759E-01
     -2.385  0.4584E-01  0.4191E-01
     -2.290  0.2730E-01  0.4448E-01
     -2.196  0.1113E-01  0.4552E-01
     -2.102  0.4069E-02  0.4591E-01
     -2.008  0.6032E-02  0.4647E-01
     -1.914  0.1722E-01  0.4809E-01
     -1.820  0.3479E-01  0.5137E-01
     -1.726  0.4620E-01  0.5571E-01
     -1.632  0.4113E-01  0.5958E-01
     -1.538  0.2793E-01  0.6221E-01
     -1.444  0.2181E-01  0.6426E-01
     -1.350  0.2348E-01  0.6647E-01
     -1.256  0.2251E-01  0.6859E-01
     -1.161  0.1498E-01  0.7000E-01
     -1.067  0.6571E-02  0.7062E-01
     -0.973  0.1883E-02  0.7080E-01
     -0.879  0.3552E-03  0.7083E-01
     -0.785  0.9358E-04  0.7084E-01
     -0.691  0.4629E-03  0.7088E-01
     -0.597  0.2703E-02  0.7114E-01
     -0.503  0.1036E-01  0.7211E-01
     -0.409  0.2591E-01  0.7455E-01
     -0.315  0.4241E-01  0.7854E-01
     -0.221  0.4623E-01  0.8289E-01
     -0.126  0.3721E-01  0.8639E-01
     -0.032  0.3268E-01  0.8946E-01
      0.062  0.4320E-01  0.9353E-01
      0.156  0.6145E-01  0.9931E-01
      0.250  0.8021E-01  0.1069E+00
      0.344  0.9771E-01  0.1161E+00
      0.438  0.1001E+00  0.1255E+00
      0.532  0.7598E-01  0.1326E+00
      0.626  0.4324E-01  0.1367E+00
      0.720  0.2608E-01  0.1391E+00
      0.814  0.2457E-01  0.1415E+00
      0.909  0.2518E-01  0.1438E+00
      1.003  0.2496E-01  0.1462E+00
      1.097  0.3167E-01  0.1491E+00
      1.191  0.4354E-01  0.1532E+00
      1.285  0.4566E-01  0.1575E+00
      1.379  0.3234E-01  0.1606E+00
      1.473  0.1564E-01  0.1621E+00
      1.567  0.7706E-02  0.1628E+00
      1.661  0.1027E-01  0.1637E+00
      1.755  0.1820E-01  0.1655E+00
      1.849  0.2292E-01  0.1676E+00
      1.944  0.1915E-01  0.1694E+00
      2.038  0.1125E-01  0.1705E+00
      2.132  0.8103E-02  0.1712E+00
      2.226  0.1561E-01  0.1727E+00
      2.320  0.3294E-01  0.1758E+00
      2.414  0.4953E-01  0.1805E+00
      2.508  0.5377E-01  0.1855E+00
      2.602  0.4736E-01  0.1900E+00
      2.696  0.4067E-01  0.1938E+00
      2.790  0.4127E-01  0.1977E+00
      2.884  0.4945E-01  0.2023E+00
      2.979  0.5794E-01  0.2078E+00
      3.073  0.6603E-01  0.2140E+00
      3.167  0.8185E-01  0.2217E+00
      3.261  0.9607E-01  0.2308E+00
      3.355  0.8731E-01  0.2390E+00
      3.449  0.6115E-01  0.2447E+00
      3.543  0.4335E-01  0.2488E+00
      3.637  0.4117E-01  0.2527E+00
      3.731  0.4214E-01  0.2566E+00
      3.825  0.3873E-01  0.2603E+00
      3.919  0.3709E-01  0.2638E+00
      4.014  0.4329E-01  0.2678E+00
      4.108  0.4832E-01  0.2724E+00
      4.202  0.3978E-01  0.2761E+00
      4.296  0.2206E-01  0.2782E+00
      4.390  0.8393E-02  0.2790E+00
      4.484  0.4057E-02  0.2794E+00
      4.578  0.8376E-02  0.2802E+00
      4.672  0.2125E-01  0.2822E+00
      4.766  0.4056E-01  0.2860E+00
      4.860  0.5832E-01  0.2915E+00
      4.954  0.6515E-01  0.2976E+00
      5.049  0.6166E-01  0.3034E+00
      5.143  0.6010E-01  0.3091E+00
      5.237  0.6642E-01  0.3153E+00
      5.331  0.7185E-01  0.3221E+00
      5.425  0.7009E-01  0.3287E+00
      5.519  0.6479E-01  0.3348E+00
      5.613  0.5531E-01  0.3400E+00
      5.707  0.3850E-01  0.3436E+00
      5.801  0.2381E-01  0.3458E+00
      5.895  0.2701E-01  0.3484E+00
      5.989  0.5346E-01  0.3534E+00
      6.084  0.9048E-01  0.3619E+00
      6.178  0.1179E+00  0.3730E+00
      6.272  0.1285E+00  0.3851E+00
      6.366  0.1217E+00  0.3966E+00
      6.460  0.9284E-01  0.4053E+00
      6.554  0.5143E-01  0.4101E+00
      6.648  0.1943E-01  0.4120E+00
      6.742  0.4870E-02  0.4124E+00
      6.836  0.8018E-03  0.4125E+00
      6.930  0.1120E-03  0.4125E+00
      7.024  0.2896E-03  0.4125E+00
      7.119  0.2023E-02  0.4127E+00
      7.213  0.9534E-02  0.4136E+00
      7.307  0.2981E-01  0.4164E+00
      7.401  0.6203E-01  0.4223E+00
      7.495  0.8637E-01  0.4304E+00
      7.589  0.8112E-01  0.4380E+00
      7.683  0.5237E-01  0.4429E+00
      7.777  0.2614E-01  0.4454E+00
      7.871  0.1942E-01  0.4472E+00
      7.965  0.3227E-01  0.4503E+00
      8.059  0.5340E-01  0.4553E+00
      8.154  0.6995E-01  0.4619E+00
      8.248  0.7869E-01  0.4693E+00
      8.342  0.8211E-01  0.4770E+00
      8.436  0.7912E-01  0.4844E+00
      8.530  0.6951E-01  0.4910E+00
      8.624  0.6388E-01  0.4970E+00
      8.718  0.7526E-01  0.5041E+00
      8.812  0.9242E-01  0.5128E+00
      8.906  0.8700E-01  0.5210E+00
      9.000  0.5666E-01  0.5263E+00
      9.094  0.2884E-01  0.5290E+00
      9.189  0.2516E-01  0.5314E+00
      9.283  0.4682E-01  0.5358E+00
      9.377  0.7930E-01  0.5432E+00
      9.471  0.1014E+00  0.5528E+00
      9.565  0.1031E+00  0.5625E+00
      9.659  0.9154E-01  0.5711E+00
      9.753  0.7514E-01  0.5782E+00
      9.847  0.5388E-01  0.5832E+00
      9.941  0.2988E-01  0.5861E+00
     10.035  0.1172E-01  0.5872E+00
     10.129  0.3264E-02  0.5875E+00
     10.224  0.1808E-02  0.5876E+00
     10.318  0.5993E-02  0.5882E+00
     10.412  0.1815E-01  0.5899E+00
     10.506  0.3683E-01  0.5934E+00
     10.600  0.5179E-01  0.5982E+00
     10.694  0.5667E-01  0.6036E+00
     10.788  0.5856E-01  0.6091E+00
     10.882  0.6412E-01  0.6151E+00
     10.976  0.7806E-01  0.6225E+00
     11.070  0.1111E+00  0.6329E+00
     11.164  0.1546E+00  0.6475E+00
     11.259  0.1699E+00  0.6634E+00
     11.353  0.1363E+00  0.6763E+00
     11.447  0.8101E-01  0.6839E+00
     11.541  0.4392E-01  0.6880E+00
     11.635  0.3851E-01  0.6916E+00
     11.729  0.4874E-01  0.6962E+00
     11.823  0.5230E-01  0.7012E+00
     11.917  0.4478E-01  0.7054E+00
     12.011  0.3799E-01  0.7089E+00
     12.105  0.4201E-01  0.7129E+00
     12.199  0.5678E-01  0.7182E+00
     12.293  0.7169E-01  0.7250E+00
     12.388  0.7359E-01  0.7319E+00
     12.482  0.6283E-01  0.7378E+00
     12.576  0.5451E-01  0.7429E+00
     12.670  0.5885E-01  0.7485E+00
     12.764  0.6606E-01  0.7547E+00
     12.858  0.5990E-01  0.7603E+00
     12.952  0.3996E-01  0.7641E+00
     13.046  0.1912E-01  0.7659E+00
     13.140  0.6461E-02  0.7665E+00
     13.234  0.1515E-02  0.7666E+00
     13.328  0.3002E-03  0.7667E+00
     13.423  0.5965E-03  0.7667E+00
     13.517  0.3582E-02  0.7671E+00
     13.611  0.1507E-01  0.7685E+00
     13.705  0.4317E-01  0.7725E+00
     13.799  0.8555E-01  0.7806E+00
     13.893  0.1194E+00  0.7918E+00
     13.987  0.1201E+00  0.8031E+00
     14.081  0.9272E-01  0.8119E+00
     14.175  0.7167E-01  0.8186E+00
     14.269  0.8383E-01  0.8265E+00
     14.363  0.1173E+00  0.8375E+00
     14.458  0.1338E+00  0.8501E+00
     14.552  0.1173E+00  0.8611E+00
     14.646  0.9453E-01  0.8700E+00
     14.740  0.9282E-01  0.8788E+00
     14.834  0.1029E+00  0.8884E+00
     14.928  0.1030E+00  0.8981E+00
     15.022  0.9026E-01  0.9066E+00
     15.116  0.7305E-01  0.9135E+00
     15.210  0.5674E-01  0.9188E+00
     15.304  0.4864E-01  0.9234E+00
     15.398  0.4995E-01  0.9281E+00
     15.493  0.4737E-01  0.9326E+00
     15.587  0.3361E-01  0.9357E+00
     15.681  0.1985E-01  0.9376E+00
     15.775  0.1718E-01  0.9392E+00
     15.869  0.2184E-01  0.9413E+00
     15.963  0.2267E-01  0.9434E+00
     16.057  0.1588E-01  0.9449E+00
     16.151  0.7523E-02  0.9456E+00
     16.245  0.3725E-02  0.9460E+00
     16.339  0.6565E-02  0.9466E+00
     16.433  0.1687E-01  0.9482E+00
     16.528  0.3345E-01  0.9513E+00
     16.622  0.5057E-01  0.9561E+00
     16.716  0.5873E-01  0.9616E+00
     16.810  0.5082E-01  0.9664E+00
     16.904  0.3207E-01  0.9694E+00
     16.998  0.1689E-01  0.9710E+00
     17.092  0.1211E-01  0.9721E+00
     17.186  0.1256E-01  0.9733E+00
     17.280  0.1315E-01  0.9745E+00
     17.374  0.1927E-01  0.9764E+00
     17.468  0.4238E-01  0.9803E+00
     17.563  0.8120E-01  0.9880E+00
     17.657  0.1097E+00  0.9983E+00
     17.751  0.1023E+00  0.1008E+01
     17.845  0.6960E-01  0.1014E+01
     17.939  0.4390E-01  0.1019E+01
     18.033  0.3807E-01  0.1022E+01
     18.127  0.4437E-01  0.1026E+01
     18.221  0.5640E-01  0.1032E+01
     18.315  0.7014E-01  0.1038E+01
     18.409  0.7586E-01  0.1045E+01
     18.503  0.6526E-01  0.1052E+01
     18.598  0.4257E-01  0.1056E+01
     18.692  0.2043E-01  0.1057E+01
     18.786  0.7021E-02  0.1058E+01
     18.880  0.1681E-02  0.1058E+01
     18.974  0.2740E-03  0.1058E+01
     19.068  0.2986E-04  0.1058E+01
     19.162  0.2149E-05  0.1058E+01
     19.256  0.1125E-06  0.1058E+01
     19.350  0.3119E-06  0.1058E+01
     19.444  0.5555E-05  0.1058E+01
     19.538  0.6492E-04  0.1058E+01
     19.633  0.4936E-03  0.1058E+01
     19.727  0.2444E-02  0.1059E+01
     19.821  0.7885E-02  0.1059E+01
     19.915  0.1659E-01  0.1061E+01
     20.009  0.2279E-01  0.1063E+01
     20.103  0.2043E-01  0.1065E+01
     20.197  0.1195E-01  0.1066E+01
     20.291  0.4564E-02  0.1067E+01
     20.385  0.1136E-02  0.1067E+01
     20.479  0.1842E-03  0.1067E+01
     20.573  0.1944E-04  0.1067E+01
     20.668  0.1334E-05  0.1067E+01
     20.762  0.5942E-07  0.1067E+01
     20.856  0.1717E-08  0.1067E+01
     20.950  0.3217E-10  0.1067E+01
     21.044  0.3900E-12  0.1067E+01
     21.138  0.3048E-14  0.1067E+01
     21.232  0.1967E-16  0.1067E+01
     21.326  0.0000E+00  0.1067E+01
     21.420  0.0000E+00  0.1067E+01
     21.514  0.0000E+00  0.1067E+01
     21.608  0.0000E+00  0.1067E+01
     21.703  0.0000E+00  0.1067E+01
     21.797  0.0000E+00  0.1067E+01
     21.891  0.0000E+00  0.1067E+01
     21.985  0.0000E+00  0.1067E+01
