       N       E                     dE             d eps       ncg     rms          rms(c)
DAV:   1    -0.788518380917E+00   -0.78852E+00   -0.26017E+03   184   0.517E+02
DAV:   2    -0.987605252798E+01   -0.90875E+01   -0.86649E+01   248   0.582E+01
DAV:   3    -0.999984679999E+01   -0.12379E+00   -0.12356E+00   240   0.798E+00
DAV:   4    -0.100001835657E+02   -0.33677E-03   -0.33675E-03   272   0.380E-01
DAV:   5    -0.100001837573E+02   -0.19165E-06   -0.19020E-06   248   0.803E-03    0.150E+00
DAV:   6    -0.999593178998E+01    0.42520E-02   -0.17055E-03   240   0.321E-01    0.938E-01
DAV:   7    -0.999232804924E+01    0.36037E-02   -0.51457E-03   192   0.569E-01    0.339E-02
DAV:   8    -0.999231051077E+01    0.17538E-04   -0.10250E-04   128   0.790E-02
   1 F= -.99923105E+01 E0= -.99852298E+01  d E =-.999231E+01
