 running on    8 total cores
 distrk:  each k-point on    8 cores,    1 groups
 distr:  one band on    1 cores,    8 groups
 using from now: INCAR     
 vasp.5.4.4.18Apr17-6-g9f103f2a35 (build Dec 09 2018 21:25:21) complex          
  
 POSCAR found type information on POSCAR  Si
 POSCAR found :  1 types and       2 ions
 scaLAPACK will be used

 ----------------------------------------------------------------------------- 
|                                                                             |
|           W    W    AA    RRRRR   N    N  II  N    N   GGGG   !!!           |
|           W    W   A  A   R    R  NN   N  II  NN   N  G    G  !!!           |
|           W    W  A    A  R    R  N N  N  II  N N  N  G       !!!           |
|           W WW W  AAAAAA  RRRRR   N  N N  II  N  N N  G  GGG   !            |
|           WW  WW  A    A  R   R   N   NN  II  N   NN  G    G                |
|           W    W  A    A  R    R  N    N  II  N    N   GGGG   !!!           |
|                                                                             |
|      For optimal performance we recommend to set                            |
|        NCORE= 4 - approx SQRT( number of cores)                             |
|      NCORE specifies how many cores store one orbital (NPAR=cpu/NCORE).     |
|      This setting can  greatly improve the performance of VASP for DFT.     |
|      The default,   NCORE=1            might be grossly inefficient         |
|      on modern multi-core architectures or massively parallel machines.     |
|      Do your own testing !!!!                                               |
|      Unfortunately you need to use the default for GW and RPA calculations. |
|      (for HF NCORE is supported but not extensively tested yet)             |
|                                                                             |
 ----------------------------------------------------------------------------- 

 LDA part: xc-table for Pade appr. of Perdew
 POSCAR, INCAR and KPOINTS ok, starting setup
 FFT: planning ...
 WAVECAR not read
 entering main loop
       N       E                     dE             d eps       ncg     rms          rms(c)
DAV:   1    -0.788518380917E+00   -0.78852E+00   -0.26017E+03   184   0.517E+02
DAV:   2    -0.987605252798E+01   -0.90875E+01   -0.86649E+01   248   0.582E+01
DAV:   3    -0.999984679999E+01   -0.12379E+00   -0.12356E+00   240   0.798E+00
DAV:   4    -0.100001835657E+02   -0.33677E-03   -0.33675E-03   272   0.380E-01
DAV:   5    -0.100001837573E+02   -0.19165E-06   -0.19020E-06   248   0.803E-03    0.150E+00
DAV:   6    -0.999593178998E+01    0.42520E-02   -0.17055E-03   240   0.321E-01    0.938E-01
DAV:   7    -0.999232804924E+01    0.36037E-02   -0.51457E-03   192   0.569E-01    0.339E-02
DAV:   8    -0.999231051077E+01    0.17538E-04   -0.10250E-04   128   0.790E-02
   1 F= -.99923105E+01 E0= -.99852298E+01  d E =-.999231E+01
 curvature:   0.00 expect dE= 0.000E+00 dE for cont linesearch  0.000E+00
 trial: gam= 0.00000 g(F)=  0.838E-47 g(S)=  0.000E+00 ort = 0.000E+00 (trialstep = 0.100E+01)
 search vector abs. value=  0.100E-09
 reached required accuracy - stopping structural energy minimisation
 writing wavefunctions
