<?xml version="1.0" encoding="ISO-8859-1"?>
<modeling>
 <generator>
  <i name="program" type="string">vasp </i>
  <i name="version" type="string">5.4.4.18Apr17-6-g9f103f2a35  </i>
  <i name="subversion" type="string">(build Dec 09 2018 21:25:21) complex            parallel </i>
  <i name="platform" type="string">IFC18.0.1.163_CrayMPICH7.7.0_MKL18.0.1.163 </i>
  <i name="date" type="string">2019 03 19 </i>
  <i name="time" type="string">13:18:09 </i>
 </generator>
 <incar>
  <i type="string" name="PREC">normal</i>
  <i type="int" name="IBRION">     2</i>
  <i name="EDIFF">      0.00040000</i>
  <i name="EDIFFG">     -0.01000000</i>
  <i type="int" name="NSW">    15</i>
  <i type="int" name="ISIF">     2</i>
  <i name="ENCUT">    300.00000000</i>
  <i type="int" name="NBANDS">     8</i>
  <i type="logical" name="LREAL"> F  </i>
  <i type="int" name="ISMEAR">     0</i>
  <i name="SIGMA">      0.20000000</i>
  <v type="int" name="KPOINT_BSE">    -1     0     0     0</v>
 </incar>
 <structure name="primitive_cell" >
  <crystal>
   <varray name="basis" >
    <v>      -2.45000000       2.45000000       1.27400000 </v>
    <v>       2.45000000      -2.45000000       1.27400000 </v>
    <v>       2.45000000       2.45000000      -1.27400000 </v>
   </varray>
   <i name="volume">     30.58874000 </i>
   <varray name="rec_basis" >
    <v>       0.00000000       0.20408163       0.39246468 </v>
    <v>       0.20408163       0.00000000       0.39246468 </v>
    <v>       0.20408163       0.20408163      -0.00000000 </v>
   </varray>
  </crystal>
  <varray name="positions" >
   <v>       0.25000000      -0.25000000      -0.50000000 </v>
   <v>       0.00000000       0.00000000       0.00000000 </v>
  </varray>
 </structure>
 <varray name="primitive_index" >
  <v type="int" >        1 </v>
  <v type="int" >        2 </v>
 </varray>
 <kpoints>
  <generation param="Monkhorst-Pack">
   <v type="int" name="divisions">       4        4        4 </v>
   <v name="usershift">      0.00000000       0.00000000       0.00000000 </v>
   <v name="genvec1">      0.25000000       0.00000000      -0.00000000 </v>
   <v name="genvec2">      0.00000000       0.25000000      -0.00000000 </v>
   <v name="genvec3">      0.00000000      -0.00000000       0.25000000 </v>
   <v name="shift">      0.50000000       0.50000000       0.50000000 </v>
  </generation>
  <varray name="kpointlist" >
   <v>       0.12500000       0.12500000       0.12500000 </v>
   <v>       0.37500000       0.12500000       0.12500000 </v>
   <v>      -0.12500000       0.12500000       0.12500000 </v>
   <v>       0.37500000       0.37500000       0.12500000 </v>
   <v>      -0.37500000       0.37500000       0.12500000 </v>
   <v>      -0.12500000       0.37500000       0.12500000 </v>
   <v>      -0.37500000      -0.37500000       0.12500000 </v>
   <v>      -0.12500000      -0.37500000       0.12500000 </v>
   <v>      -0.12500000      -0.12500000       0.12500000 </v>
   <v>      -0.37500000       0.37500000       0.37500000 </v>
   <v>      -0.37500000      -0.37500000       0.37500000 </v>
  </varray>
  <varray name="weights" >
   <v>       0.12500000 </v>
   <v>       0.12500000 </v>
   <v>       0.06250000 </v>
   <v>       0.06250000 </v>
   <v>       0.12500000 </v>
   <v>       0.12500000 </v>
   <v>       0.12500000 </v>
   <v>       0.12500000 </v>
   <v>       0.03125000 </v>
   <v>       0.06250000 </v>
   <v>       0.03125000 </v>
  </varray>
 </kpoints>
 <parameters>
  <separator name="general" >
   <i type="string" name="SYSTEM">unknown system</i>
   <i type="logical" name="LCOMPAT"> F  </i>
  </separator>
  <separator name="electronic" >
   <i type="string" name="PREC">normal</i>
   <i name="ENMAX">    300.00000000</i>
   <i name="ENAUG">    322.06900000</i>
   <i name="EDIFF">      0.00040000</i>
   <i type="int" name="IALGO">    38</i>
   <i type="int" name="IWAVPR">    11</i>
   <i type="int" name="NBANDS">     8</i>
   <i name="NELECT">      8.00000000</i>
   <i type="int" name="TURBO">     0</i>
   <i type="int" name="IRESTART">     0</i>
   <i type="int" name="NREBOOT">     0</i>
   <i type="int" name="NMIN">     0</i>
   <i name="EREF">      0.00000000</i>
   <separator name="electronic smearing" >
    <i type="int" name="ISMEAR">     0</i>
    <i name="SIGMA">      0.20000000</i>
    <i name="KSPACING">      0.50000000</i>
    <i type="logical" name="KGAMMA"> T  </i>
   </separator>
   <separator name="electronic projectors" >
    <i type="logical" name="LREAL"> F  </i>
    <v name="ROPT">      0.00000000</v>
    <i type="int" name="LMAXPAW">  -100</i>
    <i type="int" name="LMAXMIX">     2</i>
    <i type="logical" name="NLSPLINE"> F  </i>
   </separator>
   <separator name="electronic startup" >
    <i type="int" name="ISTART">     1</i>
    <i type="int" name="ICHARG">     0</i>
    <i type="int" name="INIWAV">     1</i>
   </separator>
   <separator name="electronic spin" >
    <i type="int" name="ISPIN">     1</i>
    <i type="logical" name="LNONCOLLINEAR"> F  </i>
    <v name="MAGMOM">      1.00000000      1.00000000</v>
    <i name="NUPDOWN">     -1.00000000</i>
    <i type="logical" name="LSORBIT"> F  </i>
    <v name="SAXIS">      0.00000000      0.00000000      1.00000000</v>
    <i type="logical" name="LSPIRAL"> F  </i>
    <v name="QSPIRAL">      0.00000000      0.00000000      0.00000000</v>
    <i type="logical" name="LZEROZ"> F  </i>
   </separator>
   <separator name="electronic exchange-correlation" >
    <i type="logical" name="LASPH"> F  </i>
    <i type="logical" name="LMETAGGA"> F  </i>
   </separator>
   <separator name="electronic convergence" >
    <i type="int" name="NELM">    60</i>
    <i type="int" name="NELMDL">     0</i>
    <i type="int" name="NELMIN">     2</i>
    <i name="ENINI">    300.00000000</i>
    <separator name="electronic convergence detail" >
     <i type="logical" name="LDIAG"> T  </i>
     <i type="logical" name="LSUBROT"> F  </i>
     <i name="WEIMIN">      0.00100000</i>
     <i name="EBREAK">      0.00001250</i>
     <i name="DEPER">      0.30000000</i>
     <i type="int" name="NRMM">     4</i>
     <i name="TIME">      0.40000000</i>
    </separator>
   </separator>
   <separator name="electronic mixer" >
    <i name="AMIX">      0.40000000</i>
    <i name="BMIX">      1.00000000</i>
    <i name="AMIN">      0.10000000</i>
    <i name="AMIX_MAG">      1.60000000</i>
    <i name="BMIX_MAG">      1.00000000</i>
    <separator name="electronic mixer details" >
     <i type="int" name="IMIX">     4</i>
     <i type="logical" name="MIXFIRST"> F  </i>
     <i type="int" name="MAXMIX">   -45</i>
     <i name="WC">    100.00000000</i>
     <i type="int" name="INIMIX">     1</i>
     <i type="int" name="MIXPRE">     1</i>
     <i type="int" name="MREMOVE">     5</i>
    </separator>
   </separator>
   <separator name="electronic dipolcorrection" >
    <i type="logical" name="LDIPOL"> F  </i>
    <i type="logical" name="LMONO"> F  </i>
    <i type="int" name="IDIPOL">     0</i>
    <i name="EPSILON">      1.00000000</i>
    <v name="DIPOL">   -100.00000000   -100.00000000   -100.00000000</v>
    <i name="EFIELD">      0.00000000</i>
   </separator>
  </separator>
  <separator name="grids" >
   <i type="int" name="NGX">    16</i>
   <i type="int" name="NGY">    16</i>
   <i type="int" name="NGZ">    16</i>
   <i type="int" name="NGXF">    32</i>
   <i type="int" name="NGYF">    32</i>
   <i type="int" name="NGZF">    32</i>
   <i type="logical" name="ADDGRID"> F  </i>
  </separator>
  <separator name="ionic" >
   <i type="int" name="NSW">    15</i>
   <i type="int" name="IBRION">     2</i>
   <i type="int" name="MDALGO">     0</i>
   <i type="int" name="ISIF">     2</i>
   <i name="PSTRESS">      0.00000000</i>
   <i name="EDIFFG">     -0.01000000</i>
   <i type="int" name="NFREE">     1</i>
   <i name="POTIM">      0.50000000</i>
   <i name="SMASS">     -3.00000000</i>
   <i name="SCALEE">      1.00000000</i>
  </separator>
  <separator name="ionic md" >
   <i name="TEBEG">      0.00010000</i>
   <i name="TEEND">      0.00010000</i>
   <i type="int" name="NBLOCK">     1</i>
   <i type="int" name="KBLOCK">    15</i>
   <i type="int" name="NPACO">   256</i>
   <i name="APACO">     16.00000000</i>
  </separator>
  <separator name="symmetry" >
   <i type="int" name="ISYM">     2</i>
   <i name="SYMPREC">      0.00001000</i>
  </separator>
  <separator name="dos" >
   <i type="int" name="LORBIT">     0</i>
   <v name="RWIGS">     -1.00000000</v>
   <i type="int" name="NEDOS">   301</i>
   <i name="EMIN">     10.00000000</i>
   <i name="EMAX">    -10.00000000</i>
   <i name="EFERMI">      0.00000000</i>
  </separator>
  <separator name="writing" >
   <i type="int" name="NWRITE">     2</i>
   <i type="logical" name="LWAVE"> T  </i>
   <i type="logical" name="LDOWNSAMPLE"> F  </i>
   <i type="logical" name="LCHARG"> T  </i>
   <i type="logical" name="LPARD"> F  </i>
   <i type="logical" name="LVTOT"> F  </i>
   <i type="logical" name="LVHAR"> F  </i>
   <i type="logical" name="LELF"> F  </i>
   <i type="logical" name="LOPTICS"> F  </i>
   <v name="STM">      0.00000000      0.00000000      0.00000000      0.00000000      0.00000000      0.00000000      0.00000000</v>
  </separator>
  <separator name="performance" >
   <i type="int" name="NPAR">     8</i>
   <i type="int" name="NSIM">     4</i>
   <i type="int" name="NBLK">    -1</i>
   <i type="logical" name="LPLANE"> T  </i>
   <i type="logical" name="LSCALAPACK"> T  </i>
   <i type="logical" name="LSCAAWARE"> F  </i>
   <i type="logical" name="LSCALU"> F  </i>
   <i type="logical" name="LASYNC"> F  </i>
   <i type="logical" name="LORBITALREAL"> F  </i>
  </separator>
  <separator name="miscellaneous" >
   <i type="int" name="IDIOT">     3</i>
   <i type="int" name="ISPECIAL">     0</i>
   <i type="logical" name="LMUSIC"> F  </i>
   <v name="POMASS">     28.08500000</v>
   <v name="DARWINR">      0.00000000</v>
   <v name="DARWINV">      1.00000000</v>
   <i type="logical" name="LCORR"> T  </i>
  </separator>
  <i type="logical" name="GGA_COMPAT"> T  </i>
  <i type="logical" name="LBERRY"> F  </i>
  <i type="int" name="ICORELEVEL">     0</i>
  <i type="logical" name="LDAU"> F  </i>
  <i type="int" name="I_CONSTRAINED_M">     0</i>
  <separator name="electronic exchange-correlation" >
   <i type="string" name="GGA">--</i>
   <i type="int" name="VOSKOWN">     0</i>
   <i type="logical" name="LHFCALC"> F  </i>
   <i type="string" name="PRECFOCK"></i>
   <i type="logical" name="LSYMGRAD"> F  </i>
   <i type="logical" name="LHFONE"> F  </i>
   <i type="logical" name="LRHFCALC"> F  </i>
   <i type="logical" name="LTHOMAS"> F  </i>
   <i type="logical" name="LMODELHF"> F  </i>
   <i name="ENCUT4O">     -1.00000000</i>
   <i type="int" name="EXXOEP">     0</i>
   <i type="int" name="FOURORBIT">     0</i>
   <i name="AEXX">      0.00000000</i>
   <i name="HFALPHA">      0.00000000</i>
   <i name="MCALPHA">      0.00000000</i>
   <i name="ALDAX">      1.00000000</i>
   <i name="AGGAX">      1.00000000</i>
   <i name="ALDAC">      1.00000000</i>
   <i name="AGGAC">      1.00000000</i>
   <i type="int" name="NKREDX">     1</i>
   <i type="int" name="NKREDY">     1</i>
   <i type="int" name="NKREDZ">     1</i>
   <i type="logical" name="SHIFTRED"> F  </i>
   <i type="logical" name="ODDONLY"> F  </i>
   <i type="logical" name="EVENONLY"> F  </i>
   <i type="int" name="LMAXFOCK">     0</i>
   <i type="int" name="NMAXFOCKAE">     0</i>
   <i type="logical" name="LFOCKAEDFT"> F  </i>
   <i name="HFSCREEN">      0.00000000</i>
   <i name="HFSCREENC">      0.00000000</i>
   <i type="int" name="NBANDSGWLOW">     0</i>
  </separator>
  <separator name="vdW DFT" >
   <i type="logical" name="LUSE_VDW"> F  </i>
   <i name="Zab_VDW">     -0.84910000</i>
   <i name="PARAM1">      0.12340000</i>
   <i name="PARAM2">      1.00000000</i>
   <i name="PARAM3">      0.00000000</i>
  </separator>
  <separator name="model GW" >
   <i type="int" name="MODEL_GW">     0</i>
   <i name="MODEL_EPS0">      9.17662200</i>
   <i name="MODEL_ALPHA">      1.00000000</i>
  </separator>
  <separator name="linear response parameters" >
   <i type="logical" name="LEPSILON"> F  </i>
   <i type="logical" name="LRPA"> F  </i>
   <i type="logical" name="LNABLA"> F  </i>
   <i type="logical" name="LVEL"> F  </i>
   <i type="int" name="KINTER">     0</i>
   <i name="CSHIFT">      0.10000000</i>
   <i name="OMEGAMAX">     -1.00000000</i>
   <i name="DEG_THRESHOLD">      0.00200000</i>
   <i name="RTIME">     -0.10000000</i>
   <i name="WPLASMAI">      0.00000000</i>
   <v name="DFIELD">      0.00000000      0.00000000      0.00000000</v>
   <v name="WPLASMA">      0.00000000      0.00000000      0.00000000      0.00000000      0.00000000      0.00000000      0.00000000      0.00000000      0.00000000</v>
  </separator>
  <separator name="orbital magnetization" >
   <i type="logical" name="NUCIND"> F  </i>
   <v name="MAGPOS">      0.00000000      0.00000000      0.00000000</v>
   <i type="logical" name="LNICSALL"> T  </i>
   <i type="logical" name="ORBITALMAG"> F  </i>
   <i type="logical" name="LMAGBLOCH"> F  </i>
   <i type="logical" name="LCHIMAG"> F  </i>
   <i type="logical" name="LGAUGE"> T  </i>
   <i type="int" name="MAGATOM">     0</i>
   <v name="MAGDIPOL">      0.00000000      0.00000000      0.00000000</v>
   <v name="AVECCONST">      0.00000000      0.00000000      0.00000000</v>
  </separator>
  <separator name="response functions" >
   <i type="logical" name="LADDER"> F  </i>
   <i type="logical" name="LRPAFORCE"> F  </i>
   <i type="logical" name="LFXC"> F  </i>
   <i type="logical" name="LHARTREE"> T  </i>
   <i type="int" name="IBSE">     0</i>
   <v type="int" name="KPOINT">    -1     0     0     0</v>
   <i type="logical" name="LTCTE"> F  </i>
   <i type="logical" name="LTETE"> F  </i>
   <i type="logical" name="LTRIPLET"> F  </i>
   <i type="logical" name="LFXCEPS"> F  </i>
   <i type="logical" name="LFXHEG"> F  </i>
   <i type="int" name="NATURALO">     2</i>
   <i type="logical" name="L2ORDER"> F  </i>
   <i type="logical" name="LMP2LT"> F  </i>
   <i type="logical" name="LUSEW"> F  </i>
   <i name="ENCUTGW">     -2.00000000</i>
   <i name="ENCUTGWSOFT">     -2.00000000</i>
   <i name="ENCUTLF">     -1.00000000</i>
   <i type="int" name="LMAXMP2">    -1</i>
   <i name="SCISSOR">      0.00000000</i>
   <i type="int" name="NOMEGA">     0</i>
   <i type="int" name="NOMEGAR">     0</i>
   <i type="int" name="NBANDSGW">    -1</i>
   <i type="int" name="NBANDSO">    -1</i>
   <i type="int" name="NBANDSV">    -1</i>
   <i type="int" name="NELM">     1</i>
   <i type="int" name="NELMHF">     1</i>
   <i type="int" name="DIM">     3</i>
   <i type="int" name="ANTIRES">     0</i>
   <i name="OMEGAMAX">    -30.00000000</i>
   <i name="OMEGAMIN">    -30.00000000</i>
   <i name="OMEGATL">   -200.00000000</i>
   <i type="int" name="OMEGAGRID">   140</i>
   <i name="CSHIFT">     -0.10000000</i>
   <i type="logical" name="SELFENERGY"> F  </i>
   <i type="logical" name="LSPECTRAL"> F  </i>
   <i type="logical" name="LSPECTRALGW"> F  </i>
   <i type="logical" name="LSINGLES"> F  </i>
   <i type="logical" name="LFERMIGW"> F  </i>
   <i type="logical" name="ODDONLYGW"> F  </i>
   <i type="logical" name="EVENONLYGW"> F  </i>
   <i type="int" name="NKREDLFX">     1</i>
   <i type="int" name="NKREDLFY">     1</i>
   <i type="int" name="NKREDLFZ">     1</i>
   <i type="int" name="MAXMEM">  2800</i>
   <i type="int" name="TELESCOPE">     0</i>
   <i type="int" name="TAUPAR">     1</i>
   <i type="int" name="OMEGAPAR">    -1</i>
   <i name="LAMBDA">      1.00000000</i>
  </separator>
  <separator name="External order field" >
   <i name="OFIELD_KAPPA">      0.00000000</i>
   <v name="OFIELD_K">      0.00000000      0.00000000      0.00000000</v>
   <i name="OFIELD_Q6_NEAR">      0.00000000</i>
   <i name="OFIELD_Q6_FAR">      0.00000000</i>
   <i name="OFIELD_A">      0.00000000</i>
  </separator>
 </parameters>
 <atominfo>
  <atoms>       2 </atoms>
  <types>       1 </types>
  <array name="atoms" >
   <dimension dim="1">ion</dimension>
   <field type="string">element</field>
   <field type="int">atomtype</field>
   <set>
    <rc><c>Si</c><c>   1</c></rc>
    <rc><c>Si</c><c>   1</c></rc>
   </set>
  </array>
  <array name="atomtypes" >
   <dimension dim="1">type</dimension>
   <field type="int">atomspertype</field>
   <field type="string">element</field>
   <field>mass</field>
   <field>valence</field>
   <field type="string">pseudopotential</field>
   <set>
    <rc><c>   2</c><c>Si</c><c>     28.08500000</c><c>      4.00000000</c><c> PAW_PBE Si 05Jan2001                   </c></rc>
   </set>
  </array>
 </atominfo>
 <structure name="initialpos" >
  <crystal>
   <varray name="basis" >
    <v>      -2.45000000       2.45000000       1.27400000 </v>
    <v>       2.45000000      -2.45000000       1.27400000 </v>
    <v>       2.45000000       2.45000000      -1.27400000 </v>
   </varray>
   <i name="volume">     30.58874000 </i>
   <varray name="rec_basis" >
    <v>       0.00000000       0.20408163       0.39246468 </v>
    <v>       0.20408163       0.00000000       0.39246468 </v>
    <v>       0.20408163       0.20408163      -0.00000000 </v>
   </varray>
  </crystal>
  <varray name="positions" >
   <v>       0.25000000       0.75000000       0.50000000 </v>
   <v>       0.00000000       0.00000000       0.00000000 </v>
  </varray>
 </structure>
 <calculation>
  <scstep>
   <time name="dav">    0.08    0.09</time>
   <time name="total">    0.13    0.15</time>
   <energy>
    <i name="alphaZ">      4.40202223 </i>
    <i name="ewald">   -265.18101312 </i>
    <i name="hartreedc">     -2.51586854 </i>
    <i name="XCdc">    -17.57876658 </i>
    <i name="pawpsdc">     70.37384391 </i>
    <i name="pawaedc">    -35.28858097 </i>
    <i name="eentropy">     -0.01416116 </i>
    <i name="bandstr">     29.68052743 </i>
    <i name="atom">    206.12968587 </i>
    <i name="e_fr_energy">     -9.99231092 </i>
    <i name="e_wo_entrp">     -9.97814976 </i>
    <i name="e_0_energy">     -9.98523034 </i>
   </energy>
  </scstep>
  <scstep>
   <time name="dav">    0.06    0.06</time>
   <time name="total">    0.09    0.10</time>
   <energy>
    <i name="alphaZ">      4.40202223 </i>
    <i name="ewald">   -265.18101312 </i>
    <i name="hartreedc">     -2.51603904 </i>
    <i name="XCdc">    -17.57873991 </i>
    <i name="pawpsdc">     70.37397668 </i>
    <i name="pawaedc">    -35.28871757 </i>
    <i name="eentropy">     -0.01416113 </i>
    <i name="bandstr">     29.68067502 </i>
    <i name="atom">    206.12968587 </i>
    <i name="e_fr_energy">     -9.99231095 </i>
    <i name="e_wo_entrp">     -9.97814982 </i>
    <i name="e_0_energy">     -9.98523039 </i>
   </energy>
  </scstep>
  <structure>
   <crystal>
    <varray name="basis" >
     <v>      -2.45000000       2.45000000       1.27400000 </v>
     <v>       2.45000000      -2.45000000       1.27400000 </v>
     <v>       2.45000000       2.45000000      -1.27400000 </v>
    </varray>
    <i name="volume">     30.58874000 </i>
    <varray name="rec_basis" >
     <v>       0.00000000       0.20408163       0.39246468 </v>
     <v>       0.20408163       0.00000000       0.39246468 </v>
     <v>       0.20408163       0.20408163      -0.00000000 </v>
    </varray>
   </crystal>
   <varray name="positions" >
    <v>       0.25000000       0.75000000       0.50000000 </v>
    <v>       0.00000000       0.00000000       0.00000000 </v>
   </varray>
  </structure>
  <varray name="forces" >
   <v>       0.00000000       0.00000000       0.00000000 </v>
   <v>      -0.00000000      -0.00000000      -0.00000000 </v>
  </varray>
  <varray name="stress" >
   <v>     -57.12927397       0.00000000       0.00000000 </v>
   <v>       0.00000000     -57.12927397       0.00000000 </v>
   <v>       0.00000000      -0.00000000     157.70248974 </v>
  </varray>
  <energy>
   <i name="e_fr_energy">     -9.99231095 </i>
   <i name="e_wo_entrp">     -9.98523039 </i>
   <i name="e_0_energy">     -0.01416113 </i>
  </energy>
  <time name="totalsc">    1.08    1.78</time>
  <eigenvalues>
   <array>
    <dimension dim="1">band</dimension>
    <dimension dim="2">kpoint</dimension>
    <dimension dim="3">spin</dimension>
    <field>eigene</field>
    <field>occ</field>
    <set>
     <set comment="spin 1">
      <set comment="kpoint 1">
       <r>   -2.4878    1.0000 </r>
       <r>    3.2218    1.0000 </r>
       <r>    8.0601    1.0000 </r>
       <r>    9.5449    0.0151 </r>
       <r>   11.1795    0.0000 </r>
       <r>   11.3034    0.0000 </r>
       <r>   14.3188    0.0000 </r>
       <r>   15.0821    0.0000 </r>
      </set>
      <set comment="kpoint 2">
       <r>    2.3979    1.0000 </r>
       <r>    2.9216    1.0000 </r>
       <r>    5.3032    1.0000 </r>
       <r>    5.5542    1.0000 </r>
       <r>   10.5628    0.0000 </r>
       <r>   12.2589    0.0000 </r>
       <r>   13.8868    0.0000 </r>
       <r>   14.4276    0.0000 </r>
      </set>
      <set comment="kpoint 3">
       <r>   -4.2420    1.0000 </r>
       <r>    3.7487    1.0000 </r>
       <r>    5.1645    1.0000 </r>
       <r>    9.3400    0.2361 </r>
       <r>   12.3803    0.0000 </r>
       <r>   12.8427    0.0000 </r>
       <r>   17.6769    0.0000 </r>
       <r>   18.0132    0.0000 </r>
      </set>
      <set comment="kpoint 4">
       <r>   -0.3006    1.0000 </r>
       <r>   -0.3006    1.0000 </r>
       <r>    9.4050    0.1193 </r>
       <r>    9.4050    0.1193 </r>
       <r>   11.1281    0.0000 </r>
       <r>   11.1281    0.0000 </r>
       <r>   12.7125    0.0000 </r>
       <r>   12.7125    0.0000 </r>
      </set>
      <set comment="kpoint 5">
       <r>   -2.7664    1.0000 </r>
       <r>    0.1184    1.0000 </r>
       <r>    6.0644    1.0000 </r>
       <r>    8.8293    0.9981 </r>
       <r>   11.7283    0.0000 </r>
       <r>   14.4383    0.0000 </r>
       <r>   17.5853    0.0000 </r>
       <r>   18.3626    0.0000 </r>
      </set>
      <set comment="kpoint 6">
       <r>   -1.7583    1.0000 </r>
       <r>    3.2647    1.0000 </r>
       <r>    4.9173    1.0000 </r>
       <r>    8.7874    0.9993 </r>
       <r>    9.7467    0.0002 </r>
       <r>   13.8107    0.0000 </r>
       <r>   14.8770    0.0000 </r>
       <r>   15.4168    0.0000 </r>
      </set>
      <set comment="kpoint 7">
       <r>    0.3791    1.0000 </r>
       <r>    0.3929    1.0000 </r>
       <r>    6.3456    1.0000 </r>
       <r>    6.3459    1.0000 </r>
       <r>    8.2724    1.0000 </r>
       <r>   13.9798    0.0000 </r>
       <r>   16.7172    0.0000 </r>
       <r>   17.6640    0.0000 </r>
      </set>
      <set comment="kpoint 8">
       <r>    1.2099    1.0000 </r>
       <r>    4.0734    1.0000 </r>
       <r>    6.1396    1.0000 </r>
       <r>    7.4849    1.0000 </r>
       <r>    8.4590    1.0000 </r>
       <r>   10.8475    0.0000 </r>
       <r>   11.2054    0.0000 </r>
       <r>   14.7699    0.0000 </r>
      </set>
      <set comment="kpoint 9">
       <r>   -3.2255    1.0000 </r>
       <r>    7.4245    1.0000 </r>
       <r>    7.4542    1.0000 </r>
       <r>    7.4542    1.0000 </r>
       <r>   11.9248    0.0000 </r>
       <r>   12.0718    0.0000 </r>
       <r>   12.4604    0.0000 </r>
       <r>   14.6791    0.0000 </r>
      </set>
      <set comment="kpoint 10">
       <r>   -1.3425    1.0000 </r>
       <r>    0.8238    1.0000 </r>
       <r>    2.6305    1.0000 </r>
       <r>    4.7565    1.0000 </r>
       <r>   15.8851    0.0000 </r>
       <r>   16.5357    0.0000 </r>
       <r>   18.4944    0.0000 </r>
       <r>   19.9845    0.0000 </r>
      </set>
      <set comment="kpoint 11">
       <r>    1.7912    1.0000 </r>
       <r>    1.8253    1.0000 </r>
       <r>    3.5964    1.0000 </r>
       <r>    3.5964    1.0000 </r>
       <r>    7.5877    1.0000 </r>
       <r>   17.1561    0.0000 </r>
       <r>   18.2113    0.0000 </r>
       <r>   18.2114    0.0000 </r>
      </set>
     </set>
    </set>
   </array>
  </eigenvalues>
  <separator name="orbital magnetization" >
   <v name="MAGDIPOLOUT">      0.00000000      0.00000000      0.00000000</v>
  </separator>
  <dos>
   <i name="efermi">      9.23833749 </i>
   <total>
    <array>
     <dimension dim="1">gridpoints</dimension>
     <dimension dim="2">spin</dimension>
     <field>energy</field>
     <field>total</field>
     <field>integrated</field>
     <set>
      <set comment="spin 1">
       <r>    -6.2420     0.0000     0.0000 </r>
       <r>    -6.1480     0.0000     0.0000 </r>
       <r>    -6.0539     0.0000     0.0000 </r>
       <r>    -5.9598     0.0000     0.0000 </r>
       <r>    -5.8657     0.0000     0.0000 </r>
       <r>    -5.7716     0.0000     0.0000 </r>
       <r>    -5.6775     0.0000     0.0000 </r>
       <r>    -5.5834     0.0000     0.0000 </r>
       <r>    -5.4893     0.0000     0.0000 </r>
       <r>    -5.3952     0.0000     0.0000 </r>
       <r>    -5.3012     0.0000     0.0000 </r>
       <r>    -5.2071     0.0000     0.0000 </r>
       <r>    -5.1130     0.0000     0.0000 </r>
       <r>    -5.0189     0.0000     0.0000 </r>
       <r>    -4.9248     0.0000     0.0000 </r>
       <r>    -4.8307     0.0000     0.0000 </r>
       <r>    -4.7366     0.0003     0.0000 </r>
       <r>    -4.6425     0.0028     0.0003 </r>
       <r>    -4.5484     0.0170     0.0019 </r>
       <r>    -4.4544     0.0684     0.0083 </r>
       <r>    -4.3603     0.1793     0.0252 </r>
       <r>    -4.2662     0.3064     0.0540 </r>
       <r>    -4.1721     0.3419     0.0862 </r>
       <r>    -4.0780     0.2490     0.1096 </r>
       <r>    -3.9839     0.1183     0.1208 </r>
       <r>    -3.8898     0.0367     0.1242 </r>
       <r>    -3.7957     0.0074     0.1249 </r>
       <r>    -3.7017     0.0012     0.1250 </r>
       <r>    -3.6076     0.0021     0.1252 </r>
       <r>    -3.5135     0.0116     0.1263 </r>
       <r>    -3.4194     0.0427     0.1303 </r>
       <r>    -3.3253     0.1030     0.1400 </r>
       <r>    -3.2312     0.1631     0.1554 </r>
       <r>    -3.1371     0.1764     0.1720 </r>
       <r>    -3.0430     0.1668     0.1877 </r>
       <r>    -2.9489     0.2444     0.2107 </r>
       <r>    -2.8549     0.4698     0.2549 </r>
       <r>    -2.7608     0.7257     0.3231 </r>
       <r>    -2.6667     0.8505     0.4032 </r>
       <r>    -2.5726     0.8678     0.4848 </r>
       <r>    -2.4785     0.8402     0.5639 </r>
       <r>    -2.3844     0.6877     0.6286 </r>
       <r>    -2.2903     0.4097     0.6671 </r>
       <r>    -2.1962     0.1671     0.6828 </r>
       <r>    -2.1021     0.0611     0.6886 </r>
       <r>    -2.0081     0.0904     0.6971 </r>
       <r>    -1.9140     0.2581     0.7214 </r>
       <r>    -1.8199     0.5216     0.7705 </r>
       <r>    -1.7258     0.6929     0.8357 </r>
       <r>    -1.6317     0.6172     0.8937 </r>
       <r>    -1.5376     0.4191     0.9332 </r>
       <r>    -1.4435     0.3272     0.9639 </r>
       <r>    -1.3494     0.3522     0.9971 </r>
       <r>    -1.2553     0.3377     1.0288 </r>
       <r>    -1.1613     0.2248     1.0500 </r>
       <r>    -1.0672     0.0986     1.0593 </r>
       <r>    -0.9731     0.0283     1.0619 </r>
       <r>    -0.8790     0.0053     1.0624 </r>
       <r>    -0.7849     0.0014     1.0626 </r>
       <r>    -0.6908     0.0069     1.0632 </r>
       <r>    -0.5967     0.0405     1.0670 </r>
       <r>    -0.5026     0.1553     1.0816 </r>
       <r>    -0.4086     0.3884     1.1182 </r>
       <r>    -0.3145     0.6359     1.1780 </r>
       <r>    -0.2204     0.6935     1.2433 </r>
       <r>    -0.1263     0.5584     1.2958 </r>
       <r>    -0.0322     0.4902     1.3419 </r>
       <r>     0.0619     0.6479     1.4029 </r>
       <r>     0.1560     0.9215     1.4896 </r>
       <r>     0.2501     1.2029     1.6028 </r>
       <r>     0.3442     1.4655     1.7407 </r>
       <r>     0.4382     1.5014     1.8819 </r>
       <r>     0.5323     1.1402     1.9892 </r>
       <r>     0.6264     0.6491     2.0503 </r>
       <r>     0.7205     0.3915     2.0871 </r>
       <r>     0.8146     0.3687     2.1218 </r>
       <r>     0.9087     0.3776     2.1573 </r>
       <r>     1.0028     0.3741     2.1925 </r>
       <r>     1.0969     0.4745     2.2372 </r>
       <r>     1.1910     0.6527     2.2986 </r>
       <r>     1.2850     0.6851     2.3630 </r>
       <r>     1.3791     0.4855     2.4087 </r>
       <r>     1.4732     0.2351     2.4308 </r>
       <r>     1.5673     0.1158     2.4417 </r>
       <r>     1.6614     0.1541     2.4562 </r>
       <r>     1.7555     0.2730     2.4819 </r>
       <r>     1.8496     0.3438     2.5143 </r>
       <r>     1.9437     0.2873     2.5413 </r>
       <r>     2.0377     0.1686     2.5572 </r>
       <r>     2.1318     0.1213     2.5686 </r>
       <r>     2.2259     0.2336     2.5905 </r>
       <r>     2.3200     0.4933     2.6370 </r>
       <r>     2.4141     0.7424     2.7068 </r>
       <r>     2.5082     0.8065     2.7827 </r>
       <r>     2.6023     0.7107     2.8496 </r>
       <r>     2.6964     0.6105     2.9070 </r>
       <r>     2.7905     0.6196     2.9653 </r>
       <r>     2.8845     0.7420     3.0351 </r>
       <r>     2.9786     0.8691     3.1169 </r>
       <r>     3.0727     0.9905     3.2101 </r>
       <r>     3.1668     1.2277     3.3256 </r>
       <r>     3.2609     1.4410     3.4612 </r>
       <r>     3.3550     1.3096     3.5844 </r>
       <r>     3.4491     0.9171     3.6707 </r>
       <r>     3.5432     0.6499     3.7318 </r>
       <r>     3.6373     0.6175     3.7899 </r>
       <r>     3.7313     0.6326     3.8495 </r>
       <r>     3.8254     0.5813     3.9042 </r>
       <r>     3.9195     0.5564     3.9565 </r>
       <r>     4.0136     0.6490     4.0176 </r>
       <r>     4.1077     0.7248     4.0858 </r>
       <r>     4.2018     0.5971     4.1419 </r>
       <r>     4.2959     0.3313     4.1731 </r>
       <r>     4.3900     0.1261     4.1850 </r>
       <r>     4.4841     0.0608     4.1907 </r>
       <r>     4.5781     0.1252     4.2025 </r>
       <r>     4.6722     0.3179     4.2324 </r>
       <r>     4.7663     0.6072     4.2895 </r>
       <r>     4.8604     0.8739     4.3717 </r>
       <r>     4.9545     0.9771     4.4637 </r>
       <r>     5.0486     0.9253     4.5507 </r>
       <r>     5.1427     0.9018     4.6356 </r>
       <r>     5.2368     0.9963     4.7293 </r>
       <r>     5.3308     1.0782     4.8308 </r>
       <r>     5.4249     1.0523     4.9298 </r>
       <r>     5.5190     0.9728     5.0213 </r>
       <r>     5.6131     0.8301     5.0994 </r>
       <r>     5.7072     0.5776     5.1538 </r>
       <r>     5.8013     0.3570     5.1873 </r>
       <r>     5.8954     0.4046     5.2254 </r>
       <r>     5.9895     0.8010     5.3008 </r>
       <r>     6.0836     1.3564     5.4284 </r>
       <r>     6.1776     1.7683     5.5948 </r>
       <r>     6.2717     1.9273     5.7761 </r>
       <r>     6.3658     1.8258     5.9479 </r>
       <r>     6.4599     1.3939     6.0790 </r>
       <r>     6.5540     0.7733     6.1518 </r>
       <r>     6.6481     0.2926     6.1793 </r>
       <r>     6.7422     0.0734     6.1862 </r>
       <r>     6.8363     0.0121     6.1874 </r>
       <r>     6.9304     0.0017     6.1875 </r>
       <r>     7.0244     0.0043     6.1879 </r>
       <r>     7.1185     0.0302     6.1908 </r>
       <r>     7.2126     0.1425     6.2042 </r>
       <r>     7.3067     0.4458     6.2461 </r>
       <r>     7.4008     0.9287     6.3335 </r>
       <r>     7.4949     1.2947     6.4553 </r>
       <r>     7.5890     1.2177     6.5699 </r>
       <r>     7.6831     0.7872     6.6440 </r>
       <r>     7.7771     0.3931     6.6810 </r>
       <r>     7.8712     0.2912     6.7084 </r>
       <r>     7.9653     0.4832     6.7538 </r>
       <r>     8.0594     0.8002     6.8291 </r>
       <r>     8.1535     1.0491     6.9278 </r>
       <r>     8.2476     1.1806     7.0389 </r>
       <r>     8.3417     1.2319     7.1548 </r>
       <r>     8.4358     1.1871     7.2665 </r>
       <r>     8.5299     1.0428     7.3646 </r>
       <r>     8.6239     0.9578     7.4547 </r>
       <r>     8.7180     1.1278     7.5608 </r>
       <r>     8.8121     1.3857     7.6912 </r>
       <r>     8.9062     1.3059     7.8141 </r>
       <r>     9.0003     0.8515     7.8942 </r>
       <r>     9.0944     0.4335     7.9350 </r>
       <r>     9.1885     0.3773     7.9705 </r>
       <r>     9.2826     0.7013     8.0365 </r>
       <r>     9.3767     1.1885     8.1483 </r>
       <r>     9.4707     1.5213     8.2914 </r>
       <r>     9.5648     1.5474     8.4370 </r>
       <r>     9.6589     1.3734     8.5663 </r>
       <r>     9.7530     1.1275     8.6723 </r>
       <r>     9.8471     0.8089     8.7485 </r>
       <r>     9.9412     0.4491     8.7907 </r>
       <r>    10.0353     0.1763     8.8073 </r>
       <r>    10.1294     0.0491     8.8119 </r>
       <r>    10.2235     0.0270     8.8145 </r>
       <r>    10.3175     0.0895     8.8229 </r>
       <r>    10.4116     0.2713     8.8484 </r>
       <r>    10.5057     0.5514     8.9003 </r>
       <r>    10.5998     0.7764     8.9733 </r>
       <r>    10.6939     0.8501     9.0533 </r>
       <r>    10.7880     0.8784     9.1360 </r>
       <r>    10.8821     0.9616     9.2264 </r>
       <r>    10.9762     1.1702     9.3365 </r>
       <r>    11.0702     1.6644     9.4932 </r>
       <r>    11.1643     2.3166     9.7111 </r>
       <r>    11.2584     2.5477     9.9508 </r>
       <r>    11.3525     2.0470    10.1434 </r>
       <r>    11.4466     1.2178    10.2580 </r>
       <r>    11.5407     0.6603    10.3201 </r>
       <r>    11.6348     0.5776    10.3745 </r>
       <r>    11.7289     0.7304    10.4432 </r>
       <r>    11.8230     0.7842    10.5170 </r>
       <r>    11.9170     0.6719    10.5802 </r>
       <r>    12.0111     0.5701    10.6338 </r>
       <r>    12.1052     0.6296    10.6931 </r>
       <r>    12.1993     0.8503    10.7731 </r>
       <r>    12.2934     1.0741    10.8742 </r>
       <r>    12.3875     1.1040    10.9780 </r>
       <r>    12.4816     0.9434    11.0668 </r>
       <r>    12.5757     0.8182    11.1438 </r>
       <r>    12.6698     0.8824    11.2268 </r>
       <r>    12.7638     0.9909    11.3200 </r>
       <r>    12.8579     0.8996    11.4047 </r>
       <r>    12.9520     0.6009    11.4612 </r>
       <r>    13.0461     0.2880    11.4883 </r>
       <r>    13.1402     0.0974    11.4975 </r>
       <r>    13.2343     0.0229    11.4996 </r>
       <r>    13.3284     0.0045    11.5001 </r>
       <r>    13.4225     0.0089    11.5009 </r>
       <r>    13.5165     0.0536    11.5059 </r>
       <r>    13.6106     0.2254    11.5271 </r>
       <r>    13.7047     0.6462    11.5879 </r>
       <r>    13.7988     1.2814    11.7085 </r>
       <r>    13.8929     1.7901    11.8769 </r>
       <r>    13.9870     1.8019    12.0465 </r>
       <r>    14.0811     1.3918    12.1774 </r>
       <r>    14.1752     1.0749    12.2786 </r>
       <r>    14.2693     1.2555    12.3967 </r>
       <r>    14.3633     1.7568    12.5620 </r>
       <r>    14.4574     2.0064    12.7508 </r>
       <r>    14.5515     1.7608    12.9164 </r>
       <r>    14.6456     1.4193    13.0500 </r>
       <r>    14.7397     1.3922    13.1810 </r>
       <r>    14.8338     1.5438    13.3262 </r>
       <r>    14.9279     1.5447    13.4716 </r>
       <r>    15.0220     1.3544    13.5990 </r>
       <r>    15.1161     1.0964    13.7022 </r>
       <r>    15.2101     0.8515    13.7823 </r>
       <r>    15.3042     0.7291    13.8509 </r>
       <r>    15.3983     0.7487    13.9213 </r>
       <r>    15.4924     0.7113    13.9882 </r>
       <r>    15.5865     0.5059    14.0358 </r>
       <r>    15.6806     0.2990    14.0640 </r>
       <r>    15.7747     0.2579    14.0882 </r>
       <r>    15.8688     0.3275    14.1191 </r>
       <r>    15.9628     0.3402    14.1511 </r>
       <r>    16.0569     0.2386    14.1735 </r>
       <r>    16.1510     0.1131    14.1842 </r>
       <r>    16.2451     0.0559    14.1894 </r>
       <r>    16.3392     0.0981    14.1986 </r>
       <r>    16.4333     0.2523    14.2224 </r>
       <r>    16.5274     0.5007    14.2695 </r>
       <r>    16.6215     0.7576    14.3408 </r>
       <r>    16.7156     0.8809    14.4237 </r>
       <r>    16.8096     0.7632    14.4955 </r>
       <r>    16.9037     0.4822    14.5408 </r>
       <r>    16.9978     0.2542    14.5648 </r>
       <r>    17.0919     0.1819    14.5819 </r>
       <r>    17.1860     0.1883    14.5996 </r>
       <r>    17.2801     0.1968    14.6181 </r>
       <r>    17.3742     0.2876    14.6452 </r>
       <r>    17.4683     0.6329    14.7047 </r>
       <r>    17.5624     1.2151    14.8190 </r>
       <r>    17.6564     1.6455    14.9739 </r>
       <r>    17.7505     1.5368    15.1185 </r>
       <r>    17.8446     1.0467    15.2170 </r>
       <r>    17.9387     0.6598    15.2790 </r>
       <r>    18.0328     0.5710    15.3328 </r>
       <r>    18.1269     0.6651    15.3953 </r>
       <r>    18.2210     0.8457    15.4749 </r>
       <r>    18.3151     1.0519    15.5739 </r>
       <r>    18.4092     1.1382    15.6810 </r>
       <r>    18.5032     0.9797    15.7731 </r>
       <r>    18.5973     0.6395    15.8333 </r>
       <r>    18.6914     0.3073    15.8622 </r>
       <r>    18.7855     0.1058    15.8722 </r>
       <r>    18.8796     0.0254    15.8746 </r>
       <r>    18.9737     0.0041    15.8750 </r>
       <r>    19.0678     0.0005    15.8750 </r>
       <r>    19.1619     0.0000    15.8750 </r>
       <r>    19.2559     0.0000    15.8750 </r>
       <r>    19.3500     0.0000    15.8750 </r>
       <r>    19.4441     0.0001    15.8750 </r>
       <r>    19.5382     0.0010    15.8751 </r>
       <r>    19.6323     0.0074    15.8758 </r>
       <r>    19.7264     0.0367    15.8792 </r>
       <r>    19.8205     0.1183    15.8904 </r>
       <r>    19.9146     0.2490    15.9138 </r>
       <r>    20.0087     0.3419    15.9460 </r>
       <r>    20.1027     0.3064    15.9748 </r>
       <r>    20.1968     0.1793    15.9917 </r>
       <r>    20.2909     0.0684    15.9981 </r>
       <r>    20.3850     0.0170    15.9997 </r>
       <r>    20.4791     0.0028    16.0000 </r>
       <r>    20.5732     0.0003    16.0000 </r>
       <r>    20.6673     0.0000    16.0000 </r>
       <r>    20.7614     0.0000    16.0000 </r>
       <r>    20.8555     0.0000    16.0000 </r>
       <r>    20.9495     0.0000    16.0000 </r>
       <r>    21.0436     0.0000    16.0000 </r>
       <r>    21.1377     0.0000    16.0000 </r>
       <r>    21.2318     0.0000    16.0000 </r>
       <r>    21.3259     0.0000    16.0000 </r>
       <r>    21.4200     0.0000    16.0000 </r>
       <r>    21.5141     0.0000    16.0000 </r>
       <r>    21.6082     0.0000    16.0000 </r>
       <r>    21.7022     0.0000    16.0000 </r>
       <r>    21.7963     0.0000    16.0000 </r>
       <r>    21.8904     0.0000    16.0000 </r>
       <r>    21.9845     0.0000    16.0000 </r>
      </set>
     </set>
    </array>
   </total>
  </dos>
 </calculation>
 <structure name="finalpos" >
  <crystal>
   <varray name="basis" >
    <v>      -2.45000000       2.45000000       1.27400000 </v>
    <v>       2.45000000      -2.45000000       1.27400000 </v>
    <v>       2.45000000       2.45000000      -1.27400000 </v>
   </varray>
   <i name="volume">     30.58874000 </i>
   <varray name="rec_basis" >
    <v>       0.00000000       0.20408163       0.39246468 </v>
    <v>       0.20408163       0.00000000       0.39246468 </v>
    <v>       0.20408163       0.20408163      -0.00000000 </v>
   </varray>
  </crystal>
  <varray name="positions" >
   <v>       0.25000000       0.75000000       0.50000000 </v>
   <v>       0.00000000       0.00000000       0.00000000 </v>
  </varray>
 </structure>
</modeling>
