   2   2   0   0
  0.2001288E+02  0.3839590E-09  0.3839590E-09  0.3839590E-09  0.5000000E-15
  1.000000000000000E-004
  CAR 
 unknown system                          
     14.36502936     -7.39425965  301      5.80644651      1.00000000
     -7.394  0.0000E+00  0.0000E+00
     -7.322  0.0000E+00  0.0000E+00
     -7.249  0.0000E+00  0.0000E+00
     -7.177  0.0000E+00  0.0000E+00
     -7.104  0.0000E+00  0.0000E+00
     -7.032  0.0000E+00  0.0000E+00
     -6.959  0.0000E+00  0.0000E+00
     -6.887  0.0000E+00  0.0000E+00
     -6.814  0.0000E+00  0.0000E+00
     -6.741  0.0000E+00  0.0000E+00
     -6.669  0.0000E+00  0.0000E+00
     -6.596  0.0000E+00  0.0000E+00
     -6.524  0.3061E-15  0.2220E-16
     -6.451  0.1745E-13  0.1288E-14
     -6.379  0.7535E-12  0.5594E-13
     -6.306  0.2509E-10  0.1876E-11
     -6.234  0.6445E-09  0.4862E-10
     -6.161  0.1277E-07  0.9750E-09
     -6.089  0.1954E-06  0.1514E-07
     -6.016  0.2307E-05  0.1824E-06
     -5.944  0.2103E-04  0.1708E-05
     -5.871  0.1480E-03  0.1244E-04
     -5.799  0.8051E-03  0.7084E-04
     -5.726  0.3383E-02  0.3162E-03
     -5.654  0.1098E-01  0.1113E-02
     -5.581  0.2756E-01  0.3112E-02
     -5.508  0.5347E-01  0.6990E-02
     -5.436  0.8017E-01  0.1280E-01
     -5.363  0.9294E-01  0.1955E-01
     -5.291  0.8330E-01  0.2559E-01
     -5.218  0.5772E-01  0.2978E-01
     -5.146  0.3092E-01  0.3202E-01
     -5.073  0.1280E-01  0.3295E-01
     -5.001  0.4097E-02  0.3324E-01
     -4.928  0.1013E-02  0.3332E-01
     -4.856  0.1936E-03  0.3333E-01
     -4.783  0.2858E-04  0.3333E-01
     -4.711  0.3258E-05  0.3333E-01
     -4.638  0.2868E-06  0.3333E-01
     -4.566  0.1949E-07  0.3333E-01
     -4.493  0.1026E-08  0.3333E-01
     -4.420  0.1609E-09  0.3333E-01
     -4.348  0.2965E-08  0.3333E-01
     -4.275  0.5667E-07  0.3333E-01
     -4.203  0.8363E-06  0.3333E-01
     -4.130  0.9529E-05  0.3333E-01
     -4.058  0.8383E-04  0.3334E-01
     -3.985  0.5695E-03  0.3338E-01
     -3.913  0.2989E-02  0.3360E-01
     -3.840  0.1212E-01  0.3448E-01
     -3.768  0.3798E-01  0.3723E-01
     -3.695  0.9199E-01  0.4390E-01
     -3.623  0.1722E+00  0.5640E-01
     -3.550  0.2493E+00  0.7447E-01
     -3.478  0.2789E+00  0.9470E-01
     -3.405  0.2413E+00  0.1122E+00
     -3.333  0.1613E+00  0.1239E+00
     -3.260  0.8341E-01  0.1300E+00
     -3.187  0.3333E-01  0.1324E+00
     -3.115  0.1030E-01  0.1331E+00
     -3.042  0.2457E-02  0.1333E+00
     -2.970  0.4531E-03  0.1333E+00
     -2.897  0.6455E-04  0.1333E+00
     -2.825  0.7101E-05  0.1333E+00
     -2.752  0.6031E-06  0.1333E+00
     -2.680  0.3955E-07  0.1333E+00
     -2.607  0.2001E-08  0.1333E+00
     -2.535  0.7813E-10  0.1333E+00
     -2.462  0.2353E-11  0.1333E+00
     -2.390  0.5480E-13  0.1333E+00
     -2.317  0.9184E-15  0.1333E+00
     -2.245  0.0000E+00  0.1333E+00
     -2.172  0.0000E+00  0.1333E+00
     -2.099  0.0000E+00  0.1333E+00
     -2.027  0.0000E+00  0.1333E+00
     -1.954  0.0000E+00  0.1333E+00
     -1.882  0.0000E+00  0.1333E+00
     -1.809  0.2143E-14  0.1333E+00
     -1.737  0.1137E-12  0.1333E+00
     -1.664  0.4661E-11  0.1333E+00
     -1.592  0.1473E-09  0.1333E+00
     -1.519  0.3593E-08  0.1333E+00
     -1.447  0.6760E-07  0.1333E+00
     -1.374  0.9816E-06  0.1333E+00
     -1.302  0.1100E-04  0.1333E+00
     -1.229  0.9524E-04  0.1333E+00
     -1.157  0.6367E-03  0.1334E+00
     -1.084  0.3288E-02  0.1336E+00
     -1.012  0.1312E-01  0.1346E+00
     -0.939  0.4045E-01  0.1375E+00
     -0.866  0.9640E-01  0.1445E+00
     -0.794  0.1776E+00  0.1574E+00
     -0.721  0.2529E+00  0.1757E+00
     -0.649  0.2785E+00  0.1959E+00
     -0.576  0.2370E+00  0.2131E+00
     -0.504  0.1560E+00  0.2244E+00
     -0.431  0.7935E-01  0.2302E+00
     -0.359  0.3120E-01  0.2325E+00
     -0.286  0.9483E-02  0.2331E+00
     -0.214  0.2227E-02  0.2333E+00
     -0.141  0.4041E-03  0.2333E+00
     -0.069  0.5663E-04  0.2333E+00
      0.004  0.6130E-05  0.2333E+00
      0.076  0.5123E-06  0.2333E+00
      0.149  0.3305E-07  0.2333E+00
      0.221  0.1645E-08  0.2333E+00
      0.294  0.6321E-10  0.2333E+00
      0.367  0.1873E-11  0.2333E+00
      0.439  0.4271E-13  0.2333E+00
      0.512  0.7653E-15  0.2333E+00
      0.584  0.5102E-16  0.2333E+00
      0.657  0.3674E-14  0.2333E+00
      0.729  0.1755E-12  0.2333E+00
      0.802  0.6476E-11  0.2333E+00
      0.874  0.1843E-09  0.2333E+00
      0.947  0.4047E-08  0.2333E+00
      1.019  0.6857E-07  0.2333E+00
      1.092  0.8968E-06  0.2333E+00
      1.164  0.9055E-05  0.2333E+00
      1.237  0.7060E-04  0.2333E+00
      1.309  0.4252E-03  0.2334E+00
      1.382  0.1978E-02  0.2335E+00
      1.455  0.7112E-02  0.2340E+00
      1.527  0.1976E-01  0.2355E+00
      1.600  0.4247E-01  0.2385E+00
      1.672  0.7073E-01  0.2437E+00
      1.745  0.9208E-01  0.2504E+00
      1.817  0.9716E-01  0.2574E+00
      1.890  0.9451E-01  0.2643E+00
      1.962  0.1092E+00  0.2722E+00
      2.035  0.1596E+00  0.2838E+00
      2.107  0.2308E+00  0.3005E+00
      2.180  0.2775E+00  0.3206E+00
      2.252  0.2626E+00  0.3397E+00
      2.325  0.1929E+00  0.3537E+00
      2.397  0.1096E+00  0.3616E+00
      2.470  0.4815E-01  0.3651E+00
      2.542  0.1635E-01  0.3663E+00
      2.615  0.4292E-02  0.3666E+00
      2.688  0.8703E-03  0.3667E+00
      2.760  0.1367E-03  0.3667E+00
      2.833  0.2104E-04  0.3667E+00
      2.905  0.4489E-04  0.3667E+00
      2.978  0.3197E-03  0.3667E+00
      3.050  0.1820E-02  0.3668E+00
      3.123  0.8006E-02  0.3674E+00
      3.195  0.2722E-01  0.3694E+00
      3.268  0.7151E-01  0.3746E+00
      3.340  0.1452E+00  0.3851E+00
      3.413  0.2280E+00  0.4016E+00
      3.485  0.2767E+00  0.4217E+00
      3.558  0.2597E+00  0.4405E+00
      3.630  0.1884E+00  0.4542E+00
      3.703  0.1057E+00  0.4619E+00
      3.776  0.4580E-01  0.4652E+00
      3.848  0.1535E-01  0.4663E+00
      3.921  0.3974E-02  0.4666E+00
      3.993  0.7952E-03  0.4667E+00
      4.066  0.1229E-03  0.4667E+00
      4.138  0.1472E-04  0.4667E+00
      4.211  0.2109E-05  0.4667E+00
      4.283  0.8453E-05  0.4667E+00
      4.356  0.7128E-04  0.4667E+00
      4.428  0.4695E-03  0.4667E+00
      4.501  0.2389E-02  0.4669E+00
      4.573  0.9393E-02  0.4676E+00
      4.646  0.2854E-01  0.4696E+00
      4.718  0.6702E-01  0.4745E+00
      4.791  0.1217E+00  0.4833E+00
      4.863  0.1707E+00  0.4957E+00
      4.936  0.1852E+00  0.5091E+00
      5.009  0.1554E+00  0.5204E+00
      5.081  0.1007E+00  0.5277E+00
      5.154  0.5050E-01  0.5314E+00
      5.226  0.1957E-01  0.5328E+00
      5.299  0.5860E-02  0.5332E+00
      5.371  0.1356E-02  0.5333E+00
      5.444  0.2424E-03  0.5333E+00
      5.516  0.3348E-04  0.5333E+00
      5.589  0.3571E-05  0.5333E+00
      5.661  0.2941E-06  0.5333E+00
      5.734  0.1869E-07  0.5333E+00
      5.806  0.9169E-09  0.5333E+00
      5.879  0.3470E-10  0.5333E+00
      5.951  0.1013E-11  0.5333E+00
      6.024  0.2309E-13  0.5333E+00
      6.096  0.1594E-13  0.5333E+00
      6.169  0.7265E-12  0.5333E+00
      6.242  0.2621E-10  0.5333E+00
      6.314  0.7295E-09  0.5333E+00
      6.387  0.1566E-07  0.5333E+00
      6.459  0.2595E-06  0.5333E+00
      6.532  0.3319E-05  0.5333E+00
      6.604  0.3277E-04  0.5333E+00
      6.677  0.2499E-03  0.5334E+00
      6.749  0.1472E-02  0.5335E+00
      6.822  0.6696E-02  0.5339E+00
      6.894  0.2354E-01  0.5357E+00
      6.967  0.6397E-01  0.5403E+00
      7.039  0.1344E+00  0.5500E+00
      7.112  0.2183E+00  0.5659E+00
      7.184  0.2748E+00  0.5858E+00
      7.257  0.2696E+00  0.6054E+00
      7.330  0.2116E+00  0.6207E+00
      7.402  0.1456E+00  0.6313E+00
      7.475  0.1084E+00  0.6391E+00
      7.547  0.1005E+00  0.6464E+00
      7.620  0.9781E-01  0.6535E+00
      7.692  0.8204E-01  0.6595E+00
      7.765  0.5476E-01  0.6634E+00
      7.837  0.2846E-01  0.6655E+00
      7.910  0.1145E-01  0.6663E+00
      7.982  0.3563E-02  0.6666E+00
      8.055  0.8568E-03  0.6667E+00
      8.127  0.1592E-03  0.6667E+00
      8.200  0.2284E-04  0.6667E+00
      8.272  0.2533E-05  0.6667E+00
      8.345  0.2371E-06  0.6667E+00
      8.417  0.3340E-06  0.6667E+00
      8.490  0.3851E-05  0.6667E+00
      8.563  0.3581E-04  0.6667E+00
      8.635  0.2572E-03  0.6667E+00
      8.708  0.1427E-02  0.6668E+00
      8.780  0.6114E-02  0.6672E+00
      8.853  0.2025E-01  0.6687E+00
      8.925  0.5183E-01  0.6725E+00
      8.998  0.1026E+00  0.6799E+00
      9.070  0.1569E+00  0.6913E+00
      9.143  0.1855E+00  0.7047E+00
      9.215  0.1696E+00  0.7170E+00
      9.288  0.1198E+00  0.7257E+00
      9.360  0.6548E-01  0.7305E+00
      9.433  0.2766E-01  0.7325E+00
      9.505  0.9067E-02  0.7331E+00
      9.578  0.2572E-02  0.7333E+00
      9.651  0.2144E-02  0.7335E+00
      9.723  0.7626E-02  0.7340E+00
      9.796  0.2599E-01  0.7359E+00
      9.868  0.6901E-01  0.7409E+00
      9.941  0.1417E+00  0.7512E+00
     10.013  0.2249E+00  0.7675E+00
     10.086  0.2759E+00  0.7875E+00
     10.158  0.2617E+00  0.8065E+00
     10.231  0.1920E+00  0.8204E+00
     10.303  0.1088E+00  0.8283E+00
     10.376  0.4770E-01  0.8318E+00
     10.448  0.1616E-01  0.8330E+00
     10.521  0.4230E-02  0.8333E+00
     10.593  0.8566E-03  0.8333E+00
     10.666  0.1449E-03  0.8333E+00
     10.738  0.1126E-03  0.8333E+00
     10.811  0.6457E-03  0.8334E+00
     10.884  0.3324E-02  0.8336E+00
     10.956  0.1327E-01  0.8346E+00
     11.029  0.4105E-01  0.8376E+00
     11.101  0.9881E-01  0.8447E+00
     11.174  0.1867E+00  0.8583E+00
     11.246  0.2819E+00  0.8787E+00
     11.319  0.3528E+00  0.9043E+00
     11.391  0.3859E+00  0.9323E+00
     11.464  0.3869E+00  0.9604E+00
     11.536  0.3565E+00  0.9862E+00
     11.609  0.2882E+00  0.1007E+01
     11.681  0.1937E+00  0.1021E+01
     11.754  0.1043E+00  0.1029E+01
     11.826  0.4415E-01  0.1032E+01
     11.899  0.1472E-01  0.1033E+01
     11.972  0.4721E-02  0.1033E+01
     12.044  0.4829E-02  0.1034E+01
     12.117  0.1291E-01  0.1035E+01
     12.189  0.3093E-01  0.1037E+01
     12.262  0.5772E-01  0.1041E+01
     12.334  0.8330E-01  0.1047E+01
     12.407  0.9294E-01  0.1054E+01
     12.479  0.8017E-01  0.1060E+01
     12.552  0.5347E-01  0.1064E+01
     12.624  0.2756E-01  0.1066E+01
     12.697  0.1098E-01  0.1066E+01
     12.769  0.3383E-02  0.1067E+01
     12.842  0.8051E-03  0.1067E+01
     12.914  0.1480E-03  0.1067E+01
     12.987  0.2103E-04  0.1067E+01
     13.059  0.2307E-05  0.1067E+01
     13.132  0.1954E-06  0.1067E+01
     13.205  0.1277E-07  0.1067E+01
     13.277  0.6445E-09  0.1067E+01
     13.350  0.2509E-10  0.1067E+01
     13.422  0.7535E-12  0.1067E+01
     13.495  0.1745E-13  0.1067E+01
     13.567  0.3061E-15  0.1067E+01
     13.640  0.0000E+00  0.1067E+01
     13.712  0.0000E+00  0.1067E+01
     13.785  0.0000E+00  0.1067E+01
     13.857  0.0000E+00  0.1067E+01
     13.930  0.0000E+00  0.1067E+01
     14.002  0.0000E+00  0.1067E+01
     14.075  0.0000E+00  0.1067E+01
     14.147  0.0000E+00  0.1067E+01
     14.220  0.0000E+00  0.1067E+01
     14.292  0.0000E+00  0.1067E+01
     14.365  0.0000E+00  0.1067E+01
