 vasp.5.4.4.18Apr17-6-g9f103f2a35 (build Dec 09 2018 21:25:21) complex          
  
 executed on IFC18.0.1.163_CrayMP date 2019.03.20  09:52:02
 running on    8 total cores
 distrk:  each k-point on    8 cores,    1 groups
 distr:  one band on NCORES_PER_BAND=   1 cores,    8 groups


--------------------------------------------------------------------------------------------------------


 INCAR:
 POTCAR:   PAW_PBE Si 05Jan2001                   

 ----------------------------------------------------------------------------- 
|                                                                             |
|           W    W    AA    RRRRR   N    N  II  N    N   GGGG   !!!           |
|           W    W   A  A   R    R  NN   N  II  NN   N  G    G  !!!           |
|           W    W  A    A  R    R  N N  N  II  N N  N  G       !!!           |
|           W WW W  AAAAAA  RRRRR   N  N N  II  N  N N  G  GGG   !            |
|           WW  WW  A    A  R   R   N   NN  II  N   NN  G    G                |
|           W    W  A    A  R    R  N    N  II  N    N   GGGG   !!!           |
|                                                                             |
|      For optimal performance we recommend to set                            |
|        NCORE= 4 - approx SQRT( number of cores)                             |
|      NCORE specifies how many cores store one orbital (NPAR=cpu/NCORE).     |
|      This setting can  greatly improve the performance of VASP for DFT.     |
|      The default,   NCORE=1            might be grossly inefficient         |
|      on modern multi-core architectures or massively parallel machines.     |
|      Do your own testing !!!!                                               |
|      Unfortunately you need to use the default for GW and RPA calculations. |
|      (for HF NCORE is supported but not extensively tested yet)             |
|                                                                             |
 ----------------------------------------------------------------------------- 

 POTCAR:   PAW_PBE Si 05Jan2001                   
   VRHFIN =Si: s2p2                                                             
   LEXCH  = PE                                                                  
   EATOM  =   103.0669 eV,    7.5752 Ry                                         
                                                                                
   TITEL  = PAW_PBE Si 05Jan2001                                                
   LULTRA =        F    use ultrasoft PP ?                                      
   IUNSCR =        1    unscreen: 0-lin 1-nonlin 2-no                           
   RPACOR =    1.500    partial core radius                                     
   POMASS =   28.085; ZVAL   =    4.000    mass and valenz                      
   RCORE  =    1.900    outmost cutoff radius                                   
   RWIGS  =    2.480; RWIGS  =    1.312    wigner-seitz radius (au A)           
   ENMAX  =  245.345; ENMIN  =  184.009 eV                                      
   ICORE  =        2    local potential                                         
   LCOR   =        T    correct aug charges                                     
   LPAW   =        T    paw PP                                                  
   EAUG   =  322.069                                                            
   DEXC   =    -.007                                                            
   RMAX   =    2.944    core radius for proj-oper                               
   RAUG   =    1.300    factor for augmentation sphere                          
   RDEP   =    1.993    radius for radial grids                                 
   QCUT   =   -4.246; QGAM   =    8.493    optimization parameters              
                                                                                
   Description                                                                  
     l     E      TYP  RCUT    TYP  RCUT                                        
     0   .000     23  1.900                                                     
     0   .000     23  1.900                                                     
     1   .000     23  1.900                                                     
     1   .000     23  1.900                                                     
     2   .000      7  1.900                                                     
  local pseudopotential read in
  partial core-charges read in
  atomic valenz-charges read in
  non local Contribution for L=           0  read in
    real space projection operators read in
  non local Contribution for L=           0  read in
    real space projection operators read in
  non local Contribution for L=           1  read in
    real space projection operators read in
  non local Contribution for L=           1  read in
    real space projection operators read in
    PAW grid and wavefunctions read in
 
   number of l-projection  operators is LMAX  =           4
   number of lm-projection operators is LMMAX =           8
 
 PAW_PBE Si 05Jan2001                   :
 energy of atom  1       EATOM= -103.0669
 kinetic energy error for atom=    0.0052 (will be added to EATOM!!)
 
 
 POSCAR: Si2                                     
  positions in direct lattice
  No initial velocities read in
 exchange correlation table for  LEXCH =        8
   RHO(1)=    0.500       N(1)  =     2000
   RHO(2)=  100.500       N(2)  =     4000
 


--------------------------------------------------------------------------------------------------------


 ion  position               nearest neighbor table
   1  0.500  0.500  0.500-   2 2.35   2 2.35   2 2.35   2 2.35
   2  0.750  0.750  0.750-   1 2.35   1 2.35   1 2.35   1 2.35
 
  LATTYP: Found a face centered cubic cell.
 ALAT       =     5.4300000000
  
  Lattice vectors:
  
 A1 = (   0.0000000000,   2.7150000000,   2.7150000000)
 A2 = (   2.7150000000,   0.0000000000,   2.7150000000)
 A3 = (   2.7150000000,   2.7150000000,   0.0000000000)


Analysis of symmetry for initial positions (statically):
=====================================================================
 Subroutine PRICEL returns:
 Original cell was already a primitive cell.
 

 Routine SETGRP: Setting up the symmetry group for a 
 face centered cubic supercell.


 Subroutine GETGRP returns: Found 48 space group operations
 (whereof 24 operations were pure point group operations)
 out of a pool of 48 trial point group operations.


The static configuration has the point symmetry T_d .
 The point group associated with its full space group is O_h .


Analysis of symmetry for dynamics (positions and initial velocities):
=====================================================================
 Subroutine PRICEL returns:
 Original cell was already a primitive cell.
 

 Routine SETGRP: Setting up the symmetry group for a 
 face centered cubic supercell.


 Subroutine GETGRP returns: Found 48 space group operations
 (whereof 24 operations were pure point group operations)
 out of a pool of 48 trial point group operations.


The dynamic configuration has the point symmetry T_d .
 The point group associated with its full space group is O_h .


 Subroutine INISYM returns: Found 48 space group operations
 (whereof 24 operations are pure point group operations),
 and found     1 'primitive' translations

 
 
 KPOINTS: Automatic kpoint scheme                 

Automatic generation of k-mesh.
Space group operators:
 irot       det(A)        alpha          n_x          n_y          n_z        tau_x        tau_y        tau_z
    1     1.000000     0.000001     1.000000     0.000000     0.000000     0.000000     0.000000     0.000000
    2     1.000000   120.000000    -0.577350    -0.577350    -0.577350     0.000000     0.000000     0.000000
    3     1.000000   120.000000     0.577350     0.577350     0.577350     0.000000     0.000000     0.000000
    4    -1.000000    90.000000    -0.000000    -0.000000    -1.000000     0.000000     0.000000     0.000000
    5    -1.000000   180.000000    -0.000000     0.707107     0.707107     0.000000     0.000000     0.000000
    6    -1.000000    90.000000    -0.000000     1.000000    -0.000000     0.000000     0.000000     0.000000
    7     1.000000   180.000000     0.000000     0.000000    -1.000000     0.000000     0.000000     0.000000
    8     1.000000   120.000000    -0.577350     0.577350     0.577350     0.000000     0.000000     0.000000
    9     1.000000   120.000000    -0.577350     0.577350    -0.577350     0.000000     0.000000     0.000000
   10    -1.000000    90.000000     0.000000     0.000000     1.000000     0.000000     0.000000     0.000000
   11    -1.000000    90.000000    -1.000000     0.000000    -0.000000     0.000000     0.000000     0.000000
   12    -1.000000   180.000000     0.707107     0.000000     0.707107     0.000000     0.000000     0.000000
   13     1.000000   120.000000     0.577350    -0.577350     0.577350     0.000000     0.000000     0.000000
   14     1.000000   120.000000    -0.577350    -0.577350     0.577350     0.000000     0.000000     0.000000
   15     1.000000   180.000000     1.000000     0.000000     0.000000     0.000000     0.000000     0.000000
   16    -1.000000    90.000000     0.000000    -1.000000     0.000000     0.000000     0.000000     0.000000
   17    -1.000000   180.000000     0.707107     0.707107    -0.000000     0.000000     0.000000     0.000000
   18    -1.000000    90.000000     1.000000     0.000000     0.000000     0.000000     0.000000     0.000000
   19     1.000000   120.000000     0.577350    -0.577350    -0.577350     0.000000     0.000000     0.000000
   20     1.000000   180.000000     0.000000    -1.000000     0.000000     0.000000     0.000000     0.000000
   21     1.000000   120.000000     0.577350     0.577350    -0.577350     0.000000     0.000000     0.000000
   22    -1.000000   180.000000    -0.000000    -0.707107     0.707107     0.000000     0.000000     0.000000
   23    -1.000000   180.000000     0.707107    -0.707107    -0.000000     0.000000     0.000000     0.000000
   24    -1.000000   180.000000    -0.707107     0.000000     0.707107     0.000000     0.000000     0.000000
   25    -1.000000     0.000001     1.000000     0.000000     0.000000     0.250000     0.250000     0.250000
   26    -1.000000   120.000000    -0.577350    -0.577350    -0.577350     0.250000     0.250000     0.250000
   27    -1.000000   120.000000     0.577350     0.577350     0.577350     0.250000     0.250000     0.250000
   28     1.000000    90.000000    -0.000000    -0.000000    -1.000000     0.250000     0.250000     0.250000
   29     1.000000   180.000000    -0.000000     0.707107     0.707107     0.250000     0.250000     0.250000
   30     1.000000    90.000000    -0.000000     1.000000    -0.000000     0.250000     0.250000     0.250000
   31    -1.000000   180.000000     0.000000     0.000000    -1.000000     0.250000     0.250000     0.250000
   32    -1.000000   120.000000    -0.577350     0.577350     0.577350     0.250000     0.250000     0.250000
   33    -1.000000   120.000000    -0.577350     0.577350    -0.577350     0.250000     0.250000     0.250000
   34     1.000000    90.000000     0.000000     0.000000     1.000000     0.250000     0.250000     0.250000
   35     1.000000    90.000000    -1.000000     0.000000    -0.000000     0.250000     0.250000     0.250000
   36     1.000000   180.000000     0.707107     0.000000     0.707107     0.250000     0.250000     0.250000
   37    -1.000000   120.000000     0.577350    -0.577350     0.577350     0.250000     0.250000     0.250000
   38    -1.000000   120.000000    -0.577350    -0.577350     0.577350     0.250000     0.250000     0.250000
   39    -1.000000   180.000000     1.000000     0.000000     0.000000     0.250000     0.250000     0.250000
   40     1.000000    90.000000     0.000000    -1.000000     0.000000     0.250000     0.250000     0.250000
   41     1.000000   180.000000     0.707107     0.707107    -0.000000     0.250000     0.250000     0.250000
   42     1.000000    90.000000     1.000000     0.000000     0.000000     0.250000     0.250000     0.250000
   43    -1.000000   120.000000     0.577350    -0.577350    -0.577350     0.250000     0.250000     0.250000
   44    -1.000000   180.000000     0.000000    -1.000000     0.000000     0.250000     0.250000     0.250000
   45    -1.000000   120.000000     0.577350     0.577350    -0.577350     0.250000     0.250000     0.250000
   46     1.000000   180.000000    -0.000000    -0.707107     0.707107     0.250000     0.250000     0.250000
   47     1.000000   180.000000     0.707107    -0.707107    -0.000000     0.250000     0.250000     0.250000
   48     1.000000   180.000000    -0.707107     0.000000     0.707107     0.250000     0.250000     0.250000
 
 Subroutine IBZKPT returns following result:
 ===========================================
 
 Found      2 irreducible k-points:
 
 Following reciprocal coordinates:
            Coordinates               Weight
  0.250000  0.250000  0.250000     96.000000
 -0.250000  0.250000  0.250000    288.000000
 
 Following cartesian coordinates:
            Coordinates               Weight
  0.046041  0.046041  0.046041     96.000000
  0.138122 -0.046041 -0.046041    288.000000
 


--------------------------------------------------------------------------------------------------------




 Dimension of arrays:
   k-points           NKPTS =      2   k-points in BZ     NKDIM =      2   number of bands    NBANDS=      8
   number of dos      NEDOS =    301   number of ions     NIONS =      2
   non local maximal  LDIM  =      4   non local SUM 2l+1 LMDIM =      8
   total plane-waves  NPLWV =   4096
   max r-space proj   IRMAX =      1   max aug-charges    IRDMAX=   3621
   dimension x,y,z NGX =    16 NGY =   16 NGZ =   16
   dimension x,y,z NGXF=    32 NGYF=   32 NGZF=   32
   support grid    NGXF=    32 NGYF=   32 NGZF=   32
   ions per type =               2
   NGX,Y,Z   is equivalent  to a cutoff of   6.93,  6.93,  6.93 a.u.
   NGXF,Y,Z  is equivalent  to a cutoff of  13.86, 13.86, 13.86 a.u.

 SYSTEM =  unknown system                          
 POSCAR =  Si2                                     

 Startparameter for this run:
   NWRITE =      2    write-flag & timer
   PREC   = normal    normal or accurate (medium, high low for compatibility)
   ISTART =      0    job   : 0-new  1-cont  2-samecut
   ICHARG =      2    charge: 1-file 2-atom 10-const
   ISPIN  =      1    spin polarized calculation?
   LNONCOLLINEAR =      F non collinear calculations
   LSORBIT =      F    spin-orbit coupling
   INIWAV =      1    electr: 0-lowe 1-rand  2-diag
   LASPH  =      F    aspherical Exc in radial PAW
   METAGGA=      F    non-selfconsistent MetaGGA calc.

 Electronic Relaxation 1
   ENCUT  =  250.0 eV  18.37 Ry    4.29 a.u.   4.95  4.95  4.95*2*pi/ulx,y,z
   ENINI  =  250.0     initial cutoff
   ENAUG  =  322.1 eV  augmentation charge cutoff
   NELM   =     60;   NELMIN=  2; NELMDL= -5     # of ELM steps 
   EDIFF  = 0.4E-03   stopping-criterion for ELM
   LREAL  =      F    real-space projection
   NLSPLINE    = F    spline interpolate recip. space projectors
   LCOMPAT=      F    compatible to vasp.4.4
   GGA_COMPAT  = T    GGA compatible to vasp.4.4-vasp.4.6
   LMAXPAW     = -100 max onsite density
   LMAXMIX     =    2 max onsite mixed and CHGCAR
   VOSKOWN=      0    Vosko Wilk Nusair interpolation
   ROPT   =    0.00000
 Ionic relaxation
   EDIFFG = -.1E-01   stopping-criterion for IOM
   NSW    =     15    number of steps for IOM
   NBLOCK =      1;   KBLOCK =     15    inner block; outer block 
   IBRION =      2    ionic relax: 0-MD 1-quasi-New 2-CG
   NFREE  =      1    steps in history (QN), initial steepest desc. (CG)
   ISIF   =      3    stress and relaxation
   IWAVPR =     11    prediction:  0-non 1-charg 2-wave 3-comb
   ISYM   =      2    0-nonsym 1-usesym 2-fastsym
   LCORR  =      T    Harris-Foulkes like correction to forces

   POTIM  = 0.5000    time-step for ionic-motion
   TEIN   =    0.0    initial temperature
   TEBEG  =    0.0;   TEEND  =   0.0 temperature during run
   SMASS  =  -3.00    Nose mass-parameter (am)
   estimated Nose-frequenzy (Omega)   =  0.10E-29 period in steps =****** mass=  -0.337E-27a.u.
   SCALEE = 1.0000    scale energy and forces
   NPACO  =    256;   APACO  = 16.0  distance and # of slots for P.C.
   PSTRESS=    0.0 pullay stress

  Mass of Ions in am
   POMASS =  28.09
  Ionic Valenz
   ZVAL   =   4.00
  Atomic Wigner-Seitz radii
   RWIGS  =  -1.00
  virtual crystal weights 
   VCA    =   1.00
   NELECT =       8.0000    total number of electrons
   NUPDOWN=      -1.0000    fix difference up-down

 DOS related values:
   EMIN   =  10.00;   EMAX   =-10.00  energy-range for DOS
   EFERMI =   0.00
   ISMEAR =     0;   SIGMA  =   0.20  broadening in eV -4-tet -1-fermi 0-gaus

 Electronic relaxation 2 (details)
   IALGO  =     38    algorithm
   LDIAG  =      T    sub-space diagonalisation (order eigenvalues)
   LSUBROT=      F    optimize rotation matrix (better conditioning)
   TURBO    =      0    0=normal 1=particle mesh
   IRESTART =      0    0=no restart 2=restart with 2 vectors
   NREBOOT  =      0    no. of reboots
   NMIN     =      0    reboot dimension
   EREF     =   0.00    reference energy to select bands
   IMIX   =      4    mixing-type and parameters
     AMIX     =   0.40;   BMIX     =  1.00
     AMIX_MAG =   1.60;   BMIX_MAG =  1.00
     AMIN     =   0.10
     WC   =   100.;   INIMIX=   1;  MIXPRE=   1;  MAXMIX= -45

 Intra band minimization:
   WEIMIN = 0.0010     energy-eigenvalue tresh-hold
   EBREAK =  0.13E-04  absolut break condition
   DEPER  =   0.30     relativ break condition  

   TIME   =   0.40     timestep for ELM

  volume/ion in A,a.u.               =      20.01       135.05
  Fermi-wavevector in a.u.,A,eV,Ry     =   0.957176  1.808800 12.465458  0.916185
  Thomas-Fermi vector in A             =   2.086170
 
 Write flags
   LWAVE        =      T    write WAVECAR
   LDOWNSAMPLE  =      F    k-point downsampling of WAVECAR
   LCHARG       =      T    write CHGCAR
   LVTOT        =      F    write LOCPOT, total local potential
   LVHAR        =      F    write LOCPOT, Hartree potential only
   LELF         =      F    write electronic localiz. function (ELF)
   LORBIT       =      0    0 simple, 1 ext, 2 COOP (PROOUT), +10 PAW based schemes


 Dipole corrections
   LMONO  =      F    monopole corrections only (constant potential shift)
   LDIPOL =      F    correct potential (dipole corrections)
   IDIPOL =      0    1-x, 2-y, 3-z, 4-all directions 
   EPSILON=  1.0000000 bulk dielectric constant

 Exchange correlation treatment:
   GGA     =    --    GGA type
   LEXCH   =     8    internal setting for exchange type
   VOSKOWN=      0    Vosko Wilk Nusair interpolation
   LHFCALC =     F    Hartree Fock is set to
   LHFONE  =     F    Hartree Fock one center treatment
   AEXX    =    0.0000 exact exchange contribution

 Linear response parameters
   LEPSILON=     F    determine dielectric tensor
   LRPA    =     F    only Hartree local field effects (RPA)
   LNABLA  =     F    use nabla operator in PAW spheres
   LVEL    =     F    velocity operator in full k-point grid
   LINTERFAST=   F  fast interpolation
   KINTER  =     0    interpolate to denser k-point grid
   CSHIFT  =0.1000    complex shift for real part using Kramers Kronig
   OMEGAMAX=  -1.0    maximum frequency
   DEG_THRESHOLD= 0.2000000E-02 threshold for treating states as degnerate
   RTIME   =   -0.100 relaxation time in fs
  (WPLASMAI=    0.000 imaginary part of plasma frequency in eV, 0.658/RTIME)
   DFIELD  = 0.0000000 0.0000000 0.0000000 field for delta impulse in time
 
 Orbital magnetization related:
   ORBITALMAG=     F  switch on orbital magnetization
   LCHIMAG   =     F  perturbation theory with respect to B field
   DQ        =  0.001000  dq finite difference perturbation B field
   LLRAUG    =     F  two centre corrections for induced B field



--------------------------------------------------------------------------------------------------------


 conjugate gradient relaxation of ions
 charge density and potential will be updated during run
 non-spin polarized calculation
 Variant of blocked Davidson
 Davidson routine will perform the subspace rotation
 perform sub-space diagonalisation
    after iterative eigenvector-optimisation
 modified Broyden-mixing scheme, WC =      100.0
 initial mixing is a Kerker type mixing with AMIX =  0.4000 and BMIX =      1.0000
 Hartree-type preconditioning will be used
 using additional bands            4
 reciprocal scheme for non local part
 use partial core corrections
 calculate Harris-corrections to forces 
   (improved forces if not selfconsistent)
 use gradient corrections 
 use of overlap-Matrix (Vanderbilt PP)
 Gauss-broadening in eV      SIGMA  =   0.20


--------------------------------------------------------------------------------------------------------


  energy-cutoff  :      250.00
  volume of cell :       40.03
      direct lattice vectors                 reciprocal lattice vectors
     0.000000000  2.715000000  2.715000000    -0.184162063  0.184162063  0.184162063
     2.715000000  0.000000000  2.715000000     0.184162063 -0.184162063  0.184162063
     2.715000000  2.715000000  0.000000000     0.184162063  0.184162063 -0.184162063

  length of vectors
     3.839589822  3.839589822  3.839589822     0.318978049  0.318978049  0.318978049


 
 k-points in units of 2pi/SCALE and weight: Automatic kpoint scheme                 
   0.04604052  0.04604052  0.04604052       0.250
   0.13812155 -0.04604052 -0.04604052       0.750
 
 k-points in reciprocal lattice and weights: Automatic kpoint scheme                 
   0.25000000  0.25000000  0.25000000       0.250
  -0.25000000  0.25000000  0.25000000       0.750
 
 position of ions in fractional coordinates (direct lattice) 
   0.50000000  0.50000000  0.50000000
   0.75000000  0.75000000  0.75000000
 
 position of ions in cartesian coordinates  (Angst):
   2.71500000  2.71500000  2.71500000
   4.07250000  4.07250000  4.07250000
 


--------------------------------------------------------------------------------------------------------


 k-point  1 :   0.2500 0.2500 0.2500  plane waves:     356
 k-point  2 :  -0.2500 0.2500 0.2500  plane waves:     362

 maximum and minimum number of plane-waves per node :       362      356

 maximum number of plane-waves:       362
 maximum index in each direction: 
   IXMAX=    5   IYMAX=    4   IZMAX=    4
   IXMIN=   -5   IYMIN=   -5   IZMIN=   -5


 serial   3D FFT for wavefunctions
 parallel 3D FFT for charge:
    minimum data exchange during FFTs selected (reduces bandwidth)


 total amount of memory used by VASP MPI-rank0    30608. kBytes
=======================================================================

   base      :      30000. kBytes
   nonl-proj :         58. kBytes
   fftplans  :        160. kBytes
   grid      :        372. kBytes
   one-center:          6. kBytes
   wavefun   :         12. kBytes
 
     INWAV:  cpu time    0.0000: real time    0.0005
 Broyden mixing: mesh for mixing (old mesh)
   NGX =  9   NGY =  9   NGZ =  9
  (NGX  = 32   NGY  = 32   NGZ  = 32)
  gives a total of    729 points

 initial charge density was supplied:
 charge density of overlapping atoms calculated
 number of electron       8.0000000 magnetization 
 keeping initial charge density in first step


--------------------------------------------------------------------------------------------------------


 Maximum index for augmentation-charges          433 (set IRDMAX)


--------------------------------------------------------------------------------------------------------


 First call to EWALD:  gamma=   0.518
 Maximum number of real-space cells 3x 3x 3
 Maximum number of reciprocal cells 3x 3x 3

    FEWALD:  cpu time    0.0040: real time    0.0059


--------------------------------------- Iteration      1(   1)  ---------------------------------------


    POTLOK:  cpu time    0.0120: real time    0.0248
    SETDIJ:  cpu time    0.0040: real time    0.0043
     EDDAV:  cpu time    0.0120: real time    0.0130
       DOS:  cpu time    0.0000: real time    0.0011
    --------------------------------------------
      LOOP:  cpu time    0.0280: real time    0.0436

 eigenvalue-minimisations  :    32
 total energy-change (2. order) : 0.2195403E+01  (-0.2728965E+03)
 number of electron       8.0000000 magnetization 
 augmentation part        8.0000000 magnetization 

 Free energy of the ion-electron system (eV)
  ---------------------------------------------------
  alpha Z        PSCENC =         3.36414203
  Ewald energy   TEWEN  =      -228.56352493
  -Hartree energ DENC   =       -11.00108243
  -exchange      EXHF   =         0.00000000
  -V(xc)+E(xc)   XCENC  =       -18.60181216
  PAW double counting   =        65.95520812      -30.76852678
  entropy T*S    EENTRO =        -0.00000000
  eigenvalues    EBANDS =        15.68750026
  atomic energy  EATOM  =       206.12349923
  Solvation  Ediel_sol  =         0.00000000
  ---------------------------------------------------
  free energy    TOTEN  =         2.19540333 eV

  energy without entropy =        2.19540333  energy(sigma->0) =        2.19540333


--------------------------------------------------------------------------------------------------------




--------------------------------------- Iteration      1(   2)  ---------------------------------------


     EDDAV:  cpu time    0.0160: real time    0.0247
       DOS:  cpu time    0.0040: real time    0.0008
    --------------------------------------------
      LOOP:  cpu time    0.0200: real time    0.0256

 eigenvalue-minimisations  :    48
 total energy-change (2. order) :-0.1292111E+02  (-0.1292111E+02)
 number of electron       8.0000000 magnetization 
 augmentation part        8.0000000 magnetization 

 Free energy of the ion-electron system (eV)
  ---------------------------------------------------
  alpha Z        PSCENC =         3.36414203
  Ewald energy   TEWEN  =      -228.56352493
  -Hartree energ DENC   =       -11.00108243
  -exchange      EXHF   =         0.00000000
  -V(xc)+E(xc)   XCENC  =       -18.60181216
  PAW double counting   =        65.95520812      -30.76852678
  entropy T*S    EENTRO =        -0.00000000
  eigenvalues    EBANDS =         2.76639327
  atomic energy  EATOM  =       206.12349923
  Solvation  Ediel_sol  =         0.00000000
  ---------------------------------------------------
  free energy    TOTEN  =       -10.72570367 eV

  energy without entropy =      -10.72570367  energy(sigma->0) =      -10.72570367


--------------------------------------------------------------------------------------------------------




--------------------------------------- Iteration      1(   3)  ---------------------------------------


     EDDAV:  cpu time    0.0120: real time    0.0180
       DOS:  cpu time    0.0000: real time    0.0009
    --------------------------------------------
      LOOP:  cpu time    0.0120: real time    0.0189

 eigenvalue-minimisations  :    40
 total energy-change (2. order) :-0.1328294E+00  (-0.1328294E+00)
 number of electron       8.0000000 magnetization 
 augmentation part        8.0000000 magnetization 

 Free energy of the ion-electron system (eV)
  ---------------------------------------------------
  alpha Z        PSCENC =         3.36414203
  Ewald energy   TEWEN  =      -228.56352493
  -Hartree energ DENC   =       -11.00108243
  -exchange      EXHF   =         0.00000000
  -V(xc)+E(xc)   XCENC  =       -18.60181216
  PAW double counting   =        65.95520812      -30.76852678
  entropy T*S    EENTRO =        -0.00000000
  eigenvalues    EBANDS =         2.63356385
  atomic energy  EATOM  =       206.12349923
  Solvation  Ediel_sol  =         0.00000000
  ---------------------------------------------------
  free energy    TOTEN  =       -10.85853309 eV

  energy without entropy =      -10.85853309  energy(sigma->0) =      -10.85853309


--------------------------------------------------------------------------------------------------------




--------------------------------------- Iteration      1(   4)  ---------------------------------------


     EDDAV:  cpu time    0.0160: real time    0.0222
       DOS:  cpu time    0.0000: real time    0.0007
    --------------------------------------------
      LOOP:  cpu time    0.0160: real time    0.0229

 eigenvalue-minimisations  :    48
 total energy-change (2. order) :-0.1611431E-03  (-0.1611432E-03)
 number of electron       8.0000000 magnetization 
 augmentation part        8.0000000 magnetization 

 Free energy of the ion-electron system (eV)
  ---------------------------------------------------
  alpha Z        PSCENC =         3.36414203
  Ewald energy   TEWEN  =      -228.56352493
  -Hartree energ DENC   =       -11.00108243
  -exchange      EXHF   =         0.00000000
  -V(xc)+E(xc)   XCENC  =       -18.60181216
  PAW double counting   =        65.95520812      -30.76852678
  entropy T*S    EENTRO =        -0.00000000
  eigenvalues    EBANDS =         2.63340270
  atomic energy  EATOM  =       206.12349923
  Solvation  Ediel_sol  =         0.00000000
  ---------------------------------------------------
  free energy    TOTEN  =       -10.85869423 eV

  energy without entropy =      -10.85869423  energy(sigma->0) =      -10.85869423


--------------------------------------------------------------------------------------------------------




--------------------------------------- Iteration      1(   5)  ---------------------------------------


     EDDAV:  cpu time    0.0120: real time    0.0179
       DOS:  cpu time    0.0040: real time    0.0009
    CHARGE:  cpu time    0.0040: real time    0.0047
    MIXING:  cpu time    0.0000: real time    0.0011
    --------------------------------------------
      LOOP:  cpu time    0.0200: real time    0.0247

 eigenvalue-minimisations  :    40
 total energy-change (2. order) :-0.5881825E-06  (-0.5881763E-06)
 number of electron       7.9999994 magnetization 
 augmentation part       -0.4653497 magnetization 

 Broyden mixing:
  rms(total) = 0.31166E+00    rms(broyden)= 0.31162E+00
  rms(prec ) = 0.90936E+00
  weight for this iteration     100.00

 Free energy of the ion-electron system (eV)
  ---------------------------------------------------
  alpha Z        PSCENC =         3.36414203
  Ewald energy   TEWEN  =      -228.56352493
  -Hartree energ DENC   =       -11.00108243
  -exchange      EXHF   =         0.00000000
  -V(xc)+E(xc)   XCENC  =       -18.60181216
  PAW double counting   =        65.95520812      -30.76852678
  entropy T*S    EENTRO =        -0.00000000
  eigenvalues    EBANDS =         2.63340212
  atomic energy  EATOM  =       206.12349923
  Solvation  Ediel_sol  =         0.00000000
  ---------------------------------------------------
  free energy    TOTEN  =       -10.85869482 eV

  energy without entropy =      -10.85869482  energy(sigma->0) =      -10.85869482


--------------------------------------------------------------------------------------------------------




--------------------------------------- Iteration      1(   6)  ---------------------------------------


    POTLOK:  cpu time    0.0080: real time    0.0141
    SETDIJ:  cpu time    0.0040: real time    0.0041
     EDDAV:  cpu time    0.0080: real time    0.0081
       DOS:  cpu time    0.0000: real time    0.0008
    CHARGE:  cpu time    0.0040: real time    0.0042
    MIXING:  cpu time    0.0040: real time    0.0010
    --------------------------------------------
      LOOP:  cpu time    0.0280: real time    0.0325

 eigenvalue-minimisations  :    32
 total energy-change (2. order) : 0.1373676E+00  (-0.8869657E-02)
 number of electron       7.9999994 magnetization 
 augmentation part       -0.4589752 magnetization 

 Broyden mixing:
  rms(total) = 0.18493E+00    rms(broyden)= 0.18492E+00
  rms(prec ) = 0.53675E+00
  weight for this iteration     100.00

 eigenvalues of (default mixing * dielectric matrix)
  average eigenvalue GAMMA=   2.4374
  2.4374

 Free energy of the ion-electron system (eV)
  ---------------------------------------------------
  alpha Z        PSCENC =         3.36414203
  Ewald energy   TEWEN  =      -228.56352493
  -Hartree energ DENC   =       -12.58127982
  -exchange      EXHF   =         0.00000000
  -V(xc)+E(xc)   XCENC  =       -18.35082748
  PAW double counting   =        70.28576540      -35.21587286
  entropy T*S    EENTRO =        -0.00000000
  eigenvalues    EBANDS =         4.21677122
  atomic energy  EATOM  =       206.12349923
  Solvation  Ediel_sol  =         0.00000000
  ---------------------------------------------------
  free energy    TOTEN  =       -10.72132721 eV

  energy without entropy =      -10.72132721  energy(sigma->0) =      -10.72132721


--------------------------------------------------------------------------------------------------------




--------------------------------------- Iteration      1(   7)  ---------------------------------------


    POTLOK:  cpu time    0.0080: real time    0.0154
    SETDIJ:  cpu time    0.0040: real time    0.0042
     EDDAV:  cpu time    0.0120: real time    0.0101
       DOS:  cpu time    0.0000: real time    0.0010
    CHARGE:  cpu time    0.0040: real time    0.0037
    MIXING:  cpu time    0.0000: real time    0.0008
    --------------------------------------------
      LOOP:  cpu time    0.0280: real time    0.0349

 eigenvalue-minimisations  :    40
 total energy-change (2. order) : 0.6193237E-01  (-0.1660697E-01)
 number of electron       7.9999994 magnetization 
 augmentation part       -0.4511782 magnetization 

 Broyden mixing:
  rms(total) = 0.16411E-01    rms(broyden)= 0.16410E-01
  rms(prec ) = 0.42618E-01
  weight for this iteration     100.00

 eigenvalues of (default mixing * dielectric matrix)
  average eigenvalue GAMMA=   2.4751
  2.4751  2.4751

 Free energy of the ion-electron system (eV)
  ---------------------------------------------------
  alpha Z        PSCENC =         3.36414203
  Ewald energy   TEWEN  =      -228.56352493
  -Hartree energ DENC   =       -15.15570325
  -exchange      EXHF   =         0.00000000
  -V(xc)+E(xc)   XCENC  =       -17.93624517
  PAW double counting   =        76.09178040      -41.17257688
  entropy T*S    EENTRO =        -0.00000000
  eigenvalues    EBANDS =         6.58923375
  atomic energy  EATOM  =       206.12349923
  Solvation  Ediel_sol  =         0.00000000
  ---------------------------------------------------
  free energy    TOTEN  =       -10.65939484 eV

  energy without entropy =      -10.65939484  energy(sigma->0) =      -10.65939484


--------------------------------------------------------------------------------------------------------




--------------------------------------- Iteration      1(   8)  ---------------------------------------


    POTLOK:  cpu time    0.0080: real time    0.0154
    SETDIJ:  cpu time    0.0040: real time    0.0041
     EDDAV:  cpu time    0.0080: real time    0.0080
       DOS:  cpu time    0.0000: real time    0.0008
    CHARGE:  cpu time    0.0040: real time    0.0038
    MIXING:  cpu time    0.0000: real time    0.0008
    --------------------------------------------
      LOOP:  cpu time    0.0280: real time    0.0331

 eigenvalue-minimisations  :    32
 total energy-change (2. order) :-0.1827701E-02  (-0.4711877E-03)
 number of electron       7.9999994 magnetization 
 augmentation part       -0.4521949 magnetization 

 Broyden mixing:
  rms(total) = 0.26410E-02    rms(broyden)= 0.26387E-02
  rms(prec ) = 0.88163E-02
  weight for this iteration     100.00

 eigenvalues of (default mixing * dielectric matrix)
  average eigenvalue GAMMA=   2.1265
  1.3726  2.7962  2.2108

 Free energy of the ion-electron system (eV)
  ---------------------------------------------------
  alpha Z        PSCENC =         3.36414203
  Ewald energy   TEWEN  =      -228.56352493
  -Hartree energ DENC   =       -15.12908907
  -exchange      EXHF   =         0.00000000
  -V(xc)+E(xc)   XCENC  =       -17.92695441
  PAW double counting   =        75.14202762      -40.19252284
  entropy T*S    EENTRO =        -0.00000000
  eigenvalues    EBANDS =         6.52119984
  atomic energy  EATOM  =       206.12349923
  Solvation  Ediel_sol  =         0.00000000
  ---------------------------------------------------
  free energy    TOTEN  =       -10.66122254 eV

  energy without entropy =      -10.66122254  energy(sigma->0) =      -10.66122254


--------------------------------------------------------------------------------------------------------




--------------------------------------- Iteration      1(   9)  ---------------------------------------


    POTLOK:  cpu time    0.0120: real time    0.0150
    SETDIJ:  cpu time    0.0040: real time    0.0042
     EDDAV:  cpu time    0.0120: real time    0.0114
       DOS:  cpu time    0.0000: real time    0.0009
    --------------------------------------------
      LOOP:  cpu time    0.0240: real time    0.0314

 eigenvalue-minimisations  :    40
 total energy-change (2. order) :-0.1228409E-03  (-0.1215701E-04)
 number of electron       7.9999994 magnetization 
 augmentation part       -0.4521949 magnetization 

 Free energy of the ion-electron system (eV)
  ---------------------------------------------------
  alpha Z        PSCENC =         3.36414203
  Ewald energy   TEWEN  =      -228.56352493
  -Hartree energ DENC   =       -15.17070578
  -exchange      EXHF   =         0.00000000
  -V(xc)+E(xc)   XCENC  =       -17.92016731
  PAW double counting   =        75.13783541      -40.18848007
  entropy T*S    EENTRO =        -0.00000000
  eigenvalues    EBANDS =         6.55605604
  atomic energy  EATOM  =       206.12349923
  Solvation  Ediel_sol  =         0.00000000
  ---------------------------------------------------
  free energy    TOTEN  =       -10.66134538 eV

  energy without entropy =      -10.66134538  energy(sigma->0) =      -10.66134538


--------------------------------------------------------------------------------------------------------




 average (electrostatic) potential at core
  the test charge radii are     0.9892
  (the norm of the test charge is              1.0000)
       1 -83.1967       2 -83.1967
 
 
 
 E-fermi :   6.0328     XC(G=0):  -9.3910     alpha+bet :-11.9845


 k-point     1 :       0.2500    0.2500    0.2500
  band No.  band energies     occupation 
      1      -5.3018      2.00000
      2       1.9383      2.00000
      3       5.1105      2.00000
      4       5.1105      2.00000
      5       7.9029      0.00000
      6       9.3769      0.00000
      7       9.3769      0.00000
      8      12.7995      0.00000

 k-point     2 :      -0.2500    0.2500    0.2500
  band No.  band energies     occupation 
      1      -3.3808      2.00000
      2      -0.5187      2.00000
      3       2.3261      2.00000
      4       3.6583      2.00000
      5       7.3894      0.00000
      6      10.3271      0.00000
      7      11.6269      0.00000
      8      11.8029      0.00000


--------------------------------------------------------------------------------------------------------


 soft charge-density along one line, spin component           1
         0         1         2         3         4         5         6         7         8         9
 total charge-density along one line
 
 pseudopotential strength for first ion, spin component:           1
 18.411  -0.001  -0.000  -0.000  -0.000   0.000   0.000   0.000
 -0.001   0.006   0.000   0.000   0.000  -0.000  -0.000  -0.000
 -0.000   0.000   4.179  -0.000  -0.000  -0.005   0.000   0.000
 -0.000   0.000  -0.000   4.179  -0.000   0.000  -0.005   0.000
 -0.000   0.000  -0.000  -0.000   4.179   0.000   0.000  -0.005
  0.000  -0.000  -0.005   0.000   0.000   0.005  -0.000  -0.000
  0.000  -0.000   0.000  -0.005   0.000  -0.000   0.005  -0.000
  0.000  -0.000   0.000   0.000  -0.005  -0.000  -0.000   0.005
 total augmentation occupancy for first ion, spin component:           1
  1.460  -0.885  -0.000  -0.000   0.000   0.000   0.000  -0.000
 -0.885   0.851  -0.000  -0.000  -0.000   0.000   0.000  -0.000
 -0.000  -0.000   1.048  -0.000   0.000  -0.655   0.000  -0.000
 -0.000  -0.000  -0.000   1.048   0.000   0.000  -0.655  -0.000
 -0.000  -0.000   0.000   0.000   1.048  -0.000  -0.000  -0.655
  0.000   0.000  -0.655   0.000  -0.000   0.472  -0.000   0.000
  0.000   0.000   0.000  -0.655  -0.000  -0.000   0.472   0.000
 -0.000   0.000  -0.000  -0.000  -0.655   0.000   0.000   0.472


------------------------ aborting loop because EDIFF is reached ----------------------------------------


    CHARGE:  cpu time    0.0040: real time    0.0038
    FORLOC:  cpu time    0.0000: real time    0.0003
    FORNL :  cpu time    0.0000: real time    0.0023
    STRESS:  cpu time    0.0080: real time    0.0085
    FORCOR:  cpu time    0.0080: real time    0.0061
    FORHAR:  cpu time    0.0000: real time    0.0014
    MIXING:  cpu time    0.0040: real time    0.0006
    OFIELD:  cpu time    0.0000: real time    0.0002

  FORCE on cell =-STRESS in cart. coord.  units (eV):
  Direction    XX          YY          ZZ          XY          YZ          ZX
  --------------------------------------------------------------------------------------
  Alpha Z     3.36414     3.36414     3.36414
  Ewald     -76.18788   -76.18788   -76.18788    -0.00000    -0.00000     0.00000
  Hartree     5.06037     5.06037     5.06037    -0.00000     0.00000     0.00000
  E(xc)     -25.42884   -25.42884   -25.42884     0.00000     0.00000     0.00000
  Local     -29.47480   -29.47480   -29.47480     0.00005     0.00005     0.00005
  n-local    73.96579    79.50763    79.50762    -0.64153    -3.30125    -0.64152
  augment   -11.48516   -11.48516   -11.48516    -0.00004    -0.00004    -0.00004
  Kinetic    54.90558    58.12100    58.12100    -0.82817    -6.16502    -0.82817
  Fock        0.00000     0.00000     0.00000     0.00000     0.00000     0.00000
  -------------------------------------------------------------------------------------
  Total       0.55737     0.55737     0.55737    -0.00000    -0.00000     0.00000
  in kB      22.31083    22.31083    22.31083    -0.00000    -0.00000     0.00000
  external pressure =       22.31 kB  Pullay stress =        0.00 kB


 VOLUME and BASIS-vectors are now :
 -----------------------------------------------------------------------------
  energy-cutoff  :      250.00
  volume of cell :       40.03
      direct lattice vectors                 reciprocal lattice vectors
     0.000000000  2.715000000  2.715000000    -0.184162063  0.184162063  0.184162063
     2.715000000  0.000000000  2.715000000     0.184162063 -0.184162063  0.184162063
     2.715000000  2.715000000  0.000000000     0.184162063  0.184162063 -0.184162063

  length of vectors
     3.839589822  3.839589822  3.839589822     0.318978049  0.318978049  0.318978049


 FORCES acting on ions
    electron-ion (+dipol)            ewald-force                    non-local-force                 convergence-correction
 -----------------------------------------------------------------------------------------------
   0.299E-05 0.299E-05 0.295E-05   -.476E-15 -.149E-14 0.391E-14   -.294E-15 -.254E-15 -.162E-15   -.159E-05 -.159E-05 -.159E-05
   -.299E-05 -.299E-05 -.295E-05   0.623E-15 0.106E-14 -.375E-14   0.279E-15 0.262E-15 0.171E-15   0.159E-05 0.159E-05 0.159E-05
 -----------------------------------------------------------------------------------------------
   0.100E-12 0.491E-13 -.651E-14   0.147E-15 -.426E-15 0.164E-15   -.151E-16 0.750E-17 0.829E-17   0.233E-14 -.296E-16 -.158E-14
 
 
 POSITION                                       TOTAL-FORCE (eV/Angst)
 -----------------------------------------------------------------------------------
      2.71500      2.71500      2.71500        -0.000000     -0.000000     -0.000000
      4.07250      4.07250      4.07250         0.000000      0.000000      0.000000
 -----------------------------------------------------------------------------------
    total drift:                                0.000000      0.000000     -0.000000


--------------------------------------------------------------------------------------------------------



  FREE ENERGIE OF THE ION-ELECTRON SYSTEM (eV)
  ---------------------------------------------------
  free  energy   TOTEN  =       -10.66134538 eV

  energy  without entropy=      -10.66134538  energy(sigma->0) =      -10.66134538
 


--------------------------------------------------------------------------------------------------------


    POTLOK:  cpu time    0.0160: real time    0.0245


--------------------------------------------------------------------------------------------------------




--------------------------------------------------------------------------------------------------------


    WAVPRE:  cpu time    0.3400: real time    0.6524
    FEWALD:  cpu time    0.0000: real time    0.0005
    GENKIN:  cpu time    0.0000: real time    0.0005
    ORTHCH:  cpu time    0.0000: real time    0.0008
     LOOP+:  cpu time    0.6000: real time    1.0086


--------------------------------------- Iteration      2(   1)  ---------------------------------------


    POTLOK:  cpu time    0.1800: real time    0.1845
    SETDIJ:  cpu time    0.1040: real time    0.1031
     EDDAV:  cpu time    0.5360: real time    0.5361
       DOS:  cpu time    0.2440: real time    0.2440
    CHARGE:  cpu time    0.0160: real time    0.0184
    MIXING:  cpu time    0.2240: real time    0.2215
    --------------------------------------------
      LOOP:  cpu time    1.3040: real time    1.3083

 eigenvalue-minimisations  :    40
 total energy-change (2. order) :-0.1199994E-01  (-0.3376460E-01)
 number of electron       8.0000001 magnetization 
 augmentation part       -0.4547366 magnetization 

 Broyden mixing:
  rms(total) = 0.36858E-01    rms(broyden)= 0.36785E-01
  rms(prec ) = 0.13297E+00
  weight for this iteration     100.00

 Free energy of the ion-electron system (eV)
  ---------------------------------------------------
  alpha Z        PSCENC =         3.23202243
  Ewald energy   TEWEN  =      -225.53136037
  -Hartree energ DENC   =       -14.98283951
  -exchange      EXHF   =         0.00000000
  -V(xc)+E(xc)   XCENC  =       -18.11623136
  PAW double counting   =        75.14371658      -40.19560458
  entropy T*S    EENTRO =        -0.00000000
  eigenvalues    EBANDS =         3.65357511
  atomic energy  EATOM  =       206.12349923
  Solvation  Ediel_sol  =         0.00000000
  ---------------------------------------------------
  free energy    TOTEN  =       -10.67322248 eV

  energy without entropy =      -10.67322248  energy(sigma->0) =      -10.67322248


--------------------------------------------------------------------------------------------------------




--------------------------------------- Iteration      2(   2)  ---------------------------------------


    POTLOK:  cpu time    0.0520: real time    0.0592
    SETDIJ:  cpu time    0.0080: real time    0.0085
     EDDAV:  cpu time    0.0160: real time    0.0171
       DOS:  cpu time    0.0000: real time    0.0012
    CHARGE:  cpu time    0.0080: real time    0.0093
    MIXING:  cpu time    0.0040: real time    0.0014
    --------------------------------------------
      LOOP:  cpu time    0.0880: real time    0.0968

 eigenvalue-minimisations  :    32
 total energy-change (2. order) : 0.5629702E-02  (-0.4516956E-03)
 number of electron       8.0000001 magnetization 
 augmentation part       -0.4535417 magnetization 

 Broyden mixing:
  rms(total) = 0.21160E-01    rms(broyden)= 0.21156E-01
  rms(prec ) = 0.76443E-01
  weight for this iteration     100.00

 eigenvalues of (default mixing * dielectric matrix)
  average eigenvalue GAMMA=   2.3066
  2.3066

 Free energy of the ion-electron system (eV)
  ---------------------------------------------------
  alpha Z        PSCENC =         3.23202243
  Ewald energy   TEWEN  =      -225.53136037
  -Hartree energ DENC   =       -15.27173106
  -exchange      EXHF   =         0.00000000
  -V(xc)+E(xc)   XCENC  =       -18.10752375
  PAW double counting   =        74.78216521      -39.82487383
  entropy T*S    EENTRO =        -0.00000000
  eigenvalues    EBANDS =         3.93020937
  atomic energy  EATOM  =       206.12349923
  Solvation  Ediel_sol  =         0.00000000
  ---------------------------------------------------
  free energy    TOTEN  =       -10.66759278 eV

  energy without entropy =      -10.66759278  energy(sigma->0) =      -10.66759278


--------------------------------------------------------------------------------------------------------




--------------------------------------- Iteration      2(   3)  ---------------------------------------


    POTLOK:  cpu time    0.0200: real time    0.0261
    SETDIJ:  cpu time    0.0080: real time    0.0085
     EDDAV:  cpu time    0.0200: real time    0.0209
       DOS:  cpu time    0.0000: real time    0.0012
    CHARGE:  cpu time    0.0120: real time    0.0094
    MIXING:  cpu time    0.0000: real time    0.0015
    --------------------------------------------
      LOOP:  cpu time    0.0600: real time    0.0675

 eigenvalue-minimisations  :    40
 total energy-change (2. order) : 0.3048327E-02  (-0.5883528E-03)
 number of electron       8.0000001 magnetization 
 augmentation part       -0.4512090 magnetization 

 Broyden mixing:
  rms(total) = 0.25769E-02    rms(broyden)= 0.25763E-02
  rms(prec ) = 0.58672E-02
  weight for this iteration     100.00

 eigenvalues of (default mixing * dielectric matrix)
  average eigenvalue GAMMA=   2.0946
  1.8758  2.3135

 Free energy of the ion-electron system (eV)
  ---------------------------------------------------
  alpha Z        PSCENC =         3.23202243
  Ewald energy   TEWEN  =      -225.53136037
  -Hartree energ DENC   =       -15.65780781
  -exchange      EXHF   =         0.00000000
  -V(xc)+E(xc)   XCENC  =       -18.09849699
  PAW double counting   =        74.10346349      -39.12827565
  entropy T*S    EENTRO =        -0.00000000
  eigenvalues    EBANDS =         4.29241122
  atomic energy  EATOM  =       206.12349923
  Solvation  Ediel_sol  =         0.00000000
  ---------------------------------------------------
  free energy    TOTEN  =       -10.66454445 eV

  energy without entropy =      -10.66454445  energy(sigma->0) =      -10.66454445


--------------------------------------------------------------------------------------------------------




--------------------------------------- Iteration      2(   4)  ---------------------------------------


    POTLOK:  cpu time    0.0200: real time    0.0259
    SETDIJ:  cpu time    0.0080: real time    0.0085
     EDDAV:  cpu time    0.0120: real time    0.0103
       DOS:  cpu time    0.0000: real time    0.0011
    --------------------------------------------
      LOOP:  cpu time    0.0400: real time    0.0459

 eigenvalue-minimisations  :    16
 total energy-change (2. order) : 0.9305649E-05  (-0.5882957E-05)
 number of electron       8.0000001 magnetization 
 augmentation part       -0.4512090 magnetization 

 Free energy of the ion-electron system (eV)
  ---------------------------------------------------
  alpha Z        PSCENC =         3.23202243
  Ewald energy   TEWEN  =      -225.53136037
  -Hartree energ DENC   =       -15.65646450
  -exchange      EXHF   =         0.00000000
  -V(xc)+E(xc)   XCENC  =       -18.10178496
  PAW double counting   =        73.93075147      -38.94877503
  entropy T*S    EENTRO =        -0.00000000
  eigenvalues    EBANDS =         4.28757660
  atomic energy  EATOM  =       206.12349923
  Solvation  Ediel_sol  =         0.00000000
  ---------------------------------------------------
  free energy    TOTEN  =       -10.66453514 eV

  energy without entropy =      -10.66453514  energy(sigma->0) =      -10.66453514


--------------------------------------------------------------------------------------------------------




 average (electrostatic) potential at core
  the test charge radii are     0.9892
  (the norm of the test charge is              1.0000)
       1 -83.6396       2 -83.6396
 
 
 
 E-fermi :   5.6790     XC(G=0):  -9.2325     alpha+bet :-11.5139


 k-point     1 :       0.2500    0.2500    0.2500
  band No.  band energies     occupation 
      1      -5.4561      2.00000
      2       1.6119      2.00000
      3       4.7390      2.00000
      4       4.7390      2.00000
      5       7.3661      0.00000
      6       8.9466      0.00000
      7       8.9466      0.00000
      8      12.0768      0.00000

 k-point     2 :      -0.2500    0.2500    0.2500
  band No.  band energies     occupation 
      1      -3.6098      2.00000
      2      -0.8112      2.00000
      3       2.0595      2.00000
      4       3.3419      2.00000
      5       7.0320      0.00000
      6       9.8977      0.00000
      7      11.0403      0.00000
      8      11.3244      0.00000


--------------------------------------------------------------------------------------------------------


 soft charge-density along one line, spin component           1
         0         1         2         3         4         5         6         7         8         9
 total charge-density along one line
 
 pseudopotential strength for first ion, spin component:           1
 18.456  -0.001  -0.000  -0.000  -0.000   0.000   0.000   0.000
 -0.001   0.006   0.000   0.000   0.000  -0.000  -0.000  -0.000
 -0.000   0.000   4.183  -0.000  -0.000  -0.004   0.000   0.000
 -0.000   0.000  -0.000   4.183  -0.000   0.000  -0.004   0.000
 -0.000   0.000  -0.000  -0.000   4.183   0.000   0.000  -0.004
  0.000  -0.000  -0.004   0.000   0.000   0.005  -0.000  -0.000
  0.000  -0.000   0.000  -0.004   0.000  -0.000   0.005  -0.000
  0.000  -0.000   0.000   0.000  -0.004  -0.000  -0.000   0.005
 total augmentation occupancy for first ion, spin component:           1
  1.467  -0.831  -0.000  -0.000  -0.000   0.000   0.000   0.000
 -0.831   0.772  -0.000   0.000  -0.000  -0.000  -0.000  -0.000
 -0.000   0.000   1.020  -0.000  -0.000  -0.631   0.000   0.000
  0.000   0.000  -0.000   1.020  -0.000  -0.000  -0.631  -0.000
  0.000  -0.000   0.000   0.000   1.020   0.000  -0.000  -0.631
  0.000   0.000  -0.631   0.000   0.000   0.448   0.000  -0.000
  0.000   0.000   0.000  -0.631   0.000  -0.000   0.448  -0.000
  0.000   0.000   0.000  -0.000  -0.631   0.000   0.000   0.448


------------------------ aborting loop because EDIFF is reached ----------------------------------------


    CHARGE:  cpu time    0.0120: real time    0.0093
    FORLOC:  cpu time    0.0000: real time    0.0006
    FORNL :  cpu time    0.0040: real time    0.0052
    STRESS:  cpu time    0.0200: real time    0.0202
    FORCOR:  cpu time    0.0160: real time    0.0140
    FORHAR:  cpu time    0.0040: real time    0.0035
    MIXING:  cpu time    0.0000: real time    0.0011
    OFIELD:  cpu time    0.0000: real time    0.0004

  FORCE on cell =-STRESS in cart. coord.  units (eV):
  Direction    XX          YY          ZZ          XY          YZ          ZX
  --------------------------------------------------------------------------------------
  Alpha Z     3.23202     3.23202     3.23202
  Ewald     -75.17715   -75.17715   -75.17715     0.00000     0.00000    -0.00000
  Hartree     5.21964     5.21964     5.21964    -0.00000     0.00000     0.00000
  E(xc)     -25.20062   -25.20062   -25.20062     0.00001     0.00001     0.00001
  Local     -30.03593   -30.03593   -30.03593     0.00005     0.00005     0.00005
  n-local    73.30003    78.75126    78.75125    -0.64265    -3.17417    -0.64263
  augment   -11.47161   -11.47161   -11.47161    -0.00005    -0.00005    -0.00005
  Kinetic    53.70970    57.33312    57.33312    -0.82979    -6.11277    -0.82978
  Fock        0.00000     0.00000     0.00000     0.00000     0.00000     0.00000
  -------------------------------------------------------------------------------------
  Total      -0.37416    -0.37416    -0.37416    -0.00000     0.00000    -0.00000
  in kB     -14.38911   -14.38911   -14.38911    -0.00000     0.00000    -0.00000
  external pressure =      -14.39 kB  Pullay stress =        0.00 kB


 VOLUME and BASIS-vectors are now :
 -----------------------------------------------------------------------------
  energy-cutoff  :      250.00
  volume of cell :       41.66
      direct lattice vectors                 reciprocal lattice vectors
     0.000000000  2.751501916  2.751501916    -0.181718936  0.181718936  0.181718936
     2.751501916 -0.000000000  2.751501916     0.181718936 -0.181718936  0.181718936
     2.751501916  2.751501916 -0.000000000     0.181718936  0.181718936 -0.181718936

  length of vectors
     3.891211327  3.891211327  3.891211327     0.314746429  0.314746429  0.314746429


 FORCES acting on ions
    electron-ion (+dipol)            ewald-force                    non-local-force                 convergence-correction
 -----------------------------------------------------------------------------------------------
   0.443E-05 0.443E-05 0.456E-05   -.474E-15 -.223E-14 -.548E-14   -.421E-15 -.444E-15 -.379E-15   -.502E-07 -.502E-07 -.502E-07
   -.443E-05 -.443E-05 -.456E-05   0.640E-15 0.154E-14 0.584E-14   0.429E-15 0.446E-15 0.342E-15   0.502E-07 0.502E-07 0.502E-07
 -----------------------------------------------------------------------------------------------
   0.114E-12 0.466E-13 -.379E-14   0.166E-15 -.689E-15 0.359E-15   0.765E-17 0.245E-17 -.372E-16   0.340E-14 0.345E-14 -.374E-15
 
 
 POSITION                                       TOTAL-FORCE (eV/Angst)
 -----------------------------------------------------------------------------------
      2.75150      2.75150      2.75150        -0.000000     -0.000000     -0.000000
      4.12725      4.12725      4.12725         0.000000      0.000000      0.000000
 -----------------------------------------------------------------------------------
    total drift:                                0.000000      0.000000     -0.000000


--------------------------------------------------------------------------------------------------------



  FREE ENERGIE OF THE ION-ELECTRON SYSTEM (eV)
  ---------------------------------------------------
  free  energy   TOTEN  =       -10.66453514 eV

  energy  without entropy=      -10.66453514  energy(sigma->0) =      -10.66453514
 
 d Force = 0.0000000E+00[ 0.000E+00, 0.000E+00]  d Energy = 0.3189763E-02-0.319E-02
 d Force = 0.0000000E+00[ 0.000E+00, 0.000E+00]  d Ewald  =-0.3032165E+01 0.303E+01


--------------------------------------------------------------------------------------------------------


    POTLOK:  cpu time    0.0320: real time    0.0420


--------------------------------------------------------------------------------------------------------


 Steepest descent step on ions:
 trial-energy change:   -0.003190  1 .order   -0.003695   -0.022481    0.015091
  (g-gl).g = 0.225E-01      g.g   = 0.225E-01  gl.gl    = 0.000E+00
 g(Force)  = 0.442E-44   g(Stress)= 0.225E-01 ortho     = 0.000E+00
 gamma     =   0.00000
 trial     =   1.00000
 opt step  =   0.59834  (harmonic =   0.59834) maximal distance =0.00000000
 next E    =   -10.668071   (d E  =  -0.00673)


--------------------------------------------------------------------------------------------------------


    WAVPRE:  cpu time    0.0120: real time    0.0244
    FEWALD:  cpu time    0.0000: real time    0.0006
    GENKIN:  cpu time    0.0040: real time    0.0012
    ORTHCH:  cpu time    0.0000: real time    0.0016
     LOOP+:  cpu time    1.6280: real time    1.7065


--------------------------------------- Iteration      3(   1)  ---------------------------------------


    POTLOK:  cpu time    0.0240: real time    0.0244
    SETDIJ:  cpu time    0.0080: real time    0.0085
     EDDAV:  cpu time    0.0200: real time    0.0210
       DOS:  cpu time    0.0000: real time    0.0012
    CHARGE:  cpu time    0.0080: real time    0.0093
    MIXING:  cpu time    0.0040: real time    0.0013
    --------------------------------------------
      LOOP:  cpu time    0.0640: real time    0.0666

 eigenvalue-minimisations  :    40
 total energy-change (2. order) :-0.4569737E-02  (-0.5578520E-02)
 number of electron       7.9999997 magnetization 
 augmentation part       -0.4500446 magnetization 

 Broyden mixing:
  rms(total) = 0.15088E-01    rms(broyden)= 0.15058E-01
  rms(prec ) = 0.54251E-01
  weight for this iteration     100.00

 Free energy of the ion-electron system (eV)
  ---------------------------------------------------
  alpha Z        PSCENC =         3.28424393
  Ewald energy   TEWEN  =      -226.73955304
  -Hartree energ DENC   =       -15.74242217
  -exchange      EXHF   =         0.00000000
  -V(xc)+E(xc)   XCENC  =       -18.02493594
  PAW double counting   =        73.88223220      -38.89815430
  entropy T*S    EENTRO =        -0.00000000
  eigenvalues    EBANDS =         5.44597592
  atomic energy  EATOM  =       206.12349923
  Solvation  Ediel_sol  =         0.00000000
  ---------------------------------------------------
  free energy    TOTEN  =       -10.66911419 eV

  energy without entropy =      -10.66911419  energy(sigma->0) =      -10.66911419


--------------------------------------------------------------------------------------------------------




--------------------------------------- Iteration      3(   2)  ---------------------------------------


    POTLOK:  cpu time    0.0200: real time    0.0264
    SETDIJ:  cpu time    0.0080: real time    0.0085
     EDDAV:  cpu time    0.0160: real time    0.0170
       DOS:  cpu time    0.0000: real time    0.0012
    CHARGE:  cpu time    0.0120: real time    0.0094
    MIXING:  cpu time    0.0000: real time    0.0016
    --------------------------------------------
      LOOP:  cpu time    0.0560: real time    0.0640

 eigenvalue-minimisations  :    32
 total energy-change (2. order) : 0.9518527E-03  (-0.7281196E-04)
 number of electron       7.9999997 magnetization 
 augmentation part       -0.4505465 magnetization 

 Broyden mixing:
  rms(total) = 0.86567E-02    rms(broyden)= 0.86548E-02
  rms(prec ) = 0.31136E-01
  weight for this iteration     100.00

 eigenvalues of (default mixing * dielectric matrix)
  average eigenvalue GAMMA=   2.3064
  2.3064

 Free energy of the ion-electron system (eV)
  ---------------------------------------------------
  alpha Z        PSCENC =         3.28424393
  Ewald energy   TEWEN  =      -226.73955304
  -Hartree energ DENC   =       -15.62226202
  -exchange      EXHF   =         0.00000000
  -V(xc)+E(xc)   XCENC  =       -18.02843547
  PAW double counting   =        74.02559095      -39.04508031
  entropy T*S    EENTRO =        -0.00000000
  eigenvalues    EBANDS =         5.33383442
  atomic energy  EATOM  =       206.12349923
  Solvation  Ediel_sol  =         0.00000000
  ---------------------------------------------------
  free energy    TOTEN  =       -10.66816233 eV

  energy without entropy =      -10.66816233  energy(sigma->0) =      -10.66816233


--------------------------------------------------------------------------------------------------------




--------------------------------------- Iteration      3(   3)  ---------------------------------------


    POTLOK:  cpu time    0.0200: real time    0.0256
    SETDIJ:  cpu time    0.0080: real time    0.0085
     EDDAV:  cpu time    0.0160: real time    0.0171
       DOS:  cpu time    0.0040: real time    0.0012
    CHARGE:  cpu time    0.0080: real time    0.0094
    MIXING:  cpu time    0.0000: real time    0.0015
    --------------------------------------------
      LOOP:  cpu time    0.0560: real time    0.0633

 eigenvalue-minimisations  :    32
 total energy-change (2. order) : 0.4587018E-03  (-0.9708926E-04)
 number of electron       7.9999997 magnetization 
 augmentation part       -0.4514899 magnetization 

 Broyden mixing:
  rms(total) = 0.10435E-02    rms(broyden)= 0.10433E-02
  rms(prec ) = 0.23740E-02
  weight for this iteration     100.00

 eigenvalues of (default mixing * dielectric matrix)
  average eigenvalue GAMMA=   2.1318
  1.9560  2.3076

 Free energy of the ion-electron system (eV)
  ---------------------------------------------------
  alpha Z        PSCENC =         3.28424393
  Ewald energy   TEWEN  =      -226.73955304
  -Hartree energ DENC   =       -15.46633817
  -exchange      EXHF   =         0.00000000
  -V(xc)+E(xc)   XCENC  =       -18.03153948
  PAW double counting   =        74.29645489      -39.32302737
  entropy T*S    EENTRO =        -0.00000000
  eigenvalues    EBANDS =         5.18855639
  atomic energy  EATOM  =       206.12349923
  Solvation  Ediel_sol  =         0.00000000
  ---------------------------------------------------
  free energy    TOTEN  =       -10.66770363 eV

  energy without entropy =      -10.66770363  energy(sigma->0) =      -10.66770363


--------------------------------------------------------------------------------------------------------




--------------------------------------- Iteration      3(   4)  ---------------------------------------


    POTLOK:  cpu time    0.0200: real time    0.0254
    SETDIJ:  cpu time    0.0080: real time    0.0085
     EDDAV:  cpu time    0.0120: real time    0.0103
       DOS:  cpu time    0.0000: real time    0.0011
    --------------------------------------------
      LOOP:  cpu time    0.0400: real time    0.0453

 eigenvalue-minimisations  :    16
 total energy-change (2. order) :-0.3873665E-05  (-0.1034945E-05)
 number of electron       7.9999997 magnetization 
 augmentation part       -0.4514899 magnetization 

 Free energy of the ion-electron system (eV)
  ---------------------------------------------------
  alpha Z        PSCENC =         3.28424393
  Ewald energy   TEWEN  =      -226.73955304
  -Hartree energ DENC   =       -15.46755466
  -exchange      EXHF   =         0.00000000
  -V(xc)+E(xc)   XCENC  =       -18.03002895
  PAW double counting   =        74.36963433      -39.39906736
  entropy T*S    EENTRO =        -0.00000000
  eigenvalues    EBANDS =         5.19111902
  atomic energy  EATOM  =       206.12349923
  Solvation  Ediel_sol  =         0.00000000
  ---------------------------------------------------
  free energy    TOTEN  =       -10.66770750 eV

  energy without entropy =      -10.66770750  energy(sigma->0) =      -10.66770750


--------------------------------------------------------------------------------------------------------




 average (electrostatic) potential at core
  the test charge radii are     0.9892
  (the norm of the test charge is              1.0000)
       1 -83.4609       2 -83.4609
 
 
 
 E-fermi :   5.8064     XC(G=0):  -9.2934     alpha+bet :-11.6999


 k-point     1 :       0.2500    0.2500    0.2500
  band No.  band energies     occupation 
      1      -5.3943      2.00000
      2       1.7424      2.00000
      3       4.8864      2.00000
      4       4.8864      2.00000
      5       7.5809      0.00000
      6       9.1175      0.00000
      7       9.1175      0.00000
      8      12.3650      0.00000

 k-point     2 :      -0.2500    0.2500    0.2500
  band No.  band energies     occupation 
      1      -3.5185      2.00000
      2      -0.6943      2.00000
      3       2.1657      2.00000
      4       3.4675      2.00000
      5       7.1760      0.00000
      6      10.0708      0.00000
      7      11.2729      0.00000
      8      11.5149      0.00000


--------------------------------------------------------------------------------------------------------


 soft charge-density along one line, spin component           1
         0         1         2         3         4         5         6         7         8         9
 total charge-density along one line
 
 pseudopotential strength for first ion, spin component:           1
 18.438  -0.001  -0.000  -0.000  -0.000   0.000   0.000   0.000
 -0.001   0.006   0.000   0.000   0.000  -0.000  -0.000  -0.000
 -0.000   0.000   4.181  -0.000  -0.000  -0.004   0.000   0.000
 -0.000   0.000  -0.000   4.181  -0.000   0.000  -0.004   0.000
 -0.000   0.000  -0.000  -0.000   4.181   0.000   0.000  -0.004
  0.000  -0.000  -0.004   0.000   0.000   0.005  -0.000  -0.000
  0.000  -0.000   0.000  -0.004   0.000  -0.000   0.005  -0.000
  0.000  -0.000   0.000   0.000  -0.004  -0.000  -0.000   0.005
 total augmentation occupancy for first ion, spin component:           1
  1.464  -0.857   0.000   0.000   0.000   0.000   0.000  -0.000
 -0.857   0.808   0.000  -0.000   0.000   0.000   0.000  -0.000
  0.000  -0.000   1.031  -0.000   0.000  -0.641   0.000   0.000
  0.000   0.000   0.000   1.031  -0.000  -0.000  -0.641  -0.000
 -0.000  -0.000  -0.000   0.000   1.031   0.000  -0.000  -0.641
  0.000   0.000  -0.641  -0.000   0.000   0.458  -0.000  -0.000
  0.000   0.000   0.000  -0.641   0.000  -0.000   0.458   0.000
  0.000  -0.000   0.000  -0.000  -0.641   0.000  -0.000   0.458


------------------------ aborting loop because EDIFF is reached ----------------------------------------


    CHARGE:  cpu time    0.0080: real time    0.0091
    FORLOC:  cpu time    0.0000: real time    0.0006
    FORNL :  cpu time    0.0040: real time    0.0051
    STRESS:  cpu time    0.0240: real time    0.0205
    FORCOR:  cpu time    0.0120: real time    0.0139
    FORHAR:  cpu time    0.0040: real time    0.0035
    MIXING:  cpu time    0.0000: real time    0.0011
    OFIELD:  cpu time    0.0000: real time    0.0004

  FORCE on cell =-STRESS in cart. coord.  units (eV):
  Direction    XX          YY          ZZ          XY          YZ          ZX
  --------------------------------------------------------------------------------------
  Alpha Z     3.28424     3.28424     3.28424
  Ewald     -75.57989   -75.57989   -75.57989    -0.00000     0.00000    -0.00000
  Hartree     5.15549     5.15549     5.15549    -0.00000     0.00000     0.00000
  E(xc)     -25.29283   -25.29283   -25.29283     0.00001     0.00001     0.00001
  Local     -29.80771   -29.80771   -29.80771     0.00005     0.00005     0.00005
  n-local    73.55186    79.03854    79.03854    -0.64185    -3.22297    -0.64185
  augment   -11.47404   -11.47404   -11.47404    -0.00005    -0.00005    -0.00005
  Kinetic    54.17906    57.64345    57.64345    -0.82791    -6.13299    -0.82791
  Fock        0.00000     0.00000     0.00000     0.00000     0.00000     0.00000
  -------------------------------------------------------------------------------------
  Total      -0.01643    -0.01643    -0.01643     0.00000     0.00000     0.00000
  in kB      -0.64191    -0.64191    -0.64191     0.00000     0.00000     0.00000
  external pressure =       -0.64 kB  Pullay stress =        0.00 kB


 VOLUME and BASIS-vectors are now :
 -----------------------------------------------------------------------------
  energy-cutoff  :      250.00
  volume of cell :       41.00
      direct lattice vectors                 reciprocal lattice vectors
     0.000000000  2.736840405  2.736840405    -0.182692421  0.182692421  0.182692421
     2.736840405 -0.000000000  2.736840405     0.182692421 -0.182692421  0.182692421
     2.736840405  2.736840405 -0.000000000     0.182692421  0.182692421 -0.182692421

  length of vectors
     3.870476819  3.870476819  3.870476819     0.316432556  0.316432556  0.316432556


 FORCES acting on ions
    electron-ion (+dipol)            ewald-force                    non-local-force                 convergence-correction
 -----------------------------------------------------------------------------------------------
   0.394E-05 0.394E-05 0.398E-05   -.787E-15 0.162E-15 0.210E-14   0.196E-15 0.269E-15 0.232E-15   0.130E-07 0.130E-07 0.130E-07
   -.394E-05 -.394E-05 -.398E-05   0.694E-15 -.862E-15 -.276E-14   -.210E-15 -.241E-15 -.248E-15   -.130E-07 -.130E-07 -.130E-07
 -----------------------------------------------------------------------------------------------
   0.107E-12 0.352E-13 -.732E-14   -.929E-16 -.701E-15 -.667E-15   -.137E-16 0.279E-16 -.163E-16   0.386E-15 0.109E-14 0.360E-15
 
 
 POSITION                                       TOTAL-FORCE (eV/Angst)
 -----------------------------------------------------------------------------------
      2.73684      2.73684      2.73684        -0.000000      0.000000      0.000000
      4.10526      4.10526      4.10526         0.000000     -0.000000     -0.000000
 -----------------------------------------------------------------------------------
    total drift:                                0.000000      0.000000     -0.000000


--------------------------------------------------------------------------------------------------------



  FREE ENERGIE OF THE ION-ELECTRON SYSTEM (eV)
  ---------------------------------------------------
  free  energy   TOTEN  =       -10.66770750 eV

  energy  without entropy=      -10.66770750  energy(sigma->0) =      -10.66770750
 
 d Force = 0.0000000E+00[ 0.000E+00, 0.000E+00]  d Energy = 0.3172362E-02-0.317E-02
 d Force = 0.0000000E+00[ 0.000E+00, 0.000E+00]  d Ewald  = 0.1208193E+01-0.121E+01


--------------------------------------------------------------------------------------------------------


    POTLOK:  cpu time    0.0320: real time    0.0403


--------------------------------------------------------------------------------------------------------




--------------------------------------------------------------------------------------------------------


  
 reached required accuracy - stopping structural energy minimisation
 writing wavefunctions
     LOOP+:  cpu time    0.3560: real time    0.4564
    4ORBIT:  cpu time    0.0000: real time    0.0000

 total amount of memory used by VASP MPI-rank0    30608. kBytes
=======================================================================

   base      :      30000. kBytes
   nonl-proj :         58. kBytes
   fftplans  :        160. kBytes
   grid      :        372. kBytes
   one-center:          6. kBytes
   wavefun   :         12. kBytes
 
  
  
 General timing and accounting informations for this job:
 ========================================================
  
                  Total CPU time used (sec):        7.068
                            User time (sec):        5.252
                          System time (sec):        1.816
                         Elapsed time (sec):        8.384
  
                   Maximum memory used (kb):        9380.
                   Average memory used (kb):           0.
  
                          Minor page faults:        38080
                          Major page faults:           11
                 Voluntary context switches:        28668
