unknown system                          
   1.00000000000000     
     0.000000    2.760340    2.760340
     2.760340    0.000000    2.760340
     2.760340    2.760340    0.000000
   Si
     2
Direct
  0.500000  0.500000  0.500000
  0.750000  0.750000  0.750000
 
   36   36   36
 0.82882436551E+00 0.84436342362E+00 0.89206641383E+00 0.97504061394E+00 0.10980367358E+01
 0.12669371070E+01 0.14882090695E+01 0.17683056884E+01 0.21128284621E+01 0.25251767842E+01
 0.30045223008E+01 0.35432910251E+01 0.41247954492E+01 0.47219930114E+01 0.52983047856E+01
 0.58109292064E+01 0.62163146624E+01 0.64767429581E+01 0.65665778216E+01 0.64767347829E+01
 0.62163053394E+01 0.58109347276E+01 0.52983434779E+01 0.47220691137E+01 0.41248891415E+01
 0.35433684117E+01 0.30045581574E+01 0.25251696052E+01 0.21127963711E+01 0.17682708872E+01
 0.14881851637E+01 0.12669265494E+01 0.10980355709E+01 0.97504381047E+00 0.89207035390E+00
 0.84436593603E+00 0.84436342362E+00 0.87146590466E+00 0.92742173479E+00 0.10155315749E+01
 0.11402656593E+01 0.13067799618E+01 0.15203607558E+01 0.17857472621E+01 0.21061925589E+01
 0.24821216247E+01 0.29093975063E+01 0.33774875640E+01 0.38681134558E+01 0.43551034239E+01
 0.48060080146E+01 0.51855821898E+01 0.54606373812E+01 0.56052706943E+01 0.56052714433E+01
 0.54606410574E+01 0.51855956489E+01 0.48060423016E+01 0.43551607861E+01 0.38681764367E+01
 0.33775280277E+01 0.29093986779E+01 0.24820892577E+01 0.21061464706E+01 0.17857066547E+01
 0.15203361372E+01 0.13067720414E+01 0.11402675821E+01 0.10155340943E+01 0.92741977356E+00
 0.87146118392E+00 0.84436099102E+00 0.89206641383E+00 0.92742173479E+00 0.98868971430E+00
 0.10791209542E+01 0.12027510365E+01 0.13639349725E+01 0.15667723095E+01 0.18143686729E+01
 0.21078576551E+01 0.24451678003E+01 0.28196721678E+01 0.32190456735E+01 0.36247879480E+01
 0.40128638774E+01 0.43557201934E+01 0.46255716331E+01 0.47984228455E+01 0.48579680025E+01
 0.47984265185E+01 0.46255816022E+01 0.43557403759E+01 0.40128927019E+01 0.36248122414E+01
 0.32190470622E+01 0.28196428950E+01 0.24451178673E+01 0.21078058707E+01 0.18143300587E+01
 0.15667535282E+01 0.13639351131E+01 0.12027620156E+01 0.10791303336E+01 0.98868871798E+00
 0.92741183886E+00 0.89205718203E+00 0.88051973032E+00 0.97504061394E+00 0.10155315749E+01
 0.10791209542E+01 0.11688889502E+01 0.12883821342E+01 0.14411511970E+01 0.16301568278E+01
 0.18570096851E+01 0.21210379245E+01 0.24182598958E+01 0.27404577619E+01 0.30746418367E+01
 0.34032150799E+01 0.37050722546E+01 0.39576946286E+01 0.41400372163E+01 0.42357060333E+01
 0.42357058793E+01 0.41400383558E+01 0.39576986983E+01 0.37050754316E+01 0.34032078529E+01
 0.30746164427E+01 0.27404162096E+01 0.24182136550E+01 0.21210001256E+01 0.18569887148E+01
 0.16301554509E+01 0.14411670294E+01 0.12884064937E+01 0.11689086196E+01 0.10791258371E+01
 0.10155220412E+01 0.97502681960E+00 0.95538175691E+00 0.95538802773E+00 0.10980367358E+01
 0.11402656593E+01 0.12027510365E+01 0.12883821342E+01 0.14002309684E+01 0.15410859055E+01
 0.17128589759E+01 0.19158666379E+01 0.21480303655E+01 0.24041150398E+01 0.26751959510E+01
 0.29485755829E+01 0.32083360677E+01 0.34366242210E+01 0.36156302036E+01 0.37300243519E+01
 0.37693868363E+01 0.37300213073E+01 0.36156253231E+01 0.34366147422E+01 0.32083159693E+01
 0.29485441130E+01 0.26751620252E+01 0.24040905776E+01 0.21480217290E+01 0.19158741320E+01
 0.17128808515E+01 0.15411184486E+01 0.14002656003E+01 0.12884071529E+01 0.12027587677E+01
 0.11402576768E+01 0.10980221973E+01 0.10737086233E+01 0.10657858647E+01 0.10737191625E+01
 0.12669371070E+01 0.13067799618E+01 0.13639349725E+01 0.14411511970E+01 0.15410859055E+01
 0.16658449007E+01 0.18164353777E+01 0.19921565519E+01 0.21899920230E+01 0.24041149731E+01
 0.26256595077E+01 0.28429156117E+01 0.30420602412E+01 0.32084586656E+01 0.33284535576E+01
 0.33913832836E+01 0.33913818675E+01 0.33284491519E+01 0.32084493462E+01 0.30420430249E+01
 0.28428929263E+01 0.26256420988E+01 0.24041139569E+01 0.21900096749E+01 0.19921875347E+01
 0.18164736600E+01 0.16658849588E+01 0.15411196351E+01 0.14411700713E+01 0.13639365159E+01
 0.13067694800E+01 0.12669229550E+01 0.12419337278E+01 0.12299425928E+01 0.12299467338E+01
 0.12419448409E+01 0.14882090695E+01 0.15203607558E+01 0.15667723095E+01 0.16301568278E+01
 0.17128589759E+01 0.18164353777E+01 0.19412062695E+01 0.20858036144E+01 0.22467655764E+01
 0.24182598778E+01 0.25920510095E+01 0.27578320311E+01 0.29040075231E+01 0.30189388583E+01
 0.30925337120E+01 0.31178858681E+01 0.30925338140E+01 0.30189362104E+01 0.29039994666E+01
 0.27578210947E+01 0.25920461625E+01 0.24182700838E+01 0.22467921833E+01 0.20858405142E+01
 0.19412455292E+01 0.18164693904E+01 0.17128795000E+01 0.16301584202E+01 0.15667582077E+01
 0.15203416221E+01 0.14881942770E+01 0.14676183092E+01 0.14563145585E+01 0.14527306471E+01
 0.14563176519E+01 0.14676262932E+01 0.17683056884E+01 0.17857472621E+01 0.18143686729E+01
 0.18570096851E+01 0.19158666379E+01 0.19921565519E+01 0.20858036144E+01 0.21951533545E+01
 0.23167408138E+01 0.24451680064E+01 0.25731821058E+01 0.26920652069E+01 0.27924180959E+01
 0.28653256009E+01 0.29037374762E+01 0.29037400481E+01 0.28653304600E+01 0.27924204067E+01
 0.26920645249E+01 0.25731832682E+01 0.24451762162E+01 0.23167575102E+01 0.21951762547E+01
 0.20858277365E+01 0.19921737166E+01 0.19158672632E+01 0.18569897742E+01 0.18143356473E+01
 0.17857162585E+01 0.17682882775E+01 0.17589299086E+01 0.17546779887E+01 0.17531967427E+01
 0.17531945752E+01 0.17546745619E+01 0.17589331341E+01 0.21128284621E+01 0.21061925589E+01
 0.21078576551E+01 0.21210379245E+01 0.21480303655E+01 0.21899920230E+01 0.22467655764E+01
 0.23167408138E+01 0.23967626141E+01 0.24821218620E+01 0.25667084189E+01 0.26434348543E+01
 0.27050016939E+01 0.27449527028E+01 0.27588093346E+01 0.27449621312E+01 0.27050142599E+01
 0.26434448454E+01 0.25667140355E+01 0.24821226462E+01 0.23967586905E+01 0.23167350432E+01
 0.22467609991E+01 0.21899849724E+01 0.21480110640E+01 0.21210016690E+01 0.21078130144E+01
 0.21061559388E+01 0.21128113830E+01 0.21239501157E+01 0.21355965320E+01 0.21442248500E+01
 0.21473891427E+01 0.21442148730E+01 0.21355844761E+01 0.21239478935E+01 0.25251767842E+01
 0.24821216247E+01 0.24451678003E+01 0.24182598958E+01 0.24041150398E+01 0.24041149731E+01
 0.24182598778E+01 0.24451680064E+01 0.24821218620E+01 0.25251768810E+01 0.25693933836E+01
 0.26092854939E+01 0.26395313005E+01 0.26558558776E+01 0.26558637380E+01 0.26395505722E+01
 0.26093063146E+01 0.25694051135E+01 0.25251707523E+01 0.24820949057E+01 0.24451274643E+01
 0.24182189018E+01 0.24040798221E+01 0.24040805048E+01 0.24182205202E+01 0.24451292409E+01
 0.24820964006E+01 0.25251717635E+01 0.25694053934E+01 0.26093058546E+01 0.26395498173E+01
 0.26558630929E+01 0.26558552923E+01 0.26395306565E+01 0.26092849971E+01 0.25693932016E+01
 0.30045223008E+01 0.29093975063E+01 0.28196721678E+01 0.27404577619E+01 0.26751959510E+01
 0.26256595077E+01 0.25920510095E+01 0.25731821058E+01 0.25667084189E+01 0.25693933836E+01
 0.25774240205E+01 0.25868467509E+01 0.25941472786E+01 0.25968804305E+01 0.25941653228E+01
 0.25868734541E+01 0.25774420617E+01 0.25693836949E+01 0.25666619677E+01 0.25731090739E+01
 0.25919751939E+01 0.26256000094E+01 0.26751559163E+01 0.27404320580E+01 0.28196603700E+01
 0.29094032364E+01 0.30045437789E+01 0.30984526642E+01 0.31834347505E+01 0.32515384499E+01
 0.32956996740E+01 0.33110032191E+01 0.32956854550E+01 0.32515148720E+01 0.31834064652E+01
 0.30984239247E+01 0.35432910251E+01 0.33774875640E+01 0.32190456735E+01 0.30746418367E+01
 0.29485755829E+01 0.28429156117E+01 0.27578320311E+01 0.26920652069E+01 0.26434348543E+01
 0.26092854939E+01 0.25868467509E+01 0.25735695438E+01 0.25674780945E+01 0.25674878552E+01
 0.25735934620E+01 0.25868670389E+01 0.26092756363E+01 0.26433772771E+01 0.26919695996E+01
 0.27577317452E+01 0.28428429798E+01 0.29485424716E+01 0.30746426870E+01 0.32190716076E+01
 0.33775313685E+01 0.35433422715E+01 0.37075477597E+01 0.38593829126E+01 0.39872102373E+01
 0.40799394759E+01 0.41287567020E+01 0.41287537961E+01 0.40799304803E+01 0.39871926754E+01
 0.38593519369E+01 0.37075024773E+01 0.41247954492E+01 0.38681134558E+01 0.36247879480E+01
 0.34032150799E+01 0.32083360677E+01 0.30420602412E+01 0.29040075231E+01 0.27924180959E+01
 0.27050016939E+01 0.26395313005E+01 0.25941472786E+01 0.25674780945E+01 0.25586877628E+01
 0.25674931544E+01 0.25941637476E+01 0.26395213550E+01 0.27049404185E+01 0.27923112387E+01
 0.29038952978E+01 0.30419868473E+01 0.32083187561E+01 0.34032436056E+01 0.36248439096E+01
 0.38681813360E+01 0.41248609236E+01 0.43830298848E+01 0.46279101537E+01 0.48429408087E+01
 0.50115358544E+01 0.51193127755E+01 0.51564143152E+01 0.51193210545E+01 0.50115446639E+01
 0.48429380961E+01 0.46278855101E+01 0.43829808493E+01 0.47219930114E+01 0.43551034239E+01
 0.40128638774E+01 0.37050722546E+01 0.34366242210E+01 0.32084586656E+01 0.30189388583E+01
 0.28653256009E+01 0.27449527028E+01 0.26558558776E+01 0.25968804305E+01 0.25674878552E+01
 0.25674931544E+01 0.25968884492E+01 0.26558424250E+01 0.27448898532E+01 0.28652135928E+01
 0.30188208829E+01 0.32083893507E+01 0.34366240640E+01 0.37051205400E+01 0.40129292876E+01
 0.43551671533E+01 0.47220456947E+01 0.50985962654E+01 0.54652415836E+01 0.57992376336E+01
 0.60768932792E+01 0.62763764439E+01 0.63807665995E+01 0.63807772150E+01 0.62764024744E+01
 0.60769210245E+01 0.57992526188E+01 0.54652336264E+01 0.50985630616E+01 0.52983047856E+01
 0.48060080146E+01 0.43557201934E+01 0.39576946286E+01 0.36156302036E+01 0.33284535576E+01
 0.30925337120E+01 0.29037374762E+01 0.27588093346E+01 0.26558637380E+01 0.25941653228E+01
 0.25735934620E+01 0.25941637476E+01 0.26558424250E+01 0.27587426146E+01 0.29036221172E+01
 0.30924114932E+01 0.33283857401E+01 0.36156415314E+01 0.39577540599E+01 0.43557798248E+01
 0.48060453615E+01 0.52983223886E+01 0.58149593995E+01 0.63313125664E+01 0.68174905177E+01
 0.72411600108E+01 0.75710604692E+01 0.77808651505E+01 0.78528896656E+01 0.77808849416E+01
 0.75710931844E+01 0.72411956429E+01 0.68175189080E+01 0.63313262251E+01 0.58149569644E+01
 0.58109292064E+01 0.51855821898E+01 0.46255716331E+01 0.41400372163E+01 0.37300243519E+01
 0.33913832836E+01 0.31178858681E+01 0.29037400481E+01 0.27449621312E+01 0.26395505722E+01
 0.25868734541E+01 0.25868670389E+01 0.26395213550E+01 0.27448898532E+01 0.29036221172E+01
 0.31177616782E+01 0.33913156303E+01 0.37300416570E+01 0.41401029930E+01 0.46256233758E+01
 0.51855904611E+01 0.58109071849E+01 0.64825272899E+01 0.71713822506E+01 0.78402401824E+01
 0.84470843205E+01 0.89494100569E+01 0.93089860271E+01 0.94966851529E+01 0.94966848715E+01
 0.93089885876E+01 0.89494225305E+01 0.84471096550E+01 0.78402729047E+01 0.71714154341E+01
 0.64825585571E+01 0.62163146624E+01 0.54606373812E+01 0.47984228455E+01 0.42357060333E+01
 0.37693868363E+01 0.33913818675E+01 0.30925338140E+01 0.28653304600E+01 0.27050142599E+01
 0.26093063146E+01 0.25774420617E+01 0.26092756363E+01 0.27049404185E+01 0.28652135928E+01
 0.30924114932E+01 0.33913156303E+01 0.37694074451E+01 0.42357763507E+01 0.47984715827E+01
 0.54606272750E+01 0.62162640592E+01 0.70470647904E+01 0.79213252345E+01 0.87955315872E+01
 0.96180623296E+01 0.10334105270E+02 0.10891215035E+02 0.11245341958E+02 0.11366859915E+02
 0.11245297358E+02 0.10891155040E+02 0.10334066078E+02 0.96180605020E+01 0.87955593188E+01
 0.79213703604E+01 0.70471209924E+01 0.64767429581E+01 0.56052706943E+01 0.48579680025E+01
 0.42357058793E+01 0.37300213073E+01 0.33284491519E+01 0.30189362104E+01 0.27924204067E+01
 0.26434448454E+01 0.25694051135E+01 0.25693836949E+01 0.26433772771E+01 0.27923112387E+01
 0.30188208829E+01 0.33283857401E+01 0.37300416570E+01 0.42357763507E+01 0.48580159999E+01
 0.56052538273E+01 0.64766797250E+01 0.74573859369E+01 0.85158935065E+01 0.96049410848E+01
 0.10665067107E+02 0.11629697568E+02 0.12430967341E+02 0.13006556602E+02 0.13307794068E+02
 0.13307738019E+02 0.13006417422E+02 0.12430813607E+02 0.11629592796E+02 0.10665031779E+02
 0.96049573496E+01 0.85159406060E+01 0.74574530016E+01 0.65665778216E+01 0.56052714433E+01
 0.47984265185E+01 0.41400383558E+01 0.36156253231E+01 0.32084493462E+01 0.29039994666E+01
 0.26920645249E+01 0.25667140355E+01 0.25251707523E+01 0.25666619677E+01 0.26919695996E+01
 0.29038952978E+01 0.32083893507E+01 0.36156415314E+01 0.41401029930E+01 0.47984715827E+01
 0.56052538273E+01 0.65665146691E+01 0.76735150031E+01 0.88985018120E+01 0.10194229483E+02
 0.11496951325E+02 0.12731138202E+02 0.13814673410E+02 0.14665309167E+02 0.15210131290E+02
 0.15397786600E+02 0.15209983166E+02 0.14665073829E+02 0.13814443776E+02 0.12730986265E+02
 0.11496890170E+02 0.10194230417E+02 0.88985397798E+01 0.76735787357E+01 0.64767347829E+01
 0.54606410574E+01 0.46255816022E+01 0.39576986983E+01 0.34366147422E+01 0.30420430249E+01
 0.27578210947E+01 0.25731832682E+01 0.24821226462E+01 0.24820949057E+01 0.25731090739E+01
 0.27577317452E+01 0.30419868473E+01 0.34366240640E+01 0.39577540599E+01 0.46256233758E+01
 0.54606272750E+01 0.64766797250E+01 0.76735150031E+01 0.90306003779E+01 0.10505004304E+02
 0.12033438227E+02 0.13536301209E+02 0.14921508081E+02 0.16087979379E+02 0.16931819130E+02
 0.17374079332E+02 0.17374003697E+02 0.16931613938E+02 0.16087709547E+02 0.14921261399E+02
 0.13536138935E+02 0.12033362997E+02 0.10504985777E+02 0.90306201600E+01 0.76735662097E+01
 0.62163053394E+01 0.51855956489E+01 0.43557403759E+01 0.37050754316E+01 0.32083159693E+01
 0.28428929263E+01 0.25920461625E+01 0.24451762162E+01 0.23967586905E+01 0.24451274643E+01
 0.25919751939E+01 0.28428429798E+01 0.32083187561E+01 0.37051205400E+01 0.43557798248E+01
 0.51855904611E+01 0.62162640592E+01 0.74573859369E+01 0.88985018120E+01 0.10505004304E+02
 0.12218917805E+02 0.13962322617E+02 0.15639817645E+02 0.17132766631E+02 0.18307702095E+02
 0.19058193717E+02 0.19316190096E+02 0.19058094651E+02 0.18307514348E+02 0.17132532508E+02
 0.15639603417E+02 0.13962173618E+02 0.12218834216E+02 0.10504966580E+02 0.88985033199E+01
 0.74574220420E+01 0.58109347276E+01 0.48060423016E+01 0.40128927019E+01 0.34032078529E+01
 0.29485441130E+01 0.26256420988E+01 0.24182700838E+01 0.23167575102E+01 0.23167350432E+01
 0.24182189018E+01 0.26256000094E+01 0.29485424716E+01 0.34032436056E+01 0.40129292876E+01
 0.48060453615E+01 0.58109071849E+01 0.70470647904E+01 0.85158935065E+01 0.10194229483E+02
 0.12033438227E+02 0.13962322617E+02 0.15889006088E+02 0.17686040164E+02 0.19197104343E+02
 0.20288360710E+02 0.20860874491E+02 0.20860859216E+02 0.20288298498E+02 0.19196974499E+02
 0.17685861575E+02 0.15888830428E+02 0.13962188810E+02 0.12033351744E+02 0.10194182358E+02
 0.85158852656E+01 0.70470890585E+01 0.52983434779E+01 0.43551607861E+01 0.36248122414E+01
 0.30746164427E+01 0.26751620252E+01 0.24041139569E+01 0.22467921833E+01 0.21951762547E+01
 0.22467609991E+01 0.24040798221E+01 0.26751559163E+01 0.30746426870E+01 0.36248439096E+01
 0.43551671533E+01 0.52983223886E+01 0.64825272899E+01 0.79213252345E+01 0.96049410848E+01
 0.11496951325E+02 0.13536301209E+02 0.15639817645E+02 0.17686040164E+02 0.19504891837E+02
 0.20938719429E+02 0.21858405368E+02 0.22175620633E+02 0.21858426603E+02 0.20938707511E+02
 0.19504803551E+02 0.17685892781E+02 0.15639665313E+02 0.13536181792E+02 0.11496871434E+02
 0.96048969022E+01 0.79213180718E+01 0.64825483699E+01 0.47220691137E+01 0.38681764367E+01
 0.32190470622E+01 0.27404162096E+01 0.24040905776E+01 0.21900096749E+01 0.20858405142E+01
 0.20858277365E+01 0.21899849724E+01 0.24040805048E+01 0.27404320580E+01 0.32190716076E+01
 0.38681813360E+01 0.47220456947E+01 0.58149593995E+01 0.71713822506E+01 0.87955315872E+01
 0.10665067107E+02 0.12731138202E+02 0.14921508081E+02 0.17132766631E+02 0.19197104343E+02
 0.20938719429E+02 0.22203718818E+02 0.22870807503E+02 0.22870846377E+02 0.22203788633E+02
 0.20938732823E+02 0.19197024307E+02 0.17132631868E+02 0.14921376385E+02 0.12731037009E+02
 0.10664998023E+02 0.87954967228E+01 0.71713863052E+01 0.58149887731E+01 0.41248891415E+01
 0.33775280277E+01 0.28196428950E+01 0.24182136550E+01 0.21480217290E+01 0.19921875347E+01
 0.19412455292E+01 0.19921737166E+01 0.21480110640E+01 0.24182205202E+01 0.28196603700E+01
 0.33775313685E+01 0.41248609236E+01 0.50985962654E+01 0.63313125664E+01 0.78402401824E+01
 0.96180623296E+01 0.11629697568E+02 0.13814673410E+02 0.16087979379E+02 0.18307702095E+02
 0.20288360710E+02 0.21858405368E+02 0.22870807503E+02 0.23221142089E+02 0.22870901303E+02
 0.21858499560E+02 0.20288369879E+02 0.18307624252E+02 0.16087868495E+02 0.13814569300E+02
 0.11629610976E+02 0.96180015209E+01 0.78402227488E+01 0.63313412106E+01 0.50986430765E+01
 0.35433684117E+01 0.29093986779E+01 0.24451178673E+01 0.21210001256E+01 0.19158741320E+01
 0.18164736600E+01 0.18164693904E+01 0.19158672632E+01 0.21210016690E+01 0.24451292409E+01
 0.29094032364E+01 0.35433422715E+01 0.43830298848E+01 0.54652415836E+01 0.68174905177E+01
 0.84470843205E+01 0.10334105270E+02 0.12430967341E+02 0.14665309167E+02 0.16931819130E+02
 0.19058193717E+02 0.20860874491E+02 0.22175620633E+02 0.22870846377E+02 0.22870901303E+02
 0.22175735500E+02 0.20860956270E+02 0.19058198921E+02 0.16931770311E+02 0.14665237582E+02
 0.12430884343E+02 0.10334026291E+02 0.84470432174E+01 0.68175115411E+01 0.54653059767E+01
 0.43830909997E+01 0.30045581574E+01 0.24820892577E+01 0.21078058707E+01 0.18569887148E+01
 0.17128808515E+01 0.16658849588E+01 0.17128795000E+01 0.18569897742E+01 0.21078130144E+01
 0.24820964006E+01 0.30045437789E+01 0.37075477597E+01 0.46279101537E+01 0.57992376336E+01
 0.72411600108E+01 0.89494100569E+01 0.10891215035E+02 0.13006556602E+02 0.15210131290E+02
 0.17374079332E+02 0.19316190096E+02 0.20860859216E+02 0.21858426603E+02 0.22203788633E+02
 0.21858499560E+02 0.20860956270E+02 0.19316264403E+02 0.17374116930E+02 0.15210130438E+02
 0.13006511608E+02 0.10891140430E+02 0.89493536707E+01 0.72411704359E+01 0.57993137163E+01
 0.46280014743E+01 0.37076053164E+01 0.25251696052E+01 0.21061464706E+01 0.18143300587E+01
 0.16301554509E+01 0.15411184486E+01 0.15411196351E+01 0.16301584202E+01 0.18143356473E+01
 0.21061559388E+01 0.25251717635E+01 0.30984526642E+01 0.38593829126E+01 0.48429408087E+01
 0.60768932792E+01 0.75710604692E+01 0.93089860271E+01 0.11245341958E+02 0.13307794068E+02
 0.15397786600E+02 0.17374003697E+02 0.19058094651E+02 0.20288298498E+02 0.20938707511E+02
 0.20938732823E+02 0.20288369879E+02 0.19058198921E+02 0.17374116930E+02 0.15397870600E+02
 0.13307811785E+02 0.11245295480E+02 0.93089292983E+01 0.75710617134E+01 0.60769733598E+01
 0.48430550519E+01 0.38594690095E+01 0.30984853592E+01 0.21127963711E+01 0.17857066547E+01
 0.15667535282E+01 0.14411670294E+01 0.14002656003E+01 0.14411700713E+01 0.15667582077E+01
 0.17857162585E+01 0.21128113830E+01 0.25694053934E+01 0.31834347505E+01 0.39872102373E+01
 0.50115358544E+01 0.62763764439E+01 0.77808651505E+01 0.94966851529E+01 0.11366859915E+02
 0.13307738019E+02 0.15209983166E+02 0.16931613938E+02 0.18307514348E+02 0.19196974499E+02
 0.19504803551E+02 0.19197024307E+02 0.18307624252E+02 0.16931770311E+02 0.15210130438E+02
 0.13307811785E+02 0.11366845602E+02 0.94966356070E+01 0.77808588183E+01 0.62764511235E+01
 0.50116589547E+01 0.39873152628E+01 0.31834814705E+01 0.25694044149E+01 0.17682708872E+01
 0.15203361372E+01 0.13639351131E+01 0.12884064937E+01 0.12884071529E+01 0.13639365159E+01
 0.15203416221E+01 0.17682882775E+01 0.21239501157E+01 0.26093058546E+01 0.32515384499E+01
 0.40799394759E+01 0.51193127755E+01 0.63807665995E+01 0.78528896656E+01 0.94966848715E+01
 0.11245297358E+02 0.13006417422E+02 0.14665073829E+02 0.16087709547E+02 0.17132532508E+02
 0.17685861575E+02 0.17685892781E+02 0.17132631868E+02 0.16087868495E+02 0.14665237582E+02
 0.13006511608E+02 0.11245295480E+02 0.94966356070E+01 0.78528742863E+01 0.63808301492E+01
 0.51194319850E+01 0.40800510239E+01 0.32515935779E+01 0.26093040171E+01 0.21239256095E+01
 0.14881851637E+01 0.13067720414E+01 0.12027620156E+01 0.11689086196E+01 0.12027587677E+01
 0.13067694800E+01 0.14881942770E+01 0.17589299086E+01 0.21355965320E+01 0.26395498173E+01
 0.32956996740E+01 0.41287567020E+01 0.51564143152E+01 0.63807772150E+01 0.77808849416E+01
 0.93089885876E+01 0.10891155040E+02 0.12430813607E+02 0.13814443776E+02 0.14921261399E+02
 0.15639603417E+02 0.15888830428E+02 0.15639665313E+02 0.14921376385E+02 0.13814569300E+02
 0.12430884343E+02 0.10891140430E+02 0.93089292983E+01 0.77808588183E+01 0.63808301492E+01
 0.51565269368E+01 0.41288693971E+01 0.32957609986E+01 0.26395496293E+01 0.21355638751E+01
 0.17589015365E+01 0.12669265494E+01 0.11402675821E+01 0.10791303336E+01 0.10791258371E+01
 0.11402576768E+01 0.12669229550E+01 0.14676183092E+01 0.17546779887E+01 0.21442248500E+01
 0.26558630929E+01 0.33110032191E+01 0.41287537961E+01 0.51193210545E+01 0.62764024744E+01
 0.75710931844E+01 0.89494225305E+01 0.10334066078E+02 0.11629592796E+02 0.12730986265E+02
 0.13536138935E+02 0.13962173618E+02 0.13962188810E+02 0.13536181792E+02 0.12731037009E+02
 0.11629610976E+02 0.10334026291E+02 0.89493536707E+01 0.75710617134E+01 0.62764511235E+01
 0.51194319850E+01 0.41288693971E+01 0.33110719312E+01 0.26558694255E+01 0.21441905383E+01
 0.17546400622E+01 0.14676013192E+01 0.10980355709E+01 0.10155340943E+01 0.98868871798E+00
 0.10155220412E+01 0.10980221973E+01 0.12419337278E+01 0.14563145585E+01 0.17531967427E+01
 0.21473891427E+01 0.26558552923E+01 0.32956854550E+01 0.40799304803E+01 0.50115446639E+01
 0.60769210245E+01 0.72411956429E+01 0.84471096550E+01 0.96180605020E+01 0.10665031779E+02
 0.11496890170E+02 0.12033362997E+02 0.12218834216E+02 0.12033351744E+02 0.11496871434E+02
 0.10664998023E+02 0.96180015209E+01 0.84470432174E+01 0.72411704359E+01 0.60769733598E+01
 0.50116589547E+01 0.40800510239E+01 0.32957609986E+01 0.26558694255E+01 0.21473591116E+01
 0.17531549397E+01 0.14562884318E+01 0.12419321581E+01 0.97504381047E+00 0.92741977356E+00
 0.92741183886E+00 0.97502681960E+00 0.10737086233E+01 0.12299425928E+01 0.14527306471E+01
 0.17531945752E+01 0.21442148730E+01 0.26395306565E+01 0.32515148720E+01 0.39871926754E+01
 0.48429380961E+01 0.57992526188E+01 0.68175189080E+01 0.78402729047E+01 0.87955593188E+01
 0.96049573496E+01 0.10194230417E+02 0.10504985777E+02 0.10504966580E+02 0.10194182358E+02
 0.96048969022E+01 0.87954967228E+01 0.78402227488E+01 0.68175115411E+01 0.57993137163E+01
 0.48430550519E+01 0.39873152628E+01 0.32515935779E+01 0.26395496293E+01 0.21441905383E+01
 0.17531549397E+01 0.14526996606E+01 0.12299330319E+01 0.10737190221E+01 0.89207035390E+00
 0.87146118392E+00 0.89205718203E+00 0.95538175691E+00 0.10657858647E+01 0.12299467338E+01
 0.14563176519E+01 0.17546745619E+01 0.21355844761E+01 0.26092849971E+01 0.31834064652E+01
 0.38593519369E+01 0.46278855101E+01 0.54652336264E+01 0.63313262251E+01 0.71714154341E+01
 0.79213703604E+01 0.85159406060E+01 0.88985397798E+01 0.90306201600E+01 0.88985033199E+01
 0.85158852656E+01 0.79213180718E+01 0.71713863052E+01 0.63313412106E+01 0.54653059767E+01
 0.46280014743E+01 0.38594690095E+01 0.31834814705E+01 0.26093040171E+01 0.21355638751E+01
 0.17546400622E+01 0.14562884318E+01 0.12299330319E+01 0.10657900460E+01 0.95539710370E+00
 0.84436593603E+00 0.84436099102E+00 0.88051973032E+00 0.95538802773E+00 0.10737191625E+01
 0.12419448409E+01 0.14676262932E+01 0.17589331341E+01 0.21239478935E+01 0.25693932016E+01
 0.30984239247E+01 0.37075024773E+01 0.43829808493E+01 0.50985630616E+01 0.58149569644E+01
 0.64825585571E+01 0.70471209924E+01 0.74574530016E+01 0.76735787357E+01 0.76735662097E+01
 0.74574220420E+01 0.70470890585E+01 0.64825483699E+01 0.58149887731E+01 0.50986430765E+01
 0.43830909997E+01 0.37076053164E+01 0.30984853592E+01 0.25694044149E+01 0.21239256095E+01
 0.17589015365E+01 0.14676013192E+01 0.12419321581E+01 0.10737190221E+01 0.95539710370E+00
 0.88053085627E+00 0.84436363425E+00 0.87146599509E+00 0.92742186666E+00 0.10155317412E+01
 0.11402657298E+01 0.13067799386E+01 0.15203607648E+01 0.17857473192E+01 0.21061925775E+01
 0.24821216341E+01 0.29093976170E+01 0.33774877191E+01 0.38681134405E+01 0.43551031111E+01
 0.48060074026E+01 0.51855812665E+01 0.54606362311E+01 0.56052697239E+01 0.56052711997E+01
 0.54606417241E+01 0.51855968536E+01 0.48060433849E+01 0.43551611010E+01 0.38681755419E+01
 0.33775259655E+01 0.29093961325E+01 0.24820871894E+01 0.21061454915E+01 0.17857068298E+01
 0.15203372457E+01 0.13067737482E+01 0.11402694152E+01 0.10155356030E+01 0.92742081164E+00
 0.87146187408E+00 0.84436143226E+00 0.87146599509E+00 0.90629410029E+00 0.96657005390E+00
 0.10554142294E+01 0.11767471541E+01 0.13348604769E+01 0.15338559982E+01 0.17768949517E+01
 0.20651925187E+01 0.23967623904E+01 0.27650665642E+01 0.31579014676E+01 0.35569680837E+01
 0.39385533615E+01 0.42755506556E+01 0.45406941338E+01 0.47104818090E+01 0.47689624760E+01
 0.47104846841E+01 0.45407030674E+01 0.42755707600E+01 0.39385851085E+01 0.35570005894E+01
 0.31579169394E+01 0.27650543775E+01 0.23967272955E+01 0.20651493405E+01 0.17768584014E+01
 0.15338350435E+01 0.13348565262E+01 0.11767534773E+01 0.10554195094E+01 0.96656667506E+00
 0.90628380659E+00 0.87145723626E+00 0.86008277414E+00 0.92742186666E+00 0.96657005390E+00
 0.10278599381E+01 0.11141484647E+01 0.12288324683E+01 0.13754329316E+01 0.15569976173E+01
 0.17752939440E+01 0.20298181853E+01 0.23167406775E+01 0.26280071558E+01 0.29508779126E+01
 0.32681780266E+01 0.35594434559E+01 0.38029808098E+01 0.39786257251E+01 0.40707307306E+01
 0.40707296104E+01 0.39786247273E+01 0.38029841260E+01 0.35594513125E+01 0.32681839556E+01
 0.29508728763E+01 0.26279868807E+01 0.23167089698E+01 0.20297840032E+01 0.17752666017E+01
 0.15569837744E+01 0.13754342801E+01 0.12288435823E+01 0.11141585245E+01 0.10278598931E+01
 0.96655945038E+00 0.92740876543E+00 0.90836811259E+00 0.90837389731E+00 0.10155317412E+01
 0.10554142294E+01 0.11141484647E+01 0.11943853544E+01 0.12991039821E+01 0.14311694485E+01
 0.15926970334E+01 0.17842479009E+01 0.20039571531E+01 0.22467655603E+01 0.25039611526E+01
 0.27632175490E+01 0.30092499882E+01 0.32251207693E+01 0.33941172998E+01 0.35019781474E+01
 0.35390660099E+01 0.35019728697E+01 0.33941105572E+01 0.32251140584E+01 0.30092400751E+01
 0.27632013805E+01 0.25039403160E+01 0.22467445537E+01 0.20039399033E+01 0.17842377408E+01
 0.15926974865E+01 0.14311814622E+01 0.12991224179E+01 0.11944006667E+01 0.11141531370E+01
 0.10554077331E+01 0.10155201298E+01 0.99244682062E+00 0.98490477206E+00 0.99245537501E+00
 0.11402657298E+01 0.11767471541E+01 0.12288324683E+01 0.12991039821E+01 0.13902477797E+01
 0.15045728617E+01 0.16433776088E+01 0.18062355159E+01 0.19903293467E+01 0.21899919988E+01
 0.23966016071E+01 0.25989273627E+01 0.27839540643E+01 0.29381522080E+01 0.30490912481E+01
 0.31071792341E+01 0.31071766152E+01 0.30490847989E+01 0.29381433715E+01 0.27839417116E+01
 0.25989115321E+01 0.23965872289E+01 0.21899852553E+01 0.19903319892E+01 0.18062457913E+01
 0.16433945231E+01 0.15045953733E+01 0.13902709454E+01 0.12991202463E+01 0.12288375766E+01
 0.11767429139E+01 0.11402573607E+01 0.11172235824E+01 0.11061062361E+01 0.11061091296E+01
 0.11172309761E+01 0.13067799386E+01 0.13348604769E+01 0.13754329316E+01 0.14311694485E+01
 0.15045728617E+01 0.15974877822E+01 0.17105413693E+01 0.18425969934E+01 0.19903293233E+01
 0.21480302715E+01 0.23077316099E+01 0.24596871253E+01 0.25932119132E+01 0.26978336292E+01
 0.27646429313E+01 0.27876225692E+01 0.27646424398E+01 0.26978310210E+01 0.25932052755E+01
 0.24596776027E+01 0.23077250703E+01 0.21480333572E+01 0.19903438182E+01 0.18426196323E+01
 0.17105677715E+01 0.15975135754E+01 0.15045923074E+01 0.14311775786E+01 0.13754302326E+01
 0.13348527633E+01 0.13067728121E+01 0.12887267820E+01 0.12787471602E+01 0.12755671926E+01
 0.12787494751E+01 0.12887314403E+01 0.15203607648E+01 0.15338559982E+01 0.15569976173E+01
 0.15926970334E+01 0.16433776088E+01 0.17105413693E+01 0.17943523928E+01 0.18932931161E+01
 0.20039571148E+01 0.21210378777E+01 0.22375620311E+01 0.23453981934E+01 0.24360448447E+01
 0.25016489743E+01 0.25361219880E+01 0.25361244119E+01 0.25016533525E+01 0.24360460370E+01
 0.23453951858E+01 0.22375594464E+01 0.21210415480E+01 0.20039694430E+01 0.18933125688E+01
 0.17943749480E+01 0.17105607764E+01 0.16433864605E+01 0.15926913918E+01 0.15569815226E+01
 0.15338393236E+01 0.15203513084E+01 0.15135254460E+01 0.15106825267E+01 0.15098035314E+01
 0.15098024533E+01 0.15106807457E+01 0.15135271121E+01 0.17857473192E+01 0.17768949517E+01
 0.17752939440E+01 0.17842479009E+01 0.18062355159E+01 0.18425969934E+01 0.18932931161E+01
 0.19567508474E+01 0.20298181796E+01 0.21078577163E+01 0.21850189970E+01 0.22547316224E+01
 0.23104299833E+01 0.23464462469E+01 0.23589133425E+01 0.23464528422E+01 0.23104372535E+01
 0.22547345523E+01 0.21850176246E+01 0.21078549302E+01 0.20298168525E+01 0.19567534776E+01
 0.18933002034E+01 0.18426037518E+01 0.18062332644E+01 0.17842317427E+01 0.17752685148E+01
 0.17768712667E+01 0.17857344141E+01 0.17981076799E+01 0.18102616935E+01 0.18190030369E+01
 0.18221693976E+01 0.18189967521E+01 0.18102548166E+01 0.17981081211E+01 0.21061925775E+01
 0.20651925187E+01 0.20298181853E+01 0.20039571531E+01 0.19903293467E+01 0.19903293233E+01
 0.20039571148E+01 0.20298181796E+01 0.20651925472E+01 0.21061926101E+01 0.21480539337E+01
 0.21856093321E+01 0.22139518116E+01 0.22292020335E+01 0.22292067122E+01 0.22139621145E+01
 0.21856175004E+01 0.21480537625E+01 0.21061817636E+01 0.20651731678E+01 0.20297973103E+01
 0.20039426642E+01 0.19903221073E+01 0.19903214433E+01 0.20039410001E+01 0.20297954737E+01
 0.20651720647E+01 0.21061819023E+01 0.21480550510E+01 0.21856194360E+01 0.22139641266E+01
 0.22292083751E+01 0.22292031327E+01 0.22139523580E+01 0.21856095074E+01 0.21480539452E+01
 0.24821216341E+01 0.23967623904E+01 0.23167406775E+01 0.22467655603E+01 0.21899919988E+01
 0.21480302715E+01 0.21210378777E+01 0.21078577163E+01 0.21061926101E+01 0.21128284232E+01