    2    2   15    1
  0.2103235E+02  0.3903710E-09  0.3903710E-09  0.3903710E-09  0.5000000E-15
  1.000000000000000E-004
  CAR 
 unknown system                          
      8     60      8
 
  0.6250000E-01  0.6250000E-01  0.6250000E-01  0.3906250E-02
    1       -6.239941   1.000000
    2        4.801983   1.000000
    3        5.257535   0.998763
    4        5.257535   0.998763
    5        7.874392   0.000000
    6        8.000757   0.000000
    7        8.000757   0.000000
    8        8.611053   0.000000
 
  0.1875000E+00  0.6250000E-01  0.6250000E-01  0.1171875E-01
    1       -5.980167   1.000000
    2        3.312092   1.000000
    3        4.480025   1.000000
    4        5.140790   0.999941
    5        7.892796   0.000000
    6        8.239912   0.000000
    7        8.505447   0.000000
    8       10.131143   0.000000
 
  0.3125000E+00  0.6250000E-01  0.6250000E-01  0.1171875E-01
    1       -5.354164   1.000000
    2        1.146609   1.000000
    3        4.000989   1.000000
    4        4.692235   1.000000
    5        7.440069   0.000000
    6        8.731172   0.000000
    7        9.007593   0.000000
    8       11.736574   0.000000
 
  0.4375000E+00  0.6250000E-01  0.6250000E-01  0.1171875E-01
    1       -4.485334   1.000000
    2       -0.680411   1.000000
    3        3.786156   1.000000
    4        4.297468   1.000000
    5        7.127128   0.000000
    6        8.812858   0.000000
    7        8.826498   0.000000
    8       13.033454   0.000000
 
 -0.4375000E+00  0.6250000E-01  0.6250000E-01  0.1171875E-01
    1       -4.058588   1.000000
    2       -1.352664   1.000000
    3        3.831131   1.000000
    4        4.087152   1.000000
    5        7.048726   0.000000
    6        8.629426   0.000000
    7        8.891734   0.000000
    8       13.132954   0.000000
 
 -0.3125000E+00  0.6250000E-01  0.6250000E-01  0.1171875E-01
    1       -4.781941   1.000000
    2       -0.141563   1.000000
    3        4.108720   1.000000
    4        4.109896   1.000000
    5        7.216777   0.000000
    6        8.624338   0.000000
    7        9.131996   0.000000
    8       12.171884   0.000000
 
 -0.1875000E+00  0.6250000E-01  0.6250000E-01  0.1171875E-01
    1       -5.599384   1.000000
    2        1.856046   1.000000
    3        4.380443   1.000000
    4        4.561024   1.000000
    5        7.581073   0.000000
    6        8.454552   0.000000
    7        9.164017   0.000000
    8       10.966537   0.000000
 
 -0.6250000E-01  0.6250000E-01  0.6250000E-01  0.1171875E-01
    1       -6.109349   1.000000
    2        4.050091   1.000000
    3        4.848215   1.000000
    4        4.993169   1.000000
    5        7.719290   0.000000
    6        8.216485   0.000000
    7        8.559592   0.000000
    8        9.382322   0.000000
 
  0.1875000E+00  0.1875000E+00  0.6250000E-01  0.1171875E-01
    1       -5.849390   1.000000
    2        3.155595   1.000000
    3        4.309941   1.000000
    4        4.380732   1.000000
    5        7.313901   0.000000
    6        8.940800   0.000000
    7        9.392104   0.000000
    8        9.853971   0.000000
 
  0.3125000E+00  0.1875000E+00  0.6250000E-01  0.2343750E-01
    1       -5.341469   1.000000
    2        1.688070   1.000000
    3        3.369338   1.000000
    4        4.131253   1.000000
    5        7.476485   0.000000
    6        9.045022   0.000000
    7        9.785158   0.000000
    8       10.170831   0.000000
 
  0.4375000E+00  0.1875000E+00  0.6250000E-01  0.2343750E-01
    1       -4.525742   1.000000
    2       -0.106086   1.000000
    3        2.876245   1.000000
    4        3.738118   1.000000
    5        7.654495   0.000000
    6        9.030866   0.000000
    7       10.198557   0.000000
    8       10.502285   0.000000
 
 -0.4375000E+00  0.1875000E+00  0.6250000E-01  0.2343750E-01
    1       -3.797634   1.000000
    2       -1.267019   1.000000
    3        2.592035   1.000000
    4        3.649422   1.000000
    5        7.706640   0.000000
    6        8.764669   0.000000
    7       10.062417   0.000000
    8       12.452621   0.000000
 
 -0.3125000E+00  0.1875000E+00  0.6250000E-01  0.2343750E-01
    1       -4.234280   1.000000
    2       -0.605949   1.000000
    3        2.526671   1.000000
    4        3.922592   1.000000
    5        7.956193   0.000000
    6        8.698889   0.000000
    7       10.002815   0.000000
    8       11.727610   0.000000
 
 -0.1875000E+00  0.1875000E+00  0.6250000E-01  0.2343750E-01
    1       -5.101917   1.000000
    2        1.059715   1.000000
    3        2.832172   1.000000
    4        4.410978   1.000000
    5        8.269269   0.000000
    6        8.591318   0.000000
    7        9.875748   0.000000
    8       10.370764   0.000000
 
 -0.6250000E-01  0.1875000E+00  0.6250000E-01  0.2343750E-01
    1       -5.723203   1.000000
    2        2.505888   1.000000
    3        3.921768   1.000000
    4        4.770522   1.000000
    5        7.849758   0.000000
    6        8.436994   0.000000
    7        9.210908   0.000000
    8       10.391008   0.000000
 
  0.3125000E+00  0.3125000E+00  0.6250000E-01  0.1171875E-01
    1       -4.953070   1.000000
    2        1.175593   1.000000
    3        3.232858   1.000000
    4        3.350591   1.000000
    5        6.530347   0.000000
    6        8.165666   0.000000
    7       11.190717   0.000000
    8       11.345065   0.000000
 
  0.4375000E+00  0.3125000E+00  0.6250000E-01  0.2343750E-01
    1       -4.225837   1.000000
    2       -0.027583   1.000000
    3        2.474587   1.000000
    4        3.016664   1.000000
    5        6.838800   0.000000
    6        8.007890   0.000000
    7       11.156276   0.000000
    8       12.309678   0.000000
 
 -0.4375000E+00  0.3125000E+00  0.6250000E-01  0.2343750E-01
    1       -3.362678   1.000000
    2       -1.180560   1.000000
    3        1.663198   1.000000
    4        2.985710   1.000000
    5        7.072456   0.000000
    6        9.625527   0.000000
    7       10.741439   0.000000
    8       12.222509   0.000000
 
 -0.3125000E+00  0.3125000E+00  0.6250000E-01  0.2343750E-01
    1       -3.433457   1.000000
    2       -1.088302   1.000000
    3        1.326021   1.000000
    4        3.317197   1.000000
    5        7.457573   0.000000
    6       10.321339   0.000000
    7       11.569091   0.000000
    8       11.922471   0.000000
 
 -0.1875000E+00  0.3125000E+00  0.6250000E-01  0.2343750E-01
    1       -4.296090   1.000000
    2       -0.155783   1.000000
    3        1.903940   1.000000
    4        3.880625   1.000000
    5        8.048157   0.000000
    6        9.242485   0.000000
    7       10.616767   0.000000
    8       10.922053   0.000000
 
 -0.6250000E-01  0.3125000E+00  0.6250000E-01  0.2343750E-01
    1       -4.992989   1.000000
    2        0.487899   1.000000
    3        3.471088   1.000000
    4        4.314059   1.000000
    5        7.717671   0.000000
    6        8.629881   0.000000
    7        9.470511   0.000000
    8       11.129206   0.000000
 
  0.4375000E+00  0.4375000E+00  0.6250000E-01  0.1171875E-01
    1       -3.591967   1.000000
    2       -0.868622   1.000000
    3        2.568013   1.000000
    4        2.774653   1.000000
    5        6.155293   0.000448
    6        6.860480   0.000000
    7       13.425670   0.000000
    8       13.453177   0.000000
 
 -0.4375000E+00  0.4375000E+00  0.6250000E-01  0.2343750E-01
    1       -2.712749   1.000000
    2       -1.829349   1.000000
    3        2.034707   1.000000
    4        2.542362   1.000000
    5        6.579191   0.000000
    6        7.287477   0.000000
    7       13.194868   0.000000
    8       14.155548   0.000000
 
 -0.3125000E+00  0.4375000E+00  0.6250000E-01  0.2343750E-01
    1       -2.814611   1.000000
    2       -1.663212   1.000000
    3        1.335864   1.000000
    4        2.846689   1.000000
    5        6.931230   0.000000
    6        9.469556   0.000000
    7       11.709107   0.000000
    8       12.811236   0.000000
 
 -0.1875000E+00  0.4375000E+00  0.6250000E-01  0.2343750E-01
    1       -3.549218   1.000000
    2       -1.237674   1.000000
    3        1.847533   1.000000
    4        3.426674   1.000000
    5        7.568364   0.000000
    6        9.483186   0.000000
    7       10.982126   0.000000
    8       12.210030   0.000000
 
 -0.6250000E-01  0.4375000E+00  0.6250000E-01  0.2343750E-01
    1       -4.136811   1.000000
    2       -1.071946   1.000000
    3        3.294888   1.000000
    4        3.991342   1.000000
    5        7.508860   0.000000
    6        8.563911   0.000000
    7        9.307146   0.000000
    8       12.773936   0.000000
 
 -0.4375000E+00 -0.4375000E+00  0.6250000E-01  0.1171875E-01
    1       -2.760479   1.000000
    2       -1.844942   1.000000
    3        2.434616   1.000000
    4        2.656924   1.000000
    5        6.157649   0.000422
    6        6.509131   0.000000
    7       14.475836   0.000000
    8       14.529010   0.000000
 
 -0.3125000E+00 -0.4375000E+00  0.6250000E-01  0.2343750E-01
    1       -3.510492   1.000000
    2       -0.931125   1.000000
    3        2.185307   1.000000
    4        2.697329   1.000000
    5        6.660176   0.000000
    6        7.536132   0.000000
    7       12.149670   0.000000
    8       13.435088   0.000000
 
 -0.1875000E+00 -0.4375000E+00  0.6250000E-01  0.2343750E-01
    1       -3.970258   1.000000
    2       -0.651680   1.000000
    3        2.229954   1.000000
    4        3.275715   1.000000
    5        7.336547   0.000000
    6        9.804133   0.000000
    7        9.972764   0.000000
    8       11.192625   0.000000
 
 -0.3125000E+00 -0.3125000E+00  0.6250000E-01  0.1171875E-01
    1       -4.326725   1.000000
    2        0.147279   1.000000
    3        2.834508   1.000000
    4        3.007718   1.000000
    5        6.278089   0.000014
    6        7.425628   0.000000
    7       12.291763   0.000000
    8       12.385800   0.000000
 
 -0.1875000E+00 -0.3125000E+00  0.6250000E-01  0.2343750E-01
    1       -4.839868   1.000000
    2        0.848312   1.000000
    3        2.878097   1.000000
    4        3.506276   1.000000
    5        7.117695   0.000000
    6        8.657887   0.000000
    7       10.236675   0.000000
    8       11.210591   0.000000
 
 -0.1875000E+00 -0.1875000E+00  0.6250000E-01  0.1171875E-01
    1       -5.462615   1.000000
    2        2.187824   1.000000
    3        3.757186   1.000000
    4        3.792297   1.000000
    5        6.889813   0.000000
    6        8.967693   0.000000
    7       10.183691   0.000000
    8       10.340534   0.000000
 
  0.1875000E+00  0.1875000E+00  0.1875000E+00  0.3906250E-02
    1       -5.852662   1.000000
    2        2.610982   1.000000
    3        4.830356   1.000000
    4        4.830356   1.000000
    5        7.441021   0.000000
    6        8.601786   0.000000
    7        8.601786   0.000000
    8       10.757529   0.000000
 
  0.3125000E+00  0.1875000E+00  0.1875000E+00  0.1171875E-01
    1       -5.472711   1.000000
    2        1.775836   1.000000
    3        3.367636   1.000000
    4        4.843872   1.000000
    5        8.093604   0.000000
    6        8.724436   0.000000
    7        8.999686   0.000000
    8       10.914307   0.000000
 
  0.4375000E+00  0.1875000E+00  0.1875000E+00  0.1171875E-01
    1       -4.749963   1.000000
    2        0.434523   1.000000
    3        2.321174   1.000000
    4        4.355942   1.000000
    5        7.986432   0.000000
    6        9.464287   0.000000
    7        9.649607   0.000000
    8       11.199767   0.000000
 
 -0.4375000E+00  0.1875000E+00  0.1875000E+00  0.1171875E-01
    1       -3.889969   1.000000
    2       -0.998312   1.000000
    3        2.161701   1.000000
    4        3.843029   1.000000
    5        7.523260   0.000000
    6        9.610776   0.000000
    7        9.863254   0.000000
    8       13.031696   0.000000
 
 -0.3125000E+00  0.1875000E+00  0.1875000E+00  0.1171875E-01
    1       -3.874500   1.000000
    2       -1.026060   1.000000
    3        2.448029   1.000000
    4        3.536606   1.000000
    5        7.265931   0.000000
    6        9.670326   0.000000
    7       10.201264   0.000000
    8       11.149039   0.000000
 
 -0.1875000E+00  0.1875000E+00  0.1875000E+00  0.1171875E-01
    1       -4.732932   1.000000
    2        0.431355   1.000000
    3        3.044113   1.000000
    4        3.515398   1.000000
    5        7.203362   0.000000
    6        9.330137   0.000000
    7        9.959868   0.000000
    8       10.551072   0.000000
 
  0.3125000E+00  0.3125000E+00  0.1875000E+00  0.1171875E-01
    1       -5.224014   1.000000
    2        1.131414   1.000000
    3        3.841072   1.000000
    4        3.920877   1.000000
    5        7.567137   0.000000
    6        8.862997   0.000000
    7        9.822095   0.000000
    8       10.218098   0.000000
 
  0.4375000E+00  0.3125000E+00  0.1875000E+00  0.2343750E-01
    1       -4.617716   1.000000
    2        0.362130   1.000000
    3        2.376440   1.000000
    4        3.729834   1.000000
    5        8.061947   0.000000
    6        9.044645   0.000000
    7        9.587625   0.000000
    8       11.038811   0.000000
 
 -0.4375000E+00  0.3125000E+00  0.1875000E+00  0.2343750E-01
    1       -3.757724   1.000000
    2       -0.715134   1.000000
    3        1.615930   1.000000
    4        3.184986   1.000000
    5        8.505442   0.000000
    6        8.983011   0.000000
    7       10.230463   0.000000
    8       12.109702   0.000000
 
 -0.3125000E+00  0.3125000E+00  0.1875000E+00  0.2343750E-01
    1       -3.290282   1.000000
    2       -1.303709   1.000000
    3        1.613876   1.000000
    4        2.884899   1.000000
    5        8.053628   0.000000
    6        9.302879   0.000000
    7       10.995657   0.000000
    8       12.227028   0.000000
 
 -0.1875000E+00  0.3125000E+00  0.1875000E+00  0.2343750E-01
    1       -4.030988   1.000000
    2       -0.338701   1.000000
    3        2.026713   1.000000
    4        3.056641   1.000000
    5        7.789692   0.000000
    6        8.989899   0.000000
    7        9.798822   0.000000
    8       12.227300   0.000000
 
  0.4375000E+00  0.4375000E+00  0.1875000E+00  0.1171875E-01
    1       -4.136506   1.000000
    2       -0.278129   1.000000
    3        2.345664   1.000000
    4        3.194651   1.000000
    5        6.840744   0.000000
    6        8.825344   0.000000
    7       10.984810   0.000000
    8       11.355940   0.000000
 
 -0.4375000E+00  0.4375000E+00  0.1875000E+00  0.2343750E-01
    1       -3.359227   1.000000
    2       -1.066457   1.000000
    3        1.795171   1.000000
    4        2.540389   1.000000
    5        7.594814   0.000000
    6        8.590537   0.000000
    7       10.674674   0.000000
    8       13.398051   0.000000
 
 -0.3125000E+00  0.4375000E+00  0.1875000E+00  0.2343750E-01
    1       -2.580648   1.000000
    2       -1.802962   1.000000
    3        1.492890   1.000000
    4        2.058846   1.000000
    5        8.693659   0.000000
    6        9.614836   0.000000
    7       10.227879   0.000000
    8       11.223093   0.000000
 
 -0.1875000E+00  0.4375000E+00  0.1875000E+00  0.2343750E-01
    1       -3.163892   1.000000
    2       -1.264909   1.000000
    3        1.480933   1.000000
    4        2.516855   1.000000
    5        8.789562   0.000000
    6        9.197276   0.000000
    7        9.927372   0.000000
    8       12.361481   0.000000
 
 -0.4375000E+00 -0.4375000E+00  0.1875000E+00  0.1171875E-01
    1       -2.736297   1.000000
    2       -1.778302   1.000000
    3        1.592765   1.000000
    4        2.862366   1.000000
    5        6.425979   0.000000
    6        8.276950   0.000000
    7       13.122243   0.000000
    8       13.285284   0.000000
 
 -0.3125000E+00 -0.4375000E+00  0.1875000E+00  0.2343750E-01
    1       -2.638804   1.000000
    2       -1.811396   1.000000
    3        1.683272   1.000000
    4        2.263023   1.000000
    5        7.495127   0.000000
    6        8.389504   0.000000
    7       11.657437   0.000000
    8       12.743381   0.000000
 
 -0.3125000E+00 -0.3125000E+00  0.1875000E+00  0.1171875E-01
    1       -3.453062   1.000000
    2       -1.026416   1.000000
    3        1.846406   1.000000
    4        2.974283   1.000000
    5        6.569360   0.000000
    6        8.458765   0.000000
    7       12.119058   0.000000
    8       12.238702   0.000000
 
  0.3125000E+00  0.3125000E+00  0.3125000E+00  0.3906250E-02
    1       -5.120910   1.000000
    2        0.465460   1.000000
    3        4.427320   1.000000
    4        4.427320   1.000000
    5        6.988069   0.000000
    6        8.847645   0.000000
    7        8.847645   0.000000
    8       12.794193   0.000000
 
  0.4375000E+00  0.3125000E+00  0.3125000E+00  0.1171875E-01
    1       -4.657331   1.000000
    2       -0.103723   1.000000
    3        3.001191   1.000000
    4        4.341131   1.000000
    5        7.720965   0.000000
    6        9.060995   0.000000
    7        9.113376   0.000000
    8       12.205962   0.000000
 
 -0.4375000E+00  0.3125000E+00  0.3125000E+00  0.1171875E-01
    1       -3.891960   1.000000
    2       -0.646085   1.000000
    3        1.537909   1.000000
    4        3.781478   1.000000
    5        7.461111   0.000000
    6       10.462715   0.000000
    7       10.609556   0.000000
    8       11.947139   0.000000
 
 -0.3125000E+00  0.3125000E+00  0.3125000E+00  0.1171875E-01
    1       -3.100593   1.000000
    2       -1.413082   1.000000
    3        1.217866   1.000000
    4        3.253231   1.000000
    5        6.875192   0.000000
    6       10.688107   0.000000
    7       11.701931   0.000000
    8       11.912245   0.000000
 
  0.4375000E+00  0.4375000E+00  0.3125000E+00  0.1171875E-01
    1       -4.354880   1.000000
    2       -0.643045   1.000000
    3        3.319215   1.000000
    4        3.798774   1.000000
    5        7.472464   0.000000
    6        8.817587   0.000000
    7        9.588511   0.000000
    8       11.575865   0.000000
 
 -0.4375000E+00  0.4375000E+00  0.3125000E+00  0.2343750E-01
    1       -3.756733   1.000000
    2       -1.006742   1.000000
    3        2.059708   1.000000
    4        3.343543   1.000000
    5        8.245353   0.000000
    6        8.614648   0.000000
    7       11.054433   0.000000
    8       11.336693   0.000000
 
 -0.3125000E+00  0.4375000E+00  0.3125000E+00  0.2343750E-01
    1       -2.966031   1.000000
    2       -1.481820   1.000000
    3        1.307110   1.000000
    4        2.656737   1.000000
    5        7.931221   0.000000
    6       10.132367   0.000000
    7       10.882987   0.000000
    8       11.387828   0.000000
 
 -0.4375000E+00 -0.4375000E+00  0.3125000E+00  0.1171875E-01
    1       -3.411574   1.000000
    2       -1.283856   1.000000
    3        1.687311   1.000000
    4        3.349863   1.000000
    5        7.016508   0.000000
    6       10.645151   0.000000
    7       10.943301   0.000000
    8       10.963121   0.000000
 
  0.4375000E+00  0.4375000E+00  0.4375000E+00  0.3906250E-02
    1       -4.266294   1.000000
    2       -1.125682   1.000000
    3        4.210921   1.000000
    4        4.210921   1.000000
    5        6.736149   0.000000
    6        8.726736   0.000000
    7        8.726736   0.000000
    8       13.036415   0.000000
 
 -0.4375000E+00  0.4375000E+00  0.4375000E+00  0.1171875E-01
    1       -3.928959   1.000000
    2       -1.300216   1.000000
    3        3.014172   1.000000
    4        3.953385   1.000000
    5        7.485049   0.000000
    6        8.829059   0.000000
    7        9.288636   0.000000
    8       13.366242   0.000000
