       N       E                     dE             d eps       ncg     rms          rms(c)
DAV:   1     0.512326980207E+01    0.51233E+01   -0.28248E+03   960   0.595E+02
DAV:   2    -0.107985256038E+02   -0.15922E+02   -0.15309E+02  1544   0.744E+01
DAV:   3    -0.109906932886E+02   -0.19217E+00   -0.19217E+00  1176   0.106E+01
DAV:   4    -0.109915633357E+02   -0.87005E-03   -0.87005E-03  1592   0.755E-01
DAV:   5    -0.109915641066E+02   -0.77093E-06   -0.77071E-06  1216   0.180E-02    0.289E+00
DAV:   6    -0.108870042760E+02    0.10456E+00   -0.66695E-02  1152   0.134E+00    0.172E+00
DAV:   7    -0.108374955117E+02    0.49509E-01   -0.12893E-01  1216   0.200E+00    0.143E-01
DAV:   8    -0.108388241293E+02   -0.13286E-02   -0.37942E-03  1136   0.452E-01    0.252E-02
DAV:   9    -0.108389289897E+02   -0.10486E-03   -0.10653E-04   728   0.830E-02
   1 F= -.10838929E+02 E0= -.10838919E+02  d E =-.108389E+02
