 vasp.5.4.4.18Apr17-6-g9f103f2a35 (build Dec 09 2018 21:25:21) complex          
  
 executed on IFC18.0.1.163_CrayMP date 2019.03.23  21:19:29
 running on    8 total cores
 distrk:  each k-point on    8 cores,    1 groups
 distr:  one band on NCORES_PER_BAND=   1 cores,    8 groups


--------------------------------------------------------------------------------------------------------


 INCAR:
 POTCAR:   PAW_PBE Si 05Jan2001                   

 ----------------------------------------------------------------------------- 
|                                                                             |
|           W    W    AA    RRRRR   N    N  II  N    N   GGGG   !!!           |
|           W    W   A  A   R    R  NN   N  II  NN   N  G    G  !!!           |
|           W    W  A    A  R    R  N N  N  II  N N  N  G       !!!           |
|           W WW W  AAAAAA  RRRRR   N  N N  II  N  N N  G  GGG   !            |
|           WW  WW  A    A  R   R   N   NN  II  N   NN  G    G                |
|           W    W  A    A  R    R  N    N  II  N    N   GGGG   !!!           |
|                                                                             |
|      For optimal performance we recommend to set                            |
|        NCORE= 4 - approx SQRT( number of cores)                             |
|      NCORE specifies how many cores store one orbital (NPAR=cpu/NCORE).     |
|      This setting can  greatly improve the performance of VASP for DFT.     |
|      The default,   NCORE=1            might be grossly inefficient         |
|      on modern multi-core architectures or massively parallel machines.     |
|      Do your own testing !!!!                                               |
|      Unfortunately you need to use the default for GW and RPA calculations. |
|      (for HF NCORE is supported but not extensively tested yet)             |
|                                                                             |
 ----------------------------------------------------------------------------- 

 POTCAR:   PAW_PBE Si 05Jan2001                   
   VRHFIN =Si: s2p2                                                             
   LEXCH  = PE                                                                  
   EATOM  =   103.0669 eV,    7.5752 Ry                                         
                                                                                
   TITEL  = PAW_PBE Si 05Jan2001                                                
   LULTRA =        F    use ultrasoft PP ?                                      
   IUNSCR =        1    unscreen: 0-lin 1-nonlin 2-no                           
   RPACOR =    1.500    partial core radius                                     
   POMASS =   28.085; ZVAL   =    4.000    mass and valenz                      
   RCORE  =    1.900    outmost cutoff radius                                   
   RWIGS  =    2.480; RWIGS  =    1.312    wigner-seitz radius (au A)           
   ENMAX  =  245.345; ENMIN  =  184.009 eV                                      
   ICORE  =        2    local potential                                         
   LCOR   =        T    correct aug charges                                     
   LPAW   =        T    paw PP                                                  
   EAUG   =  322.069                                                            
   DEXC   =    -.007                                                            
   RMAX   =    2.944    core radius for proj-oper                               
   RAUG   =    1.300    factor for augmentation sphere                          
   RDEP   =    1.993    radius for radial grids                                 
   QCUT   =   -4.246; QGAM   =    8.493    optimization parameters              
                                                                                
   Description                                                                  
     l     E      TYP  RCUT    TYP  RCUT                                        
     0   .000     23  1.900                                                     
     0   .000     23  1.900                                                     
     1   .000     23  1.900                                                     
     1   .000     23  1.900                                                     
     2   .000      7  1.900                                                     
  local pseudopotential read in
  partial core-charges read in
  atomic valenz-charges read in
  non local Contribution for L=           0  read in
    real space projection operators read in
  non local Contribution for L=           0  read in
    real space projection operators read in
  non local Contribution for L=           1  read in
    real space projection operators read in
  non local Contribution for L=           1  read in
    real space projection operators read in
    PAW grid and wavefunctions read in
 
   number of l-projection  operators is LMAX  =           4
   number of lm-projection operators is LMMAX =           8
 
 PAW_PBE Si 05Jan2001                   :
 energy of atom  1       EATOM= -103.0669
 kinetic energy error for atom=    0.0013 (will be added to EATOM!!)
 
 
 POSCAR: Si2                                     
  positions in direct lattice
  No initial velocities read in
 exchange correlation table for  LEXCH =        8
   RHO(1)=    0.500       N(1)  =     2000
   RHO(2)=  100.500       N(2)  =     4000
 


--------------------------------------------------------------------------------------------------------


 ion  position               nearest neighbor table
   1  0.500  0.500  0.500-   2 2.39   2 2.39   2 2.39   2 2.39
   2  0.750  0.750  0.750-   1 2.39   1 2.39   1 2.39   1 2.39
 
  LATTYP: Found a face centered cubic cell.
 ALAT       =     5.5206800000
  
  Lattice vectors:
  
 A1 = (   0.0000000000,   2.7603400000,   2.7603400000)
 A2 = (   2.7603400000,   0.0000000000,   2.7603400000)
 A3 = (   2.7603400000,   2.7603400000,   0.0000000000)


Analysis of symmetry for initial positions (statically):
=====================================================================
 Subroutine PRICEL returns:
 Original cell was already a primitive cell.
 

 Routine SETGRP: Setting up the symmetry group for a 
 face centered cubic supercell.


 Subroutine GETGRP returns: Found 48 space group operations
 (whereof 24 operations were pure point group operations)
 out of a pool of 48 trial point group operations.


The static configuration has the point symmetry T_d .
 The point group associated with its full space group is O_h .


Analysis of symmetry for dynamics (positions and initial velocities):
=====================================================================
 Subroutine PRICEL returns:
 Original cell was already a primitive cell.
 

 Routine SETGRP: Setting up the symmetry group for a 
 face centered cubic supercell.


 Subroutine GETGRP returns: Found 48 space group operations
 (whereof 24 operations were pure point group operations)
 out of a pool of 48 trial point group operations.


The dynamic configuration has the point symmetry T_d .
 The point group associated with its full space group is O_h .


 Subroutine INISYM returns: Found 48 space group operations
 (whereof 24 operations are pure point group operations),
 and found     1 'primitive' translations

 
 
 KPOINTS: Automatic kpoint scheme                 

Automatic generation of k-mesh.
Space group operators:
 irot       det(A)        alpha          n_x          n_y          n_z        tau_x        tau_y        tau_z
    1     1.000000     0.000000     1.000000     0.000000     0.000000     0.000000     0.000000     0.000000
    2     1.000000   120.000000    -0.577350    -0.577350    -0.577350     0.000000     0.000000     0.000000
    3     1.000000   120.000000     0.577350     0.577350     0.577350     0.000000     0.000000     0.000000
    4    -1.000000    90.000000     0.000000     0.000000    -1.000000     0.000000     0.000000     0.000000
    5    -1.000000   180.000000    -0.000000     0.707107     0.707107     0.000000     0.000000     0.000000
    6    -1.000000    90.000000     0.000000     1.000000     0.000000     0.000000     0.000000     0.000000
    7     1.000000   180.000000     0.000000     0.000000     1.000000     0.000000     0.000000     0.000000
    8     1.000000   120.000000    -0.577350     0.577350     0.577350     0.000000     0.000000     0.000000
    9     1.000000   120.000000    -0.577350     0.577350    -0.577350     0.000000     0.000000     0.000000
   10    -1.000000    90.000000     0.000000     0.000000     1.000000     0.000000     0.000000     0.000000
   11    -1.000000    90.000000    -1.000000    -0.000000     0.000000     0.000000     0.000000     0.000000
   12    -1.000000   180.000000     0.707107     0.000000     0.707107     0.000000     0.000000     0.000000
   13     1.000000   120.000000     0.577350    -0.577350     0.577350     0.000000     0.000000     0.000000
   14     1.000000   120.000000    -0.577350    -0.577350     0.577350     0.000000     0.000000     0.000000
   15     1.000000   180.000000     1.000000     0.000000     0.000000     0.000000     0.000000     0.000000
   16    -1.000000    90.000000     0.000000    -1.000000     0.000000     0.000000     0.000000     0.000000
   17    -1.000000   180.000000     0.707107     0.707107     0.000000     0.000000     0.000000     0.000000
   18    -1.000000    90.000000     1.000000    -0.000000    -0.000000     0.000000     0.000000     0.000000
   19     1.000000   120.000000     0.577350    -0.577350    -0.577350     0.000000     0.000000     0.000000
   20     1.000000   180.000000    -0.000000    -1.000000    -0.000000     0.000000     0.000000     0.000000
   21     1.000000   120.000000     0.577350     0.577350    -0.577350     0.000000     0.000000     0.000000
   22    -1.000000   180.000000     0.000000    -0.707107     0.707107     0.000000     0.000000     0.000000
   23    -1.000000   180.000000     0.707107    -0.707107     0.000000     0.000000     0.000000     0.000000
   24    -1.000000   180.000000     0.707107     0.000000    -0.707107     0.000000     0.000000     0.000000
   25    -1.000000     0.000000     1.000000     0.000000     0.000000     0.250000     0.250000     0.250000
   26    -1.000000   120.000000    -0.577350    -0.577350    -0.577350     0.250000     0.250000     0.250000
   27    -1.000000   120.000000     0.577350     0.577350     0.577350     0.250000     0.250000     0.250000
   28     1.000000    90.000000     0.000000     0.000000    -1.000000     0.250000     0.250000     0.250000
   29     1.000000   180.000000    -0.000000     0.707107     0.707107     0.250000     0.250000     0.250000
   30     1.000000    90.000000     0.000000     1.000000     0.000000     0.250000     0.250000     0.250000
   31    -1.000000   180.000000     0.000000     0.000000     1.000000     0.250000     0.250000     0.250000
   32    -1.000000   120.000000    -0.577350     0.577350     0.577350     0.250000     0.250000     0.250000
   33    -1.000000   120.000000    -0.577350     0.577350    -0.577350     0.250000     0.250000     0.250000
   34     1.000000    90.000000     0.000000     0.000000     1.000000     0.250000     0.250000     0.250000
   35     1.000000    90.000000    -1.000000    -0.000000     0.000000     0.250000     0.250000     0.250000
   36     1.000000   180.000000     0.707107     0.000000     0.707107     0.250000     0.250000     0.250000
   37    -1.000000   120.000000     0.577350    -0.577350     0.577350     0.250000     0.250000     0.250000
   38    -1.000000   120.000000    -0.577350    -0.577350     0.577350     0.250000     0.250000     0.250000
   39    -1.000000   180.000000     1.000000     0.000000     0.000000     0.250000     0.250000     0.250000
   40     1.000000    90.000000     0.000000    -1.000000     0.000000     0.250000     0.250000     0.250000
   41     1.000000   180.000000     0.707107     0.707107     0.000000     0.250000     0.250000     0.250000
   42     1.000000    90.000000     1.000000    -0.000000    -0.000000     0.250000     0.250000     0.250000
   43    -1.000000   120.000000     0.577350    -0.577350    -0.577350     0.250000     0.250000     0.250000
   44    -1.000000   180.000000    -0.000000    -1.000000    -0.000000     0.250000     0.250000     0.250000
   45    -1.000000   120.000000     0.577350     0.577350    -0.577350     0.250000     0.250000     0.250000
   46     1.000000   180.000000     0.000000    -0.707107     0.707107     0.250000     0.250000     0.250000
   47     1.000000   180.000000     0.707107    -0.707107     0.000000     0.250000     0.250000     0.250000
   48     1.000000   180.000000     0.707107     0.000000    -0.707107     0.250000     0.250000     0.250000
 
 Subroutine IBZKPT returns following result:
 ===========================================
 
 Found     60 irreducible k-points:
 
 Following reciprocal coordinates:
            Coordinates               Weight
  0.062500  0.062500  0.062500     96.000000
  0.187500  0.062500  0.062500    288.000000
  0.312500  0.062500  0.062500    288.000000
  0.437500  0.062500  0.062500    288.000000
 -0.437500  0.062500  0.062500    288.000000
 -0.312500  0.062500  0.062500    288.000000
 -0.187500  0.062500  0.062500    288.000000
 -0.062500  0.062500  0.062500    288.000000
  0.187500  0.187500  0.062500    288.000000
  0.312500  0.187500  0.062500    576.000000
  0.437500  0.187500  0.062500    576.000000
 -0.437500  0.187500  0.062500    576.000000
 -0.312500  0.187500  0.062500    576.000000
 -0.187500  0.187500  0.062500    576.000000
 -0.062500  0.187500  0.062500    576.000000
  0.312500  0.312500  0.062500    288.000000
  0.437500  0.312500  0.062500    576.000000
 -0.437500  0.312500  0.062500    576.000000
 -0.312500  0.312500  0.062500    576.000000
 -0.187500  0.312500  0.062500    576.000000
 -0.062500  0.312500  0.062500    576.000000
  0.437500  0.437500  0.062500    288.000000
 -0.437500  0.437500  0.062500    576.000000
 -0.312500  0.437500  0.062500    576.000000
 -0.187500  0.437500  0.062500    576.000000
 -0.062500  0.437500  0.062500    576.000000
 -0.437500 -0.437500  0.062500    288.000000
 -0.312500 -0.437500  0.062500    576.000000
 -0.187500 -0.437500  0.062500    576.000000
 -0.312500 -0.312500  0.062500    288.000000
 -0.187500 -0.312500  0.062500    576.000000
 -0.187500 -0.187500  0.062500    288.000000
  0.187500  0.187500  0.187500     96.000000
  0.312500  0.187500  0.187500    288.000000
  0.437500  0.187500  0.187500    288.000000
 -0.437500  0.187500  0.187500    288.000000
 -0.312500  0.187500  0.187500    288.000000
 -0.187500  0.187500  0.187500    288.000000
  0.312500  0.312500  0.187500    288.000000
  0.437500  0.312500  0.187500    576.000000
 -0.437500  0.312500  0.187500    576.000000
 -0.312500  0.312500  0.187500    576.000000
 -0.187500  0.312500  0.187500    576.000000
  0.437500  0.437500  0.187500    288.000000
 -0.437500  0.437500  0.187500    576.000000
 -0.312500  0.437500  0.187500    576.000000
 -0.187500  0.437500  0.187500    576.000000
 -0.437500 -0.437500  0.187500    288.000000
 -0.312500 -0.437500  0.187500    576.000000
 -0.312500 -0.312500  0.187500    288.000000
  0.312500  0.312500  0.312500     96.000000
  0.437500  0.312500  0.312500    288.000000
 -0.437500  0.312500  0.312500    288.000000
 -0.312500  0.312500  0.312500    288.000000
  0.437500  0.437500  0.312500    288.000000
 -0.437500  0.437500  0.312500    576.000000
 -0.312500  0.437500  0.312500    576.000000
 -0.437500 -0.437500  0.312500    288.000000
  0.437500  0.437500  0.437500     96.000000
 -0.437500  0.437500  0.437500    288.000000
 
 Following cartesian coordinates:
            Coordinates               Weight
  0.011321  0.011321  0.011321     96.000000
 -0.011321  0.033963  0.033963    288.000000
 -0.033963  0.056605  0.056605    288.000000
 -0.056605  0.079247  0.079247    288.000000
  0.101890 -0.079247 -0.079247    288.000000
  0.079247 -0.056605 -0.056605    288.000000
  0.056605 -0.033963 -0.033963    288.000000
  0.033963 -0.011321 -0.011321    288.000000
  0.011321  0.011321  0.056605    288.000000
 -0.011321  0.033963  0.079247    576.000000
 -0.033963  0.056605  0.101890    576.000000
  0.124532 -0.101890 -0.056605    576.000000
  0.101890 -0.079247 -0.033963    576.000000
  0.079247 -0.056605 -0.011321    576.000000
  0.056605 -0.033963  0.011321    576.000000
  0.011321  0.011321  0.101890    288.000000
 -0.011321  0.033963  0.124532    576.000000
  0.147174 -0.124532 -0.033963    576.000000
  0.124532 -0.101890 -0.011321    576.000000
  0.101890 -0.079247  0.011321    576.000000
  0.079247 -0.056605  0.033963    576.000000
  0.011321  0.011321  0.147174    288.000000
  0.169816 -0.147174 -0.011321    576.000000
  0.147174 -0.124532  0.011321    576.000000
  0.124532 -0.101890  0.033963    576.000000
  0.101890 -0.079247  0.056605    576.000000
  0.011321  0.011321 -0.169816    288.000000
 -0.011321  0.033963 -0.147174    576.000000
 -0.033963  0.056605 -0.124532    576.000000
  0.011321  0.011321 -0.124532    288.000000
 -0.011321  0.033963 -0.101890    576.000000
  0.011321  0.011321 -0.079247    288.000000
  0.033963  0.033963  0.033963     96.000000
  0.011321  0.056605  0.056605    288.000000
 -0.011321  0.079247  0.079247    288.000000
  0.147174 -0.079247 -0.079247    288.000000
  0.124532 -0.056605 -0.056605    288.000000
  0.101890 -0.033963 -0.033963    288.000000
  0.033963  0.033963  0.079247    288.000000
  0.011321  0.056605  0.101890    576.000000
  0.169816 -0.101890 -0.056605    576.000000
  0.147174 -0.079247 -0.033963    576.000000
  0.124532 -0.056605 -0.011321    576.000000
  0.033963  0.033963  0.124532    288.000000
  0.192458 -0.124532 -0.033963    576.000000
  0.169816 -0.101890 -0.011321    576.000000
  0.147174 -0.079247  0.011321    576.000000
  0.033963  0.033963 -0.192458    288.000000
  0.011321  0.056605 -0.169816    576.000000
  0.033963  0.033963 -0.147174    288.000000
  0.056605  0.056605  0.056605     96.000000
  0.033963  0.079247  0.079247    288.000000
  0.192458 -0.079247 -0.079247    288.000000
  0.169816 -0.056605 -0.056605    288.000000
  0.056605  0.056605  0.101890    288.000000
  0.215100 -0.101890 -0.056605    576.000000
  0.192458 -0.079247 -0.033963    576.000000
  0.056605  0.056605 -0.215100    288.000000
  0.079247  0.079247  0.079247     96.000000
  0.237742 -0.079247 -0.079247    288.000000
 


--------------------------------------------------------------------------------------------------------




 Dimension of arrays:
   k-points           NKPTS =     60   k-points in BZ     NKDIM =     60   number of bands    NBANDS=      8
   number of dos      NEDOS =    301   number of ions     NIONS =      2
   non local maximal  LDIM  =      4   non local SUM 2l+1 LMDIM =      8
   total plane-waves  NPLWV =   5832
   max r-space proj   IRMAX =      1   max aug-charges    IRDMAX=   4834
   dimension x,y,z NGX =    18 NGY =   18 NGZ =   18
   dimension x,y,z NGXF=    36 NGYF=   36 NGZF=   36
   support grid    NGXF=    36 NGYF=   36 NGZF=   36
   ions per type =               2
   NGX,Y,Z   is equivalent  to a cutoff of   7.67,  7.67,  7.67 a.u.
   NGXF,Y,Z  is equivalent  to a cutoff of  15.33, 15.33, 15.33 a.u.

 SYSTEM =  unknown system                          
 POSCAR =  Si2                                     

 Startparameter for this run:
   NWRITE =      2    write-flag & timer
   PREC   = normal    normal or accurate (medium, high low for compatibility)
   ISTART =      0    job   : 0-new  1-cont  2-samecut
   ICHARG =      2    charge: 1-file 2-atom 10-const
   ISPIN  =      1    spin polarized calculation?
   LNONCOLLINEAR =      F non collinear calculations
   LSORBIT =      F    spin-orbit coupling
   INIWAV =      1    electr: 0-lowe 1-rand  2-diag
   LASPH  =      F    aspherical Exc in radial PAW
   METAGGA=      F    non-selfconsistent MetaGGA calc.

 Electronic Relaxation 1
   ENCUT  =  350.0 eV  25.72 Ry    5.07 a.u.   5.95  5.95  5.95*2*pi/ulx,y,z
   ENINI  =  350.0     initial cutoff
   ENAUG  =  322.1 eV  augmentation charge cutoff
   NELM   =     60;   NELMIN=  2; NELMDL= -5     # of ELM steps 
   EDIFF  = 0.4E-03   stopping-criterion for ELM
   LREAL  =      F    real-space projection
   NLSPLINE    = F    spline interpolate recip. space projectors
   LCOMPAT=      F    compatible to vasp.4.4
   GGA_COMPAT  = T    GGA compatible to vasp.4.4-vasp.4.6
   LMAXPAW     = -100 max onsite density
   LMAXMIX     =    2 max onsite mixed and CHGCAR
   VOSKOWN=      0    Vosko Wilk Nusair interpolation
   ROPT   =    0.00000
 Ionic relaxation
   EDIFFG = -.1E-01   stopping-criterion for IOM
   NSW    =     15    number of steps for IOM
   NBLOCK =      1;   KBLOCK =     15    inner block; outer block 
   IBRION =      2    ionic relax: 0-MD 1-quasi-New 2-CG
   NFREE  =      1    steps in history (QN), initial steepest desc. (CG)
   ISIF   =      2    stress and relaxation
   IWAVPR =     11    prediction:  0-non 1-charg 2-wave 3-comb
   ISYM   =      2    0-nonsym 1-usesym 2-fastsym
   LCORR  =      T    Harris-Foulkes like correction to forces

   POTIM  = 0.5000    time-step for ionic-motion
   TEIN   =    0.0    initial temperature
   TEBEG  =    0.0;   TEEND  =   0.0 temperature during run
   SMASS  =  -3.00    Nose mass-parameter (am)
   estimated Nose-frequenzy (Omega)   =  0.10E-29 period in steps =****** mass=  -0.348E-27a.u.
   SCALEE = 1.0000    scale energy and forces
   NPACO  =    256;   APACO  = 16.0  distance and # of slots for P.C.
   PSTRESS=    0.0 pullay stress

  Mass of Ions in am
   POMASS =  28.09
  Ionic Valenz
   ZVAL   =   4.00
  Atomic Wigner-Seitz radii
   RWIGS  =  -1.00
  virtual crystal weights 
   VCA    =   1.00
   NELECT =       8.0000    total number of electrons
   NUPDOWN=      -1.0000    fix difference up-down

 DOS related values:
   EMIN   =  10.00;   EMAX   =-10.00  energy-range for DOS
   EFERMI =   0.00
   ISMEAR =     0;   SIGMA  =   0.20  broadening in eV -4-tet -1-fermi 0-gaus

 Electronic relaxation 2 (details)
   IALGO  =     38    algorithm
   LDIAG  =      T    sub-space diagonalisation (order eigenvalues)
   LSUBROT=      F    optimize rotation matrix (better conditioning)
   TURBO    =      0    0=normal 1=particle mesh
   IRESTART =      0    0=no restart 2=restart with 2 vectors
   NREBOOT  =      0    no. of reboots
   NMIN     =      0    reboot dimension
   EREF     =   0.00    reference energy to select bands
   IMIX   =      4    mixing-type and parameters
     AMIX     =   0.40;   BMIX     =  1.00
     AMIX_MAG =   1.60;   BMIX_MAG =  1.00
     AMIN     =   0.10
     WC   =   100.;   INIMIX=   1;  MIXPRE=   1;  MAXMIX= -45

 Intra band minimization:
   WEIMIN = 0.0010     energy-eigenvalue tresh-hold
   EBREAK =  0.13E-04  absolut break condition
   DEPER  =   0.30     relativ break condition  

   TIME   =   0.40     timestep for ELM

  volume/ion in A,a.u.               =      21.03       141.93
  Fermi-wavevector in a.u.,A,eV,Ry     =   0.941454  1.779089 12.059318  0.886335
  Thomas-Fermi vector in A             =   2.068966
 
 Write flags
   LWAVE        =      T    write WAVECAR
   LDOWNSAMPLE  =      F    k-point downsampling of WAVECAR
   LCHARG       =      T    write CHGCAR
   LVTOT        =      F    write LOCPOT, total local potential
   LVHAR        =      F    write LOCPOT, Hartree potential only
   LELF         =      F    write electronic localiz. function (ELF)
   LORBIT       =      0    0 simple, 1 ext, 2 COOP (PROOUT), +10 PAW based schemes


 Dipole corrections
   LMONO  =      F    monopole corrections only (constant potential shift)
   LDIPOL =      F    correct potential (dipole corrections)
   IDIPOL =      0    1-x, 2-y, 3-z, 4-all directions 
   EPSILON=  1.0000000 bulk dielectric constant

 Exchange correlation treatment:
   GGA     =    --    GGA type
   LEXCH   =     8    internal setting for exchange type
   VOSKOWN=      0    Vosko Wilk Nusair interpolation
   LHFCALC =     F    Hartree Fock is set to
   LHFONE  =     F    Hartree Fock one center treatment
   AEXX    =    0.0000 exact exchange contribution

 Linear response parameters
   LEPSILON=     F    determine dielectric tensor
   LRPA    =     F    only Hartree local field effects (RPA)
   LNABLA  =     F    use nabla operator in PAW spheres
   LVEL    =     F    velocity operator in full k-point grid
   LINTERFAST=   F  fast interpolation
   KINTER  =     0    interpolate to denser k-point grid
   CSHIFT  =0.1000    complex shift for real part using Kramers Kronig
   OMEGAMAX=  -1.0    maximum frequency
   DEG_THRESHOLD= 0.2000000E-02 threshold for treating states as degnerate
   RTIME   =   -0.100 relaxation time in fs
  (WPLASMAI=    0.000 imaginary part of plasma frequency in eV, 0.658/RTIME)
   DFIELD  = 0.0000000 0.0000000 0.0000000 field for delta impulse in time
 
 Orbital magnetization related:
   ORBITALMAG=     F  switch on orbital magnetization
   LCHIMAG   =     F  perturbation theory with respect to B field
   DQ        =  0.001000  dq finite difference perturbation B field
   LLRAUG    =     F  two centre corrections for induced B field



--------------------------------------------------------------------------------------------------------


 conjugate gradient relaxation of ions
 charge density and potential will be updated during run
 non-spin polarized calculation
 Variant of blocked Davidson
 Davidson routine will perform the subspace rotation
 perform sub-space diagonalisation
    after iterative eigenvector-optimisation
 modified Broyden-mixing scheme, WC =      100.0
 initial mixing is a Kerker type mixing with AMIX =  0.4000 and BMIX =      1.0000
 Hartree-type preconditioning will be used
 using additional bands            4
 reciprocal scheme for non local part
 use partial core corrections
 calculate Harris-corrections to forces 
   (improved forces if not selfconsistent)
 use gradient corrections 
 use of overlap-Matrix (Vanderbilt PP)
 Gauss-broadening in eV      SIGMA  =   0.20


--------------------------------------------------------------------------------------------------------


  energy-cutoff  :      350.00
  volume of cell :       42.06
      direct lattice vectors                 reciprocal lattice vectors
     0.000000000  2.760340000  2.760340000    -0.181137106  0.181137106  0.181137106
     2.760340000  0.000000000  2.760340000     0.181137106 -0.181137106  0.181137106
     2.760340000  2.760340000  0.000000000     0.181137106  0.181137106 -0.181137106

  length of vectors
     3.903710265  3.903710265  3.903710265     0.313738671  0.313738671  0.313738671


 
 k-points in units of 2pi/SCALE and weight: Automatic kpoint scheme                 
   0.01132107  0.01132107  0.01132107       0.004
  -0.01132107  0.03396321  0.03396321       0.012
  -0.03396321  0.05660535  0.05660535       0.012
  -0.05660535  0.07924748  0.07924748       0.012
   0.10188962 -0.07924748 -0.07924748       0.012
   0.07924748 -0.05660535 -0.05660535       0.012
   0.05660535 -0.03396321 -0.03396321       0.012
   0.03396321 -0.01132107 -0.01132107       0.012
   0.01132107  0.01132107  0.05660535       0.012
  -0.01132107  0.03396321  0.07924748       0.023
  -0.03396321  0.05660535  0.10188962       0.023
   0.12453176 -0.10188962 -0.05660535       0.023
   0.10188962 -0.07924748 -0.03396321       0.023
   0.07924748 -0.05660535 -0.01132107       0.023
   0.05660535 -0.03396321  0.01132107       0.023
   0.01132107  0.01132107  0.10188962       0.012
  -0.01132107  0.03396321  0.12453176       0.023
   0.14717390 -0.12453176 -0.03396321       0.023
   0.12453176 -0.10188962 -0.01132107       0.023
   0.10188962 -0.07924748  0.01132107       0.023
   0.07924748 -0.05660535  0.03396321       0.023
   0.01132107  0.01132107  0.14717390       0.012
   0.16981604 -0.14717390 -0.01132107       0.023
   0.14717390 -0.12453176  0.01132107       0.023
   0.12453176 -0.10188962  0.03396321       0.023
   0.10188962 -0.07924748  0.05660535       0.023
   0.01132107  0.01132107 -0.16981604       0.012
  -0.01132107  0.03396321 -0.14717390       0.023
  -0.03396321  0.05660535 -0.12453176       0.023
   0.01132107  0.01132107 -0.12453176       0.012
  -0.01132107  0.03396321 -0.10188962       0.023
   0.01132107  0.01132107 -0.07924748       0.012
   0.03396321  0.03396321  0.03396321       0.004
   0.01132107  0.05660535  0.05660535       0.012
  -0.01132107  0.07924748  0.07924748       0.012
   0.14717390 -0.07924748 -0.07924748       0.012
   0.12453176 -0.05660535 -0.05660535       0.012
   0.10188962 -0.03396321 -0.03396321       0.012
   0.03396321  0.03396321  0.07924748       0.012
   0.01132107  0.05660535  0.10188962       0.023
   0.16981604 -0.10188962 -0.05660535       0.023
   0.14717390 -0.07924748 -0.03396321       0.023
   0.12453176 -0.05660535 -0.01132107       0.023
   0.03396321  0.03396321  0.12453176       0.012
   0.19245818 -0.12453176 -0.03396321       0.023
   0.16981604 -0.10188962 -0.01132107       0.023
   0.14717390 -0.07924748  0.01132107       0.023
   0.03396321  0.03396321 -0.19245818       0.012
   0.01132107  0.05660535 -0.16981604       0.023
   0.03396321  0.03396321 -0.14717390       0.012
   0.05660535  0.05660535  0.05660535       0.004
   0.03396321  0.07924748  0.07924748       0.012
   0.19245818 -0.07924748 -0.07924748       0.012
   0.16981604 -0.05660535 -0.05660535       0.012
   0.05660535  0.05660535  0.10188962       0.012
   0.21510031 -0.10188962 -0.05660535       0.023
   0.19245818 -0.07924748 -0.03396321       0.023
   0.05660535  0.05660535 -0.21510031       0.012
   0.07924748  0.07924748  0.07924748       0.004
   0.23774245 -0.07924748 -0.07924748       0.012
 
 k-points in reciprocal lattice and weights: Automatic kpoint scheme                 
   0.06250000  0.06250000  0.06250000       0.004
   0.18750000  0.06250000  0.06250000       0.012
   0.31250000  0.06250000  0.06250000       0.012
   0.43750000  0.06250000  0.06250000       0.012
  -0.43750000  0.06250000  0.06250000       0.012
  -0.31250000  0.06250000  0.06250000       0.012
  -0.18750000  0.06250000  0.06250000       0.012
  -0.06250000  0.06250000  0.06250000       0.012
   0.18750000  0.18750000  0.06250000       0.012
   0.31250000  0.18750000  0.06250000       0.023
   0.43750000  0.18750000  0.06250000       0.023
  -0.43750000  0.18750000  0.06250000       0.023
  -0.31250000  0.18750000  0.06250000       0.023
  -0.18750000  0.18750000  0.06250000       0.023
  -0.06250000  0.18750000  0.06250000       0.023
   0.31250000  0.31250000  0.06250000       0.012
   0.43750000  0.31250000  0.06250000       0.023
  -0.43750000  0.31250000  0.06250000       0.023
  -0.31250000  0.31250000  0.06250000       0.023
  -0.18750000  0.31250000  0.06250000       0.023
  -0.06250000  0.31250000  0.06250000       0.023
   0.43750000  0.43750000  0.06250000       0.012
  -0.43750000  0.43750000  0.06250000       0.023
  -0.31250000  0.43750000  0.06250000       0.023
  -0.18750000  0.43750000  0.06250000       0.023
  -0.06250000  0.43750000  0.06250000       0.023
  -0.43750000 -0.43750000  0.06250000       0.012
  -0.31250000 -0.43750000  0.06250000       0.023
  -0.18750000 -0.43750000  0.06250000       0.023
  -0.31250000 -0.31250000  0.06250000       0.012
  -0.18750000 -0.31250000  0.06250000       0.023
  -0.18750000 -0.18750000  0.06250000       0.012
   0.18750000  0.18750000  0.18750000       0.004
   0.31250000  0.18750000  0.18750000       0.012
   0.43750000  0.18750000  0.18750000       0.012
  -0.43750000  0.18750000  0.18750000       0.012
  -0.31250000  0.18750000  0.18750000       0.012
  -0.18750000  0.18750000  0.18750000       0.012
   0.31250000  0.31250000  0.18750000       0.012
   0.43750000  0.31250000  0.18750000       0.023
  -0.43750000  0.31250000  0.18750000       0.023
  -0.31250000  0.31250000  0.18750000       0.023
  -0.18750000  0.31250000  0.18750000       0.023
   0.43750000  0.43750000  0.18750000       0.012
  -0.43750000  0.43750000  0.18750000       0.023
  -0.31250000  0.43750000  0.18750000       0.023
  -0.18750000  0.43750000  0.18750000       0.023
  -0.43750000 -0.43750000  0.18750000       0.012
  -0.31250000 -0.43750000  0.18750000       0.023
  -0.31250000 -0.31250000  0.18750000       0.012
   0.31250000  0.31250000  0.31250000       0.004
   0.43750000  0.31250000  0.31250000       0.012
  -0.43750000  0.31250000  0.31250000       0.012
  -0.31250000  0.31250000  0.31250000       0.012
   0.43750000  0.43750000  0.31250000       0.012
  -0.43750000  0.43750000  0.31250000       0.023
  -0.31250000  0.43750000  0.31250000       0.023
  -0.43750000 -0.43750000  0.31250000       0.012
   0.43750000  0.43750000  0.43750000       0.004
  -0.43750000  0.43750000  0.43750000       0.012
 
 position of ions in fractional coordinates (direct lattice) 
   0.50000000  0.50000000  0.50000000
   0.75000000  0.75000000  0.75000000
 
 position of ions in cartesian coordinates  (Angst):
   2.76034000  2.76034000  2.76034000
   4.14051000  4.14051000  4.14051000
 


--------------------------------------------------------------------------------------------------------


 k-point  1 :   0.0625 0.0625 0.0625  plane waves:     615
 k-point  2 :   0.1875 0.0625 0.0625  plane waves:     617
 k-point  3 :   0.3125 0.0625 0.0625  plane waves:     620
 k-point  4 :   0.4375 0.0625 0.0625  plane waves:     612
 k-point  5 :  -0.4375 0.0625 0.0625  plane waves:     619
 k-point  6 :  -0.3125 0.0625 0.0625  plane waves:     616
 k-point  7 :  -0.1875 0.0625 0.0625  plane waves:     620
 k-point  8 :  -0.0625 0.0625 0.0625  plane waves:     619
 k-point  9 :   0.1875 0.1875 0.0625  plane waves:     615
 k-point 10 :   0.3125 0.1875 0.0625  plane waves:     616
 k-point 11 :   0.4375 0.1875 0.0625  plane waves:     622
 k-point 12 :  -0.4375 0.1875 0.0625  plane waves:     623
 k-point 13 :  -0.3125 0.1875 0.0625  plane waves:     625
 k-point 14 :  -0.1875 0.1875 0.0625  plane waves:     623
 k-point 15 :  -0.0625 0.1875 0.0625  plane waves:     620
 k-point 16 :   0.3125 0.3125 0.0625  plane waves:     626
 k-point 17 :   0.4375 0.3125 0.0625  plane waves:     625
 k-point 18 :  -0.4375 0.3125 0.0625  plane waves:     631
 k-point 19 :  -0.3125 0.3125 0.0625  plane waves:     631
 k-point 20 :  -0.1875 0.3125 0.0625  plane waves:     624
 k-point 21 :  -0.0625 0.3125 0.0625  plane waves:     622
 k-point 22 :   0.4375 0.4375 0.0625  plane waves:     628
 k-point 23 :  -0.4375 0.4375 0.0625  plane waves:     629
 k-point 24 :  -0.3125 0.4375 0.0625  plane waves:     630
 k-point 25 :  -0.1875 0.4375 0.0625  plane waves:     627
 k-point 26 :  -0.0625 0.4375 0.0625  plane waves:     616
 k-point 27 :  -0.4375-0.4375 0.0625  plane waves:     632
 k-point 28 :  -0.3125-0.4375 0.0625  plane waves:     631
 k-point 29 :  -0.1875-0.4375 0.0625  plane waves:     625
 k-point 30 :  -0.3125-0.3125 0.0625  plane waves:     627
 k-point 31 :  -0.1875-0.3125 0.0625  plane waves:     619
 k-point 32 :  -0.1875-0.1875 0.0625  plane waves:     618
 k-point 33 :   0.1875 0.1875 0.1875  plane waves:     622
 k-point 34 :   0.3125 0.1875 0.1875  plane waves:     623
 k-point 35 :   0.4375 0.1875 0.1875  plane waves:     622
 k-point 36 :  -0.4375 0.1875 0.1875  plane waves:     628
 k-point 37 :  -0.3125 0.1875 0.1875  plane waves:     628
 k-point 38 :  -0.1875 0.1875 0.1875  plane waves:     621
 k-point 39 :   0.3125 0.3125 0.1875  plane waves:     618
 k-point 40 :   0.4375 0.3125 0.1875  plane waves:     626
 k-point 41 :  -0.4375 0.3125 0.1875  plane waves:     635
 k-point 42 :  -0.3125 0.3125 0.1875  plane waves:     631
 k-point 43 :  -0.1875 0.3125 0.1875  plane waves:     633
 k-point 44 :   0.4375 0.4375 0.1875  plane waves:     626
 k-point 45 :  -0.4375 0.4375 0.1875  plane waves:     633
 k-point 46 :  -0.3125 0.4375 0.1875  plane waves:     630
 k-point 47 :  -0.1875 0.4375 0.1875  plane waves:     633
 k-point 48 :  -0.4375-0.4375 0.1875  plane waves:     632
 k-point 49 :  -0.3125-0.4375 0.1875  plane waves:     632
 k-point 50 :  -0.3125-0.3125 0.1875  plane waves:     627
 k-point 51 :   0.3125 0.3125 0.3125  plane waves:     613
 k-point 52 :   0.4375 0.3125 0.3125  plane waves:     622
 k-point 53 :  -0.4375 0.3125 0.3125  plane waves:     625
 k-point 54 :  -0.3125 0.3125 0.3125  plane waves:     632
 k-point 55 :   0.4375 0.4375 0.3125  plane waves:     620
 k-point 56 :  -0.4375 0.4375 0.3125  plane waves:     628
 k-point 57 :  -0.3125 0.4375 0.3125  plane waves:     633
 k-point 58 :  -0.4375-0.4375 0.3125  plane waves:     632
 k-point 59 :   0.4375 0.4375 0.4375  plane waves:     619
 k-point 60 :  -0.4375 0.4375 0.4375  plane waves:     621

 maximum and minimum number of plane-waves per node :       635      612

 maximum number of plane-waves:       635
 maximum index in each direction: 
   IXMAX=    6   IYMAX=    6   IZMAX=    5
   IXMIN=   -6   IYMIN=   -6   IZMIN=   -6


 serial   3D FFT for wavefunctions
 parallel 3D FFT for charge:
    minimum data exchange during FFTs selected (reduces bandwidth)


 total amount of memory used by VASP MPI-rank0    33921. kBytes
=======================================================================

   base      :      30000. kBytes
   nonl-proj :       2478. kBytes
   fftplans  :        247. kBytes
   grid      :        561. kBytes
   one-center:          6. kBytes
   wavefun   :        629. kBytes
 
     INWAV:  cpu time    0.0000: real time    0.0004
 Broyden mixing: mesh for mixing (old mesh)
   NGX = 11   NGY = 11   NGZ = 11
  (NGX  = 36   NGY  = 36   NGZ  = 36)
  gives a total of   1331 points

 initial charge density was supplied:
 charge density of overlapping atoms calculated
 number of electron       8.0000000 magnetization 
 keeping initial charge density in first step


--------------------------------------------------------------------------------------------------------


 Maximum index for augmentation-charges          650 (set IRDMAX)


--------------------------------------------------------------------------------------------------------


 First call to EWALD:  gamma=   0.510
 Maximum number of real-space cells 3x 3x 3
 Maximum number of reciprocal cells 3x 3x 3

    FEWALD:  cpu time    0.0080: real time    0.0082


--------------------------------------- Iteration      1(   1)  ---------------------------------------


    POTLOK:  cpu time    0.0400: real time    0.0573
    SETDIJ:  cpu time    0.0080: real time    0.0091
     EDDAV:  cpu time    0.7920: real time    0.8001
       DOS:  cpu time    0.0040: real time    0.0034
    --------------------------------------------
      LOOP:  cpu time    0.8440: real time    0.8705

 eigenvalue-minimisations  :   960
 total energy-change (2. order) : 0.5123270E+01  (-0.2824833E+03)
 number of electron       8.0000000 magnetization 
 augmentation part        8.0000000 magnetization 

 Free energy of the ion-electron system (eV)
  ---------------------------------------------------
  alpha Z        PSCENC =         3.20107676
  Ewald energy   TEWEN  =      -224.80925182
  -Hartree energ DENC   =       -11.75939480
  -exchange      EXHF   =         0.00000000
  -V(xc)+E(xc)   XCENC  =       -18.79429005
  PAW double counting   =        65.95520812      -30.76852678
  entropy T*S    EENTRO =        -0.00778459
  eigenvalues    EBANDS =        15.97497884
  atomic energy  EATOM  =       206.13125414
  Solvation  Ediel_sol  =         0.00000000
  ---------------------------------------------------
  free energy    TOTEN  =         5.12326980 eV

  energy without entropy =        5.13105439  energy(sigma->0) =        5.12716210


--------------------------------------------------------------------------------------------------------




--------------------------------------- Iteration      1(   2)  ---------------------------------------


     EDDAV:  cpu time    1.2440: real time    1.2541
       DOS:  cpu time    0.0000: real time    0.0032
    --------------------------------------------
      LOOP:  cpu time    1.2480: real time    1.2574

 eigenvalue-minimisations  :  1544
 total energy-change (2. order) :-0.1592180E+02  (-0.1530872E+02)
 number of electron       8.0000000 magnetization 
 augmentation part        8.0000000 magnetization 

 Free energy of the ion-electron system (eV)
  ---------------------------------------------------
  alpha Z        PSCENC =         3.20107676
  Ewald energy   TEWEN  =      -224.80925182
  -Hartree energ DENC   =       -11.75939480
  -exchange      EXHF   =         0.00000000
  -V(xc)+E(xc)   XCENC  =       -18.79429005
  PAW double counting   =        65.95520812      -30.76852678
  entropy T*S    EENTRO =        -0.00000098
  eigenvalues    EBANDS =         0.04539982
  atomic energy  EATOM  =       206.13125414
  Solvation  Ediel_sol  =         0.00000000
  ---------------------------------------------------
  free energy    TOTEN  =       -10.79852560 eV

  energy without entropy =      -10.79852463  energy(sigma->0) =      -10.79852512


--------------------------------------------------------------------------------------------------------




--------------------------------------- Iteration      1(   3)  ---------------------------------------


     EDDAV:  cpu time    0.9640: real time    0.9700
       DOS:  cpu time    0.0040: real time    0.0033
    --------------------------------------------
      LOOP:  cpu time    0.9640: real time    0.9732

 eigenvalue-minimisations  :  1176
 total energy-change (2. order) :-0.1921677E+00  (-0.1921677E+00)
 number of electron       8.0000000 magnetization 
 augmentation part        8.0000000 magnetization 

 Free energy of the ion-electron system (eV)
  ---------------------------------------------------
  alpha Z        PSCENC =         3.20107676
  Ewald energy   TEWEN  =      -224.80925182
  -Hartree energ DENC   =       -11.75939480
  -exchange      EXHF   =         0.00000000
  -V(xc)+E(xc)   XCENC  =       -18.79429005
  PAW double counting   =        65.95520812      -30.76852678
  entropy T*S    EENTRO =        -0.00000063
  eigenvalues    EBANDS =        -0.14676821
  atomic energy  EATOM  =       206.13125414
  Solvation  Ediel_sol  =         0.00000000
  ---------------------------------------------------
  free energy    TOTEN  =       -10.99069329 eV

  energy without entropy =      -10.99069266  energy(sigma->0) =      -10.99069297


--------------------------------------------------------------------------------------------------------




--------------------------------------- Iteration      1(   4)  ---------------------------------------


     EDDAV:  cpu time    1.2920: real time    1.2995
       DOS:  cpu time    0.0000: real time    0.0041
    --------------------------------------------
      LOOP:  cpu time    1.2960: real time    1.3036

 eigenvalue-minimisations  :  1592
 total energy-change (2. order) :-0.8700471E-03  (-0.8700470E-03)
 number of electron       8.0000000 magnetization 
 augmentation part        8.0000000 magnetization 

 Free energy of the ion-electron system (eV)
  ---------------------------------------------------
  alpha Z        PSCENC =         3.20107676
  Ewald energy   TEWEN  =      -224.80925182
  -Hartree energ DENC   =       -11.75939480
  -exchange      EXHF   =         0.00000000
  -V(xc)+E(xc)   XCENC  =       -18.79429005
  PAW double counting   =        65.95520812      -30.76852678
  entropy T*S    EENTRO =        -0.00000062
  eigenvalues    EBANDS =        -0.14763826
  atomic energy  EATOM  =       206.13125414
  Solvation  Ediel_sol  =         0.00000000
  ---------------------------------------------------
  free energy    TOTEN  =       -10.99156334 eV

  energy without entropy =      -10.99156271  energy(sigma->0) =      -10.99156302


--------------------------------------------------------------------------------------------------------




--------------------------------------- Iteration      1(   5)  ---------------------------------------


     EDDAV:  cpu time    0.9960: real time    1.0063
       DOS:  cpu time    0.0040: real time    0.0032
    CHARGE:  cpu time    0.0600: real time    0.0620
    MIXING:  cpu time    0.0040: real time    0.0041
    --------------------------------------------
      LOOP:  cpu time    1.0600: real time    1.0757

 eigenvalue-minimisations  :  1216
 total energy-change (2. order) :-0.7709261E-06  (-0.7707050E-06)
 number of electron       7.9999992 magnetization 
 augmentation part       -0.4683903 magnetization 

 Broyden mixing:
  rms(total) = 0.28870E+00    rms(broyden)= 0.28868E+00
  rms(prec ) = 0.82599E+00
  weight for this iteration     100.00

 Free energy of the ion-electron system (eV)
  ---------------------------------------------------
  alpha Z        PSCENC =         3.20107676
  Ewald energy   TEWEN  =      -224.80925182
  -Hartree energ DENC   =       -11.75939480
  -exchange      EXHF   =         0.00000000
  -V(xc)+E(xc)   XCENC  =       -18.79429005
  PAW double counting   =        65.95520812      -30.76852678
  entropy T*S    EENTRO =        -0.00000062
  eigenvalues    EBANDS =        -0.14763903
  atomic energy  EATOM  =       206.13125414
  Solvation  Ediel_sol  =         0.00000000
  ---------------------------------------------------
  free energy    TOTEN  =       -10.99156411 eV

  energy without entropy =      -10.99156348  energy(sigma->0) =      -10.99156379


--------------------------------------------------------------------------------------------------------




--------------------------------------- Iteration      1(   6)  ---------------------------------------


    POTLOK:  cpu time    0.0280: real time    0.0374
    SETDIJ:  cpu time    0.0080: real time    0.0085
     EDDAV:  cpu time    0.9360: real time    0.9357
       DOS:  cpu time    0.0040: real time    0.0033
    CHARGE:  cpu time    0.0600: real time    0.0607
    MIXING:  cpu time    0.0000: real time    0.0020
    --------------------------------------------
      LOOP:  cpu time    1.0360: real time    1.0476

 eigenvalue-minimisations  :  1152
 total energy-change (2. order) : 0.1045598E+00  (-0.6669536E-02)
 number of electron       7.9999992 magnetization 
 augmentation part       -0.4632260 magnetization 

 Broyden mixing:
  rms(total) = 0.17229E+00    rms(broyden)= 0.17229E+00
  rms(prec ) = 0.49047E+00
  weight for this iteration     100.00

 eigenvalues of (default mixing * dielectric matrix)
  average eigenvalue GAMMA=   2.4601
  2.4601

 Free energy of the ion-electron system (eV)
  ---------------------------------------------------
  alpha Z        PSCENC =         3.20107676
  Ewald energy   TEWEN  =      -224.80925182
  -Hartree energ DENC   =       -13.17508319
  -exchange      EXHF   =         0.00000000
  -V(xc)+E(xc)   XCENC  =       -18.57152281
  PAW double counting   =        69.31171682      -34.21723300
  entropy T*S    EENTRO =        -0.00000360
  eigenvalues    EBANDS =         1.24204243
  atomic energy  EATOM  =       206.13125414
  Solvation  Ediel_sol  =         0.00000000
  ---------------------------------------------------
  free energy    TOTEN  =       -10.88700428 eV

  energy without entropy =      -10.88700068  energy(sigma->0) =      -10.88700248


--------------------------------------------------------------------------------------------------------




--------------------------------------- Iteration      1(   7)  ---------------------------------------


    POTLOK:  cpu time    0.0280: real time    0.0382
    SETDIJ:  cpu time    0.0080: real time    0.0085
     EDDAV:  cpu time    0.9840: real time    0.9820
       DOS:  cpu time    0.0000: real time    0.0034
    CHARGE:  cpu time    0.0600: real time    0.0601
    MIXING:  cpu time    0.0040: real time    0.0018
    --------------------------------------------
      LOOP:  cpu time    1.0840: real time    1.0947

 eigenvalue-minimisations  :  1216
 total energy-change (2. order) : 0.4950876E-01  (-0.1289259E-01)
 number of electron       7.9999993 magnetization 
 augmentation part       -0.4570092 magnetization 

 Broyden mixing:
  rms(total) = 0.14332E-01    rms(broyden)= 0.14332E-01
  rms(prec ) = 0.37095E-01
  weight for this iteration     100.00

 eigenvalues of (default mixing * dielectric matrix)
  average eigenvalue GAMMA=   2.4725
  2.4725  2.4725

 Free energy of the ion-electron system (eV)
  ---------------------------------------------------
  alpha Z        PSCENC =         3.20107676
  Ewald energy   TEWEN  =      -224.80925182
  -Hartree energ DENC   =       -15.49778743
  -exchange      EXHF   =         0.00000000
  -V(xc)+E(xc)   XCENC  =       -18.19867873
  PAW double counting   =        73.70764916      -38.73030322
  entropy T*S    EENTRO =        -0.00002666
  eigenvalues    EBANDS =         3.35857229
  atomic energy  EATOM  =       206.13125414
  Solvation  Ediel_sol  =         0.00000000
  ---------------------------------------------------
  free energy    TOTEN  =       -10.83749551 eV

  energy without entropy =      -10.83746886  energy(sigma->0) =      -10.83748218


--------------------------------------------------------------------------------------------------------




--------------------------------------- Iteration      1(   8)  ---------------------------------------


    POTLOK:  cpu time    0.0280: real time    0.0735
    SETDIJ:  cpu time    0.0080: real time    0.0085
     EDDAV:  cpu time    0.9200: real time    0.9218
       DOS:  cpu time    0.0040: real time    0.0055
    CHARGE:  cpu time    0.0600: real time    0.0609
    MIXING:  cpu time    0.0000: real time    0.0020
    --------------------------------------------
      LOOP:  cpu time    1.0200: real time    1.0717

 eigenvalue-minimisations  :  1136
 total energy-change (2. order) :-0.1328618E-02  (-0.3794189E-03)
 number of electron       7.9999993 magnetization 
 augmentation part       -0.4579468 magnetization 

 Broyden mixing:
  rms(total) = 0.25196E-02    rms(broyden)= 0.25187E-02
  rms(prec ) = 0.83325E-02
  weight for this iteration     100.00

 eigenvalues of (default mixing * dielectric matrix)
  average eigenvalue GAMMA=   2.1273
  1.3309  2.8131  2.2381

 Free energy of the ion-electron system (eV)
  ---------------------------------------------------
  alpha Z        PSCENC =         3.20107676
  Ewald energy   TEWEN  =      -224.80925182
  -Hartree energ DENC   =       -15.46183052
  -exchange      EXHF   =         0.00000000
  -V(xc)+E(xc)   XCENC  =       -18.19338217
  PAW double counting   =        72.83973821      -37.83534841
  entropy T*S    EENTRO =        -0.00002065
  eigenvalues    EBANDS =         3.28894033
  atomic energy  EATOM  =       206.13125414
  Solvation  Ediel_sol  =         0.00000000
  ---------------------------------------------------
  free energy    TOTEN  =       -10.83882413 eV

  energy without entropy =      -10.83880348  energy(sigma->0) =      -10.83881381


--------------------------------------------------------------------------------------------------------




--------------------------------------- Iteration      1(   9)  ---------------------------------------


    POTLOK:  cpu time    0.0280: real time    0.0667
    SETDIJ:  cpu time    0.0080: real time    0.0091
     EDDAV:  cpu time    0.6560: real time    0.6559
       DOS:  cpu time    0.0040: real time    0.0036
    --------------------------------------------
      LOOP:  cpu time    0.6960: real time    0.7351

 eigenvalue-minimisations  :   728
 total energy-change (2. order) :-0.1048604E-03  (-0.1065306E-04)
 number of electron       7.9999993 magnetization 
 augmentation part       -0.4579468 magnetization 

 Free energy of the ion-electron system (eV)
  ---------------------------------------------------
  alpha Z        PSCENC =         3.20107676
  Ewald energy   TEWEN  =      -224.80925182
  -Hartree energ DENC   =       -15.50158715
  -exchange      EXHF   =         0.00000000
  -V(xc)+E(xc)   XCENC  =       -18.18689783
  PAW double counting   =        72.81722949      -37.81251615
  entropy T*S    EENTRO =        -0.00002039
  eigenvalues    EBANDS =         3.32178397
  atomic energy  EATOM  =       206.13125414
  Solvation  Ediel_sol  =         0.00000000
  ---------------------------------------------------
  free energy    TOTEN  =       -10.83892899 eV

  energy without entropy =      -10.83890860  energy(sigma->0) =      -10.83891879


--------------------------------------------------------------------------------------------------------




 average (electrostatic) potential at core
  the test charge radii are     0.9892
  (the norm of the test charge is              1.0000)
       1 -83.7985       2 -83.7985
 
 
 
 E-fermi :   5.6856     XC(G=0):  -9.2203     alpha+bet :-11.4036


 k-point     1 :       0.0625    0.0625    0.0625
  band No.  band energies     occupation 
      1      -6.2399      2.00000
      2       4.8020      2.00000
      3       5.2575      1.99753
      4       5.2575      1.99753
      5       7.8744      0.00000
      6       8.0008      0.00000
      7       8.0008      0.00000
      8       8.6111      0.00000

 k-point     2 :       0.1875    0.0625    0.0625
  band No.  band energies     occupation 
      1      -5.9802      2.00000
      2       3.3121      2.00000
      3       4.4800      2.00000
      4       5.1408      1.99988
      5       7.8928      0.00000
      6       8.2399      0.00000
      7       8.5054      0.00000
      8      10.1311      0.00000

 k-point     3 :       0.3125    0.0625    0.0625
  band No.  band energies     occupation 
      1      -5.3542      2.00000
      2       1.1466      2.00000
      3       4.0010      2.00000
      4       4.6922      2.00000
      5       7.4401      0.00000
      6       8.7312      0.00000
      7       9.0076      0.00000
      8      11.7366      0.00000

 k-point     4 :       0.4375    0.0625    0.0625
  band No.  band energies     occupation 
      1      -4.4853      2.00000
      2      -0.6804      2.00000
      3       3.7862      2.00000
      4       4.2975      2.00000
      5       7.1271      0.00000
      6       8.8129      0.00000
      7       8.8265      0.00000
      8      13.0335      0.00000

 k-point     5 :      -0.4375    0.0625    0.0625
  band No.  band energies     occupation 
      1      -4.0586      2.00000
      2      -1.3527      2.00000
      3       3.8311      2.00000
      4       4.0872      2.00000
      5       7.0487      0.00000
      6       8.6294      0.00000
      7       8.8917      0.00000
      8      13.1330      0.00000

 k-point     6 :      -0.3125    0.0625    0.0625
  band No.  band energies     occupation 
      1      -4.7819      2.00000
      2      -0.1416      2.00000
      3       4.1087      2.00000
      4       4.1099      2.00000
      5       7.2168      0.00000
      6       8.6243      0.00000
      7       9.1320      0.00000
      8      12.1719      0.00000

 k-point     7 :      -0.1875    0.0625    0.0625
  band No.  band energies     occupation 
      1      -5.5994      2.00000
      2       1.8560      2.00000
      3       4.3804      2.00000
      4       4.5610      2.00000
      5       7.5811      0.00000
      6       8.4546      0.00000
      7       9.1640      0.00000
      8      10.9665      0.00000

 k-point     8 :      -0.0625    0.0625    0.0625
  band No.  band energies     occupation 
      1      -6.1093      2.00000
      2       4.0501      2.00000
      3       4.8482      2.00000
      4       4.9932      2.00000
      5       7.7193      0.00000
      6       8.2165      0.00000
      7       8.5596      0.00000
      8       9.3823      0.00000

 k-point     9 :       0.1875    0.1875    0.0625
  band No.  band energies     occupation 
      1      -5.8494      2.00000
      2       3.1556      2.00000
      3       4.3099      2.00000
      4       4.3807      2.00000
      5       7.3139      0.00000
      6       8.9408      0.00000
      7       9.3921      0.00000
      8       9.8540      0.00000

 k-point    10 :       0.3125    0.1875    0.0625
  band No.  band energies     occupation 
      1      -5.3415      2.00000
      2       1.6881      2.00000
      3       3.3693      2.00000
      4       4.1313      2.00000
      5       7.4765      0.00000
      6       9.0450      0.00000
      7       9.7852      0.00000
      8      10.1708      0.00000

 k-point    11 :       0.4375    0.1875    0.0625
  band No.  band energies     occupation 
      1      -4.5257      2.00000
      2      -0.1061      2.00000
      3       2.8762      2.00000
      4       3.7381      2.00000
      5       7.6545      0.00000
      6       9.0309      0.00000
      7      10.1986      0.00000
      8      10.5023      0.00000

 k-point    12 :      -0.4375    0.1875    0.0625
  band No.  band energies     occupation 
      1      -3.7976      2.00000
      2      -1.2670      2.00000
      3       2.5920      2.00000
      4       3.6494      2.00000
      5       7.7066      0.00000
      6       8.7647      0.00000
      7      10.0624      0.00000
      8      12.4526      0.00000

 k-point    13 :      -0.3125    0.1875    0.0625
  band No.  band energies     occupation 
      1      -4.2343      2.00000
      2      -0.6059      2.00000
      3       2.5267      2.00000
      4       3.9226      2.00000
      5       7.9562      0.00000
      6       8.6989      0.00000
      7      10.0028      0.00000
      8      11.7276      0.00000

 k-point    14 :      -0.1875    0.1875    0.0625
  band No.  band energies     occupation 
      1      -5.1019      2.00000
      2       1.0597      2.00000
      3       2.8322      2.00000
      4       4.4110      2.00000
      5       8.2693      0.00000
      6       8.5913      0.00000
      7       9.8757      0.00000
      8      10.3708      0.00000

 k-point    15 :      -0.0625    0.1875    0.0625
  band No.  band energies     occupation 
      1      -5.7232      2.00000
      2       2.5059      2.00000
      3       3.9218      2.00000
      4       4.7705      2.00000
      5       7.8498      0.00000
      6       8.4370      0.00000
      7       9.2109      0.00000
      8      10.3910      0.00000

 k-point    16 :       0.3125    0.3125    0.0625
  band No.  band energies     occupation 
      1      -4.9531      2.00000
      2       1.1756      2.00000
      3       3.2329      2.00000
      4       3.3506      2.00000
      5       6.5303      0.00000
      6       8.1657      0.00000
      7      11.1907      0.00000
      8      11.3451      0.00000

 k-point    17 :       0.4375    0.3125    0.0625
  band No.  band energies     occupation 
      1      -4.2258      2.00000
      2      -0.0276      2.00000
      3       2.4746      2.00000
      4       3.0167      2.00000
      5       6.8388      0.00000
      6       8.0079      0.00000
      7      11.1563      0.00000
      8      12.3097      0.00000

 k-point    18 :      -0.4375    0.3125    0.0625
  band No.  band energies     occupation 
      1      -3.3627      2.00000
      2      -1.1806      2.00000
      3       1.6632      2.00000
      4       2.9857      2.00000
      5       7.0725      0.00000
      6       9.6255      0.00000
      7      10.7414      0.00000
      8      12.2225      0.00000

 k-point    19 :      -0.3125    0.3125    0.0625
  band No.  band energies     occupation 
      1      -3.4335      2.00000
      2      -1.0883      2.00000
      3       1.3260      2.00000
      4       3.3172      2.00000
      5       7.4576      0.00000
      6      10.3213      0.00000
      7      11.5691      0.00000
      8      11.9225      0.00000

 k-point    20 :      -0.1875    0.3125    0.0625
  band No.  band energies     occupation 
      1      -4.2961      2.00000
      2      -0.1558      2.00000
      3       1.9039      2.00000
      4       3.8806      2.00000
      5       8.0482      0.00000
      6       9.2425      0.00000
      7      10.6168      0.00000
      8      10.9221      0.00000

 k-point    21 :      -0.0625    0.3125    0.0625
  band No.  band energies     occupation 
      1      -4.9930      2.00000
      2       0.4879      2.00000
      3       3.4711      2.00000
      4       4.3141      2.00000
      5       7.7177      0.00000
      6       8.6299      0.00000
      7       9.4705      0.00000
      8      11.1292      0.00000

 k-point    22 :       0.4375    0.4375    0.0625
  band No.  band energies     occupation 
      1      -3.5920      2.00000
      2      -0.8686      2.00000
      3       2.5680      2.00000
      4       2.7747      2.00000
      5       6.1553      0.00090
      6       6.8605      0.00000
      7      13.4257      0.00000
      8      13.4532      0.00000

 k-point    23 :      -0.4375    0.4375    0.0625
  band No.  band energies     occupation 
      1      -2.7127      2.00000
      2      -1.8293      2.00000
      3       2.0347      2.00000
      4       2.5424      2.00000
      5       6.5792      0.00000
      6       7.2875      0.00000
      7      13.1949      0.00000
      8      14.1555      0.00000

 k-point    24 :      -0.3125    0.4375    0.0625
  band No.  band energies     occupation 
      1      -2.8146      2.00000
      2      -1.6632      2.00000
      3       1.3359      2.00000
      4       2.8467      2.00000
      5       6.9312      0.00000
      6       9.4696      0.00000
      7      11.7091      0.00000
      8      12.8112      0.00000

 k-point    25 :      -0.1875    0.4375    0.0625
  band No.  band energies     occupation 
      1      -3.5492      2.00000
      2      -1.2377      2.00000
      3       1.8475      2.00000
      4       3.4267      2.00000
      5       7.5684      0.00000
      6       9.4832      0.00000
      7      10.9821      0.00000
      8      12.2100      0.00000

 k-point    26 :      -0.0625    0.4375    0.0625
  band No.  band energies     occupation 
      1      -4.1368      2.00000
      2      -1.0719      2.00000
      3       3.2949      2.00000
      4       3.9913      2.00000
      5       7.5089      0.00000
      6       8.5639      0.00000
      7       9.3071      0.00000
      8      12.7739      0.00000

 k-point    27 :      -0.4375   -0.4375    0.0625
  band No.  band energies     occupation 
      1      -2.7605      2.00000
      2      -1.8449      2.00000
      3       2.4346      2.00000
      4       2.6569      2.00000
      5       6.1576      0.00084
      6       6.5091      0.00000
      7      14.4758      0.00000
      8      14.5290      0.00000

 k-point    28 :      -0.3125   -0.4375    0.0625
  band No.  band energies     occupation 
      1      -3.5105      2.00000
      2      -0.9311      2.00000
      3       2.1853      2.00000
      4       2.6973      2.00000
      5       6.6602      0.00000
      6       7.5361      0.00000
      7      12.1497      0.00000
      8      13.4351      0.00000

 k-point    29 :      -0.1875   -0.4375    0.0625
  band No.  band energies     occupation 
      1      -3.9703      2.00000
      2      -0.6517      2.00000
      3       2.2300      2.00000
      4       3.2757      2.00000
      5       7.3365      0.00000
      6       9.8041      0.00000
      7       9.9728      0.00000
      8      11.1926      0.00000

 k-point    30 :      -0.3125   -0.3125    0.0625
  band No.  band energies     occupation 
      1      -4.3267      2.00000
      2       0.1473      2.00000
      3       2.8345      2.00000
      4       3.0077      2.00000
      5       6.2781      0.00003
      6       7.4256      0.00000
      7      12.2918      0.00000
      8      12.3858      0.00000

 k-point    31 :      -0.1875   -0.3125    0.0625
  band No.  band energies     occupation 
      1      -4.8399      2.00000
      2       0.8483      2.00000
      3       2.8781      2.00000
      4       3.5063      2.00000
      5       7.1177      0.00000
      6       8.6579      0.00000
      7      10.2367      0.00000
      8      11.2106      0.00000

 k-point    32 :      -0.1875   -0.1875    0.0625
  band No.  band energies     occupation 
      1      -5.4626      2.00000
      2       2.1878      2.00000
      3       3.7572      2.00000
      4       3.7923      2.00000
      5       6.8898      0.00000
      6       8.9677      0.00000
      7      10.1837      0.00000
      8      10.3405      0.00000

 k-point    33 :       0.1875    0.1875    0.1875
  band No.  band energies     occupation 
      1      -5.8527      2.00000
      2       2.6110      2.00000
      3       4.8304      2.00000
      4       4.8304      2.00000
      5       7.4410      0.00000
      6       8.6018      0.00000
      7       8.6018      0.00000
      8      10.7575      0.00000

 k-point    34 :       0.3125    0.1875    0.1875
  band No.  band energies     occupation 
      1      -5.4727      2.00000
      2       1.7758      2.00000
      3       3.3676      2.00000
      4       4.8439      2.00000
      5       8.0936      0.00000
      6       8.7244      0.00000
      7       8.9997      0.00000
      8      10.9143      0.00000

 k-point    35 :       0.4375    0.1875    0.1875
  band No.  band energies     occupation 
      1      -4.7500      2.00000
      2       0.4345      2.00000
      3       2.3212      2.00000
      4       4.3559      2.00000
      5       7.9864      0.00000
      6       9.4643      0.00000
      7       9.6496      0.00000
      8      11.1998      0.00000

 k-point    36 :      -0.4375    0.1875    0.1875
  band No.  band energies     occupation 
      1      -3.8900      2.00000
      2      -0.9983      2.00000
      3       2.1617      2.00000
      4       3.8430      2.00000
      5       7.5233      0.00000
      6       9.6108      0.00000
      7       9.8633      0.00000
      8      13.0317      0.00000

 k-point    37 :      -0.3125    0.1875    0.1875
  band No.  band energies     occupation 
      1      -3.8745      2.00000
      2      -1.0261      2.00000
      3       2.4480      2.00000
      4       3.5366      2.00000
      5       7.2659      0.00000
      6       9.6703      0.00000
      7      10.2013      0.00000
      8      11.1490      0.00000

 k-point    38 :      -0.1875    0.1875    0.1875
  band No.  band energies     occupation 
      1      -4.7329      2.00000
      2       0.4314      2.00000
      3       3.0441      2.00000
      4       3.5154      2.00000
      5       7.2034      0.00000
      6       9.3301      0.00000
      7       9.9599      0.00000
      8      10.5511      0.00000

 k-point    39 :       0.3125    0.3125    0.1875
  band No.  band energies     occupation 
      1      -5.2240      2.00000
      2       1.1314      2.00000
      3       3.8411      2.00000
      4       3.9209      2.00000
      5       7.5671      0.00000
      6       8.8630      0.00000
      7       9.8221      0.00000
      8      10.2181      0.00000

 k-point    40 :       0.4375    0.3125    0.1875
  band No.  band energies     occupation 
      1      -4.6177      2.00000
      2       0.3621      2.00000
      3       2.3764      2.00000
      4       3.7298      2.00000
      5       8.0619      0.00000
      6       9.0446      0.00000
      7       9.5876      0.00000
      8      11.0388      0.00000

 k-point    41 :      -0.4375    0.3125    0.1875
  band No.  band energies     occupation 
      1      -3.7577      2.00000
      2      -0.7151      2.00000
      3       1.6159      2.00000
      4       3.1850      2.00000
      5       8.5054      0.00000
      6       8.9830      0.00000
      7      10.2305      0.00000
      8      12.1097      0.00000

 k-point    42 :      -0.3125    0.3125    0.1875
  band No.  band energies     occupation 
      1      -3.2903      2.00000
      2      -1.3037      2.00000
      3       1.6139      2.00000
      4       2.8849      2.00000
      5       8.0536      0.00000
      6       9.3029      0.00000
      7      10.9957      0.00000
      8      12.2270      0.00000

 k-point    43 :      -0.1875    0.3125    0.1875
  band No.  band energies     occupation 
      1      -4.0310      2.00000
      2      -0.3387      2.00000
      3       2.0267      2.00000
      4       3.0566      2.00000
      5       7.7897      0.00000
      6       8.9899      0.00000
      7       9.7988      0.00000
      8      12.2273      0.00000

 k-point    44 :       0.4375    0.4375    0.1875
  band No.  band energies     occupation 
      1      -4.1365      2.00000
      2      -0.2781      2.00000
      3       2.3457      2.00000
      4       3.1947      2.00000
      5       6.8407      0.00000
      6       8.8253      0.00000
      7      10.9848      0.00000
      8      11.3559      0.00000

 k-point    45 :      -0.4375    0.4375    0.1875
  band No.  band energies     occupation 
      1      -3.3592      2.00000
      2      -1.0665      2.00000
      3       1.7952      2.00000
      4       2.5404      2.00000
      5       7.5948      0.00000
      6       8.5905      0.00000
      7      10.6747      0.00000
      8      13.3981      0.00000

 k-point    46 :      -0.3125    0.4375    0.1875
  band No.  band energies     occupation 
      1      -2.5806      2.00000
      2      -1.8030      2.00000
      3       1.4929      2.00000
      4       2.0588      2.00000
      5       8.6937      0.00000
      6       9.6148      0.00000
      7      10.2279      0.00000
      8      11.2231      0.00000

 k-point    47 :      -0.1875    0.4375    0.1875
  band No.  band energies     occupation 
      1      -3.1639      2.00000
      2      -1.2649      2.00000
      3       1.4809      2.00000
      4       2.5169      2.00000
      5       8.7896      0.00000
      6       9.1973      0.00000
      7       9.9274      0.00000
      8      12.3615      0.00000

 k-point    48 :      -0.4375   -0.4375    0.1875
  band No.  band energies     occupation 
      1      -2.7363      2.00000
      2      -1.7783      2.00000
      3       1.5928      2.00000
      4       2.8624      2.00000
      5       6.4260      0.00000
      6       8.2769      0.00000
      7      13.1222      0.00000
      8      13.2853      0.00000

 k-point    49 :      -0.3125   -0.4375    0.1875
  band No.  band energies     occupation 
      1      -2.6388      2.00000
      2      -1.8114      2.00000
      3       1.6833      2.00000
      4       2.2630      2.00000
      5       7.4951      0.00000
      6       8.3895      0.00000
      7      11.6574      0.00000
      8      12.7434      0.00000

 k-point    50 :      -0.3125   -0.3125    0.1875
  band No.  band energies     occupation 
      1      -3.4531      2.00000
      2      -1.0264      2.00000
      3       1.8464      2.00000
      4       2.9743      2.00000
      5       6.5694      0.00000
      6       8.4588      0.00000
      7      12.1191      0.00000
      8      12.2387      0.00000

 k-point    51 :       0.3125    0.3125    0.3125
  band No.  band energies     occupation 
      1      -5.1209      2.00000
      2       0.4655      2.00000
      3       4.4273      2.00000
      4       4.4273      2.00000
      5       6.9881      0.00000
      6       8.8476      0.00000
      7       8.8476      0.00000
      8      12.7942      0.00000

 k-point    52 :       0.4375    0.3125    0.3125
  band No.  band energies     occupation 
      1      -4.6573      2.00000
      2      -0.1037      2.00000
      3       3.0012      2.00000
      4       4.3411      2.00000
      5       7.7210      0.00000
      6       9.0610      0.00000
      7       9.1134      0.00000
      8      12.2060      0.00000

 k-point    53 :      -0.4375    0.3125    0.3125
  band No.  band energies     occupation 
      1      -3.8920      2.00000
      2      -0.6461      2.00000
      3       1.5379      2.00000
      4       3.7815      2.00000
      5       7.4611      0.00000
      6      10.4627      0.00000
      7      10.6096      0.00000
      8      11.9471      0.00000

 k-point    54 :      -0.3125    0.3125    0.3125
  band No.  band energies     occupation 
      1      -3.1006      2.00000
      2      -1.4131      2.00000
      3       1.2179      2.00000
      4       3.2532      2.00000
      5       6.8752      0.00000
      6      10.6881      0.00000
      7      11.7019      0.00000
      8      11.9122      0.00000

 k-point    55 :       0.4375    0.4375    0.3125
  band No.  band energies     occupation 
      1      -4.3549      2.00000
      2      -0.6430      2.00000
      3       3.3192      2.00000
      4       3.7988      2.00000
      5       7.4725      0.00000
      6       8.8176      0.00000
      7       9.5885      0.00000
      8      11.5759      0.00000

 k-point    56 :      -0.4375    0.4375    0.3125
  band No.  band energies     occupation 
      1      -3.7567      2.00000
      2      -1.0067      2.00000
      3       2.0597      2.00000
      4       3.3435      2.00000
      5       8.2454      0.00000
      6       8.6146      0.00000
      7      11.0544      0.00000
      8      11.3367      0.00000

 k-point    57 :      -0.3125    0.4375    0.3125
  band No.  band energies     occupation 
      1      -2.9660      2.00000
      2      -1.4818      2.00000
      3       1.3071      2.00000
      4       2.6567      2.00000
      5       7.9312      0.00000
      6      10.1324      0.00000
      7      10.8830      0.00000
      8      11.3878      0.00000

 k-point    58 :      -0.4375   -0.4375    0.3125
  band No.  band energies     occupation 
      1      -3.4116      2.00000
      2      -1.2839      2.00000
      3       1.6873      2.00000
      4       3.3499      2.00000
      5       7.0165      0.00000
      6      10.6452      0.00000
      7      10.9433      0.00000
      8      10.9631      0.00000

 k-point    59 :       0.4375    0.4375    0.4375
  band No.  band energies     occupation 
      1      -4.2663      2.00000
      2      -1.1257      2.00000
      3       4.2109      2.00000
      4       4.2109      2.00000
      5       6.7361      0.00000
      6       8.7267      0.00000
      7       8.7267      0.00000
      8      13.0364      0.00000

 k-point    60 :      -0.4375    0.4375    0.4375
  band No.  band energies     occupation 
      1      -3.9290      2.00000
      2      -1.3002      2.00000
      3       3.0142      2.00000
      4       3.9534      2.00000
      5       7.4850      0.00000
      6       8.8291      0.00000
      7       9.2886      0.00000
      8      13.3662      0.00000


--------------------------------------------------------------------------------------------------------


 soft charge-density along one line, spin component           1
         0         1         2         3         4         5         6         7         8         9
 total charge-density along one line
 
 pseudopotential strength for first ion, spin component:           1
 18.469  -0.000  -0.000  -0.000  -0.000   0.000   0.000   0.000
 -0.000   0.006   0.000   0.000   0.000  -0.000  -0.000  -0.000
 -0.000   0.000   4.184  -0.000  -0.000  -0.004   0.000   0.000
 -0.000   0.000  -0.000   4.184  -0.000   0.000  -0.004   0.000
 -0.000   0.000  -0.000  -0.000   4.184   0.000   0.000  -0.004
  0.000  -0.000  -0.004   0.000   0.000   0.005  -0.000  -0.000
  0.000  -0.000   0.000  -0.004   0.000  -0.000   0.005  -0.000
  0.000  -0.000   0.000   0.000  -0.004  -0.000  -0.000   0.005
 total augmentation occupancy for first ion, spin component:           1
  1.502  -0.721   0.000   0.000   0.000  -0.000  -0.000   0.000
 -0.721   0.698  -0.000  -0.000  -0.000  -0.000  -0.000   0.000
  0.000   0.000   0.997   0.000  -0.000  -0.533  -0.000   0.000
  0.000  -0.000   0.000   0.997  -0.000  -0.000  -0.533   0.000
  0.000  -0.000  -0.000  -0.000   0.997   0.000   0.000  -0.533
 -0.000  -0.000  -0.533  -0.000   0.000   0.336   0.000  -0.000
 -0.000  -0.000  -0.000  -0.533   0.000   0.000   0.336  -0.000
  0.000   0.000   0.000   0.000  -0.533  -0.000  -0.000   0.336


------------------------ aborting loop because EDIFF is reached ----------------------------------------


    CHARGE:  cpu time    0.0600: real time    0.0596
    FORLOC:  cpu time    0.0000: real time    0.0009
    FORNL :  cpu time    0.0240: real time    0.0242
    STRESS:  cpu time    0.2840: real time    0.2829
    FORCOR:  cpu time    0.0200: real time    0.0216
    FORHAR:  cpu time    0.0040: real time    0.0053
    MIXING:  cpu time    0.0040: real time    0.0015
    OFIELD:  cpu time    0.0000: real time    0.0005

  FORCE on cell =-STRESS in cart. coord.  units (eV):
  Direction    XX          YY          ZZ          XY          YZ          ZX
  --------------------------------------------------------------------------------------
  Alpha Z     3.20108     3.20108     3.20108
  Ewald     -74.93645   -74.93645   -74.93645     0.00000     0.00000    -0.00000
  Hartree     5.17072     5.17072     5.17072     0.00000     0.00000     0.00000
  E(xc)     -25.08512   -25.08512   -25.08512    -0.00000    -0.00000    -0.00000
  Local     -29.93876   -29.93876   -29.93876     0.00004     0.00004     0.00004
  n-local    76.88390    79.42946    74.68724     1.01541    -1.10520     0.04617
  augment   -11.64854   -11.64854   -11.64854    -0.00003    -0.00003    -0.00003
  Kinetic    57.02573    55.34164    54.45929     0.83706    -0.93257     0.04738
  Fock        0.00000     0.00000     0.00000     0.00000     0.00000     0.00000
  -------------------------------------------------------------------------------------
  Total      -0.62799    -0.62799    -0.62799     0.00000     0.00000    -0.00000
  in kB     -23.91920   -23.91920   -23.91920     0.00000     0.00000    -0.00000
  external pressure =      -23.92 kB  Pullay stress =        0.00 kB


 VOLUME and BASIS-vectors are now :
 -----------------------------------------------------------------------------
  energy-cutoff  :      350.00
  volume of cell :       42.06
      direct lattice vectors                 reciprocal lattice vectors
     0.000000000  2.760340000  2.760340000    -0.181137106  0.181137106  0.181137106
     2.760340000  0.000000000  2.760340000     0.181137106 -0.181137106  0.181137106
     2.760340000  2.760340000  0.000000000     0.181137106  0.181137106 -0.181137106

  length of vectors
     3.903710265  3.903710265  3.903710265     0.313738671  0.313738671  0.313738671


 FORCES acting on ions
    electron-ion (+dipol)            ewald-force                    non-local-force                 convergence-correction
 -----------------------------------------------------------------------------------------------
   0.168E-05 0.168E-05 0.173E-05   -.732E-14 0.956E-14 -.967E-14   0.262E-16 0.189E-17 0.288E-16   -.478E-06 -.478E-06 -.478E-06
   -.168E-05 -.168E-05 -.173E-05   0.724E-14 -.100E-13 0.990E-14   -.217E-16 -.431E-17 -.257E-16   0.478E-06 0.478E-06 0.478E-06
 -----------------------------------------------------------------------------------------------
   -.828E-13 -.924E-13 -.595E-13   -.732E-16 -.455E-15 0.234E-15   0.453E-17 -.241E-17 0.304E-17   -.102E-14 -.490E-15 0.585E-15
 
 
 POSITION                                       TOTAL-FORCE (eV/Angst)
 -----------------------------------------------------------------------------------
      2.76034      2.76034      2.76034         0.000000      0.000000      0.000000
      4.14051      4.14051      4.14051        -0.000000     -0.000000     -0.000000
 -----------------------------------------------------------------------------------
    total drift:                               -0.000000     -0.000000     -0.000000


--------------------------------------------------------------------------------------------------------



  FREE ENERGIE OF THE ION-ELECTRON SYSTEM (eV)
  ---------------------------------------------------
  free  energy   TOTEN  =       -10.83892899 eV

  energy  without entropy=      -10.83890860  energy(sigma->0) =      -10.83891879
 


--------------------------------------------------------------------------------------------------------


    POTLOK:  cpu time    0.0400: real time    0.0526


--------------------------------------------------------------------------------------------------------




--------------------------------------------------------------------------------------------------------


  
 reached required accuracy - stopping structural energy minimisation
 writing wavefunctions
     LOOP+:  cpu time   10.9480: real time   12.3775
    4ORBIT:  cpu time    0.0000: real time    0.0000

 total amount of memory used by VASP MPI-rank0    33921. kBytes
=======================================================================

   base      :      30000. kBytes
   nonl-proj :       2478. kBytes
   fftplans  :        247. kBytes
   grid      :        561. kBytes
   one-center:          6. kBytes
   wavefun   :        629. kBytes
 
  
  
 General timing and accounting informations for this job:
 ========================================================
  
                  Total CPU time used (sec):       15.940
                            User time (sec):       13.960
                          System time (sec):        1.980
                         Elapsed time (sec):       19.322
  
                   Maximum memory used (kb):        9880.
                   Average memory used (kb):           0.
  
                          Minor page faults:        38205
                          Major page faults:           27
                 Voluntary context switches:        40340
