<?xml version="1.0" encoding="ISO-8859-1"?>
<modeling>
 <generator>
  <i name="program" type="string">vasp </i>
  <i name="version" type="string">5.4.4.18Apr17-6-g9f103f2a35  </i>
  <i name="subversion" type="string">(build Dec 09 2018 21:25:21) complex            parallel </i>
  <i name="platform" type="string">IFC18.0.1.163_CrayMPICH7.7.0_MKL18.0.1.163 </i>
  <i name="date" type="string">2019 03 19 </i>
  <i name="time" type="string">13:20:48 </i>
 </generator>
 <incar>
  <i type="string" name="PREC">normal</i>
  <i type="int" name="IBRION">     2</i>
  <i name="EDIFF">      0.00040000</i>
  <i name="EDIFFG">     -0.01000000</i>
  <i type="int" name="NSW">    15</i>
  <i type="int" name="ISIF">     2</i>
  <i name="ENCUT">    350.00000000</i>
  <i type="int" name="NBANDS">     8</i>
  <i type="logical" name="LREAL"> F  </i>
  <i type="int" name="ISMEAR">     0</i>
  <i name="SIGMA">      0.20000000</i>
  <v type="int" name="KPOINT_BSE">    -1     0     0     0</v>
 </incar>
 <structure name="primitive_cell" >
  <crystal>
   <varray name="basis" >
    <v>      -2.45000000       2.45000000       1.27400000 </v>
    <v>       2.45000000      -2.45000000       1.27400000 </v>
    <v>       2.45000000       2.45000000      -1.27400000 </v>
   </varray>
   <i name="volume">     30.58874000 </i>
   <varray name="rec_basis" >
    <v>       0.00000000       0.20408163       0.39246468 </v>
    <v>       0.20408163       0.00000000       0.39246468 </v>
    <v>       0.20408163       0.20408163      -0.00000000 </v>
   </varray>
  </crystal>
  <varray name="positions" >
   <v>       0.25000000      -0.25000000      -0.50000000 </v>
   <v>       0.00000000       0.00000000       0.00000000 </v>
  </varray>
 </structure>
 <varray name="primitive_index" >
  <v type="int" >        1 </v>
  <v type="int" >        2 </v>
 </varray>
 <kpoints>
  <generation param="Monkhorst-Pack">
   <v type="int" name="divisions">      12       12       12 </v>
   <v name="usershift">      0.00000000       0.00000000       0.00000000 </v>
   <v name="genvec1">      0.08333333      -0.00000000       0.00000000 </v>
   <v name="genvec2">     -0.00000000       0.08333333       0.00000000 </v>
   <v name="genvec3">     -0.00000000      -0.00000000       0.08333333 </v>
   <v name="shift">      0.50000000       0.50000000       0.50000000 </v>
  </generation>
  <varray name="kpointlist" >
   <v>       0.04166667       0.04166667       0.04166667 </v>
   <v>       0.12500000       0.04166667       0.04166667 </v>
   <v>       0.20833333       0.04166667       0.04166667 </v>
   <v>       0.29166667       0.04166667       0.04166667 </v>
   <v>       0.37500000       0.04166667       0.04166667 </v>
   <v>       0.45833333       0.04166667       0.04166667 </v>
   <v>      -0.04166667       0.04166667       0.04166667 </v>
   <v>       0.12500000       0.12500000       0.04166667 </v>
   <v>       0.20833333       0.12500000       0.04166667 </v>
   <v>       0.29166667       0.12500000       0.04166667 </v>
   <v>       0.37500000       0.12500000       0.04166667 </v>
   <v>       0.45833333       0.12500000       0.04166667 </v>
   <v>      -0.45833333       0.12500000       0.04166667 </v>
   <v>      -0.37500000       0.12500000       0.04166667 </v>
   <v>      -0.29166667       0.12500000       0.04166667 </v>
   <v>      -0.20833333       0.12500000       0.04166667 </v>
   <v>      -0.12500000       0.12500000       0.04166667 </v>
   <v>      -0.04166667       0.12500000       0.04166667 </v>
   <v>       0.20833333       0.20833333       0.04166667 </v>
   <v>       0.29166667       0.20833333       0.04166667 </v>
   <v>       0.37500000       0.20833333       0.04166667 </v>
   <v>       0.45833333       0.20833333       0.04166667 </v>
   <v>      -0.45833333       0.20833333       0.04166667 </v>
   <v>      -0.37500000       0.20833333       0.04166667 </v>
   <v>      -0.29166667       0.20833333       0.04166667 </v>
   <v>      -0.20833333       0.20833333       0.04166667 </v>
   <v>      -0.12500000       0.20833333       0.04166667 </v>
   <v>      -0.04166667       0.20833333       0.04166667 </v>
   <v>       0.29166667       0.29166667       0.04166667 </v>
   <v>       0.37500000       0.29166667       0.04166667 </v>
   <v>       0.45833333       0.29166667       0.04166667 </v>
   <v>      -0.45833333       0.29166667       0.04166667 </v>
   <v>      -0.37500000       0.29166667       0.04166667 </v>
   <v>      -0.29166667       0.29166667       0.04166667 </v>
   <v>      -0.20833333       0.29166667       0.04166667 </v>
   <v>      -0.12500000       0.29166667       0.04166667 </v>
   <v>      -0.04166667       0.29166667       0.04166667 </v>
   <v>       0.37500000       0.37500000       0.04166667 </v>
   <v>       0.45833333       0.37500000       0.04166667 </v>
   <v>      -0.45833333       0.37500000       0.04166667 </v>
   <v>      -0.37500000       0.37500000       0.04166667 </v>
   <v>      -0.29166667       0.37500000       0.04166667 </v>
   <v>      -0.20833333       0.37500000       0.04166667 </v>
   <v>      -0.12500000       0.37500000       0.04166667 </v>
   <v>      -0.04166667       0.37500000       0.04166667 </v>
   <v>       0.45833333       0.45833333       0.04166667 </v>
   <v>      -0.45833333       0.45833333       0.04166667 </v>
   <v>      -0.37500000       0.45833333       0.04166667 </v>
   <v>      -0.29166667       0.45833333       0.04166667 </v>
   <v>      -0.20833333       0.45833333       0.04166667 </v>
   <v>      -0.12500000       0.45833333       0.04166667 </v>
   <v>      -0.04166667       0.45833333       0.04166667 </v>
   <v>      -0.45833333      -0.45833333       0.04166667 </v>
   <v>      -0.37500000      -0.45833333       0.04166667 </v>
   <v>      -0.29166667      -0.45833333       0.04166667 </v>
   <v>      -0.20833333      -0.45833333       0.04166667 </v>
   <v>      -0.12500000      -0.45833333       0.04166667 </v>
   <v>      -0.04166667      -0.45833333       0.04166667 </v>
   <v>      -0.37500000      -0.37500000       0.04166667 </v>
   <v>      -0.29166667      -0.37500000       0.04166667 </v>
   <v>      -0.20833333      -0.37500000       0.04166667 </v>
   <v>      -0.12500000      -0.37500000       0.04166667 </v>
   <v>      -0.04166667      -0.37500000       0.04166667 </v>
   <v>      -0.29166667      -0.29166667       0.04166667 </v>
   <v>      -0.20833333      -0.29166667       0.04166667 </v>
   <v>      -0.12500000      -0.29166667       0.04166667 </v>
   <v>      -0.04166667      -0.29166667       0.04166667 </v>
   <v>      -0.20833333      -0.20833333       0.04166667 </v>
   <v>      -0.12500000      -0.20833333       0.04166667 </v>
   <v>      -0.04166667      -0.20833333       0.04166667 </v>
   <v>      -0.12500000      -0.12500000       0.04166667 </v>
   <v>      -0.04166667      -0.12500000       0.04166667 </v>
   <v>      -0.04166667      -0.04166667       0.04166667 </v>
   <v>       0.12500000       0.12500000       0.12500000 </v>
   <v>       0.20833333       0.12500000       0.12500000 </v>
   <v>       0.29166667       0.12500000       0.12500000 </v>
   <v>       0.37500000       0.12500000       0.12500000 </v>
   <v>      -0.12500000       0.12500000       0.12500000 </v>
   <v>       0.20833333       0.20833333       0.12500000 </v>
   <v>       0.29166667       0.20833333       0.12500000 </v>
   <v>       0.37500000       0.20833333       0.12500000 </v>
   <v>       0.45833333       0.20833333       0.12500000 </v>
   <v>      -0.45833333       0.20833333       0.12500000 </v>
   <v>      -0.20833333       0.20833333       0.12500000 </v>
   <v>      -0.12500000       0.20833333       0.12500000 </v>
   <v>       0.29166667       0.29166667       0.12500000 </v>
   <v>       0.37500000       0.29166667       0.12500000 </v>
   <v>       0.45833333       0.29166667       0.12500000 </v>
   <v>      -0.29166667       0.29166667       0.12500000 </v>
   <v>      -0.20833333       0.29166667       0.12500000 </v>
   <v>      -0.12500000       0.29166667       0.12500000 </v>
   <v>       0.37500000       0.37500000       0.12500000 </v>
   <v>      -0.37500000       0.37500000       0.12500000 </v>
   <v>      -0.29166667       0.37500000       0.12500000 </v>
   <v>      -0.20833333       0.37500000       0.12500000 </v>
   <v>      -0.12500000       0.37500000       0.12500000 </v>
   <v>      -0.45833333       0.45833333       0.12500000 </v>
   <v>      -0.37500000       0.45833333       0.12500000 </v>
   <v>      -0.29166667       0.45833333       0.12500000 </v>
   <v>      -0.20833333       0.45833333       0.12500000 </v>
   <v>      -0.12500000       0.45833333       0.12500000 </v>
   <v>      -0.45833333      -0.45833333       0.12500000 </v>
   <v>      -0.37500000      -0.45833333       0.12500000 </v>
   <v>      -0.29166667      -0.45833333       0.12500000 </v>
   <v>      -0.20833333      -0.45833333       0.12500000 </v>
   <v>      -0.12500000      -0.45833333       0.12500000 </v>
   <v>      -0.37500000      -0.37500000       0.12500000 </v>
   <v>      -0.29166667      -0.37500000       0.12500000 </v>
   <v>      -0.20833333      -0.37500000       0.12500000 </v>
   <v>      -0.12500000      -0.37500000       0.12500000 </v>
   <v>      -0.29166667      -0.29166667       0.12500000 </v>
   <v>      -0.20833333      -0.29166667       0.12500000 </v>
   <v>      -0.12500000      -0.29166667       0.12500000 </v>
   <v>      -0.20833333      -0.20833333       0.12500000 </v>
   <v>      -0.12500000      -0.20833333       0.12500000 </v>
   <v>      -0.12500000      -0.12500000       0.12500000 </v>
   <v>       0.20833333       0.20833333       0.20833333 </v>
   <v>       0.29166667       0.20833333       0.20833333 </v>
   <v>      -0.20833333       0.20833333       0.20833333 </v>
   <v>       0.29166667       0.29166667       0.20833333 </v>
   <v>      -0.29166667       0.29166667       0.20833333 </v>
   <v>      -0.20833333       0.29166667       0.20833333 </v>
   <v>      -0.37500000       0.37500000       0.20833333 </v>
   <v>      -0.29166667       0.37500000       0.20833333 </v>
   <v>      -0.20833333       0.37500000       0.20833333 </v>
   <v>      -0.45833333       0.45833333       0.20833333 </v>
   <v>      -0.37500000       0.45833333       0.20833333 </v>
   <v>      -0.29166667       0.45833333       0.20833333 </v>
   <v>      -0.20833333       0.45833333       0.20833333 </v>
   <v>      -0.45833333      -0.45833333       0.20833333 </v>
   <v>      -0.37500000      -0.45833333       0.20833333 </v>
   <v>      -0.29166667      -0.45833333       0.20833333 </v>
   <v>      -0.20833333      -0.45833333       0.20833333 </v>
   <v>      -0.37500000      -0.37500000       0.20833333 </v>
   <v>      -0.29166667      -0.37500000       0.20833333 </v>
   <v>      -0.20833333      -0.37500000       0.20833333 </v>
   <v>      -0.29166667      -0.29166667       0.20833333 </v>
   <v>      -0.20833333      -0.29166667       0.20833333 </v>
   <v>      -0.20833333      -0.20833333       0.20833333 </v>
   <v>      -0.29166667       0.29166667       0.29166667 </v>
   <v>      -0.37500000       0.37500000       0.29166667 </v>
   <v>      -0.29166667       0.37500000       0.29166667 </v>
   <v>      -0.45833333       0.45833333       0.29166667 </v>
   <v>      -0.37500000       0.45833333       0.29166667 </v>
   <v>      -0.29166667       0.45833333       0.29166667 </v>
   <v>      -0.45833333      -0.45833333       0.29166667 </v>
   <v>      -0.37500000      -0.45833333       0.29166667 </v>
   <v>      -0.29166667      -0.45833333       0.29166667 </v>
   <v>      -0.37500000      -0.37500000       0.29166667 </v>
   <v>      -0.29166667      -0.37500000       0.29166667 </v>
   <v>      -0.29166667      -0.29166667       0.29166667 </v>
   <v>      -0.37500000       0.37500000       0.37500000 </v>
   <v>      -0.45833333       0.45833333       0.37500000 </v>
   <v>      -0.37500000       0.45833333       0.37500000 </v>
   <v>      -0.45833333      -0.45833333       0.37500000 </v>
   <v>      -0.37500000      -0.45833333       0.37500000 </v>
   <v>      -0.37500000      -0.37500000       0.37500000 </v>
   <v>      -0.45833333       0.45833333       0.45833333 </v>
   <v>      -0.45833333      -0.45833333       0.45833333 </v>
  </varray>
  <varray name="weights" >
   <v>       0.00462963 </v>
   <v>       0.00925926 </v>
   <v>       0.00925926 </v>
   <v>       0.00925926 </v>
   <v>       0.00925926 </v>
   <v>       0.00462963 </v>
   <v>       0.00231481 </v>
   <v>       0.00462963 </v>
   <v>       0.00925926 </v>
   <v>       0.00925926 </v>
   <v>       0.00925926 </v>
   <v>       0.00925926 </v>
   <v>       0.00925926 </v>
   <v>       0.00925926 </v>
   <v>       0.00925926 </v>
   <v>       0.00462963 </v>
   <v>       0.00462963 </v>
   <v>       0.00462963 </v>
   <v>       0.00462963 </v>
   <v>       0.00925926 </v>
   <v>       0.00925926 </v>
   <v>       0.00925926 </v>
   <v>       0.00925926 </v>
   <v>       0.00925926 </v>
   <v>       0.00462963 </v>
   <v>       0.00462963 </v>
   <v>       0.00925926 </v>
   <v>       0.00462963 </v>
   <v>       0.00462963 </v>
   <v>       0.00925926 </v>
   <v>       0.00925926 </v>
   <v>       0.00925926 </v>
   <v>       0.00462963 </v>
   <v>       0.00462963 </v>
   <v>       0.00925926 </v>
   <v>       0.00925926 </v>
   <v>       0.00462963 </v>
   <v>       0.00462963 </v>
   <v>       0.00925926 </v>
   <v>       0.00462963 </v>
   <v>       0.00462963 </v>
   <v>       0.00925926 </v>
   <v>       0.00925926 </v>
   <v>       0.00925926 </v>
   <v>       0.00462963 </v>
   <v>       0.00231481 </v>
   <v>       0.00462963 </v>
   <v>       0.00925926 </v>
   <v>       0.00925926 </v>
   <v>       0.00925926 </v>
   <v>       0.00925926 </v>
   <v>       0.00462963 </v>
   <v>       0.00462963 </v>
   <v>       0.00925926 </v>
   <v>       0.00925926 </v>
   <v>       0.00925926 </v>
   <v>       0.00925926 </v>
   <v>       0.00462963 </v>
   <v>       0.00462963 </v>
   <v>       0.00925926 </v>
   <v>       0.00925926 </v>
   <v>       0.00925926 </v>
   <v>       0.00462963 </v>
   <v>       0.00462963 </v>
   <v>       0.00925926 </v>
   <v>       0.00925926 </v>
   <v>       0.00462963 </v>
   <v>       0.00462963 </v>
   <v>       0.00925926 </v>
   <v>       0.00462963 </v>
   <v>       0.00462963 </v>
   <v>       0.00462963 </v>
   <v>       0.00115741 </v>
   <v>       0.00462963 </v>
   <v>       0.00925926 </v>
   <v>       0.00925926 </v>
   <v>       0.00462963 </v>
   <v>       0.00231481 </v>
   <v>       0.00462963 </v>
   <v>       0.00925926 </v>
   <v>       0.00925926 </v>
   <v>       0.00925926 </v>
   <v>       0.00462963 </v>
   <v>       0.00462963 </v>
   <v>       0.00462963 </v>
   <v>       0.00462963 </v>
   <v>       0.00925926 </v>
   <v>       0.00462963 </v>
   <v>       0.00462963 </v>
   <v>       0.00925926 </v>
   <v>       0.00462963 </v>
   <v>       0.00231481 </v>
   <v>       0.00462963 </v>
   <v>       0.00925926 </v>
   <v>       0.00925926 </v>
   <v>       0.00462963 </v>
   <v>       0.00462963 </v>
   <v>       0.00925926 </v>
   <v>       0.00925926 </v>
   <v>       0.00925926 </v>
   <v>       0.00462963 </v>
   <v>       0.00462963 </v>
   <v>       0.00925926 </v>
   <v>       0.00925926 </v>
   <v>       0.00925926 </v>
   <v>       0.00462963 </v>
   <v>       0.00462963 </v>
   <v>       0.00925926 </v>
   <v>       0.00925926 </v>
   <v>       0.00462963 </v>
   <v>       0.00462963 </v>
   <v>       0.00925926 </v>
   <v>       0.00462963 </v>
   <v>       0.00462963 </v>
   <v>       0.00462963 </v>
   <v>       0.00115741 </v>
   <v>       0.00462963 </v>
   <v>       0.00462963 </v>
   <v>       0.00231481 </v>
   <v>       0.00231481 </v>
   <v>       0.00462963 </v>
   <v>       0.00462963 </v>
   <v>       0.00462963 </v>
   <v>       0.00925926 </v>
   <v>       0.00462963 </v>
   <v>       0.00462963 </v>
   <v>       0.00925926 </v>
   <v>       0.00925926 </v>
   <v>       0.00462963 </v>
   <v>       0.00462963 </v>
   <v>       0.00925926 </v>
   <v>       0.00925926 </v>
   <v>       0.00462963 </v>
   <v>       0.00462963 </v>
   <v>       0.00925926 </v>
   <v>       0.00462963 </v>
   <v>       0.00462963 </v>
   <v>       0.00462963 </v>
   <v>       0.00115741 </v>
   <v>       0.00231481 </v>
   <v>       0.00462963 </v>
   <v>       0.00462963 </v>
   <v>       0.00462963 </v>
   <v>       0.00925926 </v>
   <v>       0.00462963 </v>
   <v>       0.00462963 </v>
   <v>       0.00925926 </v>
   <v>       0.00462963 </v>
   <v>       0.00462963 </v>
   <v>       0.00462963 </v>
   <v>       0.00115741 </v>
   <v>       0.00231481 </v>
   <v>       0.00462963 </v>
   <v>       0.00462963 </v>
   <v>       0.00462963 </v>
   <v>       0.00462963 </v>
   <v>       0.00115741 </v>
   <v>       0.00231481 </v>
   <v>       0.00115741 </v>
  </varray>
 </kpoints>
 <parameters>
  <separator name="general" >
   <i type="string" name="SYSTEM">unknown system</i>
   <i type="logical" name="LCOMPAT"> F  </i>
  </separator>
  <separator name="electronic" >
   <i type="string" name="PREC">normal</i>
   <i name="ENMAX">    350.00000000</i>
   <i name="ENAUG">    322.06900000</i>
   <i name="EDIFF">      0.00040000</i>
   <i type="int" name="IALGO">    38</i>
   <i type="int" name="IWAVPR">    11</i>
   <i type="int" name="NBANDS">     8</i>
   <i name="NELECT">      8.00000000</i>
   <i type="int" name="TURBO">     0</i>
   <i type="int" name="IRESTART">     0</i>
   <i type="int" name="NREBOOT">     0</i>
   <i type="int" name="NMIN">     0</i>
   <i name="EREF">      0.00000000</i>
   <separator name="electronic smearing" >
    <i type="int" name="ISMEAR">     0</i>
    <i name="SIGMA">      0.20000000</i>
    <i name="KSPACING">      0.50000000</i>
    <i type="logical" name="KGAMMA"> T  </i>
   </separator>
   <separator name="electronic projectors" >
    <i type="logical" name="LREAL"> F  </i>
    <v name="ROPT">      0.00000000</v>
    <i type="int" name="LMAXPAW">  -100</i>
    <i type="int" name="LMAXMIX">     2</i>
    <i type="logical" name="NLSPLINE"> F  </i>
   </separator>
   <separator name="electronic startup" >
    <i type="int" name="ISTART">     1</i>
    <i type="int" name="ICHARG">     0</i>
    <i type="int" name="INIWAV">     1</i>
   </separator>
   <separator name="electronic spin" >
    <i type="int" name="ISPIN">     1</i>
    <i type="logical" name="LNONCOLLINEAR"> F  </i>
    <v name="MAGMOM">      1.00000000      1.00000000</v>
    <i name="NUPDOWN">     -1.00000000</i>
    <i type="logical" name="LSORBIT"> F  </i>
    <v name="SAXIS">      0.00000000      0.00000000      1.00000000</v>
    <i type="logical" name="LSPIRAL"> F  </i>
    <v name="QSPIRAL">      0.00000000      0.00000000      0.00000000</v>
    <i type="logical" name="LZEROZ"> F  </i>
   </separator>
   <separator name="electronic exchange-correlation" >
    <i type="logical" name="LASPH"> F  </i>
    <i type="logical" name="LMETAGGA"> F  </i>
   </separator>
   <separator name="electronic convergence" >
    <i type="int" name="NELM">    60</i>
    <i type="int" name="NELMDL">     0</i>
    <i type="int" name="NELMIN">     2</i>
    <i name="ENINI">    350.00000000</i>
    <separator name="electronic convergence detail" >
     <i type="logical" name="LDIAG"> T  </i>
     <i type="logical" name="LSUBROT"> F  </i>
     <i name="WEIMIN">      0.00100000</i>
     <i name="EBREAK">      0.00001250</i>
     <i name="DEPER">      0.30000000</i>
     <i type="int" name="NRMM">     4</i>
     <i name="TIME">      0.40000000</i>
    </separator>
   </separator>
   <separator name="electronic mixer" >
    <i name="AMIX">      0.40000000</i>
    <i name="BMIX">      1.00000000</i>
    <i name="AMIN">      0.10000000</i>
    <i name="AMIX_MAG">      1.60000000</i>
    <i name="BMIX_MAG">      1.00000000</i>
    <separator name="electronic mixer details" >
     <i type="int" name="IMIX">     4</i>
     <i type="logical" name="MIXFIRST"> F  </i>
     <i type="int" name="MAXMIX">   -45</i>
     <i name="WC">    100.00000000</i>
     <i type="int" name="INIMIX">     1</i>
     <i type="int" name="MIXPRE">     1</i>
     <i type="int" name="MREMOVE">     5</i>
    </separator>
   </separator>
   <separator name="electronic dipolcorrection" >
    <i type="logical" name="LDIPOL"> F  </i>
    <i type="logical" name="LMONO"> F  </i>
    <i type="int" name="IDIPOL">     0</i>
    <i name="EPSILON">      1.00000000</i>
    <v name="DIPOL">   -100.00000000   -100.00000000   -100.00000000</v>
    <i name="EFIELD">      0.00000000</i>
   </separator>
  </separator>
  <separator name="grids" >
   <i type="int" name="NGX">    18</i>
   <i type="int" name="NGY">    18</i>
   <i type="int" name="NGZ">    18</i>
   <i type="int" name="NGXF">    36</i>
   <i type="int" name="NGYF">    36</i>
   <i type="int" name="NGZF">    36</i>
   <i type="logical" name="ADDGRID"> F  </i>
  </separator>
  <separator name="ionic" >
   <i type="int" name="NSW">    15</i>
   <i type="int" name="IBRION">     2</i>
   <i type="int" name="MDALGO">     0</i>
   <i type="int" name="ISIF">     2</i>
   <i name="PSTRESS">      0.00000000</i>
   <i name="EDIFFG">     -0.01000000</i>
   <i type="int" name="NFREE">     1</i>
   <i name="POTIM">      0.50000000</i>
   <i name="SMASS">     -3.00000000</i>
   <i name="SCALEE">      1.00000000</i>
  </separator>
  <separator name="ionic md" >
   <i name="TEBEG">      0.00010000</i>
   <i name="TEEND">      0.00010000</i>
   <i type="int" name="NBLOCK">     1</i>
   <i type="int" name="KBLOCK">    15</i>
   <i type="int" name="NPACO">   256</i>
   <i name="APACO">     16.00000000</i>
  </separator>
  <separator name="symmetry" >
   <i type="int" name="ISYM">     2</i>
   <i name="SYMPREC">      0.00001000</i>
  </separator>
  <separator name="dos" >
   <i type="int" name="LORBIT">     0</i>
   <v name="RWIGS">     -1.00000000</v>
   <i type="int" name="NEDOS">   301</i>
   <i name="EMIN">     10.00000000</i>
   <i name="EMAX">    -10.00000000</i>
   <i name="EFERMI">      0.00000000</i>
  </separator>
  <separator name="writing" >
   <i type="int" name="NWRITE">     2</i>
   <i type="logical" name="LWAVE"> T  </i>
   <i type="logical" name="LDOWNSAMPLE"> F  </i>
   <i type="logical" name="LCHARG"> T  </i>
   <i type="logical" name="LPARD"> F  </i>
   <i type="logical" name="LVTOT"> F  </i>
   <i type="logical" name="LVHAR"> F  </i>
   <i type="logical" name="LELF"> F  </i>
   <i type="logical" name="LOPTICS"> F  </i>
   <v name="STM">      0.00000000      0.00000000      0.00000000      0.00000000      0.00000000      0.00000000      0.00000000</v>
  </separator>
  <separator name="performance" >
   <i type="int" name="NPAR">     8</i>
   <i type="int" name="NSIM">     4</i>
   <i type="int" name="NBLK">    -1</i>
   <i type="logical" name="LPLANE"> T  </i>
   <i type="logical" name="LSCALAPACK"> T  </i>
   <i type="logical" name="LSCAAWARE"> F  </i>
   <i type="logical" name="LSCALU"> F  </i>
   <i type="logical" name="LASYNC"> F  </i>
   <i type="logical" name="LORBITALREAL"> F  </i>
  </separator>
  <separator name="miscellaneous" >
   <i type="int" name="IDIOT">     3</i>
   <i type="int" name="ISPECIAL">     0</i>
   <i type="logical" name="LMUSIC"> F  </i>
   <v name="POMASS">     28.08500000</v>
   <v name="DARWINR">      0.00000000</v>
   <v name="DARWINV">      1.00000000</v>
   <i type="logical" name="LCORR"> T  </i>
  </separator>
  <i type="logical" name="GGA_COMPAT"> T  </i>
  <i type="logical" name="LBERRY"> F  </i>
  <i type="int" name="ICORELEVEL">     0</i>
  <i type="logical" name="LDAU"> F  </i>
  <i type="int" name="I_CONSTRAINED_M">     0</i>
  <separator name="electronic exchange-correlation" >
   <i type="string" name="GGA">--</i>
   <i type="int" name="VOSKOWN">     0</i>
   <i type="logical" name="LHFCALC"> F  </i>
   <i type="string" name="PRECFOCK"></i>
   <i type="logical" name="LSYMGRAD"> F  </i>
   <i type="logical" name="LHFONE"> F  </i>
   <i type="logical" name="LRHFCALC"> F  </i>
   <i type="logical" name="LTHOMAS"> F  </i>
   <i type="logical" name="LMODELHF"> F  </i>
   <i name="ENCUT4O">     -1.00000000</i>
   <i type="int" name="EXXOEP">     0</i>
   <i type="int" name="FOURORBIT">     0</i>
   <i name="AEXX">      0.00000000</i>
   <i name="HFALPHA">      0.00000000</i>
   <i name="MCALPHA">      0.00000000</i>
   <i name="ALDAX">      1.00000000</i>
   <i name="AGGAX">      1.00000000</i>
   <i name="ALDAC">      1.00000000</i>
   <i name="AGGAC">      1.00000000</i>
   <i type="int" name="NKREDX">     1</i>
   <i type="int" name="NKREDY">     1</i>
   <i type="int" name="NKREDZ">     1</i>
   <i type="logical" name="SHIFTRED"> F  </i>
   <i type="logical" name="ODDONLY"> F  </i>
   <i type="logical" name="EVENONLY"> F  </i>
   <i type="int" name="LMAXFOCK">     0</i>
   <i type="int" name="NMAXFOCKAE">     0</i>
   <i type="logical" name="LFOCKAEDFT"> F  </i>
   <i name="HFSCREEN">      0.00000000</i>
   <i name="HFSCREENC">      0.00000000</i>
   <i type="int" name="NBANDSGWLOW">     0</i>
  </separator>
  <separator name="vdW DFT" >
   <i type="logical" name="LUSE_VDW"> F  </i>
   <i name="Zab_VDW">     -0.84910000</i>
   <i name="PARAM1">      0.12340000</i>
   <i name="PARAM2">      1.00000000</i>
   <i name="PARAM3">      0.00000000</i>
  </separator>
  <separator name="model GW" >
   <i type="int" name="MODEL_GW">     0</i>
   <i name="MODEL_EPS0">      9.17662200</i>
   <i name="MODEL_ALPHA">      1.00000000</i>
  </separator>
  <separator name="linear response parameters" >
   <i type="logical" name="LEPSILON"> F  </i>
   <i type="logical" name="LRPA"> F  </i>
   <i type="logical" name="LNABLA"> F  </i>
   <i type="logical" name="LVEL"> F  </i>
   <i type="int" name="KINTER">     0</i>
   <i name="CSHIFT">      0.10000000</i>
   <i name="OMEGAMAX">     -1.00000000</i>
   <i name="DEG_THRESHOLD">      0.00200000</i>
   <i name="RTIME">     -0.10000000</i>
   <i name="WPLASMAI">      0.00000000</i>
   <v name="DFIELD">      0.00000000      0.00000000      0.00000000</v>
   <v name="WPLASMA">      0.00000000      0.00000000      0.00000000      0.00000000      0.00000000      0.00000000      0.00000000      0.00000000      0.00000000</v>
  </separator>
  <separator name="orbital magnetization" >
   <i type="logical" name="NUCIND"> F  </i>
   <v name="MAGPOS">      0.00000000      0.00000000      0.00000000</v>
   <i type="logical" name="LNICSALL"> T  </i>
   <i type="logical" name="ORBITALMAG"> F  </i>
   <i type="logical" name="LMAGBLOCH"> F  </i>
   <i type="logical" name="LCHIMAG"> F  </i>
   <i type="logical" name="LGAUGE"> T  </i>
   <i type="int" name="MAGATOM">     0</i>
   <v name="MAGDIPOL">      0.00000000      0.00000000      0.00000000</v>
   <v name="AVECCONST">      0.00000000      0.00000000      0.00000000</v>
  </separator>
  <separator name="response functions" >
   <i type="logical" name="LADDER"> F  </i>
   <i type="logical" name="LRPAFORCE"> F  </i>
   <i type="logical" name="LFXC"> F  </i>
   <i type="logical" name="LHARTREE"> T  </i>
   <i type="int" name="IBSE">     0</i>
   <v type="int" name="KPOINT">    -1     0     0     0</v>
   <i type="logical" name="LTCTE"> F  </i>
   <i type="logical" name="LTETE"> F  </i>
   <i type="logical" name="LTRIPLET"> F  </i>
   <i type="logical" name="LFXCEPS"> F  </i>
   <i type="logical" name="LFXHEG"> F  </i>
   <i type="int" name="NATURALO">     2</i>
   <i type="logical" name="L2ORDER"> F  </i>
   <i type="logical" name="LMP2LT"> F  </i>
   <i type="logical" name="LUSEW"> F  </i>
   <i name="ENCUTGW">     -2.00000000</i>
   <i name="ENCUTGWSOFT">     -2.00000000</i>
   <i name="ENCUTLF">     -1.00000000</i>
   <i type="int" name="LMAXMP2">    -1</i>
   <i name="SCISSOR">      0.00000000</i>
   <i type="int" name="NOMEGA">     0</i>
   <i type="int" name="NOMEGAR">     0</i>
   <i type="int" name="NBANDSGW">    -1</i>
   <i type="int" name="NBANDSO">    -1</i>
   <i type="int" name="NBANDSV">    -1</i>
   <i type="int" name="NELM">     1</i>
   <i type="int" name="NELMHF">     1</i>
   <i type="int" name="DIM">     3</i>
   <i type="int" name="ANTIRES">     0</i>
   <i name="OMEGAMAX">    -30.00000000</i>
   <i name="OMEGAMIN">    -30.00000000</i>
   <i name="OMEGATL">   -200.00000000</i>
   <i type="int" name="OMEGAGRID">   140</i>
   <i name="CSHIFT">     -0.10000000</i>
   <i type="logical" name="SELFENERGY"> F  </i>
   <i type="logical" name="LSPECTRAL"> F  </i>
   <i type="logical" name="LSPECTRALGW"> F  </i>
   <i type="logical" name="LSINGLES"> F  </i>
   <i type="logical" name="LFERMIGW"> F  </i>
   <i type="logical" name="ODDONLYGW"> F  </i>
   <i type="logical" name="EVENONLYGW"> F  </i>
   <i type="int" name="NKREDLFX">     1</i>
   <i type="int" name="NKREDLFY">     1</i>
   <i type="int" name="NKREDLFZ">     1</i>
   <i type="int" name="MAXMEM">  2800</i>
   <i type="int" name="TELESCOPE">     0</i>
   <i type="int" name="TAUPAR">     1</i>
   <i type="int" name="OMEGAPAR">    -1</i>
   <i name="LAMBDA">      1.00000000</i>
  </separator>
  <separator name="External order field" >
   <i name="OFIELD_KAPPA">      0.00000000</i>
   <v name="OFIELD_K">      0.00000000      0.00000000      0.00000000</v>
   <i name="OFIELD_Q6_NEAR">      0.00000000</i>
   <i name="OFIELD_Q6_FAR">      0.00000000</i>
   <i name="OFIELD_A">      0.00000000</i>
  </separator>
 </parameters>
 <atominfo>
  <atoms>       2 </atoms>
  <types>       1 </types>
  <array name="atoms" >
   <dimension dim="1">ion</dimension>
   <field type="string">element</field>
   <field type="int">atomtype</field>
   <set>
    <rc><c>Si</c><c>   1</c></rc>
    <rc><c>Si</c><c>   1</c></rc>
   </set>
  </array>
  <array name="atomtypes" >
   <dimension dim="1">type</dimension>
   <field type="int">atomspertype</field>
   <field type="string">element</field>
   <field>mass</field>
   <field>valence</field>
   <field type="string">pseudopotential</field>
   <set>
    <rc><c>   2</c><c>Si</c><c>     28.08500000</c><c>      4.00000000</c><c> PAW_PBE Si 05Jan2001                   </c></rc>
   </set>
  </array>
 </atominfo>
 <structure name="initialpos" >
  <crystal>
   <varray name="basis" >
    <v>      -2.45000000       2.45000000       1.27400000 </v>
    <v>       2.45000000      -2.45000000       1.27400000 </v>
    <v>       2.45000000       2.45000000      -1.27400000 </v>
   </varray>
   <i name="volume">     30.58874000 </i>
   <varray name="rec_basis" >
    <v>       0.00000000       0.20408163       0.39246468 </v>
    <v>       0.20408163       0.00000000       0.39246468 </v>
    <v>       0.20408163       0.20408163      -0.00000000 </v>
   </varray>
  </crystal>
  <varray name="positions" >
   <v>       0.25000000       0.75000000       0.50000000 </v>
   <v>       0.00000000       0.00000000       0.00000000 </v>
  </varray>
 </structure>
 <calculation>
  <scstep>
   <time name="dav">    1.40    1.41</time>
   <time name="total">    1.60    1.62</time>
   <energy>
    <i name="alphaZ">      4.40202223 </i>
    <i name="ewald">   -265.18101312 </i>
    <i name="hartreedc">     -2.49409600 </i>
    <i name="XCdc">    -17.58324709 </i>
    <i name="pawpsdc">     70.15638564 </i>
    <i name="pawaedc">    -35.06743540 </i>
    <i name="eentropy">     -0.01401972 </i>
    <i name="bandstr">     29.39839862 </i>
    <i name="atom">    206.13125414 </i>
    <i name="e_fr_energy">    -10.25175069 </i>
    <i name="e_wo_entrp">    -10.23773097 </i>
    <i name="e_0_energy">    -10.24474083 </i>
   </energy>
  </scstep>
  <scstep>
   <time name="dav">    1.36    1.36</time>
   <time name="total">    1.40    1.42</time>
   <energy>
    <i name="alphaZ">      4.40202223 </i>
    <i name="ewald">   -265.18101312 </i>
    <i name="hartreedc">     -2.49422742 </i>
    <i name="XCdc">    -17.58322186 </i>
    <i name="pawpsdc">     70.15636265 </i>
    <i name="pawaedc">    -35.06741054 </i>
    <i name="eentropy">     -0.01401971 </i>
    <i name="bandstr">     29.39850291 </i>
    <i name="atom">    206.13125414 </i>
    <i name="e_fr_energy">    -10.25175072 </i>
    <i name="e_wo_entrp">    -10.23773101 </i>
    <i name="e_0_energy">    -10.24474086 </i>
   </energy>
  </scstep>
  <structure>
   <crystal>
    <varray name="basis" >
     <v>      -2.45000000       2.45000000       1.27400000 </v>
     <v>       2.45000000      -2.45000000       1.27400000 </v>
     <v>       2.45000000       2.45000000      -1.27400000 </v>
    </varray>
    <i name="volume">     30.58874000 </i>
    <varray name="rec_basis" >
     <v>       0.00000000       0.20408163       0.39246468 </v>
     <v>       0.20408163       0.00000000       0.39246468 </v>
     <v>       0.20408163       0.20408163      -0.00000000 </v>
    </varray>
   </crystal>
   <varray name="positions" >
    <v>       0.25000000       0.75000000       0.50000000 </v>
    <v>       0.00000000       0.00000000       0.00000000 </v>
   </varray>
  </structure>
  <varray name="forces" >
   <v>       0.00000000       0.00000000      -0.00000000 </v>
   <v>      -0.00000000      -0.00000000       0.00000000 </v>
  </varray>
  <varray name="stress" >
   <v>     -24.59544005       0.00000000       0.00000000 </v>
   <v>      -0.00000000     -24.59544005       0.00000000 </v>
   <v>       0.00000000       0.00000000      56.03249368 </v>
  </varray>
  <energy>
   <i name="e_fr_energy">    -10.25175072 </i>
   <i name="e_wo_entrp">    -10.24474086 </i>
   <i name="e_0_energy">     -0.01401971 </i>
  </energy>
  <time name="totalsc">    5.34    6.59</time>
  <eigenvalues>
   <array>
    <dimension dim="1">band</dimension>
    <dimension dim="2">kpoint</dimension>
    <dimension dim="3">spin</dimension>
    <field>eigene</field>
    <field>occ</field>
    <set>
     <set comment="spin 1">
      <set comment="kpoint 1">
       <r>   -4.3786    1.0000 </r>
       <r>    4.9589    1.0000 </r>
       <r>    6.5065    1.0000 </r>
       <r>    7.4965    1.0000 </r>
       <r>   11.1847    0.0000 </r>
       <r>   15.3354    0.0000 </r>
       <r>   16.4631    0.0000 </r>
       <r>   17.2946    0.0000 </r>
      </set>
      <set comment="kpoint 2">
       <r>   -3.7916    1.0000 </r>
       <r>    4.6327    1.0000 </r>
       <r>    6.6679    1.0000 </r>
       <r>    8.6200    0.9993 </r>
       <r>   12.2685    0.0000 </r>
       <r>   13.8690    0.0000 </r>
       <r>   14.1048    0.0000 </r>
       <r>   15.9879    0.0000 </r>
      </set>
      <set comment="kpoint 3">
       <r>   -2.8178    1.0000 </r>
       <r>    4.6288    1.0000 </r>
       <r>    6.8357    1.0000 </r>
       <r>    9.6381    0.0000 </r>
       <r>   11.4607    0.0000 </r>
       <r>   12.0812    0.0000 </r>
       <r>   13.8121    0.0000 </r>
       <r>   14.7343    0.0000 </r>
      </set>
      <set comment="kpoint 4">
       <r>   -1.4651    1.0000 </r>
       <r>    4.9663    1.0000 </r>
       <r>    7.1553    1.0000 </r>
       <r>    7.5369    1.0000 </r>
       <r>   10.0646    0.0000 </r>
       <r>   12.6274    0.0000 </r>
       <r>   13.1164    0.0000 </r>
       <r>   14.0777    0.0000 </r>
      </set>
      <set comment="kpoint 5">
       <r>    0.2520    1.0000 </r>
       <r>    4.7272    1.0000 </r>
       <r>    5.7491    1.0000 </r>
       <r>    7.5411    1.0000 </r>
       <r>    8.6853    0.9969 </r>
       <r>   11.3937    0.0000 </r>
       <r>   13.6516    0.0000 </r>
       <r>   14.3707    0.0000 </r>
      </set>
      <set comment="kpoint 6">
       <r>    2.0701    1.0000 </r>
       <r>    2.6233    1.0000 </r>
       <r>    6.5883    1.0000 </r>
       <r>    6.8257    1.0000 </r>
       <r>    8.6115    0.9994 </r>
       <r>   10.6453    0.0000 </r>
       <r>   13.5305    0.0000 </r>
       <r>   14.4919    0.0000 </r>
      </set>
      <set comment="kpoint 7">
       <r>   -4.5747    1.0000 </r>
       <r>    5.3357    1.0000 </r>
       <r>    6.1224    1.0000 </r>
       <r>    7.2106    1.0000 </r>
       <r>   10.7688    0.0000 </r>
       <r>   15.7278    0.0000 </r>
       <r>   17.3989    0.0000 </r>
       <r>   17.9135    0.0000 </r>
      </set>
      <set comment="kpoint 8">
       <r>   -2.8996    1.0000 </r>
       <r>    4.6281    1.0000 </r>
       <r>    7.7216    1.0000 </r>
       <r>    9.1204    0.3685 </r>
       <r>   11.5259    0.0000 </r>
       <r>   11.6623    0.0000 </r>
       <r>   13.8277    0.0000 </r>
       <r>   15.2448    0.0000 </r>
      </set>
      <set comment="kpoint 9">
       <r>   -1.6271    1.0000 </r>
       <r>    4.9208    1.0000 </r>
       <r>    7.9335    1.0000 </r>
       <r>    8.3019    1.0000 </r>
       <r>    9.6442    0.0000 </r>
       <r>   11.4411    0.0000 </r>
       <r>   13.5794    0.0000 </r>
       <r>   14.3072    0.0000 </r>
      </set>
      <set comment="kpoint 10">
       <r>    0.0135    1.0000 </r>
       <r>    5.3046    1.0000 </r>
       <r>    5.7164    1.0000 </r>
       <r>    7.0872    1.0000 </r>
       <r>    9.4881    0.0017 </r>
       <r>   11.9332    0.0000 </r>
       <r>   13.0662    0.0000 </r>
       <r>   13.9860    0.0000 </r>
      </set>
      <set comment="kpoint 11">
       <r>    1.9550    1.0000 </r>
       <r>    3.0459    1.0000 </r>
       <r>    5.6801    1.0000 </r>
       <r>    6.5157    1.0000 </r>
       <r>    9.5077    0.0011 </r>
       <r>   11.4085    0.0000 </r>
       <r>   12.8725    0.0000 </r>
       <r>   15.2421    0.0000 </r>
      </set>
      <set comment="kpoint 12">
       <r>    0.8079    1.0000 </r>
       <r>    4.2125    1.0000 </r>
       <r>    4.7227    1.0000 </r>
       <r>    7.5213    1.0000 </r>
       <r>    9.0134    0.6630 </r>
       <r>   12.0817    0.0000 </r>
       <r>   13.0131    0.0000 </r>
       <r>   15.2635    0.0000 </r>
      </set>
      <set comment="kpoint 13">
       <r>   -0.9794    1.0000 </r>
       <r>    3.7043    1.0000 </r>
       <r>    7.0016    1.0000 </r>
       <r>    7.5945    1.0000 </r>
       <r>    9.8419    0.0000 </r>
       <r>   12.6708    0.0000 </r>
       <r>   13.2772    0.0000 </r>
       <r>   14.4958    0.0000 </r>
      </set>
      <set comment="kpoint 14">
       <r>   -2.4090    1.0000 </r>
       <r>    3.2718    1.0000 </r>
       <r>    7.1506    1.0000 </r>
       <r>    9.6402    0.0000 </r>
       <r>   11.4641    0.0000 </r>
       <r>   11.7132    0.0000 </r>
       <r>   13.5021    0.0000 </r>
       <r>   15.5761    0.0000 </r>
      </set>
      <set comment="kpoint 15">
       <r>   -3.4624    1.0000 </r>
       <r>    3.1957    1.0000 </r>
       <r>    6.9547    1.0000 </r>
       <r>    9.2640    0.0883 </r>
       <r>   12.7514    0.0000 </r>
       <r>   13.5354    0.0000 </r>
       <r>   13.9704    0.0000 </r>
       <r>   15.3866    0.0000 </r>
      </set>
      <set comment="kpoint 16">
       <r>   -4.1308    1.0000 </r>
       <r>    3.4717    1.0000 </r>
       <r>    6.7352    1.0000 </r>
       <r>    8.2399    1.0000 </r>
       <r>   12.5563    0.0000 </r>
       <r>   13.8960    0.0000 </r>
       <r>   15.4487    0.0000 </r>
       <r>   17.0477    0.0000 </r>
      </set>
      <set comment="kpoint 17">
       <r>   -4.4093    1.0000 </r>
       <r>    4.0550    1.0000 </r>
       <r>    6.1320    1.0000 </r>
       <r>    8.1186    1.0000 </r>
       <r>   11.7189    0.0000 </r>
       <r>   14.2464    0.0000 </r>
       <r>   16.4772    0.0000 </r>
       <r>   18.9811    0.0000 </r>
      </set>
      <set comment="kpoint 18">
       <r>   -4.2960    1.0000 </r>
       <r>    4.6500    1.0000 </r>
       <r>    5.8304    1.0000 </r>
       <r>    8.3704    1.0000 </r>
       <r>   11.5848    0.0000 </r>
       <r>   14.3443    0.0000 </r>
       <r>   16.5438    0.0000 </r>
       <r>   17.4826    0.0000 </r>
      </set>
      <set comment="kpoint 19">
       <r>   -0.0662    1.0000 </r>
       <r>    5.4572    1.0000 </r>
       <r>    6.2489    1.0000 </r>
       <r>    6.3004    1.0000 </r>
       <r>   10.1876    0.0000 </r>
       <r>   12.4156    0.0000 </r>
       <r>   12.7051    0.0000 </r>
       <r>   12.9848    0.0000 </r>
      </set>
      <set comment="kpoint 20">
       <r>    1.8263    1.0000 </r>
       <r>    3.7805    1.0000 </r>
       <r>    4.6760    1.0000 </r>
       <r>    6.4137    1.0000 </r>
       <r>   10.2373    0.0000 </r>
       <r>   11.6524    0.0000 </r>
       <r>   13.0205    0.0000 </r>
       <r>   14.5880    0.0000 </r>
      </set>
      <set comment="kpoint 21">
       <r>    1.5154    1.0000 </r>
       <r>    3.3305    1.0000 </r>
       <r>    4.2649    1.0000 </r>
       <r>    7.4794    1.0000 </r>
       <r>    9.5095    0.0010 </r>
       <r>   11.4220    0.0000 </r>
       <r>   13.9720    0.0000 </r>
       <r>   15.8227    0.0000 </r>
      </set>
      <set comment="kpoint 22">
       <r>   -0.3352    1.0000 </r>
       <r>    2.4992    1.0000 </r>
       <r>    6.7406    1.0000 </r>
       <r>    8.0090    1.0000 </r>
       <r>    9.6367    0.0000 </r>
       <r>   11.6894    0.0000 </r>
       <r>   13.9686    0.0000 </r>
       <r>   15.5240    0.0000 </r>
      </set>
      <set comment="kpoint 23">
       <r>   -1.8388    1.0000 </r>
       <r>    1.9799    1.0000 </r>
       <r>    7.6377    1.0000 </r>
       <r>    9.4609    0.0030 </r>
       <r>   10.8520    0.0000 </r>
       <r>   12.0624    0.0000 </r>
       <r>   12.7426    0.0000 </r>
       <r>   15.4107    0.0000 </r>
      </set>
      <set comment="kpoint 24">
       <r>   -2.9701    1.0000 </r>
       <r>    1.8270    1.0000 </r>
       <r>    7.4034    1.0000 </r>
       <r>    9.8448    0.0000 </r>
       <r>   11.7192    0.0000 </r>
       <r>   13.0795    0.0000 </r>
       <r>   14.3993    0.0000 </r>
       <r>   14.9489    0.0000 </r>
      </set>
      <set comment="kpoint 25">
       <r>   -3.7188    1.0000 </r>
       <r>    2.0407    1.0000 </r>
       <r>    7.1161    1.0000 </r>
       <r>    8.8427    0.9482 </r>
       <r>   12.5115    0.0000 </r>
       <r>   14.2906    0.0000 </r>
       <r>   14.3995    0.0000 </r>
       <r>   16.7461    0.0000 </r>
      </set>
      <set comment="kpoint 26">
       <r>   -4.0791    1.0000 </r>
       <r>    2.6071    1.0000 </r>
       <r>    6.4235    1.0000 </r>
       <r>    8.7817    0.9803 </r>
       <r>   12.7912    0.0000 </r>
       <r>   13.3753    0.0000 </r>
       <r>   15.2330    0.0000 </r>
       <r>   19.2066    0.0000 </r>
      </set>
      <set comment="kpoint 27">
       <r>   -4.0484    1.0000 </r>
       <r>    3.4712    1.0000 </r>
       <r>    5.7632    1.0000 </r>
       <r>    9.2672    0.0848 </r>
       <r>   12.7778    0.0000 </r>
       <r>   12.9337    0.0000 </r>
       <r>   15.9488    0.0000 </r>
       <r>   17.1586    0.0000 </r>
      </set>
      <set comment="kpoint 28">
       <r>   -3.6270    1.0000 </r>
       <r>    4.3301    1.0000 </r>
       <r>    5.7149    1.0000 </r>
       <r>    9.7427    0.0000 </r>
       <r>   12.9256    0.0000 </r>
       <r>   13.0123    0.0000 </r>
       <r>   13.6196    0.0000 </r>
       <r>   15.8550    0.0000 </r>
      </set>
      <set comment="kpoint 29">
       <r>    2.3323    1.0000 </r>
       <r>    2.3997    1.0000 </r>
       <r>    4.1636    1.0000 </r>
       <r>    7.4562    1.0000 </r>
       <r>    9.9194    0.0000 </r>
       <r>   10.8645    0.0000 </r>
       <r>   15.1647    0.0000 </r>
       <r>   15.3242    0.0000 </r>
      </set>
      <set comment="kpoint 30">
       <r>    0.4638    1.0000 </r>
       <r>    1.4121    1.0000 </r>
       <r>    6.6011    1.0000 </r>
       <r>    8.3751    1.0000 </r>
       <r>    9.5397    0.0005 </r>
       <r>   11.0089    0.0000 </r>
       <r>   14.6013    0.0000 </r>
       <r>   15.7728    0.0000 </r>
      </set>
      <set comment="kpoint 31">
       <r>   -1.1098    1.0000 </r>
       <r>    0.8074    1.0000 </r>
       <r>    8.2487    1.0000 </r>
       <r>    9.2622    0.0903 </r>
       <r>   10.1272    0.0000 </r>
       <r>   12.1327    0.0000 </r>
       <r>   12.8232    0.0000 </r>
       <r>   14.5786    0.0000 </r>
      </set>
      <set comment="kpoint 32">
       <r>   -2.3166    1.0000 </r>
       <r>    0.5755    1.0000 </r>
       <r>    8.0018    1.0000 </r>
       <r>   10.3877    0.0000 </r>
       <r>   10.7273    0.0000 </r>
       <r>   12.5966    0.0000 </r>
       <r>   14.0855    0.0000 </r>
       <r>   14.2032    0.0000 </r>
      </set>
      <set comment="kpoint 33">
       <r>   -3.1440    1.0000 </r>
       <r>    0.7184    1.0000 </r>
       <r>    7.6486    1.0000 </r>
       <r>    9.4817    0.0019 </r>
       <r>   11.2626    0.0000 </r>
       <r>   13.1393    0.0000 </r>
       <r>   16.0203    0.0000 </r>
       <r>   16.4940    0.0000 </r>
      </set>
      <set comment="kpoint 34">
       <r>   -3.5852    1.0000 </r>
       <r>    1.2304    1.0000 </r>
       <r>    6.8816    1.0000 </r>
       <r>    9.3977    0.0108 </r>
       <r>   11.4506    0.0000 </r>
       <r>   14.0066    0.0000 </r>
       <r>   15.3861    0.0000 </r>
       <r>   18.9701    0.0000 </r>
      </set>
      <set comment="kpoint 35">
       <r>   -3.6369    1.0000 </r>
       <r>    2.0934    1.0000 </r>
       <r>    6.0952    1.0000 </r>
       <r>    9.9402    0.0000 </r>
       <r>   11.5418    0.0000 </r>
       <r>   14.4923    0.0000 </r>
       <r>   15.1490    0.0000 </r>
       <r>   16.5947    0.0000 </r>
      </set>
      <set comment="kpoint 36">
       <r>   -3.2986    1.0000 </r>
       <r>    3.2453    1.0000 </r>
       <r>    5.6393    1.0000 </r>
       <r>   10.5346    0.0000 </r>
       <r>   11.7876    0.0000 </r>
       <r>   13.1446    0.0000 </r>
       <r>   14.2745    0.0000 </r>
       <r>   15.7648    0.0000 </r>
      </set>
      <set comment="kpoint 37">
       <r>   -2.5728    1.0000 </r>
       <r>    4.3776    1.0000 </r>
       <r>    5.8666    1.0000 </r>
       <r>    9.5994    0.0001 </r>
       <r>   11.7881    0.0000 </r>
       <r>   12.3218    0.0000 </r>
       <r>   14.1087    0.0000 </r>
       <r>   14.2108    0.0000 </r>
      </set>
      <set comment="kpoint 38">
       <r>   -0.2280    1.0000 </r>
       <r>   -0.2236    1.0000 </r>
       <r>    8.8666    0.9277 </r>
       <r>    8.9107    0.8743 </r>
       <r>    9.7347    0.0000 </r>
       <r>   12.0250    0.0000 </r>
       <r>   13.2906    0.0000 </r>
       <r>   13.9825    0.0000 </r>
      </set>
      <set comment="kpoint 39">
       <r>   -1.5047    1.0000 </r>
       <r>   -0.5385    1.0000 </r>
       <r>    8.7421    0.9903 </r>
       <r>    9.6156    0.0001 </r>
       <r>   11.1570    0.0000 </r>
       <r>   12.0354    0.0000 </r>
       <r>   13.6734    0.0000 </r>
       <r>   14.0174    0.0000 </r>
      </set>
      <set comment="kpoint 40">
       <r>   -2.4087    1.0000 </r>
       <r>   -0.4715    1.0000 </r>
       <r>    8.3316    1.0000 </r>
       <r>   10.1231    0.0000 </r>
       <r>   10.2430    0.0000 </r>
       <r>   12.0602    0.0000 </r>
       <r>   16.3057    0.0000 </r>
       <r>   16.3360    0.0000 </r>
      </set>
      <set comment="kpoint 41">
       <r>   -2.9296    1.0000 </r>
       <r>   -0.0268    1.0000 </r>
       <r>    7.4956    1.0000 </r>
       <r>   10.0870    0.0000 </r>
       <r>   10.2440    0.0000 </r>
       <r>   12.8578    0.0000 </r>
       <r>   17.4740    0.0000 </r>
       <r>   18.8277    0.0000 </r>
      </set>
      <set comment="kpoint 42">
       <r>   -3.0629    1.0000 </r>
       <r>    0.7867    1.0000 </r>
       <r>    6.6201    1.0000 </r>
       <r>   10.2701    0.0000 </r>
       <r>   10.6013    0.0000 </r>
       <r>   14.0728    0.0000 </r>
       <r>   15.8905    0.0000 </r>
       <r>   16.7128    0.0000 </r>
      </set>
      <set comment="kpoint 43">
       <r>   -2.8076    1.0000 </r>
       <r>    1.9472    1.0000 </r>
       <r>    6.0199    1.0000 </r>
       <r>   10.4474    0.0000 </r>
       <r>   11.1154    0.0000 </r>
       <r>   12.9172    0.0000 </r>
       <r>   15.0922    0.0000 </r>
       <r>   16.3511    0.0000 </r>
      </set>
      <set comment="kpoint 44">
       <r>   -2.1654    1.0000 </r>
       <r>    3.3859    1.0000 </r>
       <r>    5.8212    1.0000 </r>
       <r>    9.2470    0.1091 </r>
       <r>   10.9202    0.0000 </r>
       <r>   12.9442    0.0000 </r>
       <r>   13.6889    0.0000 </r>
       <r>   15.3920    0.0000 </r>
      </set>
      <set comment="kpoint 45">
       <r>   -1.1418    1.0000 </r>
       <r>    4.7739    1.0000 </r>
       <r>    6.3130    1.0000 </r>
       <r>    6.9414    1.0000 </r>
       <r>   10.3618    0.0000 </r>
       <r>   12.9044    0.0000 </r>
       <r>   12.9412    0.0000 </r>
       <r>   14.2224    0.0000 </r>
      </set>
      <set comment="kpoint 46">
       <r>   -1.5163    1.0000 </r>
       <r>   -1.5163    1.0000 </r>
       <r>    9.1635    0.2610 </r>
       <r>    9.1635    0.2610 </r>
       <r>   11.0843    0.0000 </r>
       <r>   11.0843    0.0000 </r>
       <r>   16.2842    0.0000 </r>
       <r>   16.2842    0.0000 </r>
      </set>
      <set comment="kpoint 47">
       <r>   -2.1150    1.0000 </r>
       <r>   -1.1453    1.0000 </r>
       <r>    8.2626    1.0000 </r>
       <r>    9.1799    0.2247 </r>
       <r>   10.8893    0.0000 </r>
       <r>   11.8141    0.0000 </r>
       <r>   18.6215    0.0000 </r>
       <r>   18.6996    0.0000 </r>
      </set>
      <set comment="kpoint 48">
       <r>   -2.3288    1.0000 </r>
       <r>   -0.3967    1.0000 </r>
       <r>    7.3084    1.0000 </r>
       <r>    9.1418    0.3129 </r>
       <r>   11.3242    0.0000 </r>
       <r>   13.0918    0.0000 </r>
       <r>   15.7652    0.0000 </r>
       <r>   17.1093    0.0000 </r>
      </set>
      <set comment="kpoint 49">
       <r>   -2.1560    1.0000 </r>
       <r>    0.7181    1.0000 </r>
       <r>    6.6090    1.0000 </r>
       <r>    9.3120    0.0455 </r>
       <r>   11.3441    0.0000 </r>
       <r>   13.0258    0.0000 </r>
       <r>   14.9749    0.0000 </r>
       <r>   15.4253    0.0000 </r>
      </set>
      <set comment="kpoint 50">
       <r>   -1.5977    1.0000 </r>
       <r>    2.1730    1.0000 </r>
       <r>    6.2535    1.0000 </r>
       <r>    8.9098    0.8756 </r>
       <r>    9.8434    0.0000 </r>
       <r>   13.1010    0.0000 </r>
       <r>   13.8546    0.0000 </r>
       <r>   16.4441    0.0000 </r>
      </set>
      <set comment="kpoint 51">
       <r>   -0.6590    1.0000 </r>
       <r>    3.8824    1.0000 </r>
       <r>    6.2535    1.0000 </r>
       <r>    6.5663    1.0000 </r>
       <r>   10.0054    0.0000 </r>
       <r>   12.0455    0.0000 </r>
       <r>   13.6887    0.0000 </r>
       <r>   15.2479    0.0000 </r>
      </set>
      <set comment="kpoint 52">
       <r>    0.6474    1.0000 </r>
       <r>    4.2032    1.0000 </r>
       <r>    5.6502    1.0000 </r>
       <r>    7.0144    1.0000 </r>
       <r>    8.9395    0.8272 </r>
       <r>   11.3922    0.0000 </r>
       <r>   12.5837    0.0000 </r>
       <r>   15.4577    0.0000 </r>
      </set>
      <set comment="kpoint 53">
       <r>   -1.4388    1.0000 </r>
       <r>   -1.4378    1.0000 </r>
       <r>    8.1421    1.0000 </r>
       <r>    8.1594    1.0000 </r>
       <r>   12.0581    0.0000 </r>
       <r>   12.2631    0.0000 </r>
       <r>   15.6934    0.0000 </r>
       <r>   17.1008    0.0000 </r>
      </set>
      <set comment="kpoint 54">
       <r>   -1.3472    1.0000 </r>
       <r>   -0.3862    1.0000 </r>
       <r>    7.3636    1.0000 </r>
       <r>    8.2696    1.0000 </r>
       <r>   11.4157    0.0000 </r>
       <r>   13.4221    0.0000 </r>
       <r>   14.6276    0.0000 </r>
       <r>   14.8712    0.0000 </r>
      </set>
      <set comment="kpoint 55">
       <r>   -0.8726    1.0000 </r>
       <r>    1.0266    1.0000 </r>
       <r>    6.8955    1.0000 </r>
       <r>    8.4883    1.0000 </r>
       <r>    9.0123    0.6658 </r>
       <r>   12.9333    0.0000 </r>
       <r>   14.5018    0.0000 </r>
       <r>   16.2730    0.0000 </r>
      </set>
      <set comment="kpoint 56">
       <r>   -0.0194    1.0000 </r>
       <r>    2.7643    1.0000 </r>
       <r>    6.1417    1.0000 </r>
       <r>    6.8596    1.0000 </r>
       <r>    9.2370    0.1229 </r>
       <r>   11.5229    0.0000 </r>
       <r>   14.8072    0.0000 </r>
       <r>   16.0782    0.0000 </r>
      </set>
      <set comment="kpoint 57">
       <r>    1.1956    1.0000 </r>
       <r>    3.8010    1.0000 </r>
       <r>    4.8687    1.0000 </r>
       <r>    7.0762    1.0000 </r>
       <r>    9.0069    0.6796 </r>
       <r>   11.3746    0.0000 </r>
       <r>   12.3029    0.0000 </r>
       <r>   16.4715    0.0000 </r>
      </set>
      <set comment="kpoint 58">
       <r>    1.7965    1.0000 </r>
       <r>    2.8935    1.0000 </r>
       <r>    6.6362    1.0000 </r>
       <r>    7.7153    1.0000 </r>
       <r>    7.8193    1.0000 </r>
       <r>   10.4817    0.0000 </r>
       <r>   12.6746    0.0000 </r>
       <r>   15.3238    0.0000 </r>
      </set>
      <set comment="kpoint 59">
       <r>    0.0006    1.0000 </r>
       <r>    0.0097    1.0000 </r>
       <r>    7.6761    1.0000 </r>
       <r>    7.6896    1.0000 </r>
       <r>    8.8239    0.9608 </r>
       <r>   12.8664    0.0000 </r>
       <r>   14.9924    0.0000 </r>
       <r>   15.7889    0.0000 </r>
      </set>
      <set comment="kpoint 60">
       <r>    0.7721    1.0000 </r>
       <r>    1.7068    1.0000 </r>
       <r>    6.0062    1.0000 </r>
       <r>    7.5124    1.0000 </r>
       <r>    8.3832    1.0000 </r>
       <r>   11.2921    0.0000 </r>
       <r>   15.8699    0.0000 </r>
       <r>   16.6582    0.0000 </r>
      </set>
      <set comment="kpoint 61">
       <r>    1.8869    1.0000 </r>
       <r>    3.4321    1.0000 </r>
       <r>    3.9847    1.0000 </r>
       <r>    7.5172    1.0000 </r>
       <r>    8.7961    0.9748 </r>
       <r>   10.6211    0.0000 </r>
       <r>   13.5126    0.0000 </r>
       <r>   16.3812    0.0000 </r>
      </set>
      <set comment="kpoint 62">
       <r>    1.5126    1.0000 </r>
       <r>    3.4775    1.0000 </r>
       <r>    6.0149    1.0000 </r>
       <r>    7.4448    1.0000 </r>
       <r>    8.5586    0.9999 </r>
       <r>   10.9621    0.0000 </r>
       <r>   11.7603    0.0000 </r>
       <r>   15.5001    0.0000 </r>
      </set>
      <set comment="kpoint 63">
       <r>   -0.1476    1.0000 </r>
       <r>    5.2723    1.0000 </r>
       <r>    6.6270    1.0000 </r>
       <r>    7.7223    1.0000 </r>
       <r>    8.3859    1.0000 </r>
       <r>   10.9392    0.0000 </r>
       <r>   13.0143    0.0000 </r>
       <r>   14.4351    0.0000 </r>
      </set>
      <set comment="kpoint 64">
       <r>    2.6203    1.0000 </r>
       <r>    2.7788    1.0000 </r>
       <r>    3.7035    1.0000 </r>
       <r>    7.8380    1.0000 </r>
       <r>    8.5796    0.9998 </r>
       <r>   10.3246    0.0000 </r>
       <r>   14.6187    0.0000 </r>
       <r>   15.4254    0.0000 </r>
      </set>
      <set comment="kpoint 65">
       <r>    1.3629    1.0000 </r>
       <r>    4.2228    1.0000 </r>
       <r>    5.0949    1.0000 </r>
       <r>    7.4218    1.0000 </r>
       <r>    9.1324    0.3369 </r>
       <r>   10.6269    0.0000 </r>
       <r>   12.4422    0.0000 </r>
       <r>   14.1520    0.0000 </r>
      </set>
      <set comment="kpoint 66">
       <r>   -0.3883    1.0000 </r>
       <r>    5.9316    1.0000 </r>
       <r>    6.8265    1.0000 </r>
       <r>    7.4695    1.0000 </r>
       <r>    8.8879    0.9046 </r>
       <r>   11.2145    0.0000 </r>
       <r>   12.0170    0.0000 </r>
       <r>   13.3924    0.0000 </r>
      </set>
      <set comment="kpoint 67">
       <r>   -1.7900    1.0000 </r>
       <r>    6.0053    1.0000 </r>
       <r>    7.2700    1.0000 </r>
       <r>    8.0041    1.0000 </r>
       <r>   10.0679    0.0000 </r>
       <r>   12.0058    0.0000 </r>
       <r>   12.4426    0.0000 </r>
       <r>   14.2806    0.0000 </r>
      </set>
      <set comment="kpoint 68">
       <r>   -0.4686    1.0000 </r>
       <r>    6.6379    1.0000 </r>
       <r>    6.7192    1.0000 </r>
       <r>    6.8580    1.0000 </r>
       <r>    9.5056    0.0011 </r>
       <r>   11.3817    0.0000 </r>
       <r>   12.1344    0.0000 </r>
       <r>   12.1791    0.0000 </r>
      </set>
      <set comment="kpoint 69">
       <r>   -1.9528    1.0000 </r>
       <r>    6.2958    1.0000 </r>
       <r>    7.9981    1.0000 </r>
       <r>    8.5309    0.9999 </r>
       <r>    9.7303    0.0000 </r>
       <r>   11.0147    0.0000 </r>
       <r>   12.7020    0.0000 </r>
       <r>   13.4766    0.0000 </r>
      </set>
      <set comment="kpoint 70">
       <r>   -3.0638    1.0000 </r>
       <r>    5.7825    1.0000 </r>
       <r>    6.8951    1.0000 </r>
       <r>    9.1585    0.2725 </r>
       <r>   11.6368    0.0000 </r>
       <r>   12.3642    0.0000 </r>
       <r>   12.6988    0.0000 </r>
       <r>   14.8977    0.0000 </r>
      </set>
      <set comment="kpoint 71">
       <r>   -3.1458    1.0000 </r>
       <r>    6.0796    1.0000 </r>
       <r>    7.5167    1.0000 </r>
       <r>    8.4726    1.0000 </r>
       <r>   11.8921    0.0000 </r>
       <r>   12.0845    0.0000 </r>
       <r>   12.5303    0.0000 </r>
       <r>   14.8921    0.0000 </r>
      </set>
      <set comment="kpoint 72">
       <r>   -3.9564    1.0000 </r>
       <r>    5.9004    1.0000 </r>
       <r>    6.6552    1.0000 </r>
       <r>    7.7349    1.0000 </r>
       <r>   11.3805    0.0000 </r>
       <r>   14.3808    0.0000 </r>
       <r>   14.5810    0.0000 </r>
       <r>   16.6340    0.0000 </r>
      </set>
      <set comment="kpoint 73">
       <r>   -4.4612    1.0000 </r>
       <r>    6.3259    1.0000 </r>
       <r>    6.4303    1.0000 </r>
       <r>    6.4303    1.0000 </r>
       <r>   10.6709    0.0000 </r>
       <r>   16.4547    0.0000 </r>
       <r>   16.9612    0.0000 </r>
       <r>   17.3463    0.0000 </r>
      </set>
      <set comment="kpoint 74">
       <r>   -2.4903    1.0000 </r>
       <r>    3.2192    1.0000 </r>
       <r>    8.0529    1.0000 </r>
       <r>    9.5426    0.0004 </r>
       <r>   11.1763    0.0000 </r>
       <r>   11.2941    0.0000 </r>
       <r>   14.3102    0.0000 </r>
       <r>   15.0747    0.0000 </r>
      </set>
      <set comment="kpoint 75">
       <r>   -1.1401    1.0000 </r>
       <r>    3.5875    1.0000 </r>
       <r>    7.6697    1.0000 </r>
       <r>    8.2149    1.0000 </r>
       <r>    9.7629    0.0000 </r>
       <r>   11.9203    0.0000 </r>
       <r>   13.8918    0.0000 </r>
       <r>   14.7819    0.0000 </r>
      </set>
      <set comment="kpoint 76">
       <r>    0.5731    1.0000 </r>
       <r>    4.2650    1.0000 </r>
       <r>    5.1510    1.0000 </r>
       <r>    6.7978    1.0000 </r>
       <r>   10.1024    0.0000 </r>
       <r>   12.9044    0.0000 </r>
       <r>   13.8283    0.0000 </r>
       <r>   14.1270    0.0000 </r>
      </set>
      <set comment="kpoint 77">
       <r>    2.3904    1.0000 </r>
       <r>    2.9216    1.0000 </r>
       <r>    5.2969    1.0000 </r>
       <r>    5.5555    1.0000 </r>
       <r>   10.5537    0.0000 </r>
       <r>   12.2521    0.0000 </r>
       <r>   13.8805    0.0000 </r>
       <r>   14.4151    0.0000 </r>
      </set>
      <set comment="kpoint 78">
       <r>   -4.2443    1.0000 </r>
       <r>    3.7476    1.0000 </r>
       <r>    5.1591    1.0000 </r>
       <r>    9.3372    0.0308 </r>
       <r>   12.3656    0.0000 </r>
       <r>   12.8334    0.0000 </r>
       <r>   17.6696    0.0000 </r>
       <r>   17.9987    0.0000 </r>
      </set>
      <set comment="kpoint 79">
       <r>    0.4945    1.0000 </r>
       <r>    4.2230    1.0000 </r>
       <r>    5.9036    1.0000 </r>
       <r>    5.9386    1.0000 </r>
       <r>   10.9015    0.0000 </r>
       <r>   12.9886    0.0000 </r>
       <r>   13.8949    0.0000 </r>
       <r>   13.9768    0.0000 </r>
      </set>
      <set comment="kpoint 80">
       <r>    2.4230    1.0000 </r>
       <r>    3.4915    1.0000 </r>
       <r>    4.3752    1.0000 </r>
       <r>    5.3290    1.0000 </r>
       <r>   11.3936    0.0000 </r>
       <r>   12.9540    0.0000 </r>
       <r>   13.7516    0.0000 </r>
       <r>   14.7195    0.0000 </r>
      </set>
      <set comment="kpoint 81">
       <r>    1.2872    1.0000 </r>
       <r>    3.1520    1.0000 </r>
       <r>    4.9033    1.0000 </r>
       <r>    6.6122    1.0000 </r>
       <r>   10.7886    0.0000 </r>
       <r>   12.7308    0.0000 </r>
       <r>   14.1041    0.0000 </r>
       <r>   15.0187    0.0000 </r>
      </set>
      <set comment="kpoint 82">
       <r>   -0.4939    1.0000 </r>
       <r>    2.3593    1.0000 </r>
       <r>    7.4333    1.0000 </r>
       <r>    8.1152    1.0000 </r>
       <r>   10.1823    0.0000 </r>
       <r>   12.4132    0.0000 </r>
       <r>   12.9730    0.0000 </r>
       <r>   14.7655    0.0000 </r>
      </set>
      <set comment="kpoint 83">
       <r>   -1.9194    1.0000 </r>
       <r>    1.9120    1.0000 </r>
       <r>    8.4872    1.0000 </r>
       <r>    9.7516    0.0000 </r>
       <r>   10.9479    0.0000 </r>
       <r>   11.2017    0.0000 </r>
       <r>   13.1918    0.0000 </r>
       <r>   14.3332    0.0000 </r>
      </set>
      <set comment="kpoint 84">
       <r>   -3.9148    1.0000 </r>
       <r>    2.6557    1.0000 </r>
       <r>    5.0796    1.0000 </r>
       <r>   10.2766    0.0000 </r>
       <r>   11.3857    0.0000 </r>
       <r>   13.7561    0.0000 </r>
       <r>   16.6747    0.0000 </r>
       <r>   18.5686    0.0000 </r>
      </set>
      <set comment="kpoint 85">
       <r>   -3.8018    1.0000 </r>
       <r>    3.2122    1.0000 </r>
       <r>    4.7531    1.0000 </r>
       <r>   10.5719    0.0000 </r>
       <r>   11.4805    0.0000 </r>
       <r>   13.6029    0.0000 </r>
       <r>   15.7062    0.0000 </r>
       <r>   17.8907    0.0000 </r>
      </set>
      <set comment="kpoint 86">
       <r>    2.1365    1.0000 </r>
       <r>    2.1642    1.0000 </r>
       <r>    4.8238    1.0000 </r>
       <r>    6.5486    1.0000 </r>
       <r>   11.3221    0.0000 </r>
       <r>   12.1115    0.0000 </r>
       <r>   14.5422    0.0000 </r>
       <r>   15.5558    0.0000 </r>
      </set>
      <set comment="kpoint 87">
       <r>    0.3084    1.0000 </r>
       <r>    1.2620    1.0000 </r>
       <r>    7.3066    1.0000 </r>
       <r>    8.0423    1.0000 </r>
       <r>   10.7971    0.0000 </r>
       <r>   11.8436    0.0000 </r>
       <r>   13.2332    0.0000 </r>
       <r>   14.1808    0.0000 </r>
      </set>
      <set comment="kpoint 88">
       <r>   -1.1892    1.0000 </r>
       <r>    0.7331    1.0000 </r>
       <r>    8.9699    0.7668 </r>
       <r>    9.6772    0.0000 </r>
       <r>   10.9126    0.0000 </r>
       <r>   11.3328    0.0000 </r>
       <r>   12.4798    0.0000 </r>
       <r>   13.4584    0.0000 </r>
      </set>
      <set comment="kpoint 89">
       <r>   -3.4222    1.0000 </r>
       <r>    1.3507    1.0000 </r>
       <r>    5.4631    1.0000 </r>
       <r>   10.0396    0.0000 </r>
       <r>   11.0023    0.0000 </r>
       <r>   15.5238    0.0000 </r>
       <r>   15.6468    0.0000 </r>
       <r>   18.5440    0.0000 </r>
      </set>
      <set comment="kpoint 90">
       <r>   -3.3918    1.0000 </r>
       <r>    2.2068    1.0000 </r>
       <r>    4.7027    1.0000 </r>
       <r>   10.0783    0.0000 </r>
       <r>   11.5257    0.0000 </r>
       <r>   14.9343    0.0000 </r>
       <r>   15.4396    0.0000 </r>
       <r>   17.4965    0.0000 </r>
      </set>
      <set comment="kpoint 91">
       <r>   -2.9718    1.0000 </r>
       <r>    3.0508    1.0000 </r>
       <r>    4.6635    1.0000 </r>
       <r>   10.3662    0.0000 </r>
       <r>   11.3549    0.0000 </r>
       <r>   13.3128    0.0000 </r>
       <r>   15.1417    0.0000 </r>
       <r>   16.1812    0.0000 </r>
      </set>
      <set comment="kpoint 92">
       <r>   -0.3033    1.0000 </r>
       <r>   -0.3033    1.0000 </r>
       <r>    9.3977    0.0108 </r>
       <r>    9.3977    0.0108 </r>
       <r>   11.1238    0.0000 </r>
       <r>   11.1238    0.0000 </r>
       <r>   12.7050    0.0000 </r>
       <r>   12.7050    0.0000 </r>
      </set>
      <set comment="kpoint 93">
       <r>   -2.7686    1.0000 </r>
       <r>    0.1161    1.0000 </r>
       <r>    6.0594    1.0000 </r>
       <r>    8.8236    0.9610 </r>
       <r>   11.7222    0.0000 </r>
       <r>   14.4294    0.0000 </r>
       <r>   17.5694    0.0000 </r>
       <r>   18.3592    0.0000 </r>
      </set>
      <set comment="kpoint 94">
       <r>   -2.8202    1.0000 </r>
       <r>    0.9808    1.0000 </r>
       <r>    5.1469    1.0000 </r>
       <r>    8.7987    0.9737 </r>
       <r>   12.2465    0.0000 </r>
       <r>   14.7829    0.0000 </r>
       <r>   16.6118    0.0000 </r>
       <r>   17.1205    0.0000 </r>
      </set>
      <set comment="kpoint 95">
       <r>   -2.4835    1.0000 </r>
       <r>    2.1323    1.0000 </r>
       <r>    4.6638    1.0000 </r>
       <r>    9.0783    0.4846 </r>
       <r>   11.3407    0.0000 </r>
       <r>   13.8954    0.0000 </r>
       <r>   16.0206    0.0000 </r>
       <r>   16.9486    0.0000 </r>
      </set>
      <set comment="kpoint 96">
       <r>   -1.7609    1.0000 </r>
       <r>    3.2630    1.0000 </r>
       <r>    4.9109    1.0000 </r>
       <r>    8.7817    0.9803 </r>
       <r>    9.7418    0.0000 </r>
       <r>   13.8076    0.0000 </r>
       <r>   14.8707    0.0000 </r>
       <r>   15.4032    0.0000 </r>
      </set>
      <set comment="kpoint 97">
       <r>   -1.9570    1.0000 </r>
       <r>   -0.9926    1.0000 </r>
       <r>    6.8258    1.0000 </r>
       <r>    7.7496    1.0000 </r>
       <r>   12.5212    0.0000 </r>
       <r>   13.4237    0.0000 </r>
       <r>   18.1451    0.0000 </r>
       <r>   18.2234    0.0000 </r>
      </set>
      <set comment="kpoint 98">
       <r>   -2.0901    1.0000 </r>
       <r>   -0.1762    1.0000 </r>
       <r>    5.8146    1.0000 </r>
       <r>    7.6534    1.0000 </r>
       <r>   12.8948    0.0000 </r>
       <r>   14.3905    0.0000 </r>
       <r>   15.9635    0.0000 </r>
       <r>   18.0134    0.0000 </r>
      </set>
      <set comment="kpoint 99">
       <r>   -1.8363    1.0000 </r>
       <r>    0.9889    1.0000 </r>
       <r>    5.1731    1.0000 </r>
       <r>    7.8820    1.0000 </r>
       <r>   11.1858    0.0000 </r>
       <r>   14.5623    0.0000 </r>
       <r>   15.9890    0.0000 </r>
       <r>   17.1606    0.0000 </r>
      </set>
      <set comment="kpoint 100">
       <r>   -1.1978    1.0000 </r>
       <r>    2.4324    1.0000 </r>
       <r>    4.9714    1.0000 </r>
       <r>    8.2428    1.0000 </r>
       <r>    8.7229    0.9933 </r>
       <r>   14.0650    0.0000 </r>
       <r>   15.5417    0.0000 </r>
       <r>   16.4860    0.0000 </r>
      </set>
      <set comment="kpoint 101">
       <r>   -0.1811    1.0000 </r>
       <r>    3.8268    1.0000 </r>
       <r>    5.4957    1.0000 </r>
       <r>    6.0638    1.0000 </r>
       <r>    9.2041    0.1768 </r>
       <r>   12.3426    0.0000 </r>
       <r>   13.7669    0.0000 </r>
       <r>   16.5473    0.0000 </r>
      </set>
      <set comment="kpoint 102">
       <r>   -1.2070    1.0000 </r>
       <r>   -1.2048    1.0000 </r>
       <r>    6.6523    1.0000 </r>
       <r>    6.6585    1.0000 </r>
       <r>   13.2901    0.0000 </r>
       <r>   14.0966    0.0000 </r>
       <r>   15.7080    0.0000 </r>
       <r>   18.0404    0.0000 </r>
      </set>
      <set comment="kpoint 103">
       <r>   -1.0346    1.0000 </r>
       <r>   -0.0867    1.0000 </r>
       <r>    5.9107    1.0000 </r>
       <r>    6.8204    1.0000 </r>
       <r>   11.0856    0.0000 </r>
       <r>   15.2423    0.0000 </r>
       <r>   15.9190    0.0000 </r>
       <r>   16.3842    0.0000 </r>
      </set>
      <set comment="kpoint 104">
       <r>   -0.4804    1.0000 </r>
       <r>    1.3747    1.0000 </r>
       <r>    5.5438    1.0000 </r>
       <r>    7.2876    1.0000 </r>
       <r>    8.3576    1.0000 </r>
       <r>   14.0126    0.0000 </r>
       <r>   16.2616    0.0000 </r>
       <r>   17.4981    0.0000 </r>
      </set>
      <set comment="kpoint 105">
       <r>    0.4501    1.0000 </r>
       <r>    3.0922    1.0000 </r>
       <r>    5.5435    1.0000 </r>
       <r>    5.8339    1.0000 </r>
       <r>    8.1480    1.0000 </r>
       <r>   12.4116    0.0000 </r>
       <r>   14.6573    0.0000 </r>
       <r>   17.3644    0.0000 </r>
      </set>
      <set comment="kpoint 106">
       <r>    1.7272    1.0000 </r>
       <r>    3.4401    1.0000 </r>
       <r>    4.9029    1.0000 </r>
       <r>    6.3908    1.0000 </r>
       <r>    8.8670    0.9273 </r>
       <r>   11.2055    0.0000 </r>
       <r>   12.2574    0.0000 </r>
       <r>   16.9790    0.0000 </r>
      </set>
      <set comment="kpoint 107">
       <r>    0.3763    1.0000 </r>
       <r>    0.3904    1.0000 </r>
       <r>    6.3396    1.0000 </r>
       <r>    6.3408    1.0000 </r>
       <r>    8.2698    1.0000 </r>
       <r>   13.9747    0.0000 </r>
       <r>   16.7063    0.0000 </r>
       <r>   17.6555    0.0000 </r>
      </set>
      <set comment="kpoint 108">
       <r>    1.2261    1.0000 </r>
       <r>    2.1287    1.0000 </r>
       <r>    5.5384    1.0000 </r>
       <r>    6.3100    1.0000 </r>
       <r>    7.1607    1.0000 </r>
       <r>   12.3469    0.0000 </r>
       <r>   15.9179    0.0000 </r>
       <r>   17.1467    0.0000 </r>
      </set>
      <set comment="kpoint 109">
       <r>    2.3673    1.0000 </r>
       <r>    3.2333    1.0000 </r>
       <r>    4.2649    1.0000 </r>
       <r>    6.5951    1.0000 </r>
       <r>    8.1084    1.0000 </r>
       <r>   11.1227    0.0000 </r>
       <r>   13.2010    0.0000 </r>
       <r>   16.1359    0.0000 </r>
      </set>
      <set comment="kpoint 110">
       <r>    1.2054    1.0000 </r>
       <r>    4.0710    1.0000 </r>
       <r>    6.1396    1.0000 </r>
       <r>    7.4759    1.0000 </r>
       <r>    8.4549    1.0000 </r>
       <r>   10.8422    0.0000 </r>
       <r>   11.1974    0.0000 </r>
       <r>   14.7645    0.0000 </r>
      </set>
      <set comment="kpoint 111">
       <r>    2.8026    1.0000 </r>
       <r>    3.2846    1.0000 </r>
       <r>    3.6322    1.0000 </r>
       <r>    7.1859    1.0000 </r>
       <r>    7.3667    1.0000 </r>
       <r>   11.0677    0.0000 </r>
       <r>   14.2143    0.0000 </r>
       <r>   15.1236    0.0000 </r>
      </set>
      <set comment="kpoint 112">
       <r>    1.0498    1.0000 </r>
       <r>    4.7934    1.0000 </r>
       <r>    5.5828    1.0000 </r>
       <r>    7.6560    1.0000 </r>
       <r>    8.3066    1.0000 </r>
       <r>   10.4310    0.0000 </r>
       <r>   12.0845    0.0000 </r>
       <r>   13.6112    0.0000 </r>
      </set>
      <set comment="kpoint 113">
       <r>   -0.6300    1.0000 </r>
       <r>    6.5726    1.0000 </r>
       <r>    7.4679    1.0000 </r>
       <r>    8.2261    1.0000 </r>
       <r>    8.2485    1.0000 </r>
       <r>   11.0585    0.0000 </r>
       <r>   11.1041    0.0000 </r>
       <r>   12.6192    0.0000 </r>
      </set>
      <set comment="kpoint 114">
       <r>   -0.7107    1.0000 </r>
       <r>    7.2099    1.0000 </r>
       <r>    7.2807    1.0000 </r>
       <r>    7.8922    1.0000 </r>
       <r>    8.8304    0.9568 </r>
       <r>   10.5421    0.0000 </r>
       <r>   11.6575    0.0000 </r>
       <r>   11.7283    0.0000 </r>
      </set>
      <set comment="kpoint 115">
       <r>   -2.1160    1.0000 </r>
       <r>    7.4516    1.0000 </r>
       <r>    8.0509    1.0000 </r>
       <r>    8.6231    0.9993 </r>
       <r>    9.7616    0.0000 </r>
       <r>   10.5756    0.0000 </r>
       <r>   12.4232    0.0000 </r>
       <r>   12.8510    0.0000 </r>
      </set>
      <set comment="kpoint 116">
       <r>   -3.2280    1.0000 </r>
       <r>    7.4269    1.0000 </r>
       <r>    7.4476    1.0000 </r>
       <r>    7.4476    1.0000 </r>
       <r>   11.9087    0.0000 </r>
       <r>   12.0694    0.0000 </r>
       <r>   12.4535    0.0000 </r>
       <r>   14.6690    0.0000 </r>
      </set>
      <set comment="kpoint 117">
       <r>    1.2105    1.0000 </r>
       <r>    3.0858    1.0000 </r>
       <r>    5.6962    1.0000 </r>
       <r>    5.7139    1.0000 </r>
       <r>   11.6889    0.0000 </r>
       <r>   13.2632    0.0000 </r>
       <r>   14.1457    0.0000 </r>
       <r>   14.4852    0.0000 </r>
      </set>
      <set comment="kpoint 118">
       <r>    3.0159    1.0000 </r>
       <r>    3.4548    1.0000 </r>
       <r>    4.1106    1.0000 </r>
       <r>    4.4758    1.0000 </r>
       <r>   12.4351    0.0000 </r>
       <r>   13.7879    0.0000 </r>
       <r>   14.4124    0.0000 </r>
       <r>   14.6218    0.0000 </r>
      </set>
      <set comment="kpoint 119">
       <r>   -3.5870    1.0000 </r>
       <r>    2.4576    1.0000 </r>
       <r>    4.0937    1.0000 </r>
       <r>    9.9276    0.0000 </r>
       <r>   11.6741    0.0000 </r>
       <r>   14.6910    0.0000 </r>
       <r>   17.5301    0.0000 </r>
       <r>   18.2063    0.0000 </r>
      </set>
      <set comment="kpoint 120">
       <r>    2.0769    1.0000 </r>
       <r>    2.0769    1.0000 </r>
       <r>    5.6324    1.0000 </r>
       <r>    5.6324    1.0000 </r>
       <r>   12.5566    0.0000 </r>
       <r>   12.5566    0.0000 </r>
       <r>   14.3628    0.0000 </r>
       <r>   14.3628    0.0000 </r>
      </set>
      <set comment="kpoint 121">
       <r>   -3.0972    1.0000 </r>
       <r>    1.5351    1.0000 </r>
       <r>    4.0918    1.0000 </r>
       <r>    8.5705    0.9998 </r>
       <r>   12.6931    0.0000 </r>
       <r>   16.2634    0.0000 </r>
       <r>   16.8532    0.0000 </r>
       <r>   18.3155    0.0000 </r>
      </set>
      <set comment="kpoint 122">
       <r>   -2.9846    1.0000 </r>
       <r>    2.0787    1.0000 </r>
       <r>    3.7715    1.0000 </r>
       <r>    8.6693    0.9978 </r>
       <r>   12.7653    0.0000 </r>
       <r>   15.1236    0.0000 </r>
       <r>   16.1296    0.0000 </r>
       <r>   18.5651    0.0000 </r>
      </set>
      <set comment="kpoint 123">
       <r>   -2.4479    1.0000 </r>
       <r>    0.3872    1.0000 </r>
       <r>    4.6039    1.0000 </r>
       <r>    7.3457    1.0000 </r>
       <r>   13.5092    0.0000 </r>
       <r>   16.0043    0.0000 </r>
       <r>   17.7034    0.0000 </r>
       <r>   18.1336    0.0000 </r>
      </set>
      <set comment="kpoint 124">
       <r>   -2.4177    1.0000 </r>
       <r>    1.2403    1.0000 </r>
       <r>    3.8301    1.0000 </r>
       <r>    7.3774    1.0000 </r>
       <r>   13.3794    0.0000 </r>
       <r>   15.2244    0.0000 </r>
       <r>   17.7809    0.0000 </r>
       <r>   18.2357    0.0000 </r>
      </set>
      <set comment="kpoint 125">
       <r>   -1.9999    1.0000 </r>
       <r>    2.0795    1.0000 </r>
       <r>    3.8009    1.0000 </r>
       <r>    7.7456    1.0000 </r>
       <r>   11.0837    0.0000 </r>
       <r>   15.2413    0.0000 </r>
       <r>   16.9767    0.0000 </r>
       <r>   17.4650    0.0000 </r>
      </set>
      <set comment="kpoint 126">
       <r>   -1.6436    1.0000 </r>
       <r>   -0.6924    1.0000 </r>
       <r>    5.3477    1.0000 </r>
       <r>    6.2677    1.0000 </r>
       <r>   14.3053    0.0000 </r>
       <r>   15.1398    0.0000 </r>
       <r>   17.8413    0.0000 </r>
       <r>   17.9330    0.0000 </r>
      </set>
      <set comment="kpoint 127">
       <r>   -1.6953    1.0000 </r>
       <r>    0.1738    1.0000 </r>
       <r>    4.4131    1.0000 </r>
       <r>    6.2267    1.0000 </r>
       <r>   13.5458    0.0000 </r>
       <r>   15.6436    0.0000 </r>
       <r>   17.4485    0.0000 </r>
       <r>   18.9644    0.0000 </r>
      </set>
      <set comment="kpoint 128">
       <r>   -1.3607    1.0000 </r>
       <r>    1.3258    1.0000 </r>
       <r>    3.9268    1.0000 </r>
       <r>    6.5347    1.0000 </r>
       <r>   10.8488    0.0000 </r>
       <r>   16.2854    0.0000 </r>
       <r>   17.1196    0.0000 </r>
       <r>   18.5031    0.0000 </r>
      </set>
      <set comment="kpoint 129">
       <r>   -0.6428    1.0000 </r>
       <r>    2.4570    1.0000 </r>
       <r>    4.1863    1.0000 </r>
       <r>    7.1502    1.0000 </r>
       <r>    8.2080    1.0000 </r>
       <r>   14.8880    0.0000 </r>
       <r>   16.4873    0.0000 </r>
       <r>   17.1822    0.0000 </r>
      </set>
      <set comment="kpoint 130">
       <r>   -0.8269    1.0000 </r>
       <r>   -0.8237    1.0000 </r>
       <r>    5.2315    1.0000 </r>
       <r>    5.2322    1.0000 </r>
       <r>   13.5659    0.0000 </r>
       <r>   16.0197    0.0000 </r>
       <r>   16.9498    0.0000 </r>
       <r>   19.0107    0.0000 </r>
      </set>
      <set comment="kpoint 131">
       <r>   -0.5737    1.0000 </r>
       <r>    0.3427    1.0000 </r>
       <r>    4.5812    1.0000 </r>
       <r>    5.4716    1.0000 </r>
       <r>   10.7222    0.0000 </r>
       <r>   16.9974    0.0000 </r>
       <r>   17.1947    0.0000 </r>
       <r>   18.2596    0.0000 </r>
      </set>
      <set comment="kpoint 132">
       <r>    0.0597    1.0000 </r>
       <r>    1.7891    1.0000 </r>
       <r>    4.3816    1.0000 </r>
       <r>    6.0523    1.0000 </r>
       <r>    7.9669    1.0000 </r>
       <r>   15.1759    0.0000 </r>
       <r>   17.2931    0.0000 </r>
       <r>   18.1603    0.0000 </r>
      </set>
      <set comment="kpoint 133">
       <r>    1.0655    1.0000 </r>
       <r>    3.1871    1.0000 </r>
       <r>    4.9226    1.0000 </r>
       <r>    5.4551    1.0000 </r>
       <r>    7.0223    1.0000 </r>
       <r>   13.2999    0.0000 </r>
       <r>   14.8061    0.0000 </r>
       <r>   17.7988    0.0000 </r>
      </set>
      <set comment="kpoint 134">
       <r>    0.8814    1.0000 </r>
       <r>    0.9012    1.0000 </r>
       <r>    5.0986    1.0000 </r>
       <r>    5.1068    1.0000 </r>
       <r>    7.8890    1.0000 </r>
       <r>   15.2056    0.0000 </r>
       <r>   18.0229    0.0000 </r>
       <r>   18.3704    0.0000 </r>
      </set>
      <set comment="kpoint 135">
       <r>    1.8072    1.0000 </r>
       <r>    2.6137    1.0000 </r>
       <r>    5.0986    1.0000 </r>
       <r>    5.3689    1.0000 </r>
       <r>    6.0370    1.0000 </r>
       <r>   13.5881    0.0000 </r>
       <r>   15.7107    0.0000 </r>
       <r>   17.0673    0.0000 </r>
      </set>
      <set comment="kpoint 136">
       <r>    2.7181    1.0000 </r>
       <r>    3.3252    1.0000 </r>
       <r>    4.4460    1.0000 </r>
       <r>    5.9866    1.0000 </r>
       <r>    7.1588    1.0000 </r>
       <r>   12.0191    0.0000 </r>
       <r>   13.2920    0.0000 </r>
       <r>   15.4160    0.0000 </r>
      </set>
      <set comment="kpoint 137">
       <r>    2.7395    1.0000 </r>
       <r>    3.8565    1.0000 </r>
       <r>    4.0383    1.0000 </r>
       <r>    6.3100    1.0000 </r>
       <r>    6.3553    1.0000 </r>
       <r>   12.2880    0.0000 </r>
       <r>   13.9699    0.0000 </r>
       <r>   14.5721    0.0000 </r>
      </set>
      <set comment="kpoint 138">
       <r>    0.8924    1.0000 </r>
       <r>    5.4316    1.0000 </r>
       <r>    5.8578    1.0000 </r>
       <r>    7.2895    1.0000 </r>
       <r>    7.6540    1.0000 </r>
       <r>   11.1154    0.0000 </r>
       <r>   12.0734    0.0000 </r>
[...]
       <r>    1.9697    1.0000 </r>
       <r>    3.7406    1.0000 </r>
       <r>    4.9537    1.0000 </r>
       <r>    7.7373    1.0000 </r>
       <r>   16.1256    0.0000 </r>
       <r>   17.5871    0.0000 </r>
       <r>   18.8198    0.0000 </r>
      </set>
      <set comment="kpoint 149">
       <r>    1.4516    1.0000 </r>
       <r>    1.4792    1.0000 </r>
       <r>    4.0788    1.0000 </r>
       <r>    4.0848    1.0000 </r>
       <r>    7.6610    1.0000 </r>
       <r>   16.4213    0.0000 </r>
       <r>   18.2517    0.0000 </r>
       <r>   18.4133    0.0000 </r>
      </set>
      <set comment="kpoint 150">
       <r>    2.4485    1.0000 </r>
       <r>    2.8689    1.0000 </r>
       <r>    4.6300    1.0000 </r>
       <r>    4.9678    1.0000 </r>
       <r>    5.2759    1.0000 </r>
       <r>   14.6479    0.0000 </r>
       <r>   15.7503    0.0000 </r>
       <r>   16.4599    0.0000 </r>
      </set>
      <set comment="kpoint 151">
       <r>    2.6915    1.0000 </r>
       <r>    4.1997    1.0000 </r>
       <r>    4.3696    1.0000 </r>
       <r>    5.8482    1.0000 </r>
       <r>    5.8482    1.0000 </r>
       <r>   13.2665    0.0000 </r>
       <r>   13.8883    0.0000 </r>
       <r>   13.8883    0.0000 </r>
      </set>
      <set comment="kpoint 152">
       <r>   -1.3450    1.0000 </r>
       <r>    0.8222    1.0000 </r>
       <r>    2.6250    1.0000 </r>
       <r>    4.7521    1.0000 </r>
       <r>   15.8772    0.0000 </r>
       <r>   16.5296    0.0000 </r>
       <r>   18.4905    0.0000 </r>
       <r>   19.9756    0.0000 </r>
      </set>
      <set comment="kpoint 153">
       <r>   -0.5888    1.0000 </r>
       <r>    0.2333    1.0000 </r>
       <r>    2.8930    1.0000 </r>
       <r>    3.7017    1.0000 </r>
       <r>   16.1855    0.0000 </r>
       <r>   16.3564    0.0000 </r>
       <r>   19.2024    0.0000 </r>
       <r>   19.8525    0.0000 </r>
      </set>
      <set comment="kpoint 154">
       <r>   -0.4777    1.0000 </r>
       <r>    0.7678    1.0000 </r>
       <r>    2.5814    1.0000 </r>
       <r>    3.8085    1.0000 </r>
       <r>   13.3087    0.0000 </r>
       <r>   18.6052    0.0000 </r>
       <r>   19.9056    0.0000 </r>
       <r>   20.4272    0.0000 </r>
      </set>
      <set comment="kpoint 155">
       <r>    0.2589    1.0000 </r>
       <r>    0.2651    1.0000 </r>
       <r>    2.9237    1.0000 </r>
       <r>    2.9248    1.0000 </r>
       <r>   13.2551    0.0000 </r>
       <r>   19.0804    0.0000 </r>
       <r>   20.2693    0.0000 </r>
       <r>   20.3513    0.0000 </r>
      </set>
      <set comment="kpoint 156">
       <r>    0.6746    1.0000 </r>
       <r>    1.0982    1.0000 </r>
       <r>    2.9042    1.0000 </r>
       <r>    3.3226    1.0000 </r>
       <r>   10.3187    0.0000 </r>
       <r>   18.9169    0.0000 </r>
       <r>   20.0818    0.0000 </r>
       <r>   20.1126    0.0000 </r>
      </set>
      <set comment="kpoint 157">
       <r>    1.7890    1.0000 </r>
       <r>    1.8239    1.0000 </r>
       <r>    3.5905    1.0000 </r>
       <r>    3.5905    1.0000 </r>
       <r>    7.5849    1.0000 </r>
       <r>   17.1527    0.0000 </r>
       <r>   18.1926    0.0000 </r>
       <r>   18.1926    0.0000 </r>
      </set>
      <set comment="kpoint 158">
       <r>    0.0692    1.0000 </r>
       <r>    0.4921    1.0000 </r>
       <r>    2.3217    1.0000 </r>
       <r>    2.7400    1.0000 </r>
       <r>   16.2513    0.0000 </r>
       <r>   16.2939    0.0000 </r>
       <r>   20.4454    0.0000 </r>
       <r>   20.9115    0.0000 </r>
      </set>
      <set comment="kpoint 159">
       <r>    0.5989    1.0000 </r>
       <r>    0.6066    1.0000 </r>
       <r>    2.4295    1.0000 </r>
       <r>    2.4295    1.0000 </r>
       <r>   13.1987    0.0000 </r>
       <r>   19.3432    0.0000 </r>
       <r>   21.0522    0.0000 </r>
       <r>   21.0652    0.0000 </r>
      </set>
     </set>
    </set>
   </array>
  </eigenvalues>
  <separator name="orbital magnetization" >
   <v name="MAGDIPOLOUT">      0.00000000      0.00000000      0.00000000</v>
  </separator>
  <dos>
   <i name="efermi">      9.07288781 </i>
   <total>
    <array>
     <dimension dim="1">gridpoints</dimension>
     <dimension dim="2">spin</dimension>
     <field>energy</field>
     <field>total</field>
     <field>integrated</field>
     <set>
      <set comment="spin 1">
       <r>    -6.5747     0.0000     0.0000 </r>
       <r>    -6.4759     0.0000     0.0000 </r>
       <r>    -6.3771     0.0000     0.0000 </r>
       <r>    -6.2783     0.0000     0.0000 </r>
       <r>    -6.1795     0.0000     0.0000 </r>
       <r>    -6.0807     0.0000     0.0000 </r>
       <r>    -5.9819     0.0000     0.0000 </r>
       <r>    -5.8831     0.0000     0.0000 </r>
       <r>    -5.7843     0.0000     0.0000 </r>
       <r>    -5.6855     0.0000     0.0000 </r>
       <r>    -5.5867     0.0000     0.0000 </r>
       <r>    -5.4879     0.0000     0.0000 </r>
       <r>    -5.3891     0.0000     0.0000 </r>
       <r>    -5.2903     0.0000     0.0000 </r>
       <r>    -5.1915     0.0000     0.0000 </r>
       <r>    -5.0927     0.0000     0.0000 </r>
       <r>    -4.9939     0.0001     0.0000 </r>
       <r>    -4.8951     0.0005     0.0001 </r>
       <r>    -4.7963     0.0028     0.0003 </r>
       <r>    -4.6975     0.0100     0.0013 </r>
       <r>    -4.5987     0.0266     0.0040 </r>
       <r>    -4.4999     0.0541     0.0093 </r>
       <r>    -4.4011     0.0857     0.0178 </r>
       <r>    -4.3023     0.1097     0.0286 </r>
       <r>    -4.2035     0.1267     0.0411 </r>
       <r>    -4.1047     0.1473     0.0557 </r>
       <r>    -4.0059     0.1683     0.0723 </r>
       <r>    -3.9071     0.1816     0.0902 </r>
       <r>    -3.8083     0.1954     0.1096 </r>
       <r>    -3.7095     0.2150     0.1308 </r>
       <r>    -3.6107     0.2308     0.1536 </r>
       <r>    -3.5119     0.2361     0.1769 </r>
       <r>    -3.4131     0.2331     0.1999 </r>
       <r>    -3.3143     0.2248     0.2222 </r>
       <r>    -3.2155     0.2271     0.2446 </r>
       <r>    -3.1167     0.2623     0.2705 </r>
       <r>    -3.0179     0.3194     0.3021 </r>
       <r>    -2.9191     0.3580     0.3374 </r>
       <r>    -2.8203     0.3474     0.3718 </r>
       <r>    -2.7215     0.2916     0.4006 </r>
       <r>    -2.6227     0.2451     0.4248 </r>
       <r>    -2.5239     0.2667     0.4511 </r>
       <r>    -2.4251     0.3329     0.4840 </r>
       <r>    -2.3263     0.3689     0.5205 </r>
       <r>    -2.2275     0.3629     0.5563 </r>
       <r>    -2.1287     0.3592     0.5918 </r>
       <r>    -2.0299     0.3732     0.6287 </r>
       <r>    -1.9311     0.3891     0.6671 </r>
       <r>    -1.8323     0.3937     0.7060 </r>
       <r>    -1.7335     0.3856     0.7441 </r>
       <r>    -1.6347     0.3799     0.7817 </r>
       <r>    -1.5359     0.3867     0.8199 </r>
       <r>    -1.4371     0.3981     0.8592 </r>
       <r>    -1.3383     0.4155     0.9002 </r>
       <r>    -1.2395     0.4560     0.9453 </r>
       <r>    -1.1407     0.4963     0.9943 </r>
       <r>    -1.0419     0.4757     1.0413 </r>
       <r>    -0.9431     0.3978     1.0806 </r>
       <r>    -0.8443     0.3371     1.1139 </r>
       <r>    -0.7455     0.3446     1.1480 </r>
       <r>    -0.6467     0.4159     1.1891 </r>
       <r>    -0.5479     0.5131     1.2398 </r>
       <r>    -0.4491     0.5859     1.2977 </r>
       <r>    -0.3503     0.5980     1.3567 </r>
       <r>    -0.2515     0.5591     1.4120 </r>
       <r>    -0.1527     0.5223     1.4636 </r>
       <r>    -0.0539     0.5209     1.5151 </r>
       <r>     0.0449     0.5230     1.5667 </r>
       <r>     0.1437     0.4974     1.6159 </r>
       <r>     0.2425     0.4741     1.6627 </r>
       <r>     0.3413     0.4800     1.7101 </r>
       <r>     0.4401     0.4988     1.7594 </r>
       <r>     0.5389     0.5261     1.8114 </r>
       <r>     0.6377     0.5798     1.8687 </r>
       <r>     0.7365     0.6475     1.9326 </r>
       <r>     0.8353     0.6703     1.9989 </r>
       <r>     0.9341     0.6209     2.0602 </r>
       <r>     1.0329     0.5586     2.1154 </r>
       <r>     1.1317     0.5561     2.1704 </r>
       <r>     1.2305     0.6164     2.2312 </r>
       <r>     1.3293     0.6649     2.2969 </r>
       <r>     1.4281     0.6281     2.3590 </r>
       <r>     1.5269     0.5162     2.4100 </r>
       <r>     1.6257     0.4157     2.4511 </r>
       <r>     1.7245     0.4141     2.4920 </r>
       <r>     1.8233     0.5044     2.5418 </r>
       <r>     1.9221     0.5998     2.6011 </r>
       <r>     2.0209     0.6480     2.6651 </r>
       <r>     2.1197     0.6451     2.7288 </r>
       <r>     2.2185     0.5991     2.7880 </r>
       <r>     2.3173     0.5560     2.8430 </r>
       <r>     2.4161     0.5507     2.8974 </r>
       <r>     2.5149     0.5449     2.9512 </r>
       <r>     2.6137     0.5110     3.0017 </r>
       <r>     2.7125     0.4740     3.0485 </r>
       <r>     2.8113     0.4546     3.0934 </r>
       <r>     2.9101     0.4605     3.1389 </r>
       <r>     3.0089     0.5059     3.1889 </r>
       <r>     3.1077     0.6049     3.2487 </r>
       <r>     3.2065     0.7306     3.3209 </r>
       <r>     3.3053     0.8081     3.4007 </r>
       <r>     3.4041     0.7921     3.4790 </r>
       <r>     3.5029     0.7060     3.5487 </r>
       <r>     3.6017     0.6110     3.6091 </r>
       <r>     3.7005     0.5776     3.6661 </r>
       <r>     3.7993     0.6106     3.7265 </r>
       <r>     3.8981     0.6383     3.7895 </r>
       <r>     3.9969     0.6339     3.8522 </r>
       <r>     4.0957     0.6420     3.9156 </r>
       <r>     4.1945     0.6812     3.9829 </r>
       <r>     4.2933     0.7001     4.0520 </r>
       <r>     4.3921     0.6539     4.1167 </r>
       <r>     4.4909     0.6003     4.1760 </r>
       <r>     4.5897     0.6362     4.2388 </r>
       <r>     4.6885     0.7423     4.3122 </r>
       <r>     4.7873     0.8175     4.3929 </r>
       <r>     4.8861     0.8349     4.4754 </r>
       <r>     4.9849     0.8165     4.5561 </r>
       <r>     5.0837     0.7697     4.6321 </r>
       <r>     5.1825     0.7177     4.7030 </r>
       <r>     5.2813     0.6842     4.7706 </r>
       <r>     5.3801     0.6757     4.8374 </r>
       <r>     5.4789     0.6952     4.9061 </r>
       <r>     5.5777     0.7385     4.9790 </r>
       <r>     5.6765     0.7937     5.0575 </r>
       <r>     5.7753     0.8522     5.1417 </r>
       <r>     5.8741     0.9059     5.2312 </r>
       <r>     5.9729     0.9423     5.3243 </r>
       <r>     6.0717     0.9390     5.4170 </r>
       <r>     6.1705     0.8912     5.5051 </r>
       <r>     6.2693     0.8344     5.5875 </r>
       <r>     6.3681     0.7979     5.6663 </r>
       <r>     6.4669     0.8107     5.7464 </r>
       <r>     6.5657     0.8933     5.8347 </r>
       <r>     6.6645     0.9706     5.9306 </r>
       <r>     6.7633     0.9592     6.0254 </r>
       <r>     6.8621     0.8822     6.1125 </r>
       <r>     6.9609     0.7949     6.1911 </r>
       <r>     7.0597     0.7444     6.2646 </r>
       <r>     7.1585     0.7666     6.3404 </r>
       <r>     7.2573     0.8622     6.4255 </r>
       <r>     7.3561     1.0168     6.5260 </r>
       <r>     7.4549     1.1732     6.6419 </r>
       <r>     7.5537     1.2240     6.7629 </r>
       <r>     7.6525     1.1233     6.8738 </r>
       <r>     7.7513     0.9355     6.9663 </r>
       <r>     7.8501     0.7755     7.0429 </r>
       <r>     7.9489     0.7314     7.1151 </r>
       <r>     8.0477     0.7910     7.1933 </r>
       <r>     8.1465     0.8791     7.2802 </r>
       <r>     8.2453     0.9382     7.3728 </r>
       <r>     8.3441     0.9227     7.4640 </r>
       <r>     8.4429     0.8296     7.5460 </r>
       <r>     8.5417     0.7299     7.6181 </r>
       <r>     8.6405     0.6906     7.6863 </r>
       <r>     8.7393     0.7120     7.7567 </r>
       <r>     8.8381     0.7448     7.8302 </r>
       <r>     8.9369     0.7412     7.9035 </r>
       <r>     9.0357     0.7127     7.9739 </r>
       <r>     9.1345     0.7019     8.0432 </r>
       <r>     9.2333     0.7019     8.1126 </r>
       <r>     9.3321     0.6812     8.1799 </r>
       <r>     9.4309     0.6721     8.2463 </r>
       <r>     9.5297     0.7198     8.3174 </r>
       <r>     9.6285     0.7814     8.3946 </r>
       <r>     9.7273     0.7816     8.4718 </r>
       <r>     9.8261     0.7114     8.5421 </r>
       <r>     9.9249     0.6327     8.6046 </r>
       <r>    10.0237     0.6107     8.6650 </r>
       <r>    10.1225     0.6384     8.7280 </r>
       <r>    10.2213     0.6575     8.7930 </r>
       <r>    10.3201     0.6507     8.8573 </r>
       <r>    10.4189     0.6481     8.9213 </r>
       <r>    10.5177     0.6640     8.9869 </r>
       <r>    10.6165     0.6797     9.0541 </r>
       <r>    10.7153     0.6887     9.1221 </r>
       <r>    10.8141     0.7192     9.1932 </r>
       <r>    10.9129     0.7860     9.2709 </r>
       <r>    11.0117     0.8727     9.3571 </r>
       <r>    11.1105     0.9632     9.4522 </r>
       <r>    11.2093     1.0557     9.5565 </r>
       <r>    11.3081     1.1592     9.6711 </r>
       <r>    11.4069     1.2292     9.7925 </r>
       <r>    11.5057     1.1742     9.9085 </r>
       <r>    11.6045     1.0204    10.0093 </r>
       <r>    11.7033     0.8857    10.0968 </r>
       <r>    11.8021     0.8042    10.1763 </r>
       <r>    11.9009     0.7781    10.2532 </r>
       <r>    11.9997     0.8333    10.3355 </r>
       <r>    12.0985     0.9048    10.4249 </r>
       <r>    12.1973     0.8996    10.5138 </r>
       <r>    12.2961     0.8527    10.5980 </r>
       <r>    12.3949     0.8276    10.6798 </r>
       <r>    12.4937     0.8195    10.7608 </r>
       <r>    12.5925     0.8421    10.8440 </r>
       <r>    12.6913     0.9330    10.9361 </r>
       <r>    12.7901     1.0799    11.0428 </r>
       <r>    12.8889     1.2240    11.1638 </r>
       <r>    12.9877     1.2827    11.2905 </r>
       <r>    13.0865     1.2039    11.4094 </r>
       <r>    13.1853     1.0506    11.5132 </r>
       <r>    13.2841     0.9453    11.6066 </r>
       <r>    13.3829     0.9409    11.6996 </r>
       <r>    13.4817     0.9972    11.7981 </r>
       <r>    13.5805     1.0332    11.9002 </r>
       <r>    13.6793     1.0172    12.0007 </r>
       <r>    13.7781     1.0157    12.1010 </r>
       <r>    13.8769     1.0952    12.2092 </r>
       <r>    13.9757     1.2140    12.3292 </r>
       <r>    14.0745     1.2686    12.4545 </r>
       <r>    14.1733     1.2158    12.5747 </r>
       <r>    14.2721     1.1189    12.6852 </r>
       <r>    14.3709     1.0613    12.7901 </r>
       <r>    14.4697     1.0490    12.8937 </r>
       <r>    14.5685     1.0363    12.9961 </r>
       <r>    14.6673     0.9906    13.0940 </r>
       <r>    14.7661     0.9155    13.1844 </r>
       <r>    14.8649     0.8356    13.2670 </r>
       <r>    14.9637     0.7784    13.3439 </r>
       <r>    15.0625     0.7784    13.4208 </r>
       <r>    15.1613     0.8464    13.5044 </r>
       <r>    15.2601     0.9293    13.5962 </r>
       <r>    15.3589     0.9632    13.6914 </r>
       <r>    15.4577     0.9323    13.7835 </r>
       <r>    15.5565     0.8586    13.8683 </r>
       <r>    15.6553     0.8014    13.9475 </r>
       <r>    15.7541     0.8081    14.0273 </r>
       <r>    15.8529     0.8492    14.1112 </r>
       <r>    15.9517     0.8607    14.1963 </r>
       <r>    16.0505     0.8146    14.2768 </r>
       <r>    16.1493     0.7570    14.3516 </r>
       <r>    16.2481     0.7625    14.4269 </r>
       <r>    16.3469     0.8219    14.5081 </r>
       <r>    16.4457     0.8494    14.5920 </r>
       <r>    16.5445     0.7927    14.6703 </r>
       <r>    16.6433     0.6643    14.7360 </r>
       <r>    16.7421     0.5112    14.7865 </r>
       <r>    16.8409     0.4100    14.8270 </r>
       <r>    16.9397     0.4335    14.8698 </r>
       <r>    17.0385     0.5612    14.9253 </r>
       <r>    17.1373     0.6735    14.9918 </r>
       <r>    17.2361     0.6765    15.0586 </r>
       <r>    17.3349     0.6029    15.1182 </r>
       <r>    17.4337     0.5374    15.1713 </r>
       <r>    17.5325     0.4864    15.2194 </r>
       <r>    17.6313     0.4171    15.2606 </r>
       <r>    17.7301     0.3524    15.2954 </r>
       <r>    17.8289     0.3343    15.3284 </r>
       <r>    17.9277     0.3638    15.3644 </r>
       <r>    18.0265     0.4221    15.4061 </r>
       <r>    18.1252     0.4855    15.4540 </r>
       <r>    18.2240     0.5116    15.5046 </r>
       <r>    18.3228     0.4730    15.5513 </r>
       <r>    18.4216     0.4013    15.5910 </r>
       <r>    18.5204     0.3440    15.6249 </r>
       <r>    18.6192     0.3050    15.6551 </r>
       <r>    18.7180     0.2822    15.6830 </r>
       <r>    18.8168     0.2992    15.7125 </r>
       <r>    18.9156     0.3474    15.7468 </r>
       <r>    19.0144     0.3653    15.7829 </r>
       <r>    19.1132     0.3184    15.8144 </r>
       <r>    19.2120     0.2332    15.8374 </r>
       <r>    19.3108     0.1468    15.8520 </r>
       <r>    19.4096     0.0878    15.8606 </r>
       <r>    19.5084     0.0770    15.8682 </r>
       <r>    19.6072     0.1091    15.8790 </r>
       <r>    19.7060     0.1519    15.8940 </r>
       <r>    19.8048     0.1689    15.9107 </r>
       <r>    19.9036     0.1525    15.9258 </r>
       <r>    20.0024     0.1253    15.9382 </r>
       <r>    20.1012     0.1065    15.9487 </r>
       <r>    20.2000     0.0981    15.9584 </r>
       <r>    20.2988     0.0961    15.9679 </r>
       <r>    20.3976     0.0921    15.9770 </r>
       <r>    20.4964     0.0736    15.9842 </r>
       <r>    20.5952     0.0437    15.9886 </r>
       <r>    20.6940     0.0198    15.9905 </r>
       <r>    20.7928     0.0123    15.9917 </r>
       <r>    20.8916     0.0164    15.9933 </r>
       <r>    20.9904     0.0218    15.9955 </r>
       <r>    21.0892     0.0213    15.9976 </r>
       <r>    21.1880     0.0147    15.9990 </r>
       <r>    21.2868     0.0069    15.9997 </r>
       <r>    21.3856     0.0022    15.9999 </r>
       <r>    21.4844     0.0004    16.0000 </r>
       <r>    21.5832     0.0001    16.0000 </r>
       <r>    21.6820     0.0000    16.0000 </r>
       <r>    21.7808     0.0000    16.0000 </r>
       <r>    21.8796     0.0000    16.0000 </r>
       <r>    21.9784     0.0000    16.0000 </r>
       <r>    22.0772     0.0000    16.0000 </r>
       <r>    22.1760     0.0000    16.0000 </r>
       <r>    22.2748     0.0000    16.0000 </r>
       <r>    22.3736     0.0000    16.0000 </r>
       <r>    22.4724     0.0000    16.0000 </r>
       <r>    22.5712     0.0000    16.0000 </r>
       <r>    22.6700     0.0000    16.0000 </r>
       <r>    22.7688     0.0000    16.0000 </r>
       <r>    22.8676     0.0000    16.0000 </r>
       <r>    22.9664     0.0000    16.0000 </r>
       <r>    23.0652     0.0000    16.0000 </r>
      </set>
     </set>
    </array>
   </total>
  </dos>
 </calculation>
 <structure name="finalpos" >
  <crystal>
   <varray name="basis" >
    <v>      -2.45000000       2.45000000       1.27400000 </v>
    <v>       2.45000000      -2.45000000       1.27400000 </v>
    <v>       2.45000000       2.45000000      -1.27400000 </v>
   </varray>
   <i name="volume">     30.58874000 </i>
   <varray name="rec_basis" >
    <v>       0.00000000       0.20408163       0.39246468 </v>
    <v>       0.20408163       0.00000000       0.39246468 </v>
    <v>       0.20408163       0.20408163      -0.00000000 </v>
   </varray>
  </crystal>
  <varray name="positions" >
   <v>       0.25000000       0.75000000       0.50000000 </v>
   <v>       0.00000000       0.00000000       0.00000000 </v>
  </varray>
 </structure>
</modeling>
