unknown system                          
   1.00000000000000     
    -2.450000    2.450000    1.274000
     2.450000   -2.450000    1.274000
     2.450000    2.450000   -1.274000
   Si
     2
Direct
  0.250000  0.750000  0.500000
  0.000000  0.000000  0.000000
 
   36   36   36
 -5.1462     -4.2217     -1.6830      1.8464      5.5613      8.7171      10.816      11.690      11.477      10.529    
  9.2773      8.0223      6.8761      5.9029      5.1304      4.5585      4.1715      3.9496      3.8775      3.9496    
  4.1715      4.5585      5.1304      5.9029      6.8761      8.0223      9.2773      10.529      11.477      11.690    
  10.816      8.7171      5.5613      1.8464     -1.6830     -4.2217     -4.2217     -4.7208     -3.4155     -.63841    
  2.9338      6.5007      9.3717      11.129      11.685      11.239      10.172      8.9043      7.6727      6.5708    
  5.6528      4.9379      4.4208      4.0837      3.9070      3.8773      3.9914      4.2574      4.6919      5.3144    
  6.1377      7.1562      8.3344      9.6001      10.818      11.643      11.652      10.536      8.2212      4.9467    
  1.2693     -2.0446     -1.6830     -3.4155     -3.4906     -1.8908     0.97402      4.4076      7.6501      10.093    
  11.413      11.606      10.921      9.7568      8.4930      7.2979      6.2512      5.3961      4.7436      4.2836    
  3.9970      3.8651      3.8768      4.0313      4.3387      4.8166      5.4833      6.3485      7.4010      8.5984    
  9.8625      11.035      11.747      11.604      10.344      7.9543      4.7330      1.2693      1.8464     -.63841    
 -1.8908     -1.5875     0.18936      2.9800      6.1035      8.8724      10.780      11.607      11.424      10.523    
  9.2995      8.0564      6.9103      5.9282      5.1416      4.5540      4.1514      3.9143      3.8255      3.8761    
  4.0680      4.4127      4.9281      5.6310      6.5275      7.6015      8.8050      10.056      11.178      11.804    
  11.573      10.276      7.9543      4.9467      5.5613      2.9338     0.97402     0.18936     0.78870      2.6085    
  5.1698      7.8397      10.027      11.341      11.662      11.129      10.058      8.8158      7.6083      6.5228    
  5.6122      4.8974      4.3748      4.0282      3.8381      3.7895      3.8757      4.1007      4.4771      5.0225    
  5.7520      6.6681      7.7503      8.9469      10.174      11.249      11.822      11.573      10.344      8.2212    
  8.7171      6.5007      4.4076      2.9800      2.6085      3.3974      5.1262      7.3272      9.4419      10.992    
  11.703      11.549      10.724      9.5491      8.3206      7.1630      6.1475      5.3130      4.6705      4.2113    
  3.9175      3.7709      3.7584      3.8757      4.1284      4.5297      5.0965      5.8418      6.7649      7.8418    
  9.0192      10.214      11.249      11.804      11.604      10.536      10.816      9.3717      7.6501      6.1035    
  5.1698      5.1262      5.9895      7.5097      9.2570      10.766      11.676      11.825      11.269      10.235    
  9.0246      7.8295      6.7347      5.7957      5.0390      4.4670      4.0674      3.8222      3.7144      3.7331    
  3.8761      4.1501      4.5686      5.1474      5.8970      6.8142      7.8727      9.0192      10.174      11.178    
  11.747      11.652      11.690      11.129      10.093      8.8724      7.8397      7.3272      7.5097      8.3400    
  9.5638      10.810      11.715      12.035      11.707      10.849      9.7027      8.5037      7.3590      6.3366    
  5.4774      4.7970      4.2915      3.9465      3.7442      3.6697      3.7141      3.8768      4.1652      4.5926    
  5.1733      5.9157      6.8142      7.8418      8.9469      10.056      11.035      11.643      11.477      11.685    
  11.413      10.780      10.027      9.4418      9.2570      9.5638      10.274      11.153      11.898      12.251    
  12.073      11.384      10.341      9.1695      8.0055      6.9248      5.9805      5.2010      4.5927      4.1477    
  3.8506      3.6849      3.6375      3.7014      3.8773      4.1729      4.6007      5.1733      5.8970      6.7649    
  7.7503      8.8050      9.8625      10.818      10.529      11.239      11.606      11.607      11.341      10.992    
  10.766      10.810      11.153      11.687      12.212      12.503      12.397      11.844      10.924      9.8119    
  8.6598      7.5489      6.5412      5.6766      4.9728      4.4302      4.0381      3.7814      3.6451      3.6182    
  3.6952      3.8775      4.1729      4.5926      5.1474      5.8418      6.6681      7.6015      8.5984      9.6001    
  9.2773      10.172      10.921      11.424      11.662      11.703      11.676      11.715      11.898      12.212    
  12.550      12.752      12.671      12.224      11.433      10.413      9.3062      8.1963      7.1512      6.2204    
  5.4327      4.7979      4.3122      3.9642      3.7395      3.6252      3.6117      3.6952      3.8773      4.1652    
  4.5686      5.0965      5.7520      6.5275      7.4010      8.3344      8.0223      8.9043      9.7568      10.523    
  11.129      11.549      11.825      12.035      12.251      12.503      12.752      12.905      12.849      12.501    
  11.845      10.949      9.9246      8.8514      7.7998      6.8271      5.9721      5.2547      4.6796      4.2408    
  3.9270      3.7255      3.6252      3.6182      3.7014      3.8768      4.1501      4.5297      5.0225      5.6310    
  6.3485      7.1562      6.8761      7.6727      8.4930      9.2995      10.058      10.724      11.269      11.707    
  12.073      12.397      12.671      12.849      12.857      12.626      12.125      11.387      10.487      9.4921    
  8.4716      7.4876      6.5879      5.8029      5.1465      4.6200      4.2169      3.9270      3.7395      3.6451    
  3.6375      3.7141      3.8761      4.1284      4.4771      4.9281      5.4833      6.1377      5.9029      6.5708    
  7.2979      8.0564      8.8158      9.5491      10.235      10.849      11.384      11.844      12.224      12.501    
  12.626      12.547      12.232      11.689      10.957      10.088      9.1431      8.1864      7.2725      6.4414    
  5.7173      5.1102      4.6200      4.2408      3.9642      3.7814      3.6849      3.6697      3.7331      3.8757    
  4.1007      4.4127      4.8166      5.3144      5.1304      5.6528      6.2512      6.9103      7.6083      8.3206    
  9.0246      9.7027      10.341      10.924      11.433      11.845      12.125      12.232      12.133      11.817    
  11.295      10.600      9.7811      8.8986      8.0098      7.1629      6.3921      5.7173      5.1465      4.6796    
  4.3122      4.0381      3.8506      3.7442      3.7144      3.7584      3.8757      4.0680      4.3387      4.6919    
  4.5585      4.9379      5.3961      5.9282      6.5228      7.1630      7.8296      8.5037      9.1694      9.8119    
  10.413      10.949      11.387      11.689      11.817      11.745      11.464      10.986      10.345      9.5886    
  8.7728      7.9500      7.1629      6.4414      5.8029      5.2547      4.7979      4.4302      4.1477      3.9465    
  3.8222      3.7709      3.7895      3.8761      4.0313      4.2574      4.1715      4.4208      4.7436      5.1416    
  5.6122      6.1475      6.7347      7.3590      8.0055      8.6598      9.3062      9.9246      10.487      10.957    
  11.295      11.464      11.438      11.209      10.790      10.212      9.5230      8.7728      8.0098      7.2725    
  6.5879      5.9721      5.4327      4.9728      4.5927      4.2915      4.0674      3.9175      3.8381      3.8255    
  3.8768      3.9914      3.9496      4.0837      4.2836      4.5540      4.8974      5.3130      5.7957      6.3366    
  6.9248      7.5489      8.1963      8.8514      9.4921      10.088      10.600      10.986      11.209      11.242    
  11.076      10.722      10.212      9.5886      8.8986      8.1864      7.4876      6.8271      6.2204      5.6766    
  5.2010      4.7970      4.4670      4.2113      4.0282      3.9143      3.8651      3.8773      3.8775      3.9070    
  3.9970      4.1514      4.3748      4.6705      5.0390      5.4774      5.9805      6.5412      7.1512      7.7998    
  8.4716      9.1431      9.7811      10.345      10.790      11.076      11.174      11.076      10.790      10.345    
  9.7811      9.1431      8.4716      7.7998      7.1512      6.5412      5.9805      5.4774      5.0390      4.6705    
  4.3748      4.1514      3.9970      3.9070      3.9496      3.8773      3.8651      3.9143      4.0282      4.2113    
  4.4670      4.7970      5.2010      5.6766      6.2204      6.8271      7.4876      8.1864      8.8986      9.5886    
  10.212      10.722      11.076      11.242      11.209      10.986      10.600      10.088      9.4921      8.8514    
  8.1963      7.5489      6.9248      6.3366      5.7957      5.3130      4.8974      4.5540      4.2836      4.0837    
  4.1715      3.9914      3.8768      3.8255      3.8381      3.9175      4.0674      4.2915      4.5927      4.9728    
  5.4327      5.9721      6.5879      7.2725      8.0098      8.7728      9.5230      10.212      10.790      11.209    
  11.438      11.464      11.295      10.957      10.487      9.9246      9.3062      8.6598      8.0055      7.3590    
  6.7347      6.1475      5.6122      5.1416      4.7436      4.4208      4.5585      4.2574      4.0313      3.8761    
  3.7895      3.7709      3.8222      3.9465      4.1477      4.4302      4.7979      5.2547      5.8029      6.4414    
  7.1629      7.9500      8.7728      9.5886      10.345      10.986      11.464      11.745      11.817      11.689    
  11.387      10.949      10.413      9.8119      9.1695      8.5037      7.8295      7.1630      6.5228      5.9282    
  5.3961      4.9379      5.1304      4.6919      4.3387      4.0680      3.8757      3.7584      3.7144      3.7442    
  3.8506      4.0381      4.3122      4.6796      5.1465      5.7173      6.3921      7.1629      8.0098      8.8986    
  9.7811      10.600      11.295      11.817      12.133      12.232      12.125      11.845      11.433      10.924    
  10.341      9.7027      9.0246      8.3206      7.6083      6.9103      6.2512      5.6528      5.9029      5.3144    
  4.8166      4.4127      4.1007      3.8757      3.7331      3.6697      3.6849      3.7814      3.9642      4.2408    
  4.6200      5.1102      5.7173      6.4414      7.2725      8.1864      9.1431      10.088      10.957      11.689    
  12.232      12.547      12.626      12.501      12.224      11.844      11.384      10.849      10.235      9.5491    
  8.8158      8.0564      7.2979      6.5708      6.8761      6.1377      5.4833      4.9281      4.4771      4.1284    
  3.8761      3.7141      3.6375      3.6451      3.7395      3.9270      4.2169      4.6200      5.1465      5.8029    
  6.5879      7.4876      8.4716      9.4921      10.487      11.387      12.125      12.626      12.857      12.849    
  12.671      12.397      12.073      11.707      11.269      10.724      10.058      9.2995      8.4930      7.6727    
  8.0223      7.1562      6.3485      5.6310      5.0225      4.5297      4.1501      3.8768      3.7014      3.6182    
  3.6252      3.7255      3.9270      4.2408      4.6796      5.2547      5.9721      6.8271      7.7998      8.8514    
  9.9246      10.949      11.845      12.501      12.849      12.905      12.752      12.503      12.251      12.035    
  11.825      11.549      11.129      10.523      9.7568      8.9043      9.2773      8.3344      7.4010      6.5275    
  5.7520      5.0965      4.5686      4.1652      3.8773      3.6952      3.6117      3.6252      3.7395      3.9642    
  4.3122      4.7979      5.4327      6.2204      7.1512      8.1963      9.3062      10.413      11.433      12.224    
  12.671      12.752      12.550      12.212      11.898      11.715      11.676      11.703      11.662      11.424    
  10.921      10.172      10.529      9.6001      8.5984      7.6015      6.6681      5.8418      5.1474      4.5926    
  4.1729      3.8775      3.6952      3.6182      3.6451      3.7814      4.0381      4.4302      4.9728      5.6766    
  6.5412      7.5489      8.6598      9.8119      10.924      11.844      12.397      12.503      12.212      11.687    
  11.153      10.810      10.766      10.992      11.341      11.607      11.606      11.239      11.477      10.818    
  9.8625      8.8050      7.7503      6.7649      5.8970      5.1733      4.6007      4.1729      3.8773      3.7014    
  3.6375      3.6849      3.8506      4.1477      4.5927      5.2010      5.9805      6.9248      8.0055      9.1694    
  10.341      11.384      12.073      12.251      11.898      11.153      10.274      9.5638      9.2570      9.4419    
  10.027      10.780      11.413      11.685      11.690      11.643      11.035      10.056      8.9469      7.8418    
  6.8142      5.9157      5.1733      4.5926      4.1652      3.8768      3.7141      3.6697      3.7442      3.9465    
  4.2915      4.7970      5.4774      6.3366      7.3590      8.5037      9.7027      10.849      11.707      12.035    
  11.715      10.810      9.5638      8.3400      7.5097      7.3272      7.8397      8.8724      10.093      11.129    
  10.816      11.652      11.747      11.178      10.174      9.0192      7.8727      6.8142      5.8970      5.1474    
  4.5686      4.1501      3.8761      3.7331      3.7144      3.8222      4.0674      4.4670      5.0390      5.7957    
  6.7347      7.8296      9.0246      10.235      11.269      11.825      11.676      10.766      9.2570      7.5097    
  5.9895      5.1262      5.1698      6.1035      7.6501      9.3717      8.7171      10.536      11.604      11.804    
  11.249      10.214      9.0192      7.8418      6.7649      5.8418      5.0965      4.5297      4.1284      3.8757    
  3.7584      3.7709      3.9175      4.2113      4.6705      5.3130      6.1475      7.1630      8.3206      9.5491    
  10.724      11.549      11.703      10.992      9.4418      7.3272      5.1262      3.3974      2.6085      2.9800    
  4.4076      6.5007      5.5613      8.2212      10.344      11.573      11.822      11.249      10.174      8.9469    
  7.7503      6.6681      5.7520      5.0225      4.4771      4.1007      3.8757      3.7895      3.8381      4.0282    
  4.3748      4.8974      5.6122      6.5228      7.6083      8.8158      10.058      11.129      11.662      11.341    
  10.027      7.8397      5.1698      2.6085     0.78870     0.18936     0.97402      2.9338      1.8464      4.9467    
  7.9543      10.276      11.573      11.804      11.178      10.056      8.8050      7.6015      6.5275      5.6310    
  4.9281      4.4127      4.0680      3.8761      3.8255      3.9143      4.1514      4.5540      5.1416      5.9282    
  6.9103      8.0564      9.2995      10.523      11.424      11.607      10.780      8.8724      6.1035      2.9800    
 0.18936     -1.5875     -1.8908     -.63841     -1.6830      1.2693      4.7330      7.9543      10.344      11.604    
  11.747      11.035      9.8625      8.5984      7.4010      6.3485      5.4833      4.8166      4.3387      4.0313    
  3.8768      3.8651      3.9970      4.2836      4.7436      5.3961      6.2512      7.2979      8.4930      9.7568    
  10.921      11.606      11.413      10.093      7.6501      4.4076     0.97402     -1.8908     -3.4906     -3.4155    
 -4.2217     -2.0446      1.2693      4.9467      8.2212      10.536      11.652      11.643      10.818      9.6001    
  8.3344      7.1562      6.1377      5.3144      4.6919      4.2574      3.9914      3.8773      3.9070      4.0837    
  4.4208      4.9379      5.6528      6.5708      7.6727      8.9043      10.172      11.239      11.685      11.129    
  9.3717      6.5007      2.9338     -.63841     -3.4155     -4.7208     -4.2217     -3.5289     -1.2674      2.0034    
  5.5259      8.5749      10.644      11.539      11.367      10.451      9.2105      7.9543      6.7995      5.8127    
  5.0238      4.4342      4.0290      3.7880      3.6952      3.7434      3.9371      4.2908      4.8242      5.5548    
  6.4865      7.5973      8.8298      10.086      11.111      11.487      10.857      9.0526      6.1985      2.7360    
 -.64381     -3.1703     -3.5289     -4.2217     -3.1703     -.64381      2.7359      6.1985      9.0526      10.857    
  11.487      11.111      10.086      8.8298      7.5973      6.4865      5.5548      4.8242      4.2908      3.9371    
  3.7434      3.6952      3.7880      4.0290      4.4342      5.0238      5.8127      6.7995      7.9543      9.2105    
  10.451      11.367      11.539      10.644      8.5749      5.5259      2.0034     -1.2674     -1.2042     -3.1028    
 -3.4156     -2.0663     0.59625      3.9168      7.1456      9.6549      11.085      11.390      10.792      9.6700    
  8.4162      7.2194      6.1633      5.2948      4.6276      4.1529      3.8519      3.7055      3.7014      3.8381    
  4.1247      4.5787      5.2197      6.0597      7.0919      8.2787      9.5468      10.758      11.568      11.577    
  10.502      8.2966      5.2156      1.8060      2.1679     -.46115     -1.9387     -1.8909     -.33723      2.3148    
  5.4085      8.2468      10.289      11.270      11.220      10.407      9.2171      7.9819      6.8326      5.8404    
  5.0409      4.4399      4.0247      3.7758      3.6755      3.7141      3.8924      4.2216      4.7198      5.4055    
  6.2874      7.3533      8.5596      9.8281      11.002      11.724      11.624      10.468      8.2636      5.3093    
  5.7978      3.0480     0.87944     -.16266     0.18934      1.8318      4.3251      7.0420      9.3658      10.859    
  11.356      10.958      9.9621      8.7426      7.5398      6.4489      5.5278      4.8008      4.2667      3.9100    
  3.7112      3.6547      3.7331      3.9496      4.3168      4.8530      5.5749      6.4878      7.5746      8.7872    
  10.045      11.179      11.840      11.696      10.560      8.4858      8.9362      6.6228      4.3462      2.6712    
  2.0371      2.6085      4.2166      6.4171      8.6409      10.371      11.283      11.304      10.597      9.4744    
  8.2597      7.1028      6.0799      5.2347      4.5814      4.1129      3.8121      3.6603      3.6440      3.7584    
  4.0084      4.4077      4.9740      5.7220      6.6536      7.7476      8.9531      10.189      11.286      11.919    
  11.794      10.770      11.067      9.5552      7.6849      5.9172      4.7240      4.4359      5.1262      6.5838    
  8.3869      10.046      11.155      11.501      11.098      10.152      8.9698      7.7821      6.6839      5.7361    
  4.9692      4.3883      3.9823      3.7334      3.6244      3.6440      3.7895      4.0673      4.4913      5.0786    
  5.8414      6.7785      7.8657      9.0510      10.256      11.321      11.954      11.903      12.000      11.403    
  10.259      8.8583      7.5908      6.8296      6.8026      7.5097      8.7222      10.063      11.135      11.647    
  11.491      10.749      9.6537      8.4679      7.3243      6.2954      5.4269      4.7377      4.2259      3.8778    
  3.6758      3.6045      3.6547      3.8255      4.1243      4.5650      5.1632      5.9287      6.8575      7.9238    
  9.0763      10.241      11.279      11.935      11.848      12.051      11.717      10.953      10.008      9.1947    
  8.7890      8.9293      9.5639      10.468      11.327      11.841      11.828      11.268      10.297      9.1447    
  7.9854      6.9007      5.9483      5.1602      4.5455      4.0976      3.8013      3.6401      3.6006      3.6755    
  3.8651      4.1776      4.6261      5.2245      5.9803      6.8873      7.9194      9.0274      10.143      11.154    
  10.945      11.679      12.025      11.949      11.544      11.009      10.577      10.437      10.657      11.153    
  11.724      12.125      12.154      11.723      10.883      9.7984      8.6527      7.5396      6.5250      5.6522    
  4.9420      4.3963      4.0053      3.7538      3.6268      3.6125      3.7055      3.9070      4.2252      4.6723    
  5.2601      5.9939      6.8663      7.8518      8.9051      9.9646      9.7113      10.652      11.418      11.893    
  12.049      11.956      11.761      11.625      11.663      11.890      12.212      12.464      12.472      12.122    
  11.402      10.412      9.3104      8.1988      7.1474      6.2089      5.4150      4.7772      4.2928      3.9505    
  3.7358      3.6354      3.6393      3.7434      3.9496      4.2655      4.7019      5.2685      5.9688      6.7950    
  7.7233      8.7135      8.4590      9.3910      10.283      11.063      11.638      11.981      12.138      12.204    
  12.279      12.419      12.607      12.752      12.733      12.441      11.836      10.962      9.9383      8.8619    
  7.8038      6.8235      5.9624      5.2423      4.6689      4.2365      3.9336      3.7471      3.6653      3.6800    
  3.7880      3.9914      4.2969      4.7135      5.2490      5.9056      6.6757      7.5384      7.3042      8.1510    
  9.0146      9.8526      10.622      11.261      11.739      12.076      12.325      12.536      12.724      12.853    
  12.849      12.631      12.149      11.416      10.508      9.5063      8.4777      7.4857      6.5800      5.7926    
  5.1385      4.6193      4.2283      3.9547      3.7872      3.7157      3.7335      3.8381      4.0313      4.3184    
  4.7068      5.2023      5.8066      6.5130      6.3132      7.0295      7.8007      8.5949      9.3772      10.116    
  10.779      11.338      11.792      12.157      12.448      12.652      12.730      12.626      12.296      11.734    
  10.984      10.101      9.1452      8.1792      7.2590      6.4258      5.7047      5.1060      4.6294      4.2683    
  4.0135      3.8552      3.7854      3.7985      3.8924      4.0680      4.3294      4.6818      5.1301      5.6755    
  5.5176      6.0843      6.7249      7.4208      8.1464      8.8731      9.5744      10.230      10.824      11.340    
  11.773      12.109      12.322      12.376      12.232      11.878      11.326      10.608      9.7732      8.8787    
  7.9827      7.1338      6.3668      5.7016      5.1461      4.6994      4.3561      4.1088      3.9500      3.8731    
  3.8738      3.9496      4.1007      4.3294      4.6395      5.0350      4.9208      5.3391      5.8351      6.4018    
  7.0250      7.6845      8.3572      9.0217      9.6603      10.259      10.802      11.271      11.638      11.873    
  11.940      11.817      11.495      10.985      10.321      9.5491      8.7244      7.8992      7.1164      6.4058    
  5.7843      5.2586      4.8286      4.4905      4.2394      4.0700      3.9774      3.9578      4.0084      4.1283    
  4.3184      4.5814      4.5096      4.7919      5.1468      5.5749      6.0717      6.6269      7.2247      7.8474    
  8.4777      9.1002      9.7003      10.261      10.757      11.159      11.431      11.541      11.464      11.195    
  10.745      10.147      9.4462      8.6928      7.9342      7.2087      6.5428      5.9516      5.4418      5.0149    
  4.6694      4.4031      4.2131      4.0960      4.0485      4.0673      4.1501      4.2969      4.2655      4.4269    
  4.6530      4.9478      5.3129      5.7459      6.2396      6.7825      7.3613      7.9629      8.5741      9.1804    
  9.7621      10.293      10.738      11.060      11.225      11.209      11.006      10.626      10.102      9.4731    
  8.7874      8.0878      7.4090      6.7750      6.2004      5.6925      5.2550      4.8896      4.5969      4.3766    
  4.2266      4.1437      4.1243      4.1652      4.1729      4.2252      4.3361      4.5093      4.7490      5.0577    
  5.4346      5.8751      6.3718      6.9156      7.4968      8.1046      8.7246      9.3358      9.9086      10.406    
  10.789      11.021      11.076      10.946      10.641      10.190      9.6300      9.0051      8.3549      7.7112    
  7.0963      6.5246      6.0051      5.5440      5.1466      4.8169      4.5567      4.3656      4.2406      4.1776    
  4.2252      4.1729      4.1776      4.2406      4.3656      4.5567      4.8169      5.1466      5.5440      6.0051    
  6.5246      7.0963      7.7112      8.3549      9.0051      9.6300      10.190      10.641      10.946      11.076    
  11.021      10.789      10.406      9.9086      9.3358      8.7246      8.1046      7.4968      6.9156      6.3718    
  5.8751      5.4346      5.0577      4.7490      4.5093      4.3361      4.4269      4.2655      4.1652      4.1243    
  4.1437      4.2266      4.3766      4.5969      4.8896      5.2550      5.6925      6.2004      6.7750      7.4090    
  8.0878      8.7874      9.4731      10.102      10.626      11.006      11.209      11.225      11.060      10.738    
  10.293      9.7622      9.1804      8.5741      7.9629      7.3613      6.7825      6.2396      5.7459      5.3129    
  4.9477      4.6530      4.7918      4.5096      4.2969      4.1501      4.0673      4.0485      4.0961      4.2131    
  4.4031      4.6694      5.0149      5.4418      5.9516      6.5428      7.2087      7.9342      8.6928      9.4462    
  10.147      10.745      11.195      11.464      11.541      11.431      11.159      10.757      10.261      9.7003    
  9.1002      8.4777      7.8474      7.2247      6.6269      6.0718      5.5749      5.1468      5.3391      4.9208    
  4.5814      4.3184      4.1284      4.0084      3.9578      3.9774      4.0700      4.2394      4.4905      4.8286    
  5.2586      5.7843      6.4058      7.1164      7.8992      8.7244      9.5491      10.321      10.985      11.495    
  11.817      11.940      11.873      11.638      11.271      10.802      10.259      9.6603      9.0217      8.3572    
  7.6844      7.0250      6.4018      5.8351      6.0843      5.5176      5.0350      4.6395      4.3294      4.1007    
  3.9496      3.8738      3.8732      3.9500      4.1088      4.3561      4.6994      5.1461      5.7016      6.3668    
  7.1338      7.9827      8.8787      9.7732      10.608      11.326      11.878      12.232      12.376      12.322    
  12.109      11.773      11.340      10.824      10.230      9.5744      8.8731      8.1464      7.4208      6.7249    
  7.0295      6.3132      5.6755      5.1301      4.6818      4.3294      4.0680      3.8924      3.7986      3.7854    
  3.8552      4.0135      4.2683      4.6294      5.1060      5.7047      6.4258      7.2590      8.1792      9.1452    
  10.101      10.984      11.734      12.296      12.626      12.730      12.652      12.448      12.157      11.792    
  11.338      10.779      10.116      9.3772      8.5949      7.8006      8.1510      7.3041      6.5130      5.8066    
  5.2023      4.7068      4.3185      4.0313      3.8381      3.7335      3.7157      3.7872      3.9547      4.2283    
  4.6193      5.1385      5.7926      6.5800      7.4857      8.4777      9.5063      10.508      11.416      12.149    
  12.631      12.849      12.853      12.724      12.536      12.325      12.076      11.739      11.261      10.622    
  9.8526      9.0146      9.3910      8.4590      7.5384      6.6757      5.9056      5.2490      4.7135      4.2969    
  3.9914      3.7880      3.6801      3.6653      3.7471      3.9336      4.2365      4.6689      5.2423      5.9624    
  6.8235      7.8038      8.8619      9.9383      10.962      11.836      12.441      12.733      12.752      12.607    
  12.419      12.279      12.204      12.138      11.981      11.638      11.063      10.283      10.652      9.7113    
  8.7134      7.7233      6.7950      5.9688      5.2685      4.7019      4.2655      3.9496      3.7434      3.6393    
  3.6354      3.7358      3.9505      4.2928      4.7772      5.4150      6.2089      7.1474      8.1988      9.3104    
  10.412      11.402      12.122      12.472      12.464      12.212      11.890      11.663      11.625      11.761    
  11.956      12.049      11.893      11.418      11.679      10.945      9.9646      8.9051      7.8518      6.8663    
  5.9940      5.2601      4.6723      4.2252      3.9070      3.7054      3.6125      3.6268      3.7538      4.0053    
  4.3963      4.9420      5.6522      6.5250      7.5397      8.6527      9.7984      10.883      11.723      12.154    
  12.125      11.724      11.153      10.657      10.437      10.577      11.009      11.544      11.949      12.025    
  12.051      11.848      11.154      10.143      9.0274      7.9193      6.8873      5.9803      5.2245      4.6261    
  4.1776      3.8651      3.6755      3.6006      3.6401      3.8013      4.0976      4.5455      5.1602      5.9483    
  6.9007      7.9854      9.1447      10.297      11.268      11.828      11.841      11.327      10.468      9.5639    
  8.9293      8.7890      9.1947      10.008      10.953      11.717      11.403      12.000      11.935      11.279    
  10.241      9.0763      7.9238      6.8575      5.9287      5.1631      4.5650      4.1243      3.8254      3.6547    
  3.6045      3.6758      3.8778      4.2259      4.7378      5.4269      6.2954      7.3243      8.4679      9.6537    
  10.749      11.491      11.647      11.135      10.063      8.7222      7.5098      6.8026      6.8296      7.5908    
  8.8583      10.259      9.5552      11.067      11.903      11.954      11.321      10.256      9.0510      7.8657    
  6.7785      5.8414      5.0786      4.4913      4.0672      3.7895      3.6440      3.6244      3.7334      3.9823    
  4.3883      4.9692      5.7361      6.6839      7.7821      8.9698      10.152      11.098      11.501      11.155    
  10.046      8.3869      6.5838      5.1262      4.4359      4.7240      5.9172      7.6849      6.6228      8.9362    