   2   2   0   0
  0.1529437E+02  0.3691622E-09  0.3691622E-09  0.3691622E-09  0.5000000E-15
  1.000000000000000E-004
  CAR 
 unknown system                          
     20.23199243     -5.16617519  301      8.51214597      1.00000000
     -5.166  0.0000E+00  0.0000E+00
     -5.082  0.0000E+00  0.0000E+00
     -4.997  0.0000E+00  0.0000E+00
     -4.912  0.0000E+00  0.0000E+00
     -4.828  0.0000E+00  0.0000E+00
     -4.743  0.0000E+00  0.0000E+00
     -4.658  0.0000E+00  0.0000E+00
     -4.574  0.0000E+00  0.0000E+00
     -4.489  0.0000E+00  0.0000E+00
     -4.404  0.0000E+00  0.0000E+00
     -4.320  0.1311E-15  0.1110E-16
     -4.235  0.1609E-13  0.1373E-14
     -4.150  0.1338E-11  0.1147E-12
     -4.066  0.7818E-10  0.6734E-11
     -3.981  0.3209E-08  0.2784E-09
     -3.896  0.9264E-07  0.8121E-08
     -3.812  0.1881E-05  0.1674E-06
     -3.727  0.2689E-04  0.2444E-05
     -3.642  0.2708E-03  0.2537E-04
     -3.558  0.1921E-02  0.1880E-03
     -3.473  0.9614E-02  0.1002E-02
     -3.388  0.3394E-01  0.3875E-02
     -3.304  0.8456E-01  0.1103E-01
     -3.219  0.1488E+00  0.2363E-01
     -3.134  0.1848E+00  0.3927E-01
     -3.050  0.1621E+00  0.5300E-01
     -2.965  0.1005E+00  0.6150E-01
     -2.880  0.4395E-01  0.6522E-01
     -2.796  0.1357E-01  0.6637E-01
     -2.711  0.2957E-02  0.6662E-01
     -2.626  0.4543E-03  0.6666E-01
     -2.542  0.4921E-04  0.6667E-01
     -2.457  0.3754E-05  0.6667E-01
     -2.372  0.2017E-06  0.6667E-01
     -2.288  0.7623E-08  0.6667E-01
     -2.203  0.2026E-09  0.6667E-01
     -2.118  0.3785E-11  0.6667E-01
     -2.034  0.4966E-13  0.6667E-01
     -1.949  0.5246E-15  0.6667E-01
     -1.864  0.0000E+00  0.6667E-01
     -1.780  0.0000E+00  0.6667E-01
     -1.695  0.0000E+00  0.6667E-01
     -1.610  0.0000E+00  0.6667E-01
     -1.526  0.0000E+00  0.6667E-01
     -1.441  0.0000E+00  0.6667E-01
     -1.356  0.0000E+00  0.6667E-01
     -1.272  0.0000E+00  0.6667E-01
     -1.187  0.0000E+00  0.6667E-01
     -1.102  0.0000E+00  0.6667E-01
     -1.018  0.0000E+00  0.6667E-01
     -0.933  0.0000E+00  0.6667E-01
     -0.848  0.0000E+00  0.6667E-01
     -0.764  0.0000E+00  0.6667E-01
     -0.679  0.0000E+00  0.6667E-01
     -0.595  0.0000E+00  0.6667E-01
     -0.510  0.0000E+00  0.6667E-01
     -0.425  0.0000E+00  0.6667E-01
     -0.341  0.2186E-16  0.6667E-01
     -0.256  0.4043E-14  0.6667E-01
     -0.171  0.3542E-12  0.6667E-01
     -0.087  0.2181E-10  0.6667E-01
     -0.002  0.9436E-09  0.6667E-01
      0.083  0.2870E-07  0.6667E-01
      0.167  0.6142E-06  0.6667E-01
      0.252  0.9251E-05  0.6667E-01
      0.337  0.9813E-04  0.6668E-01
      0.421  0.7335E-03  0.6674E-01
      0.506  0.3866E-02  0.6707E-01
      0.591  0.1438E-01  0.6828E-01
      0.675  0.3773E-01  0.7148E-01
      0.760  0.6990E-01  0.7739E-01
      0.845  0.9146E-01  0.8514E-01
      0.929  0.8450E-01  0.9229E-01
      1.014  0.5514E-01  0.9696E-01
      1.099  0.2541E-01  0.9911E-01
      1.183  0.8264E-02  0.9981E-01
      1.268  0.1901E-02  0.9997E-01
      1.353  0.3639E-03  0.1000E+00
      1.437  0.5495E-03  0.1000E+00
      1.522  0.3280E-02  0.1003E+00
      1.607  0.1473E-01  0.1016E+00
      1.691  0.4668E-01  0.1055E+00
      1.776  0.1045E+00  0.1144E+00
      1.861  0.1651E+00  0.1283E+00
      1.945  0.1842E+00  0.1439E+00
      2.030  0.1452E+00  0.1562E+00
      2.115  0.8078E-01  0.1631E+00
      2.199  0.3174E-01  0.1658E+00
      2.284  0.8801E-02  0.1665E+00
      2.369  0.1722E-02  0.1666E+00
      2.453  0.2375E-03  0.1667E+00
      2.538  0.2309E-04  0.1667E+00
      2.623  0.1625E-05  0.1667E+00
      2.707  0.1037E-05  0.1667E+00
      2.792  0.1491E-04  0.1667E+00
      2.877  0.1629E-03  0.1667E+00
      2.961  0.1256E-02  0.1668E+00
      3.046  0.6830E-02  0.1674E+00
      3.131  0.2630E-01  0.1696E+00
      3.215  0.7211E-01  0.1757E+00
      3.300  0.1429E+00  0.1878E+00
      3.385  0.2118E+00  0.2057E+00
      3.469  0.2513E+00  0.2270E+00
      3.554  0.2594E+00  0.2490E+00
      3.639  0.2409E+00  0.2694E+00
      3.723  0.1956E+00  0.2859E+00
      3.808  0.1475E+00  0.2984E+00
      3.893  0.1378E+00  0.3101E+00
      3.977  0.1682E+00  0.3243E+00
      4.062  0.1887E+00  0.3403E+00
      4.146  0.1592E+00  0.3538E+00
      4.231  0.9599E-01  0.3619E+00
      4.316  0.4097E-01  0.3654E+00
      4.400  0.1235E-01  0.3664E+00
      4.485  0.2626E-02  0.3666E+00
      4.570  0.3938E-03  0.3667E+00
      4.654  0.4163E-04  0.3667E+00
      4.739  0.3100E-05  0.3667E+00
      4.824  0.1625E-06  0.3667E+00
      4.908  0.7257E-08  0.3667E+00
      4.993  0.3783E-07  0.3667E+00
      5.078  0.7933E-06  0.3667E+00
      5.162  0.1182E-04  0.3667E+00
      5.247  0.1248E-03  0.3667E+00
      5.332  0.9384E-03  0.3668E+00
      5.416  0.5041E-02  0.3672E+00
      5.501  0.1944E-01  0.3688E+00
      5.586  0.5414E-01  0.3734E+00
      5.670  0.1094E+00  0.3827E+00
      5.755  0.1614E+00  0.3963E+00
      5.840  0.1741E+00  0.4111E+00
      5.924  0.1375E+00  0.4227E+00
      6.009  0.7933E-01  0.4294E+00
      6.094  0.3331E-01  0.4323E+00
      6.178  0.1013E-01  0.4331E+00
      6.263  0.2216E-02  0.4333E+00
      6.348  0.3473E-03  0.4333E+00
      6.432  0.3882E-04  0.4333E+00
      6.517  0.3168E-05  0.4333E+00
      6.602  0.1951E-05  0.4333E+00
      6.686  0.2560E-04  0.4333E+00
      6.771  0.2595E-03  0.4334E+00
      6.856  0.1854E-02  0.4335E+00
      6.940  0.9343E-02  0.4343E+00
      7.025  0.3321E-01  0.4371E+00
      7.110  0.8333E-01  0.4442E+00
      7.194  0.1476E+00  0.4567E+00
      7.279  0.1846E+00  0.4723E+00
      7.364  0.1631E+00  0.4861E+00
      7.448  0.1018E+00  0.4947E+00
      7.533  0.4482E-01  0.4985E+00
      7.618  0.1394E-01  0.4997E+00
      7.702  0.3058E-02  0.5000E+00
      7.787  0.4732E-03  0.5000E+00
      7.872  0.5381E-04  0.5000E+00
      7.956  0.3494E-04  0.5000E+00
      8.041  0.3059E-03  0.5000E+00
      8.126  0.2126E-02  0.5002E+00
      8.210  0.1043E-01  0.5011E+00
      8.295  0.3609E-01  0.5041E+00
      8.380  0.8816E-01  0.5116E+00
      8.464  0.1520E+00  0.5245E+00
      8.549  0.1851E+00  0.5402E+00
      8.633  0.1592E+00  0.5536E+00
      8.718  0.9672E-01  0.5618E+00
      8.803  0.4148E-01  0.5653E+00
      8.887  0.1256E-01  0.5664E+00
      8.972  0.2682E-02  0.5666E+00
      9.057  0.4039E-03  0.5667E+00
      9.141  0.4288E-04  0.5667E+00
      9.226  0.3207E-05  0.5667E+00
      9.311  0.1689E-06  0.5667E+00
      9.395  0.6255E-08  0.5667E+00
      9.480  0.1629E-09  0.5667E+00
      9.565  0.2983E-11  0.5667E+00
      9.649  0.3838E-13  0.5667E+00
      9.734  0.3497E-15  0.5667E+00
      9.819  0.0000E+00  0.5667E+00
      9.903  0.0000E+00  0.5667E+00
      9.988  0.0000E+00  0.5667E+00
     10.073  0.0000E+00  0.5667E+00
     10.157  0.0000E+00  0.5667E+00
     10.242  0.0000E+00  0.5667E+00
     10.327  0.0000E+00  0.5667E+00
     10.411  0.7213E-15  0.5667E+00
     10.496  0.7193E-13  0.5667E+00
     10.581  0.5038E-11  0.5667E+00
     10.665  0.2480E-09  0.5667E+00
     10.750  0.8579E-08  0.5667E+00
     10.835  0.2088E-06  0.5667E+00
     10.919  0.3575E-05  0.5667E+00
     11.004  0.4310E-04  0.5667E+00
     11.089  0.3661E-03  0.5667E+00
     11.173  0.2193E-02  0.5669E+00
     11.258  0.9262E-02  0.5677E+00
     11.343  0.2761E-01  0.5700E+00
     11.427  0.5809E-01  0.5749E+00
     11.512  0.8631E-01  0.5822E+00
     11.597  0.9057E-01  0.5899E+00
     11.681  0.6715E-01  0.5956E+00
     11.766  0.3551E-01  0.5986E+00
     11.851  0.1560E-01  0.5999E+00
     11.935  0.1572E-01  0.6012E+00
     12.020  0.4156E-01  0.6048E+00
     12.105  0.9597E-01  0.6129E+00
     12.189  0.1586E+00  0.6263E+00
     12.274  0.1852E+00  0.6420E+00
     12.359  0.1530E+00  0.6549E+00
     12.443  0.9060E-01  0.6626E+00
     12.528  0.4501E-01  0.6664E+00
     12.613  0.4133E-01  0.6699E+00
     12.697  0.8135E-01  0.6768E+00
     12.782  0.1454E+00  0.6891E+00
     12.867  0.1927E+00  0.7054E+00
     12.951  0.1985E+00  0.7222E+00
     13.036  0.1877E+00  0.7381E+00
     13.121  0.1937E+00  0.7545E+00
     13.205  0.1996E+00  0.7714E+00
     13.290  0.1682E+00  0.7857E+00
     13.374  0.1045E+00  0.7945E+00
     13.459  0.4640E-01  0.7984E+00
     13.544  0.1458E-01  0.7997E+00
     13.628  0.3236E-02  0.8000E+00
     13.713  0.5066E-03  0.8000E+00
     13.798  0.5590E-04  0.8000E+00
     13.882  0.4346E-05  0.8000E+00
     13.967  0.2379E-06  0.8000E+00
     14.052  0.9170E-08  0.8000E+00
     14.136  0.7197E-09  0.8000E+00
     14.221  0.1640E-07  0.8000E+00
     14.306  0.4008E-06  0.8000E+00
     14.390  0.6896E-05  0.8000E+00
     14.475  0.8354E-04  0.8000E+00
     14.560  0.7130E-03  0.8001E+00
     14.644  0.4290E-02  0.8004E+00
     14.729  0.1821E-01  0.8020E+00
     14.814  0.5453E-01  0.8066E+00
     14.898  0.1153E+00  0.8163E+00
     14.983  0.1721E+00  0.8309E+00
     15.068  0.1814E+00  0.8463E+00
     15.152  0.1351E+00  0.8577E+00
     15.237  0.7102E-01  0.8637E+00
     15.322  0.2636E-01  0.8660E+00
     15.406  0.6912E-02  0.8665E+00
     15.491  0.1359E-02  0.8667E+00
     15.576  0.8788E-03  0.8667E+00
     15.660  0.4303E-02  0.8671E+00
     15.745  0.1820E-01  0.8686E+00
     15.830  0.5451E-01  0.8733E+00
     15.914  0.1153E+00  0.8830E+00
     15.999  0.1721E+00  0.8976E+00
     16.084  0.1814E+00  0.9129E+00
     16.168  0.1351E+00  0.9244E+00
     16.253  0.7104E-01  0.9304E+00
     16.338  0.2637E-01  0.9326E+00
     16.422  0.6908E-02  0.9332E+00
     16.507  0.1277E-02  0.9333E+00
     16.592  0.1719E-03  0.9333E+00
     16.676  0.8410E-04  0.9333E+00
     16.761  0.6058E-03  0.9334E+00
     16.846  0.3746E-02  0.9337E+00
     16.930  0.1637E-01  0.9351E+00
     17.015  0.5045E-01  0.9394E+00
     17.100  0.1098E+00  0.9487E+00
     17.184  0.1687E+00  0.9629E+00
     17.269  0.1830E+00  0.9784E+00
     17.354  0.1403E+00  0.9903E+00
     17.438  0.7591E-01  0.9967E+00
     17.523  0.2900E-01  0.9992E+00
     17.608  0.7824E-02  0.9999E+00
     17.692  0.1537E-02  0.1000E+01
     17.777  0.6538E-03  0.1000E+01
     17.861  0.2975E-02  0.1000E+01
     17.946  0.1357E-01  0.1001E+01
     18.031  0.4395E-01  0.1005E+01
     18.115  0.1005E+00  0.1014E+01
     18.200  0.1621E+00  0.1027E+01
     18.285  0.1848E+00  0.1043E+01
     18.369  0.1488E+00  0.1056E+01
     18.454  0.8456E-01  0.1063E+01
     18.539  0.3394E-01  0.1066E+01
     18.623  0.9614E-02  0.1066E+01
     18.708  0.1921E-02  0.1067E+01
     18.793  0.2708E-03  0.1067E+01
     18.877  0.2689E-04  0.1067E+01
     18.962  0.1881E-05  0.1067E+01
     19.047  0.9264E-07  0.1067E+01
     19.131  0.3209E-08  0.1067E+01
     19.216  0.7818E-10  0.1067E+01
     19.301  0.1338E-11  0.1067E+01
     19.385  0.1609E-13  0.1067E+01
     19.470  0.1749E-15  0.1067E+01
     19.555  0.0000E+00  0.1067E+01
     19.639  0.0000E+00  0.1067E+01
     19.724  0.0000E+00  0.1067E+01
     19.809  0.0000E+00  0.1067E+01
     19.893  0.0000E+00  0.1067E+01
     19.978  0.0000E+00  0.1067E+01
     20.063  0.0000E+00  0.1067E+01
     20.147  0.0000E+00  0.1067E+01
     20.232  0.0000E+00  0.1067E+01
