unknown system                          
   1.00000000000000     
     0.000000    2.715000    2.715000
     2.715000    0.000000    2.715000
     2.715000    2.715000    0.000000
   Si
     2
Direct
  0.500000  0.500000  0.500000
  0.750000  0.750000  0.750000
 
   28   28   28
 0.88994646948E+00 0.91691189010E+00 0.10000758280E+01 0.11465625587E+01 0.13684371053E+01
 0.16814787569E+01 0.21014825032E+01 0.26379820529E+01 0.32866781829E+01 0.40227179135E+01
 0.47970148260E+01 0.55376181903E+01 0.61580071807E+01 0.65729576217E+01 0.67190943921E+01
 0.65729051697E+01 0.61579472537E+01 0.55375860934E+01 0.47970023345E+01 0.40227019851E+01
 0.32866638124E+01 0.26379983300E+01 0.21015407913E+01 0.16815517604E+01 0.13684828868E+01
 0.11465621616E+01 0.10000452585E+01 0.91688434032E+00 0.91691189010E+00 0.96238229271E+00
 0.10568090440E+01 0.12073693214E+01 0.14246264849E+01 0.17207693066E+01 0.21057898432E+01
 0.25819071873E+01 0.31375812285E+01 0.37430969269E+01 0.43497048526E+01 0.48938597209E+01
 0.53071886937E+01 0.55309412609E+01 0.55309279119E+01 0.53071660580E+01 0.48938542879E+01
 0.43497165073E+01 0.37431088653E+01 0.31375953626E+01 0.25819452651E+01 0.21058576051E+01
 0.17208395173E+01 0.14246656830E+01 0.12073706761E+01 0.10567916223E+01 0.96236674944E+00
 0.91690645482E+00 0.10000758280E+01 0.10568090440E+01 0.11559767591E+01 0.13043853969E+01
 0.15106907352E+01 0.17833385816E+01 0.21270218121E+01 0.25381070688E+01 0.30003163878E+01
 0.34824548702E+01 0.39398010502E+01 0.43199634088E+01 0.45726915348E+01 0.46614044534E+01
 0.45726829979E+01 0.43199593319E+01 0.39398108377E+01 0.34824793992E+01 0.30003579038E+01
 0.25381675733E+01 0.21270870866E+01 0.17833795729E+01 0.15106909594E+01 0.13043596598E+01
 0.11559546380E+01 0.10568048816E+01 0.10000808146E+01 0.98162610258E+00 0.11465625587E+01
 0.12073693214E+01 0.13043853969E+01 0.14437930645E+01 0.16321777931E+01 0.18744900805E+01
 0.21710751484E+01 0.25142326218E+01 0.28854790208E+01 0.32550263227E+01 0.35845994995E+01
 0.38336989985E+01 0.39680911542E+01 0.39680866197E+01 0.38336919751E+01 0.35846041324E+01
 0.32550539048E+01 0.28855303197E+01 0.25142922290E+01 0.21711126207E+01 0.18744791040E+01
 0.16321226878E+01 0.14437306823E+01 0.13043533121E+01 0.12073746157E+01 0.11465834639E+01
 0.11173822489E+01 0.11173717658E+01 0.13684371053E+01 0.14246264849E+01 0.15106907352E+01
 0.16321777931E+01 0.17938056763E+01 0.19976965704E+01 0.22411301600E+01 0.25142313402E+01
 0.27985783163E+01 0.30678870039E+01 0.32914349116E+01 0.34398734008E+01 0.34919413040E+01
 0.34398668579E+01 0.32914354763E+01 0.30679069264E+01 0.27986137506E+01 0.25142603850E+01
 0.22411250579E+01 0.19976446829E+01 0.17937250698E+01 0.16321096140E+01 0.15106680182E+01
 0.14246486679E+01 0.13684761834E+01 0.13371074511E+01 0.13270560767E+01 0.13370806631E+01
 0.16814787569E+01 0.17207693066E+01 0.17833385816E+01 0.18744900805E+01 0.19976965704E+01
 0.21532578074E+01 0.23368253329E+01 0.25381062094E+01 0.27404823974E+01 0.29223604721E+01
 0.30605963788E+01 0.31354287522E+01 0.31354258870E+01 0.30605929647E+01 0.29223631573E+01
 0.27404858525E+01 0.25380950696E+01 0.23367900541E+01 0.21532058018E+01 0.19976481769E+01
 0.18744659381E+01 0.17833482298E+01 0.17208066677E+01 0.16815260585E+01 0.16596573664E+01
 0.16501752033E+01 0.16501612270E+01 0.16596199651E+01 0.21014825032E+01 0.21057898432E+01
 0.21270218121E+01 0.21710751484E+01 0.22411301600E+01 0.23368253329E+01 0.24535343611E+01
 0.25819097704E+01 0.27081870710E+01 0.28158042243E+01 0.28884945395E+01 0.29142120081E+01
 0.28884952766E+01 0.28158002056E+01 0.27081706729E+01 0.25818799032E+01 0.24535040950E+01
 0.23368159610E+01 0.22411526011E+01 0.21711187761E+01 0.21270655658E+01 0.21058235110E+01
 0.21015114990E+01 0.21066055785E+01 0.21135106142E+01 0.21165137302E+01 0.21134895177E+01
 0.21065762962E+01 0.26379820529E+01 0.25819071873E+01 0.25381070688E+01 0.25142326218E+01
 0.25142313402E+01 0.25381062094E+01 0.25819097704E+01 0.26379851386E+01 0.26957416409E+01
 0.27433278739E+01 0.27702455259E+01 0.27702532432E+01 0.27433392445E+01 0.26957384224E+01
 0.26379715710E+01 0.25819152609E+01 0.25381565207E+01 0.25143198697E+01 0.25143221330E+01
 0.25381601558E+01 0.25819167535E+01 0.26379730988E+01 0.26957421823E+01 0.27433417833E+01
 0.27702514959E+01 0.27702427072E+01 0.27433274356E+01 0.26957411634E+01 0.32866781829E+01
 0.31375812285E+01 0.30003163878E+01 0.28854790208E+01 0.27985783163E+01 0.27404823974E+01
 0.27081870710E+01 0.26957416409E+01 0.26954140648E+01 0.26993022289E+01 0.27013702867E+01
 0.26993292619E+01 0.26954429806E+01 0.26957654301E+01 0.27082340816E+01 0.27405769457E+01
 0.27986991271E+01 0.28855722660E+01 0.30003450968E+01 0.31375535739E+01 0.32866311570E+01
 0.34322056990E+01 0.35557826866E+01 0.36391005092E+01 0.36685562362E+01 0.36391003043E+01
 0.35557945416E+01 0.34322397103E+01 0.40227179135E+01 0.37430969269E+01 0.34824548702E+01
 0.32550263227E+01 0.30678870039E+01 0.29223604721E+01 0.28158042243E+01 0.27433278739E+01
 0.26993022289E+01 0.26787714756E+01 0.26787918555E+01 0.26993488450E+01 0.27433839397E+01
 0.28158819173E+01 0.29224753176E+01 0.30680112867E+01 0.32550989681E+01 0.34824421102E+01
 0.37430228793E+01 0.40226318253E+01 0.42995068316E+01 0.45459036586E+01 0.47321340383E+01
 0.48326882797E+01 0.48327005527E+01 0.47321671591E+01 0.45459534182E+01 0.42995758886E+01
 0.47970148260E+01 0.43497048526E+01 0.39398010502E+01 0.35845994995E+01 0.32914349116E+01
 0.30605963788E+01 0.28884945395E+01 0.27702455259E+01 0.27013702867E+01 0.26787918555E+01
 0.27014087618E+01 0.27703125891E+01 0.28885910243E+01 0.30607243570E+01 0.32915613316E+01
 0.35846592331E+01 0.39397552111E+01 0.43495809723E+01 0.47968762916E+01 0.52528355703E+01
 0.56781992241E+01 0.60278344783E+01 0.62587026781E+01 0.63394990621E+01 0.62587296449E+01
 0.60278848786E+01 0.56782750150E+01 0.52529455435E+01 0.55376181903E+01 0.48938597209E+01
 0.43199634088E+01 0.38336989985E+01 0.34398734008E+01 0.31354287522E+01 0.29142120081E+01
 0.27702532432E+01 0.26993292619E+01 0.26993488450E+01 0.27703125891E+01 0.29143147467E+01
 0.31355708879E+01 0.34400156520E+01 0.38337675141E+01 0.43199039788E+01 0.48936903386E+01
 0.55374164051E+01 0.62167076677E+01 0.68802208335E+01 0.74641146398E+01 0.79016660321E+01
 0.81366210614E+01 0.81366049165E+01 0.79016375637E+01 0.74641184397E+01 0.68802961486E+01
 0.62168641166E+01 0.61580071807E+01 0.53071886937E+01 0.45726915348E+01 0.39680911542E+01
 0.34919413040E+01 0.31354258870E+01 0.28884952766E+01 0.27433392445E+01 0.26954429806E+01
 0.27433839397E+01 0.28885910243E+01 0.31355708879E+01 0.34920975278E+01 0.39681774298E+01
 0.45726329783E+01 0.53069858479E+01 0.61577492477E+01 0.70895388255E+01 0.80418429978E+01
 0.89317701427E+01 0.96640523872E+01 0.10147884473E+02 0.10317202921E+02 0.10147771658E+02
 0.96639044078E+01 0.89316900571E+01 0.80419002689E+01 0.70897337962E+01 0.65729576217E+01
 0.55309412609E+01 0.46614044534E+01 0.39680866197E+01 0.34398668579E+01 0.30605929647E+01
 0.28158002056E+01 0.26957384224E+01 0.26957654301E+01 0.28158819173E+01 0.30607243570E+01
 0.34400156520E+01 0.39681774298E+01 0.46613521896E+01 0.55307273698E+01 0.65726724127E+01
 0.77581422882E+01 0.90249592341E+01 0.10276391929E+02 0.11388650098E+02 0.12228906467E+02
 0.12682533160E+02 0.12682460764E+02 0.12228720638E+02 0.11388435540E+02 0.10276259224E+02
 0.90249955257E+01 0.77583524465E+01 0.67190943921E+01 0.55309279119E+01 0.45726829979E+01
 0.38336919751E+01 0.32914354763E+01 0.29223631573E+01 0.27081706729E+01 0.26379715710E+01
 0.27082340816E+01 0.29224753176E+01 0.32915613316E+01 0.38337675141E+01 0.45726329783E+01
 0.55307273698E+01 0.67188227078E+01 0.81222345604E+01 0.96880556978E+01 0.11317433817E+02
 0.12866692033E+02 0.14161512632E+02 0.15027011295E+02 0.15331188167E+02 0.15026969097E+02
 0.14161400143E+02 0.12866520999E+02 0.11317297593E+02 0.96880705430E+01 0.81224283695E+01
 0.65729051697E+01 0.53071660580E+01 0.43199593319E+01 0.35846041324E+01 0.30679069264E+01
 0.27404858525E+01 0.25818799032E+01 0.25819152609E+01 0.27405769457E+01 0.30680112867E+01
 0.35846592331E+01 0.43199039788E+01 0.53069858479E+01 0.65726724127E+01 0.81222345604E+01
 0.99227189607E+01 0.11888592604E+02 0.13873792397E+02 0.15674768480E+02 0.17044678118E+02
 0.17780760057E+02 0.17780827784E+02 0.17044805174E+02 0.15674811283E+02 0.13873699493E+02
 0.11888465023E+02 0.99227060357E+01 0.81223872150E+01 0.61579472537E+01 0.48938542879E+01
 0.39398108377E+01 0.32550539048E+01 0.27986137506E+01 0.25380950696E+01 0.24535040950E+01
 0.25381565207E+01 0.27986991271E+01 0.32550989681E+01 0.39397552111E+01 0.48936903386E+01
 0.61577492477E+01 0.77581422882E+01 0.96880556978E+01 0.11888592604E+02 0.14232220977E+02
 0.16507777045E+02 0.18407500726E+02 0.19657969647E+02 0.20093160293E+02 0.19658201882E+02
 0.18407782075E+02 0.16507907254E+02 0.14232152120E+02 0.11888450842E+02 0.96880082142E+01
 0.77582525376E+01 0.55375860934E+01 0.43497165073E+01 0.34824793992E+01 0.28855303197E+01
 0.25142603850E+01 0.23367900541E+01 0.23368159610E+01 0.25143198697E+01 0.28855722660E+01
 0.34824421102E+01 0.43495809723E+01 0.55374164051E+01 0.70895388255E+01 0.90249592341E+01
 0.11317433817E+02 0.13873792397E+02 0.16507777045E+02 0.18888615351E+02 0.20674499348E+02
 0.21627280442E+02 0.21627433468E+02 0.20674849864E+02 0.18888926278E+02 0.16507869416E+02
 0.13873668133E+02 0.11317249481E+02 0.90248828772E+01 0.70896234178E+01 0.47970023345E+01
 0.37431088653E+01 0.30003579038E+01 0.25142922290E+01 0.22411250579E+01 0.21532058018E+01
 0.22411526011E+01 0.25143221330E+01 0.30003450968E+01 0.37430228793E+01 0.47968762916E+01
 0.62167076677E+01 0.80418429978E+01 0.10276391929E+02 0.12866692033E+02 0.15674768480E+02
 0.18407500726E+02 0.20674499348E+02 0.22164044295E+02 0.22682481496E+02 0.22164324624E+02
 0.20674861908E+02 0.18407708074E+02 0.15674718579E+02 0.12866466632E+02 0.10276171112E+02
 0.80417615538E+01 0.62167753085E+01 0.40227019851E+01 0.31375953626E+01 0.25381675733E+01
 0.21711126207E+01 0.19976446829E+01 0.19976481769E+01 0.21711187761E+01 0.25381601558E+01
 0.31375535739E+01 0.40226318253E+01 0.52528355703E+01 0.68802208335E+01 0.89317701427E+01
 0.11388650098E+02 0.14161512632E+02 0.17044678118E+02 0.19657969647E+02 0.21627280442E+02
 0.22682481496E+02 0.22682619525E+02 0.21627582601E+02 0.19658199887E+02 0.17044677099E+02
 0.14161298970E+02 0.11388369004E+02 0.89315691986E+01 0.68801594246E+01 0.52528789956E+01
 0.32866638124E+01 0.25819452651E+01 0.21270870866E+01 0.18744791040E+01 0.17937250698E+01
 0.18744659381E+01 0.21270655658E+01 0.25819167535E+01 0.32866311570E+01 0.42995068316E+01
 0.56781992241E+01 0.74641146398E+01 0.96640523872E+01 0.12228906467E+02 0.15027011295E+02
 0.17780760057E+02 0.20093160293E+02 0.21627433468E+02 0.22164324624E+02 0.21627582601E+02
 0.20093304954E+02 0.17780749257E+02 0.15026826203E+02 0.12228644142E+02 0.96638275281E+01
 0.74639843618E+01 0.56781607569E+01 0.42995235458E+01 0.26379983300E+01 0.21058576051E+01
 0.17833795729E+01 0.16321226878E+01 0.16321096140E+01 0.17833482298E+01 0.21058235110E+01
 0.26379730988E+01 0.34322056990E+01 0.45459036586E+01 0.60278344783E+01 0.79016660321E+01
 0.10147884473E+02 0.12682533160E+02 0.15331188167E+02 0.17780827784E+02 0.19658201882E+02
 0.20674849864E+02 0.20674861908E+02 0.19658199887E+02 0.17780749257E+02 0.15331025786E+02
 0.12682338454E+02 0.10147714599E+02 0.79015444035E+01 0.60277620005E+01 0.45458755424E+01
 0.34322109001E+01 0.21015407913E+01 0.17208395173E+01 0.15106909594E+01 0.14437306823E+01
 0.15106680182E+01 0.17208066677E+01 0.21015114990E+01 0.26957421823E+01 0.35557826866E+01
 0.47321340383E+01 0.62587026781E+01 0.81366210614E+01 0.10317202921E+02 0.12682460764E+02
 0.15026969097E+02 0.17044805174E+02 0.18407782075E+02 0.18888926278E+02 0.18407708074E+02
 0.17044677099E+02 0.15026826203E+02 0.12682338454E+02 0.10317108709E+02 0.81365392460E+01
 0.62586281647E+01 0.47320834179E+01 0.35557678536E+01 0.26957564679E+01 0.16815517604E+01
 0.14246656830E+01 0.13043596598E+01 0.13043533121E+01 0.14246486679E+01 0.16815260585E+01
 0.21066055785E+01 0.27433417833E+01 0.36391005092E+01 0.48326882797E+01 0.63394990621E+01
 0.81366049165E+01 0.10147771658E+02 0.12228720638E+02 0.14161400143E+02 0.15674811283E+02
 0.16507907254E+02 0.16507869416E+02 0.15674718579E+02 0.14161298970E+02 0.12228644142E+02
 0.10147714599E+02 0.81365392460E+01 0.63394190886E+01 0.48326244615E+01 0.36390809832E+01
 0.27433608031E+01 0.21066365128E+01 0.13684828868E+01 0.12073706761E+01 0.11559546380E+01
 0.12073746157E+01 0.13684761834E+01 0.16596573664E+01 0.21135106142E+01 0.27702514959E+01
 0.36685562362E+01 0.48327005527E+01 0.62587296449E+01 0.79016375637E+01 0.96639044078E+01
 0.11388435540E+02 0.12866520999E+02 0.13873699493E+02 0.14232152120E+02 0.13873668133E+02
 0.12866466632E+02 0.11388369004E+02 0.96638275281E+01 0.79015444035E+01 0.62586281647E+01
 0.48326244615E+01 0.36685388284E+01 0.27702895073E+01 0.21135646679E+01 0.16596907390E+01
 0.11465621616E+01 0.10567916223E+01 0.10568048816E+01 0.11465834639E+01 0.13371074511E+01
 0.16501752033E+01 0.21165137302E+01 0.27702427072E+01 0.36391003043E+01 0.47321671591E+01
 0.60278848786E+01 0.74641184397E+01 0.89316900571E+01 0.10276259224E+02 0.11317297593E+02
 0.11888465023E+02 0.11888450842E+02 0.11317249481E+02 0.10276171112E+02 0.89315691986E+01
 0.74639843618E+01 0.60277620005E+01 0.47320834179E+01 0.36390809832E+01 0.27702895073E+01
 0.21165907990E+01 0.16502307634E+01 0.13371157572E+01 0.10000452585E+01 0.96236674944E+00
 0.10000808146E+01 0.11173822489E+01 0.13270560767E+01 0.16501612270E+01 0.21134895177E+01
 0.27433274356E+01 0.35557945416E+01 0.45459534182E+01 0.56782750150E+01 0.68802961486E+01
 0.80419002689E+01 0.90249955257E+01 0.96880705430E+01 0.99227060357E+01 0.96880082142E+01
 0.90248828772E+01 0.80417615538E+01 0.68801594246E+01 0.56781607569E+01 0.45458755424E+01
 0.35557678536E+01 0.27433608031E+01 0.21135646679E+01 0.16502307634E+01 0.13270767889E+01
 0.11173536716E+01 0.91688434032E+00 0.91690645482E+00 0.98162610258E+00 0.11173717658E+01
 0.13370806631E+01 0.16596199651E+01 0.21065762962E+01 0.26957411634E+01 0.34322397103E+01
 0.42995758886E+01 0.52529455435E+01 0.62168641166E+01 0.70897337962E+01 0.77583524465E+01
 0.81224283695E+01 0.81223872150E+01 0.77582525376E+01 0.70896234178E+01 0.62167753085E+01
 0.52528789956E+01 0.42995235458E+01 0.34322109001E+01 0.26957564679E+01 0.21066365128E+01
 0.16596907390E+01 0.13371157572E+01 0.11173536716E+01 0.98158249273E+00 0.91691241986E+00
 0.96238355207E+00 0.10568100530E+01 0.12073700416E+01 0.14246276723E+01 0.17207708848E+01
 0.21057909196E+01 0.25819075548E+01 0.31375813208E+01 0.37430964315E+01 0.43497029842E+01
 0.48938568490E+01 0.53071861924E+01 0.55309397947E+01 0.55309272972E+01 0.53071665927E+01
 0.48938565609E+01 0.43497199197E+01 0.37431118943E+01 0.31375973012E+01 0.25819463220E+01
 0.21058575293E+01 0.17208377599E+01 0.14246628504E+01 0.12073682257E+01 0.10567900916E+01
 0.96236568797E+00 0.91690591657E+00 0.96238355207E+00 0.10176260310E+01 0.11139848156E+01
 0.12579232202E+01 0.14578138237E+01 0.17219468841E+01 0.20550094678E+01 0.24535334095E+01
 0.29016482179E+01 0.33689358630E+01 0.38119250711E+01 0.41798916282E+01 0.44243624367E+01
 0.45101464811E+01 0.44243545160E+01 0.41798898313E+01 0.38119346588E+01 0.33689495660E+01
 0.29016676372E+01 0.24535732184E+01 0.20550711913E+01 0.17220048838E+01 0.14578403626E+01
 0.12579189542E+01 0.11139734092E+01 0.10176245647E+01 0.96238836988E+00 0.94439299411E+00
 0.10568100530E+01 0.11139848156E+01 0.12048149772E+01 0.13349901342E+01 0.15108389567E+01
 0.17373316956E+01 0.20150667862E+01 0.23368273496E+01 0.26849840568E+01 0.30312235035E+01
 0.33395100424E+01 0.35721201764E+01 0.36974563172E+01 0.36974517804E+01 0.35721097399E+01
 0.33395008114E+01 0.30312244550E+01 0.26850057815E+01 0.23368737630E+01 0.20151219735E+01
 0.17373651049E+01 0.15108337689E+01 0.13349621962E+01 0.12047958631E+01 0.11139896866E+01
 0.10568275463E+01 0.10292600396E+01 0.10292509747E+01 0.12073700416E+01 0.12579232202E+01
 0.13349901342E+01 0.14437150331E+01 0.15888062910E+01 0.17727021236E+01 0.19931965537E+01
 0.22411321598E+01 0.24992485798E+01 0.27432083317E+01 0.29451052597E+01 0.30787927057E+01
 0.31256090191E+01 0.30787826216E+01 0.29450900328E+01 0.27432011550E+01 0.24992653299E+01
 0.22411734240E+01 0.19932366423E+01 0.17727065764E+01 0.15887665408E+01 0.14436604113E+01
 0.13349596858E+01 0.12579297431E+01 0.12073957488E+01 0.11789818085E+01 0.11698314555E+01
 0.11789620010E+01 0.14246276723E+01 0.14578138237E+01 0.15108389567E+01 0.15888062910E+01
 0.16954220188E+01 0.18314711906E+01 0.19931957680E+01 0.21710750820E+01 0.23497724600E+01
 0.25098149375E+01 0.26309346416E+01 0.26962804561E+01 0.26962763898E+01 0.26309244030E+01
 0.25098062332E+01 0.23497764445E+01 0.21710933468E+01 0.19932106328E+01 0.18314583188E+01
 0.16953773326E+01 0.15887553290E+01 0.15108142484E+01 0.14578252536E+01 0.14246583106E+01
 0.14061075431E+01 0.13979896745E+01 0.13979798719E+01 0.14060809765E+01 0.17207708848E+01
 0.17219468841E+01 0.17373316956E+01 0.17727021236E+01 0.18314711906E+01 0.19136537958E+01
 0.20150663207E+01 0.21270224790E+01 0.22369504103E+01 0.23302046778E+01 0.23928904197E+01
 0.24150012341E+01 0.23928881339E+01 0.23301995392E+01 0.22369445264E+01 0.21270185619E+01
 0.20150619061E+01 0.19136428910E+01 0.18314537747E+01 0.17726876494E+01 0.17373306585E+01
 0.17219614374E+01 0.17207944957E+01 0.17269253203E+01 0.17337851813E+01 0.17366418810E+01
 0.17337711517E+01 0.17269022758E+01 0.21057909196E+01 0.20550094678E+01 0.20150667862E+01
 0.19931965537E+01 0.19931957680E+01 0.20150663207E+01 0.20550112707E+01 0.21057932044E+01
 0.21576676528E+01 0.22000708448E+01 0.22239183972E+01 0.22239225419E+01 0.22000776177E+01
 0.21576687146E+01 0.21057899608E+01 0.20550127303E+01 0.20150778897E+01 0.19932149770E+01
 0.19932166606E+01 0.20150808961E+01 0.20550146639E+01 0.21057919129E+01 0.21576718026E+01
 0.22000795247E+01 0.22239213362E+01 0.22239162039E+01 0.22000700094E+01 0.21576668427E+01
 0.25819075548E+01 0.24535334095E+01 0.23368273496E+01 0.22411321598E+01 0.21710750820E+01
 0.21270224790E+01 0.21057932044E+01 0.21014855795E+01 0.21065766659E+01 0.21134893657E+01
 0.21165145169E+01 0.21135093795E+01 0.21066006674E+01 0.21015064961E+01 0.21058214526E+01
 0.21270646388E+01 0.21711175677E+01 0.22411538931E+01 0.23368211777E+01 0.24535094933E+01
 0.25818823895E+01 0.27081720772E+01 0.28158020050E+01 0.28884947758E+01 0.29142078330E+01
 0.28884903481E+01 0.28158028226E+01 0.27081861936E+01 0.31375813208E+01 0.29016482179E+01
 0.26849840568E+01 0.24992485798E+01 0.23497724600E+01 0.22369504103E+01 0.21576676528E+01
 0.21065766659E+01 0.20774096014E+01 0.20645272783E+01 0.20645456815E+01 0.20774529594E+01
 0.21066279235E+01 0.21577254869E+01 0.22370133177E+01 0.23498149329E+01 0.24992383207E+01
 0.26849221923E+01 0.29015735257E+01 0.31375309566E+01 0.33741125566E+01 0.35867540574E+01
 0.37486292156E+01 0.38364076176E+01 0.38364101852E+01 0.37486342969E+01 0.35867610027E+01
 0.33741331687E+01 0.37430964315E+01 0.33689358630E+01 0.30312235035E+01 0.27432083317E+01
 0.25098149375E+01 0.23302046778E+01 0.22000708448E+01 0.21134893657E+01 0.20645272783E+01
 0.20487697254E+01 0.20645694781E+01 0.21135586672E+01 0.22001523871E+01 0.23302798531E+01
 0.25098455853E+01 0.27431553981E+01 0.30310952840E+01 0.33687967220E+01 0.37430105521E+01
 0.41301122103E+01 0.44961819759E+01 0.48005545389E+01 0.50032158851E+01 0.50744520350E+01
 0.50032327874E+01 0.48005679460E+01 0.44961858400E+01 0.41301374364E+01 0.43497029842E+01
 0.38119250711E+01 0.33395100424E+01 0.29451052597E+01 0.26309346416E+01 0.23928904197E+01
 0.22239183972E+01 0.21165145169E+01 0.20645456815E+01 0.20645694781E+01 0.21165811599E+01
 0.22240126779E+01 0.23929796129E+01 0.26309640966E+01 0.29450259555E+01 0.33393303510E+01
 0.38117233396E+01 0.43495675188E+01 0.49258741706E+01 0.54975418279E+01 0.60078580160E+01
 0.63947579523E+01 0.66041168749E+01 0.66041257649E+01 0.63947712210E+01 0.60078559161E+01
 0.54975366311E+01 0.49259178774E+01 0.48938568490E+01 0.41798916282E+01 0.35721201764E+01
 0.30787927057E+01 0.26962804561E+01 0.24150012341E+01 0.22239225419E+01 0.21135093795E+01
 0.20774529594E+01 0.21135586672E+01 0.22240126779E+01 0.24150988330E+01 0.26963205091E+01
 0.30787114366E+01 0.35719145955E+01 0.41796416406E+01 0.48936707183E+01 0.56874904252E+01
 0.65116894781E+01 0.72939376839E+01 0.79464404532E+01 0.83819559521E+01 0.85352244089E+01
 0.83819423063E+01 0.79464067318E+01 0.72938903675E+01 0.65116691567E+01 0.56875594524E+01
 0.53071861924E+01 0.44243624367E+01 0.36974563172E+01 0.31256090191E+01 0.26962763898E+01
 0.23928881339E+01 0.22000776177E+01 0.21066006674E+01 0.21066279235E+01 0.22001523871E+01
 0.23929796129E+01 0.26963205091E+01 0.31255346811E+01 0.36972453056E+01 0.44240854577E+01
 0.53069647504E+01 0.63258699233E+01 0.74314305412E+01 0.85405583389E+01 0.95403866795E+01
 0.10304301945E+02 0.10719740104E+02 0.10719726380E+02 0.10304254063E+02 0.95402989857E+01
 0.85404566075E+01 0.74313841999E+01 0.63259527599E+01 0.55309397947E+01 0.45101464811E+01
 0.36974517804E+01 0.30787826216E+01 0.26309244030E+01 0.23301995392E+01 0.21576687146E+01
 0.21015064961E+01 0.21577254869E+01 0.23302798531E+01 0.26309640966E+01 0.30787114366E+01
 0.36972453056E+01 0.45098654893E+01 0.55307089679E+01 0.67530683995E+01 0.81367961244E+01
 0.95981155180E+01 0.11006836235E+02 0.12197667753E+02 0.13000392593E+02 0.13284408450E+02
 0.13000413248E+02 0.12197649856E+02 0.11006734455E+02 0.95979679742E+01 0.81367133015E+01
 0.67531446386E+01 0.55309272972E+01 0.44243545160E+01 0.35721097399E+01 0.29450900328E+01
 0.25098062332E+01 0.22369445264E+01 0.21057899608E+01 0.21058214526E+01 0.22370133177E+01
 0.25098455853E+01 0.29450259555E+01 0.35719145955E+01 0.44240854577E+01 0.55307089679E+01
 0.69035818912E+01 0.85211928010E+01 0.10312562623E+02 0.12145525335E+02 0.13827889917E+02
 0.15132309150E+02 0.15848609318E+02 0.15848684374E+02 0.15132457151E+02 0.13827956803E+02
 0.12145431124E+02 0.10312377021E+02 0.85210715191E+01 0.69036363450E+01 0.53071665927E+01
 0.41798898313E+01 0.33395008114E+01 0.27432011550E+01 0.23497764445E+01 0.21270185619E+01
 0.20550127303E+01 0.21270646388E+01 0.23498149329E+01 0.27431553981E+01 0.33393303510E+01
 0.41796416406E+01 0.53069647504E+01 0.67530683995E+01 0.85211928010E+01 0.10565600073E+02
 0.12771311662E+02 0.14941845432E+02 0.16809973161E+02 0.18086249757E+02 0.18541066127E+02
 0.18086467620E+02 0.16810234279E+02 0.14941952605E+02 0.12771203686E+02 0.10565383843E+02
 0.85210456119E+01 0.67531046506E+01 0.48938565609E+01 0.38119346588E+01 0.30312244550E+01
 0.24992653299E+01 0.21710933468E+01 0.20150619061E+01 0.20150778897E+01 0.21711175677E+01
 0.24992383207E+01 0.30310952840E+01 0.38117233396E+01 0.48936707183E+01 0.63258699233E+01
 0.81367961244E+01 0.10312562623E+02 0.12771311662E+02 0.15338825801E+02 0.17740138149E+02
 0.19629311866E+02 0.20672853698E+02 0.20672976010E+02 0.19629593481E+02 0.17740388241E+02
 0.15338888040E+02 0.12771168074E+02 0.10312333343E+02 0.81366499849E+01 0.63259064746E+01
 0.43497199197E+01 0.33689495660E+01 0.26850057815E+01 0.22411734240E+01 0.19932106328E+01
 0.19136428910E+01 0.19932149770E+01 0.22411538931E+01 0.26849221923E+01 0.33687967220E+01
 0.43495675188E+01 0.56874904252E+01 0.74314305412E+01 0.95981155180E+01 0.12145525335E+02
 0.14941845432E+02 0.17740138149E+02 0.20180775063E+02 0.21853573260E+02 0.22448978292E+02
 0.21853730557E+02 0.20180991872E+02 0.17740279888E+02 0.14941823157E+02 0.12145351624E+02
 0.95978999121E+01 0.74313113691E+01 0.56875330605E+01 0.37431118943E+01 0.29016676372E+01
 0.23368737630E+01 0.19932366423E+01 0.18314583188E+01 0.18314537747E+01 0.19932166606E+01
 0.23368211777E+01 0.29015735257E+01 0.37430105521E+01 0.49258741706E+01 0.65116894781E+01
 0.85405583389E+01 0.11006836235E+02 0.13827889917E+02 0.16809973161E+02 0.19629311866E+02
 0.21853573260E+02 0.23081791077E+02 0.23081830619E+02 0.21853665587E+02 0.19629395372E+02
 0.16809983834E+02 0.13827795627E+02 0.11006660863E+02 0.85403822958E+01 0.65116041561E+01
 0.49259081394E+01 0.31375973012E+01 0.24535732184E+01 0.20151219735E+01 0.17727065764E+01
 0.16953773326E+01 0.17726876494E+01 0.20150808961E+01 0.24535094933E+01 0.31375309566E+01
 0.41301122103E+01 0.54975418279E+01 0.72939376839E+01 0.95403866796E+01 0.12197667753E+02
 0.15132309150E+02 0.18086249757E+02 0.20672853698E+02 0.22448978292E+02 0.23081830619E+02
 0.22448957909E+02 0.20672809383E+02 0.18086183284E+02 0.15132221598E+02 0.12197553975E+02
 0.95402502850E+01 0.72938162101E+01 0.54974862224E+01 0.41301355305E+01 0.25819463220E+01
 0.20550711913E+01 0.17373651049E+01 0.15887665408E+01 0.15887553290E+01 0.17373306585E+01
 0.20550146639E+01 0.25818823895E+01 0.33741125566E+01 0.44961819759E+01 0.60078580160E+01
 0.79464404532E+01 0.10304301945E+02 0.13000392593E+02 0.15848609318E+02 0.18541066127E+02
 0.20672976010E+02 0.21853730557E+02 0.21853665587E+02 0.20672809383E+02 0.18540869890E+02
 0.15848454277E+02 0.13000298840E+02 0.10304234128E+02 0.79463646959E+01 0.60077905992E+01
 0.44961623502E+01 0.33741497538E+01 0.21058575293E+01 0.17220048838E+01 0.15108337689E+01
 0.14436604113E+01 0.15108142484E+01 0.17219614374E+01 0.21057919129E+01 0.27081720772E+01
 0.35867540574E+01 0.48005545389E+01 0.63947579523E+01 0.83819559521E+01 0.10719740104E+02
 0.13284408450E+02 0.15848684374E+02 0.18086467620E+02 0.19629593481E+02 0.20180991872E+02
 0.19629395372E+02 0.18086183284E+02 0.15848454277E+02 0.13284300815E+02 0.10719717738E+02
 0.83819412697E+01 0.63947245364E+01 0.48005364046E+01 0.35867835097E+01 0.27082375537E+01
 0.17208377599E+01 0.14578403626E+01 0.13349621962E+01 0.13349596858E+01 0.14578252536E+01
 0.17207944957E+01 0.21576718026E+01 0.28158020050E+01 0.37486292156E+01 0.50032158851E+01
 0.66041168749E+01 0.85352244089E+01 0.10719726380E+02 0.13000413248E+02 0.15132457151E+02
 0.16810234279E+02 0.17740388241E+02 0.17740279888E+02 0.16809983834E+02 0.15132221598E+02
 0.13000298840E+02 0.10719717738E+02 0.85352376696E+01 0.66041066993E+01 0.50032089376E+01
 0.37486657386E+01 0.28158773756E+01 0.21577455004E+01 0.14246628504E+01 0.12579189542E+01
 0.12047958631E+01 0.12579297431E+01 0.14246583106E+01 0.17269253203E+01 0.22000795247E+01
 0.28884947758E+01 0.38364076176E+01 0.50744520350E+01 0.66041257649E+01 0.83819423063E+01
 0.10304254063E+02 0.12197649856E+02 0.13827956803E+02 0.14941952605E+02 0.15338888040E+02
 0.14941823157E+02 0.13827795627E+02 0.12197553975E+02 0.10304234128E+02 0.83819412697E+01
 0.66041066993E+01 0.50744414328E+01 0.38364497148E+01 0.28885877249E+01 0.22001731937E+01
 0.17269750463E+01 0.12073682257E+01 0.11139734092E+01 0.11139896866E+01 0.12073957488E+01
 0.14061075431E+01 0.17337851813E+01 0.22239213362E+01 0.29142078330E+01 0.38364101852E+01
 0.50032327874E+01 0.63947712210E+01 0.79464067318E+01 0.95402989857E+01 0.11006734455E+02
 0.12145431124E+02 0.12771203686E+02 0.12771168074E+02 0.12145351624E+02 0.11006660863E+02
 0.95402502850E+01 0.79463646959E+01 0.63947245364E+01 0.50032089376E+01 0.38364497148E+01
 0.29143126359E+01 0.22240408107E+01 0.17338587062E+01 0.14061154158E+01 0.10567900916E+01
 0.10176245647E+01 0.10568275463E+01 0.11789818085E+01 0.13979896745E+01 0.17366418810E+01
 0.22239162039E+01 0.28884903481E+01 0.37486342969E+01 0.48005679460E+01 0.60078559161E+01
 0.72938903675E+01 0.85404566075E+01 0.95979679742E+01 0.10312377021E+02 0.10565383843E+02
 0.10312333343E+02 0.95978999121E+01 0.85403822958E+01 0.72938162101E+01 0.60077905992E+01
 0.48005364046E+01 0.37486657386E+01 0.28885877249E+01 0.22240408107E+01 0.17367348926E+01
 0.13980143537E+01 0.11789506216E+01 0.96236568797E+00 0.96238836988E+00 0.10292600396E+01
 0.11698314555E+01 0.13979798719E+01 0.17337711517E+01 0.22000700094E+01 0.28158028226E+01
 0.35867610027E+01 0.44961858400E+01 0.54975366311E+01 0.65116691567E+01 0.74313841999E+01
 0.81367133015E+01 0.85210715191E+01 0.85210456119E+01 0.81366499849E+01 0.74313113691E+01
 0.65116041561E+01 0.54974862224E+01 0.44961623502E+01 0.35867835097E+01 0.28158773756E+01
 0.22001731937E+01 0.17338587062E+01 0.13980143537E+01 0.11698086778E+01 0.10292138541E+01
 0.91690591657E+00 0.94439299411E+00 0.10292509747E+01 0.11789620010E+01 0.14060809765E+01
 0.17269022758E+01 0.21576668427E+01 0.27081861936E+01 0.33741331687E+01 0.41301374364E+01
 0.49259178774E+01 0.56875594524E+01 0.63259527599E+01 0.67531446386E+01 0.69036363450E+01
 0.67531046506E+01 0.63259064746E+01 0.56875330605E+01 0.49259081394E+01 0.41301355305E+01
 0.33741497538E+01 0.27082375537E+01 0.21577455004E+01 0.17269750463E+01 0.14061154158E+01
 0.11789506216E+01 0.10292138541E+01 0.94436254440E+00 0.10000779890E+01 0.10568116205E+01
 0.11559782651E+01 0.13043861251E+01 0.15106919939E+01 0.17833399726E+01 0.21270218095E+01
 0.25381056859E+01 0.30003147304E+01 0.34824527400E+01 0.39397976670E+01 0.43199599202E+01
 0.45726901323E+01 0.46614054473E+01 0.45726851865E+01 0.43199625301E+01 0.39398153969E+01
 0.34824838941E+01 0.30003600681E+01 0.25381671539E+01 0.21270853740E+01 0.17833768129E+01
 0.15106868092E+01 0.13043554773E+01 0.11559525223E+01 0.10568048507E+01 0.10000814010E+01
 0.98162711441E+00 0.10568116205E+01 0.11139860610E+01 0.12048154239E+01 0.13349901213E+01
 0.15108390258E+01 0.17373315273E+01 0.20150657575E+01 0.23368256677E+01 0.26849823649E+01
 0.30312219075E+01 0.33395085573E+01 0.35721195754E+01 0.36974574033E+01 0.36974542075E+01
 0.35721125137E+01 0.33395034534E+01 0.30312267168E+01 0.26850068433E+01 0.23368729005E+01
 0.20151196382E+01 0.17373623599E+01 0.15108311095E+01 0.13349598390E+01 0.12047945491E+01
 0.11139900330E+01 0.10568290304E+01 0.10292616586E+01 0.10292524830E+01 0.11559782651E+01
 0.12048154239E+01 0.12790551103E+01 0.13836811866E+01 0.15233892030E+01 0.17007242890E+01