    2    2   15    1
  0.2001288E+02  0.3839590E-09  0.3839590E-09  0.3839590E-09  0.5000000E-15
  1.000000000000000E-004
  CAR 
 unknown system                          
      8     20      8
 
  0.0000000E+00  0.0000000E+00  0.0000000E+00  0.2915452E-02
    1       -6.194359   1.000000
    2        5.650993   0.979609
    3        5.651026   0.979597
    4        5.651026   0.979597
    5        8.211912   0.000000
    6        8.211927   0.000000
    7        8.211927   0.000000
    8        8.766474   0.000000
 
  0.1428571E+00 -0.2862800E-17 -0.1748977E-16  0.2332362E-01
    1       -5.932898   1.000000
    2        3.719150   1.000000
    3        5.295691   0.999997
    4        5.295722   0.999997
    5        8.029187   0.000000
    6        8.727336   0.000000
    7        8.727361   0.000000
    8       10.494385   0.000000
 
  0.2857143E+00 -0.2269120E-16  0.9741634E-17  0.2332362E-01
    1       -5.179721   1.000000
    2        1.126469   1.000000
    3        4.783609   1.000000
    4        4.783646   1.000000
    5        7.487841   0.000000
    6        9.197942   0.000000
    7        9.197990   0.000000
    8       12.963399   0.000000
 
  0.4285714E+00 -0.2759730E-17  0.1159403E-16  0.2332362E-01
    1       -4.160594   1.000000
    2       -0.872366   1.000000
    3        4.494860   1.000000
    4        4.494898   1.000000
    5        7.162743   0.000000
    6        9.067966   0.000000
    7        9.068018   0.000000
    8       13.412233   0.000000
 
  0.1428571E+00  0.1428571E+00  0.4108522E-18  0.1749271E-01
    1       -5.844369   1.000000
    2        3.993911   1.000000
    3        4.691691   1.000000
    4        4.691712   1.000000
    5        7.541876   0.000000
    6        9.599639   0.000000
    7        9.599651   0.000000
    8        9.938115   0.000000
 
  0.2857143E+00  0.1428571E+00 -0.8512426E-17  0.6997085E-01
    1       -5.247797   1.000000
    2        1.898274   1.000000
    3        4.105690   1.000000
    4        4.153725   1.000000
    5        7.735175   0.000000
    6        9.481995   0.000000
    7       10.250669   0.000000
    8       10.388188   0.000000
 
  0.4285714E+00  0.1428571E+00  0.6714690E-17  0.6997085E-01
    1       -4.257620   1.000000
    2       -0.250837   1.000000
    3        3.423434   1.000000
    4        3.963914   1.000000
    5        7.793599   0.000000
    6        9.447874   0.000000
    7       10.200745   0.000000
    8       11.438222   0.000000
 
 -0.4285714E+00  0.1428571E+00 -0.2538985E-16  0.6997085E-01
    1       -3.712447   1.000000
    2       -1.097687   1.000000
    3        3.017095   1.000000
    4        4.157289   1.000000
    5        7.879899   0.000000
    6        9.375346   0.000000
    7        9.813545   0.000000
    8       13.773630   0.000000
 
 -0.2857143E+00  0.1428571E+00 -0.5704498E-17  0.6997085E-01
    1       -4.618932   1.000000
    2        0.417856   1.000000
    3        3.026265   1.000000
    4        4.664500   1.000000
    5        8.261596   0.000000
    6        9.560271   0.000000
    7        9.588284   0.000000
    8       12.243772   0.000000
 
 -0.1428571E+00  0.1428571E+00 -0.5725601E-17  0.3498542E-01
    1       -5.504066   1.000000
    2        2.510552   1.000000
    3        3.714082   1.000000
    4        5.251230   0.999999
    5        8.647305   0.000000
    6        8.937768   0.000000
    7        9.199681   0.000000
    8       11.205384   0.000000
 
  0.2857143E+00  0.2857143E+00  0.8217044E-18  0.1749271E-01
    1       -4.810863   1.000000
    2        1.481093   1.000000
    3        3.539191   1.000000
    4        3.539213   1.000000
    5        6.612930   0.000001
    6        8.299323   0.000000
    7       12.009652   0.000000
    8       12.009663   0.000000
 
  0.4285714E+00  0.2857143E+00 -0.5710699E-17  0.6997085E-01
    1       -3.923675   1.000000
    2       -0.001264   1.000000
    3        2.578311   1.000000
    4        3.281236   1.000000
    5        6.901492   0.000000
    6        8.383269   0.000000
    7       12.214219   0.000000
    8       12.423992   0.000000
 
 -0.4285714E+00  0.2857143E+00  0.1028864E-16  0.6997085E-01
    1       -3.026310   1.000000
    2       -1.156528   1.000000
    3        1.641565   1.000000
    4        3.447082   1.000000
    5        7.136840   0.000000
    6       10.613392   0.000000
    7       11.928257   0.000000
    8       11.935737   0.000000
 
 -0.2857143E+00  0.2857143E+00 -0.7704199E-17  0.3498542E-01
    1       -3.663436   1.000000
    2       -0.417741   1.000000
    3        1.570734   1.000000
    4        3.988724   1.000000
    5        7.732373   0.000000
    6       11.083619   0.000000
    7       11.451395   0.000000
    8       12.164445   0.000000
 
  0.4285714E+00  0.4285714E+00  0.1232557E-17  0.1749271E-01
    1       -3.151461   1.000000
    2       -0.986426   1.000000
    3        2.913034   1.000000
    4        2.913060   1.000000
    5        6.268259   0.010198
    6        6.790846   0.000000
    7       14.646159   0.000000
    8       14.646169   0.000000
 
 -0.4285714E+00  0.4285714E+00 -0.5519460E-17  0.3498542E-01
    1       -2.219939   1.000000
    2       -1.931023   1.000000
    3        2.042216   1.000000
    4        2.973430   1.000000
    5        6.568790   0.000004
    6        7.815630   0.000000
    7       14.404285   0.000000
    8       14.785401   0.000000
 
  0.4285714E+00  0.2857143E+00  0.1428571E+00  0.6997085E-01
    1       -4.507953   1.000000
    2        0.759833   1.000000
    3        2.582401   1.000000
    4        3.883744   1.000000
    5        8.243550   0.000000
    6        9.485944   0.000000
    7        9.784155   0.000000
    8       11.774009   0.000000
 
 -0.4285714E+00  0.2857143E+00  0.1428571E+00  0.1399417E+00
    1       -3.486425   1.000000
    2       -0.745270   1.000000
    3        2.013596   1.000000
    4        3.357768   1.000000
    5        8.729940   0.000000
    6        9.136208   0.000000
    7       11.108705   0.000000
    8       12.235222   0.000000
 
 -0.4285714E+00  0.4285714E+00  0.1428571E+00  0.6997085E-01
    1       -2.951824   1.000000
    2       -1.073241   1.000000
    3        2.107565   1.000000
    4        2.513709   1.000000
    5        7.886634   0.000000
    6        8.263864   0.000000
    7       11.776716   0.000000
    8       14.246547   0.000000
 
 -0.2857143E+00  0.4285714E+00  0.1428571E+00  0.6997085E-01
    1       -2.526061   1.000000
    2       -1.463188   1.000000
    3        1.483317   1.000000
    4        2.602699   1.000000
    5        8.412731   0.000000
    6       10.521739   0.000000
    7       11.246498   0.000000
    8       11.415579   0.000000
