unknown system                          
   1.00000000000000     
     0.000000    2.542898    2.542898
     2.542898    0.000000    2.542898
     2.542898    2.542898    0.000000
   Si
     2
Direct
  0.000000  0.000000  0.000000
  0.250000  0.250000  0.250000
 
   32   32   32
 -6.7084     -5.3597     -1.7056      3.2357      8.2115      12.166      14.523      15.250      14.729      13.545    
  12.180      10.831      9.6244      8.6426      7.9283      7.4978      7.3543      7.4978      7.9283      8.6426    
  9.6244      10.831      12.180      13.545      14.729      15.250      14.523      12.166      8.2113      3.2356    
 -1.7055     -5.3596     -5.3597     -2.6444      1.9737      7.2183      11.843      15.022      16.496      16.499    
  15.556      14.238      12.842      11.511      10.356      9.4470      8.8263      8.5127      8.5125      8.8261    
  9.4471      10.356      11.511      12.842      14.238      15.556      16.499      16.496      15.022      11.843    
  7.2185      1.9734     -2.6452     -5.3601     -1.7056      1.9737      6.8548      11.640      15.313      17.393    
  17.927      17.330      16.157      14.801      13.423      12.145      11.064      10.248      9.7436      9.5730    
  9.7436      10.248      11.064      12.145      13.423      14.801      16.157      17.330      17.927      17.392    
  15.313      11.640      6.8549      1.9737     -1.7055     -3.0772      3.2357      7.2183      11.640      15.410    
  17.866      18.862      18.661      17.739      16.523      15.195      13.877      12.677      11.689      10.986    
  10.622      10.622      10.986      11.689      12.677      13.877      15.195      16.523      17.739      18.661    
  18.862      17.866      15.410      11.640      7.2186      3.2363     0.86307     0.86274      8.2115      11.843    
  15.313      17.866      19.188      19.377      18.788      17.815      16.646      15.392      14.159      13.052    
  12.169      11.599      11.402      11.599      12.170      13.052      14.159      15.392      16.646      17.815    
  18.788      19.377      19.188      17.866      15.313      11.843      8.2114      5.4311      4.3867      5.4311    
  12.166      15.022      17.393      18.862      19.377      19.156      18.509      17.602      16.523      15.365    
  14.225      13.214      12.445      12.025      12.025      12.445      13.214      14.225      15.365      16.523    
  17.601      18.509      19.156      19.377      18.862      17.393      15.022      12.165      9.5515      7.9804    
  7.9805      9.5518      14.523      16.496      17.927      18.661      18.788      18.509      17.935      17.130    
  16.157      15.093      14.032      13.094      12.438      12.201      12.438      13.094      14.032      15.093    
  16.157      17.130      17.935      18.509      18.788      18.661      17.927      16.496      14.523      12.437    
  10.830      10.225      10.830      12.438      15.250      16.499      17.330      17.739      17.815      17.602    
  17.130      16.433      15.556      14.551      13.522      12.653      12.151      12.151      12.654      13.522    
  14.551      15.556      16.433      17.130      17.602      17.815      17.739      17.330      16.499      15.250    
  13.777      12.439      11.636      11.636      12.439      13.777      14.729      15.556      16.157      16.523    
  16.646      16.523      16.157      15.556      14.729      13.731      12.736      11.988      11.709      11.988    
  12.736      13.732      14.729      15.556      16.157      16.523      16.646      16.523      16.157      15.555    
  14.729      13.732      12.736      11.988      11.709      11.988      12.736      13.731      13.545      14.238    
  14.801      15.195      15.392      15.365      15.093      14.551      13.731      12.754      11.858      11.318    
  11.318      11.858      12.754      13.731      14.551      15.093      15.365      15.392      15.195      14.801    
  14.238      13.545      12.782      12.029      11.406      11.048      11.048      11.405      12.029      12.782    
  12.180      12.842      13.423      13.877      14.159      14.225      14.032      13.522      12.736      11.858    
  11.162      10.897      11.162      11.858      12.736      13.522      14.032      14.225      14.159      13.877    
  13.423      12.842      12.180      11.488      10.828      10.272      9.8970      9.7642      9.8970      10.272    
  10.828      11.488      10.831      11.511      12.145      12.677      13.052      13.214      13.094      12.653    
  11.988      11.318      10.897      10.897      11.318      11.988      12.653      13.094      13.214      13.052    
  12.677      12.145      11.511      10.831      10.153      9.5242      8.9911      8.6007      8.3936      8.3937    
  8.6010      8.9913      9.5241      10.153      9.6244      10.356      11.064      11.689      12.169      12.445    
  12.438      12.151      11.709      11.318      11.162      11.318      11.709      12.151      12.438      12.445    
  12.169      11.689      11.064      10.356      9.6244      8.9198      8.2827      7.7460      7.3378      7.0817    
  6.9943      7.0817      7.3379      7.7460      8.2827      8.9198      8.6426      9.4470      10.248      10.986    
  11.599      12.025      12.201      12.151      11.988      11.858      11.858      11.988      12.151      12.201    
  12.025      11.599      10.986      10.248      9.4470      8.6424      7.8848      7.2115      6.6478      6.2107    
  5.9122      5.7607      5.7606      5.9121      6.2106      6.6478      7.2117      7.8851      7.9283      8.8263    
  9.7436      10.622      11.402      12.025      12.438      12.654      12.736      12.754      12.736      12.653    
  12.438      12.025      11.402      10.622      9.7436      8.8263      7.9283      7.0980      6.3690      5.7613    
  5.2843      4.9420      4.7359      4.6671      4.7359      4.9420      5.2843      5.7612      6.3690      7.0979    
  7.4978      8.5127      9.5730      10.622      11.599      12.445      13.094      13.522      13.732      13.731    
  13.522      13.094      12.445      11.599      10.622      9.5729      8.5126      7.4978      6.5748      5.7734    
  5.1080      4.5817      4.1919      3.9345      3.8066      3.8066      3.9346      4.1920      4.5817      5.1078    
  5.7730      6.5745      7.3543      8.5125      9.7436      10.986      12.170      13.214      14.032      14.551    
  14.729      14.551      14.032      13.214      12.169      10.986      9.7436      8.5126      7.3543      6.3147    
  5.4212      4.6832      4.0975      3.6551      3.3464      3.1639      3.1035      3.1639      3.3463      3.6551    
  4.0975      4.6832      5.4212      6.3148      7.4978      8.8261      10.248      11.689      13.052      14.225    
  15.093      15.556      15.556      15.093      14.225      13.052      11.689      10.248      8.8263      7.4978    
  6.3147      5.3049      4.4748      3.8159      3.3126      2.9492      2.7132      2.5970      2.5970      2.7131    
  2.9490      3.3125      3.8159      4.4751      5.3053      6.3150      7.9283      9.4471      11.064      12.677    
  14.159      15.365      16.157      16.433      16.157      15.365      14.159      12.677      11.064      9.4470    
  7.9283      6.5748      5.4212      4.4748      3.7236      3.1464      2.7207      2.4287      2.2580      2.2018    
  2.2580      2.4287      2.7207      3.1464      3.7237      4.4749      5.4212      6.5748      8.6426      10.356    
  12.145      13.877      15.392      16.523      17.130      17.130      16.523      15.392      13.877      12.145    
  10.356      8.6424      7.0980      5.7734      4.6832      3.8159      3.1464      2.6463      2.2913      2.0637    
  1.9526      1.9526      2.0638      2.2914      2.6464      3.1465      3.8159      4.6829      5.7730      7.0978    
  9.6244      11.511      13.423      15.195      16.646      17.601      17.935      17.602      16.646      15.195    
  13.423      11.511      9.6244      7.8848      6.3690      5.1080      4.0975      3.3126      2.7207      2.2913    
  2.0005      1.8321      1.7770      1.8322      2.0005      2.2913      2.7208      3.3126      4.0975      5.1079    
  6.3690      7.8848      10.831      12.842      14.801      16.523      17.815      18.509      18.509      17.815    
  16.523      14.801      12.842      10.831      8.9198      7.2115      5.7613      4.5817      3.6551      2.9492    
  2.4287      2.0637      1.8321      1.7198      1.7198      1.8322      2.0638      2.4286      2.9490      3.6550    
  4.5817      5.7615      7.2117      8.9198      12.180      14.238      16.157      17.739      18.788      19.156    
  18.788      17.739      16.157      14.238      12.180      10.153      8.2827      6.6478      5.2843      4.1919    
  3.3464      2.7132      2.2580      1.9526      1.7770      1.7198      1.7770      1.9526      2.2580      2.7132    
  3.3463      4.1918      5.2843      6.6478      8.2827      10.153      13.545      15.556      17.330      18.661    
  19.377      19.377      18.661      17.330      15.555      13.545      11.488      9.5242      7.7460      6.2107    
  4.9420      3.9345      3.1639      2.5970      2.2018      1.9526      1.8322      1.8322      1.9526      2.2018    
  2.5970      3.1639      3.9346      4.9420      6.2106      7.7457      9.5241      11.489      14.729      16.499    
  17.927      18.862      19.188      18.862      17.927      16.499      14.729      12.782      10.828      8.9911    
  7.3378      5.9122      4.7359      3.8066      3.1035      2.5970      2.2580      2.0638      2.0005      2.0638    
  2.2580      2.5970      3.1035      3.8066      4.7360      5.9123      7.3378      8.9911      10.828      12.782    
  15.250      16.496      17.392      17.866      17.866      17.393      16.496      15.250      13.732      12.029    
  10.272      8.6007      7.0817      5.7607      4.6671      3.8066      3.1639      2.7131      2.4287      2.2914    
  2.2913      2.4286      2.7132      3.1639      3.8066      4.6670      5.7606      7.0818      8.6010      10.272    
  12.029      13.731      14.523      15.022      15.313      15.410      15.313      15.022      14.523      13.777    
  12.736      11.406      9.8970      8.3936      6.9943      5.7606      4.7359      3.9346      3.3463      2.9490    
  2.7207      2.6464      2.7208      2.9490      3.3463      3.9346      4.7360      5.7606      6.9943      8.3935    
  9.8970      11.406      12.736      13.777      12.166      11.843      11.640      11.640      11.843      12.165    
  12.437      12.439      11.988      11.048      9.7642      8.3937      7.0817      5.9121      4.9420      4.1920    
  3.6551      3.3125      3.1464      3.1465      3.3126      3.6550      4.1918      4.9420      5.9123      7.0818    
  8.3935      9.7639      11.048      11.988      12.439      12.438      8.2113      7.2185      6.8549      7.2186    
  8.2114      9.5515      10.830      11.636      11.709      11.048      9.8970      8.6010      7.3379      6.2106    
  5.2843      4.5817      4.0975      3.8159      3.7237      3.8159      4.0975      4.5817      5.2843      6.2106    
  7.3378      8.6010      9.8970      11.048      11.709      11.636      10.830      9.5515      3.2356      1.9734    
  1.9737      3.2363      5.4311      7.9804      10.225      11.636      11.988      11.405      10.272      8.9913    
  7.7460      6.6478      5.7612      5.1078      4.6832      4.4751      4.4749      4.6829      5.1079      5.7615    
  6.6478      7.7457      8.9911      10.272      11.406      11.988      11.636      10.225      7.9804      5.4307    
 -1.7055     -2.6452     -1.7055     0.86307      4.3867      7.9805      10.830      12.439      12.736      12.029    
  10.828      9.5241      8.2827      7.2117      6.3690      5.7730      5.4212      5.3053      5.4212      5.7730    
  6.3690      7.2117      8.2827      9.5241      10.828      12.029      12.736      12.439      10.830      7.9804    
  4.3866     0.86305     -5.3596     -5.3601     -3.0772     0.86274      5.4311      9.5518      12.438      13.777    
  13.731      12.782      11.488      10.153      8.9198      7.8851      7.0979      6.5745      6.3148      6.3150    
  6.5748      7.0978      7.8848      8.9198      10.153      11.489      12.782      13.731      13.777      12.438    
  9.5515      5.4307     0.86305     -3.0763     -5.3597     -2.6444      1.9736      7.2182      11.843      15.022    
  16.496      16.499      15.556      14.238      12.842      11.511      10.356      9.4470      8.8263      8.5127    
  8.5125      8.8261      9.4471      10.356      11.511      12.842      14.238      15.556      16.499      16.496    
  15.022      11.843      7.2185      1.9734     -2.6452     -5.3601     -2.6444      1.2284      6.3696      11.419    
  15.314      17.550      18.175      17.612      16.433      15.060      13.660      12.359      11.256      10.422    
  9.9054      9.7306      9.9054      10.422      11.256      12.359      13.660      15.060      16.433      17.612    
  18.175      17.550      15.314      11.419      6.3692      1.2274     -2.6453     -4.0884      1.9736      6.3696    
  11.260      15.453      18.226      19.417      19.302      18.380      17.130      15.757      14.387      13.135    
  12.099      11.361      10.977      10.977      11.361      12.099      13.135      14.387      15.757      17.130    
  18.380      19.302      19.418      18.227      15.453      11.260      6.3693      1.9734     -.64438     -.64431    
  7.2182      11.419      15.453      18.461      20.083      20.419      19.852      18.834      17.601      16.270    
  14.953      13.761      12.807      12.187      11.972      12.188      12.807      13.761      14.953      16.270    
  17.601      18.834      19.852      20.419      20.083      18.461      15.453      11.419      7.2186      4.0084    
  2.8029      4.0080      11.843      15.314      18.226      20.083      20.810      20.647      19.962      18.985    
  17.815      16.546      15.285      14.151      13.276      12.796      12.796      13.276      14.151      15.285    
  16.545      17.815      18.985      19.962      20.647      20.810      20.083      18.226      15.314      11.843    
  8.6803      6.7823      6.7823      8.6804      15.022      17.550      19.417      20.419      20.647      20.358    
  19.730      18.834      17.739      16.522      15.273      14.150      13.356      13.068      13.356      14.150    
  15.274      16.521      17.739      18.834      19.730      20.358      20.647      20.419      19.418      17.550    
  15.022      12.369      10.332      9.5659      10.332      12.369      16.496      18.175      19.302      19.852    
  19.962      19.730      19.191      18.380      17.330      16.079      14.769      13.651      13.001      13.001    
  13.651      14.769      16.079      17.330      18.380      19.191      19.730      19.962      19.852      19.302    
  18.175      16.496      14.529      12.749      11.683      11.683      12.749      14.529      16.499      17.612    
  18.380      18.834      18.985      18.834      18.380      17.611      16.499      15.131      13.758      12.725    
  12.340      12.725      13.758      15.132      16.499      17.611      18.380      18.834      18.986      18.834    
  18.380      17.611      16.499      15.132      13.758      12.725      12.340      12.725      13.758      15.131    
  15.556      16.433      17.130      17.601      17.815      17.739      17.330      16.499      15.250      13.777    
  12.439      11.636      11.636      12.439      13.777      15.250      16.499      17.330      17.739      17.815    
  17.602      17.130      16.433      15.556      14.551      13.522      12.654      12.151      12.151      12.653    
  13.522      14.551      14.238      15.060      15.757      16.270      16.546      16.522      16.079      15.131    
  13.777      12.320      11.187      10.759      11.187      12.319      13.777      15.132      16.079      16.521    
  16.546      16.271      15.757      15.060      14.238      13.356      12.497      11.760      11.253      11.071    
  11.253      11.760      12.497      13.356      12.842      13.660      14.387      14.953      15.285      15.273    
  14.769      13.758      12.439      11.187      10.423      10.422      11.187      12.438      13.758      14.769    
  15.274      15.284      14.953      14.387      13.660      12.842      11.998      11.196      10.504      9.9913    
  9.7173      9.7173      9.9912      10.504      11.196      11.998      11.511      12.359      13.135      13.761    
  14.151      14.150      13.651      12.725      11.636      10.759      10.422      10.758      11.636      12.725    
  13.651      14.150      14.151      13.761      13.135      12.359      11.511      10.663      9.8733      9.1945    
  8.6712      8.3402      8.2269      8.3404      8.6714      9.1945      9.8730      10.663      10.356      11.256    
  12.099      12.807      13.276      13.356      13.001      12.340      11.636      11.187      11.187      11.636    
  12.339      13.001      13.356      13.276      12.807      12.099      11.255      10.356      9.4720      8.6626    
  7.9706      7.4267      7.0521      6.8612      6.8612      7.0522      7.4268      7.9707      8.6626      9.4720    
  9.4470      10.422      11.361      12.187      12.796      13.068      13.001      12.725      12.439      12.319    
  12.438      12.725      13.001      13.067      12.796      12.188      11.361      10.422      9.4470      8.5056    
  7.6530      6.9269      6.3496      5.9325      5.6807      5.5965      5.6806      5.9324      6.3497      6.9271    
  7.6532      8.5057      8.8263      9.9054      10.977      11.972      12.796      13.356      13.651      13.758    
  13.777      13.777      13.758      13.651      13.356      12.796      11.972      10.977      9.9054      8.8263    
  7.8040      6.8886      6.1122      5.4904      5.0272      4.7210      4.5688      4.5688      4.7210      5.0272    
  5.4904      6.1122      6.8885      7.8040      8.5127      9.7306      10.977      12.188      13.276      14.150    
  14.769      15.132      15.250      15.132      14.769      14.150      13.276      12.188      10.977      9.7305    
  8.5126      7.3815      6.3818      5.5390      4.8618      4.3474      3.9882      3.7761      3.7060      3.7762    
  3.9882      4.3475      4.8616      5.5387      6.3815      7.3815      8.5125      9.9054      11.361      12.807    
  14.151      15.274      16.079      16.499      16.499      16.079      15.274      14.151      12.807      11.361    
  9.9054      8.5126      7.2407      6.1303      5.2011      4.4549      3.8817      3.4674      3.1988      3.0668    
  3.0667      3.1987      3.4673      3.8817      4.4549      5.2011      6.1303      7.2408      8.8261      10.422    
  12.099      13.761      15.285      16.521      17.330      17.611      17.330      16.521      15.284      13.761    
  12.099      10.422      8.8263      7.3815      6.1303      5.0897      4.2558      3.6117      3.1362      2.8103    
  2.6200      2.5575      2.6200      2.8102      3.1361      3.6117      4.2560      5.0900      6.1305      7.3815    
  9.4471      11.256      13.135      14.953      16.545      17.739      18.380      18.380      17.739      16.546    
  14.953      13.135      11.255      9.4470      7.8040      6.3818      5.2011      4.2558      3.5234      2.9758    
  2.5872      2.3383      2.2168      2.2168      2.3383      2.5873      2.9758      3.5234      4.2559      5.2011    
  6.3817      7.8039      10.356      12.359      14.387      16.270      17.815      18.834      19.191      18.834    
  17.815      16.271      14.387      12.359      10.356      8.5056      6.8886      5.5390      4.4549      3.6117    
  2.9758      2.5146      2.2023      2.0215      1.9623      2.0215      2.2024      2.5147      2.9759      3.6117    
  4.4547      5.5387      6.8885      8.5057      11.511      13.660      15.757      17.601      18.985      19.730    
  19.730      18.986      17.602      15.757      13.660      11.511      9.4720      7.6530      6.1122      4.8618    
  3.8817      3.1362      2.5872      2.2023      1.9579      1.8393      1.8393      1.9580      2.2023      2.5872    
  3.1363      3.8817      4.8617      6.1121      7.6530      9.4721      12.842      15.060      17.130      18.834    
  19.962      20.358      19.962      18.834      17.130      15.060      12.842      10.663      8.6626      6.9269    
  5.4904      4.3474      3.4674      2.8103      2.3383      2.0215      1.8393      1.7798      1.8393      2.0216    
  2.3383      2.8102      3.4673      4.3475      5.4906      6.9271      8.6626      10.663      14.238      16.433    
  18.380      19.852      20.647      20.647      19.852      18.380      16.433      14.238      11.998      9.8733    
  7.9706      6.3496      5.0272      3.9882      3.1988      2.6200      2.2168      1.9623      1.8393      1.8393    
  1.9623      2.2168      2.6200      3.1987      3.9881      5.0272      6.3497      7.9707      9.8733      11.998    
  15.556      17.612      19.302      20.419      20.810      20.419      19.302      17.611      15.556      13.356    
  11.196      9.1945      7.4267      5.9325      4.7210      3.7761      3.0668      2.5575      2.2168      2.0215    
  1.9580      2.0216      2.2168      2.5574      3.0667      3.7762      4.7210      5.9324      7.4265      9.1945    
  11.196      13.356      16.499      18.175      19.418      20.083      20.083      19.418      18.175      16.499    
  14.551      12.497      10.504      8.6712      7.0521      5.6807      4.5688      3.7060      3.0667      2.6200    
  2.3383      2.2024      2.2023      2.3383      2.6200      3.0667      3.7061      4.5688      5.6808      7.0522    
  8.6713      10.504      12.497      14.551      16.496      17.550      18.227      18.461      18.226      17.550    
  16.496      15.132      13.522      11.760      9.9913      8.3402      6.8612      5.5965      4.5688      3.7762    
  3.1987      2.8102      2.5873      2.5147      2.5872      2.8102      3.1987      3.7762      4.5688      5.5965    
  6.8612      8.3404      9.9914      11.760      13.522      15.131      15.022      15.314      15.453      15.453    
  15.314      15.022      14.529      13.758      12.654      11.253      9.7173      8.2269      6.8612      5.6806    
  4.7210      3.9882      3.4673      3.1361      2.9758      2.9759      3.1363      3.4673      3.9881      4.7210    
  5.6808      6.8612      8.2267      9.7172      11.253      12.654      13.758      14.529      11.843      11.419    
  11.260      11.419      11.843      12.369      12.749      12.725      12.151      11.071      9.7173      8.3404    
  7.0522      5.9324      5.0272      4.3475      3.8817      3.6117      3.5234      3.6117      3.8817      4.3475    
  5.0272      5.9324      7.0522      8.3404      9.7172      11.071      12.151      12.725      12.749      12.369    
  7.2185      6.3692      6.3693      7.2186      8.6803      10.332      11.683      12.340      12.151      11.253    
  9.9912      8.6714      7.4268      6.3497      5.4904      4.8616      4.4549      4.2560      4.2559      4.4547    
  4.8617      5.4906      6.3497      7.4265      8.6713      9.9914      11.253      12.151      12.340      11.683    
  10.333      8.6805      1.9734      1.2274      1.9734      4.0084      6.7823      9.5659      11.683      12.725    
  12.653      11.760      10.504      9.1945      7.9707      6.9271      6.1122      5.5387      5.2011      5.0900    
  5.2011      5.5387      6.1121      6.9271      7.9707      9.1945      10.504      11.760      12.654      12.725    
  11.683      9.5657      6.7820      4.0082     -2.6452     -2.6453     -.64438      2.8029      6.7823      10.332    
  12.749      13.758      13.522      12.497      11.196      9.8730      8.6626      7.6532      6.8885      6.3815    
  6.1303      6.1305      6.3817      6.8885      7.6530      8.6626      9.8733      11.196      12.497      13.522    
  13.758      12.749      10.333      6.7820      2.8028     -.64428     -5.3601     -4.0884     -.64431      4.0080    
  8.6804      12.369      14.529      15.131      14.551      13.356      11.998      10.663      9.4720      8.5057    
  7.8040      7.3815      7.2408      7.3815      7.8039      8.5057      9.4721      10.663      11.998      13.356    
  14.551      15.131      14.529      12.369      8.6805      4.0082     -.64428     -4.0885     -1.7056      1.9736    
  6.8548      11.640      15.313      17.393      17.927      17.330      16.157      14.801      13.423      12.145    
  11.064      10.248      9.7436      9.5730      9.7436      10.248      11.064      12.145      13.423      14.801    
  16.157      17.330      17.927      17.392      15.313      11.640      6.8549      1.9737     -1.7055     -3.0773    
  1.9736      6.3696      11.260      15.453      18.226      19.417      19.302      18.380      17.130      15.757    
  14.387      13.135      12.099      11.361      10.977      10.977      11.361      12.099      13.135      14.387    
  15.757      17.130      18.380      19.302      19.418      18.227      15.453      11.260      6.3693      1.9734    
 -.64440     -.64432      6.8548      11.260      15.496      18.666      20.394      20.783      20.226      19.191    
  17.935      16.577      15.230      14.009      13.029      12.392      12.170      12.392      13.029      14.009    
  15.230      16.577      17.935      19.191      20.226      20.783      20.395      18.666      15.496      11.260    
  6.8548      3.4894      2.2259      3.4894      11.640      15.453      18.666      20.736      21.581      21.452    
  20.745      19.730      18.509      17.180      15.853      14.650      13.716      13.201      13.201      13.716    
  14.650      15.853      17.180      18.509      19.730      20.745      21.452      21.581      20.736      18.666    
  15.454      11.640      8.1703      6.0883      6.0881      8.1699      15.313      18.226      20.394      21.581    
  21.883      21.584      20.917      19.962      18.788      17.464      16.084      14.829      13.936      13.612    
  13.936      14.829      16.084      17.464      18.787      19.962      20.917      21.584      21.883      21.581    
  20.395      18.227      15.313      12.266      9.9291      9.0500      9.9292      12.266      17.393      19.417    
  20.783      21.452      21.584      21.333      20.745      19.852      18.661      17.208      15.669      14.347    
  13.577      13.577      14.347      15.669      17.208      18.661      19.852      20.745      21.333      21.584    
  21.452      20.783      19.418      17.393      15.027      12.889      11.610      11.611      12.890      15.027    
  17.927      19.302      20.226      20.745      20.917      20.745      20.226      19.302      17.927      16.223    
  14.505      13.212      12.729      13.212      14.505      16.223      17.927      19.302      20.225      20.745    
  20.917      20.745      20.225      19.302      17.927      16.223      14.505      13.212      12.729      13.212    
  14.505      16.223      17.330      18.380      19.191      19.730      19.962      19.852      19.302      18.175    
  16.496      14.529      12.749      11.683      11.683      12.749      14.529      16.496      18.175      19.302    
  19.852      19.962      19.730      19.191      18.380      17.330      16.079      14.769      13.651      13.001    
  13.001      13.651      14.769      16.079      16.157      17.130      17.935      18.509      18.788      18.661    
  17.927      16.496      14.523      12.438      10.830      10.225      10.830      12.437      14.523      16.496    
  17.927      18.661      18.788      18.509      17.935      17.130      16.157      15.093      14.032      13.094    
  12.438      12.201      12.438      13.094      14.032      15.093      14.801      15.757      16.577      17.180    
  17.464      17.208      16.223      14.529      12.438      10.503      9.3345      9.3345      10.503      12.437    
  14.529      16.223      17.208      17.464      17.180      16.577      15.757      14.801      13.791      12.811    
  11.953      11.311      10.964      10.964      11.311      11.953      12.811      13.791      13.423      14.387    
  15.230      15.853      16.084      15.669      14.505      12.749      10.830      9.3345      8.7686      9.3344    
  10.830      12.748      14.505      15.669      16.084      15.853      15.230      14.387      13.423      12.425    
  11.474      10.642      9.9915      9.5767      9.4340      9.5767      9.9915      10.642      11.474      12.425    
  12.145      13.135      14.009      14.650      14.829      14.347      13.212      11.683      10.225      9.3345    
  9.3344      10.225      11.683      13.211      14.347      14.829      14.650      14.009      13.135      12.145    
  11.133      10.178      9.3452      8.6807      8.2189      7.9824      7.9825      8.2191      8.6807      9.3450    
  10.178      11.133      11.064      12.099      13.029      13.716      13.936      13.577      12.729      11.683    
  10.830      10.503      10.830      11.683      12.729      13.577      13.936      13.716      13.029      12.099    