unknown system                          
   1.00000000000000     
     0.000000    2.542898    2.542898
     2.542898    0.000000    2.542898
     2.542898    2.542898    0.000000
   Si
     2
Direct
  0.000000  0.000000  0.000000
  0.250000  0.250000  0.250000
 
   32   32   32
 -.67083705802E+01 -.53596729931E+01 -.17055554660E+01 0.32357117547E+01 0.82114792840E+01
 0.12165782822E+02 0.14523479235E+02 0.15250121307E+02 0.14728584381E+02 0.13544832030E+02
 0.12180104460E+02 0.10830967109E+02 0.96243639620E+01 0.86425779495E+01 0.79282866573E+01
 0.74977526117E+01 0.73542770839E+01 0.74977728787E+01 0.79283029142E+01 0.86425702088E+01
 0.96243560278E+01 0.10831017275E+02 0.12180227235E+02 0.13544948564E+02 0.14728588901E+02
 0.15249983260E+02 0.14523250367E+02 0.12165534971E+02 0.82112814078E+01 0.32356305881E+01
 -.17055096958E+01 -.53595929408E+01 -.53596729931E+01 -.26443759833E+01 0.19736714064E+01
 0.72182675194E+01 0.11843099213E+02 0.15021927517E+02 0.16496256308E+02 0.16498887458E+02
 0.15555514307E+02 0.14237665474E+02 0.12841714565E+02 0.11511413420E+02 0.10355678691E+02
 0.94469725200E+01 0.88263304655E+01 0.85126764357E+01 0.85125234820E+01 0.88261303650E+01
 0.94470718455E+01 0.10355934142E+02 0.11511431234E+02 0.12841519289E+02 0.14237671273E+02
 0.15555805401E+02 0.16499005267E+02 0.16495917753E+02 0.15021532699E+02 0.11843125978E+02
 0.72184532114E+01 0.19733531762E+01 -.26451784840E+01 -.53601179727E+01 -.17055554660E+01
 0.19736714064E+01 0.68548395934E+01 0.11640067992E+02 0.15313128347E+02 0.17392620849E+02
 0.17927466297E+02 0.17330100315E+02 0.16156510963E+02 0.14800671816E+02 0.13422687609E+02
 0.12144895808E+02 0.11063600022E+02 0.10248308408E+02 0.97435963559E+01 0.95729918570E+01
 0.97436034454E+01 0.10248324856E+02 0.11063621846E+02 0.12144910113E+02 0.13422693232E+02
 0.14800698908E+02 0.16156585158E+02 0.17330176019E+02 0.17927445999E+02 0.17392477590E+02
 0.15312965122E+02 0.11640005356E+02 0.68548786433E+01 0.19737251600E+01 -.17055351401E+01
 -.30772498702E+01 0.32357117547E+01 0.72182675194E+01 0.11640067992E+02 0.15410396610E+02
 0.17865858936E+02 0.18861829267E+02 0.18661390663E+02 0.17738702589E+02 0.16523306632E+02
 0.15195223607E+02 0.13877132828E+02 0.12677452932E+02 0.11689001886E+02 0.10986252347E+02
 0.10621505036E+02 0.10621588368E+02 0.10986376449E+02 0.11688988705E+02 0.12677351799E+02
 0.13877131173E+02 0.15195339347E+02 0.16523370538E+02 0.17738658349E+02 0.18661392040E+02
 0.18861942860E+02 0.17865888688E+02 0.15410210573E+02 0.11639940263E+02 0.72185815462E+01
 0.32363444808E+01 0.86307386839E+00 0.86274139095E+00 0.82114792840E+01 0.11843099213E+02
 0.15313128347E+02 0.17865858936E+02 0.19187858728E+02 0.19377029296E+02 0.18787608737E+02
 0.17814986334E+02 0.16646078141E+02 0.15392150900E+02 0.14159349251E+02 0.13051816949E+02
 0.12169475232E+02 0.11599285489E+02 0.11401874795E+02 0.11599290891E+02 0.12169513178E+02
 0.13051869027E+02 0.14159363402E+02 0.15392127266E+02 0.16646064851E+02 0.17814997345E+02
 0.18787626630E+02 0.19377067624E+02 0.19187929170E+02 0.17865900808E+02 0.15313072287E+02
 0.11842986569E+02 0.82114137125E+01 0.54311112288E+01 0.43867341086E+01 0.54311135354E+01
 0.12165782822E+02 0.15021927517E+02 0.17392620849E+02 0.18861829267E+02 0.19377029296E+02
 0.19155613652E+02 0.18509325819E+02 0.17601506589E+02 0.16523342076E+02 0.15365027787E+02
 0.14225171910E+02 0.13214121299E+02 0.12444805913E+02 0.12025352848E+02 0.12025362571E+02
 0.12444845285E+02 0.13214187804E+02 0.14225224508E+02 0.15365034072E+02 0.16523317814E+02
 0.17601480241E+02 0.18509303646E+02 0.19155609717E+02 0.19377070281E+02 0.18861879536E+02
 0.17392562030E+02 0.15021675780E+02 0.12165404555E+02 0.95515124751E+01 0.79803758538E+01
 0.79805038476E+01 0.95518417968E+01 0.14523479235E+02 0.16496256308E+02 0.17927466297E+02
 0.18661390663E+02 0.18787608737E+02 0.18509325819E+02 0.17935475374E+02 0.17129723624E+02
 0.16156523897E+02 0.15093100586E+02 0.14031957165E+02 0.13094364922E+02 0.12438111889E+02
 0.12201076088E+02 0.12438195987E+02 0.13094455109E+02 0.14032007830E+02 0.15093134494E+02
 0.16156557231E+02 0.17129733967E+02 0.17935460093E+02 0.18509316486E+02 0.18787608996E+02
 0.18661364056E+02 0.17927394236E+02 0.16496158988E+02 0.14523371670E+02 0.12437448508E+02
 0.10830351861E+02 0.10224914381E+02 0.10830434241E+02 0.12437561728E+02 0.15250121307E+02
 0.16498887458E+02 0.17330100315E+02 0.17738702589E+02 0.17814986334E+02 0.17601506589E+02
 0.17129723624E+02 0.16432833060E+02 0.15555502985E+02 0.14550917284E+02 0.13522178378E+02
 0.12653461520E+02 0.12150716470E+02 0.12150754309E+02 0.12653546616E+02 0.13522267128E+02
 0.14550991495E+02 0.15555548621E+02 0.16432846893E+02 0.17129748572E+02 0.17601571657E+02
 0.17815017494E+02 0.17738626806E+02 0.17330031569E+02 0.16499010469E+02 0.15250371665E+02
 0.13777213674E+02 0.12438594785E+02 0.11636129556E+02 0.11636240141E+02 0.12438734978E+02
 0.13777118776E+02 0.14728584381E+02 0.15555514307E+02 0.16156510963E+02 0.16523306632E+02
 0.16646078141E+02 0.16523342076E+02 0.16156523897E+02 0.15555502985E+02 0.14728603612E+02
 0.13731492429E+02 0.12735774798E+02 0.11988082355E+02 0.11709281938E+02 0.11988159479E+02
 0.12735846794E+02 0.13731521805E+02 0.14728624817E+02 0.15555530611E+02 0.16156543084E+02
 0.16523377625E+02 0.16646167091E+02 0.16523404312E+02 0.16156539569E+02 0.15555497098E+02
 0.14728618551E+02 0.13731542954E+02 0.12735838293E+02 0.11988120935E+02 0.11709269752E+02
 0.11988096046E+02 0.12735757408E+02 0.13731444798E+02 0.13544832030E+02 0.14237665474E+02
 0.14800671816E+02 0.15195223607E+02 0.15392150900E+02 0.15365027787E+02 0.15093100586E+02
 0.14550917284E+02 0.13731492429E+02 0.12753665323E+02 0.11857531929E+02 0.11317684961E+02
 0.11317712202E+02 0.11857579759E+02 0.12753680905E+02 0.13731472246E+02 0.14550887854E+02
 0.15093072840E+02 0.15365020936E+02 0.15392223830E+02 0.15195398280E+02 0.14800824359E+02
 0.14237612067E+02 0.13544579790E+02 0.12781512931E+02 0.12028975849E+02 0.11405557144E+02
 0.11047713101E+02 0.11047514976E+02 0.11405183265E+02 0.12028820358E+02 0.12781687866E+02
 0.12180104460E+02 0.12841714565E+02 0.13422687609E+02 0.13877132828E+02 0.14159349251E+02
 0.14225171910E+02 0.14031957165E+02 0.13522178378E+02 0.12735774798E+02 0.11857531929E+02
 0.11162189206E+02 0.10897210630E+02 0.11162189943E+02 0.11857557723E+02 0.12735801843E+02
 0.13522149857E+02 0.14031878712E+02 0.14225116334E+02 0.14159353566E+02 0.13877166301E+02
 0.13422726464E+02 0.12841767971E+02 0.12180165661E+02 0.11488438331E+02 0.10827808646E+02
 0.10271742660E+02 0.98970189394E+01 0.97641973865E+01 0.98969738022E+01 0.10271699565E+02
 0.10827781399E+02 0.11488397082E+02 0.10830967109E+02 0.11511413420E+02 0.12144895808E+02
 0.12677452932E+02 0.13051816949E+02 0.13214121299E+02 0.13094364922E+02 0.12653461520E+02
 0.11988082355E+02 0.11317684961E+02 0.10897210630E+02 0.10897226710E+02 0.11317725454E+02
 0.11988120775E+02 0.12653470090E+02 0.13094348471E+02 0.13214097528E+02 0.13051761346E+02
 0.12677330342E+02 0.12144776733E+02 0.11511464551E+02 0.10831249076E+02 0.10153258319E+02
 0.95241990502E+01 0.89910774422E+01 0.86007055989E+01 0.83935536819E+01 0.83937064547E+01
 0.86010314812E+01 0.89912867733E+01 0.95240968856E+01 0.10152928427E+02 0.96243639620E+01
 0.10355678691E+02 0.11063600022E+02 0.11689001886E+02 0.12169475232E+02 0.12444805913E+02
 0.12438111889E+02 0.12150716470E+02 0.11709281938E+02 0.11317712202E+02 0.11162189943E+02
 0.11317725454E+02 0.11709303794E+02 0.12150741821E+02 0.12438135199E+02 0.12444817427E+02
 0.12169468274E+02 0.11688982396E+02 0.11063586043E+02 0.10355684184E+02 0.96243827458E+01
 0.89198403995E+01 0.82826668176E+01 0.77459680715E+01 0.73377910342E+01 0.70816743584E+01
 0.69942810817E+01 0.70817384963E+01 0.73378826857E+01 0.77460413476E+01 0.82826967105E+01
 0.89198329095E+01 0.86425779495E+01 0.94469725200E+01 0.10248308408E+02 0.10986252347E+02
 0.11599285489E+02 0.12025352848E+02 0.12201076088E+02 0.12150754309E+02 0.11988159479E+02
 0.11857579759E+02 0.11857557723E+02 0.11988120775E+02 0.12150741821E+02 0.12201091662E+02
 0.12025371983E+02 0.11599326556E+02 0.10986368370E+02 0.10248475342E+02 0.94470436657E+01
 0.86424278808E+01 0.78848385369E+01 0.72114706378E+01 0.66477734765E+01 0.62107449013E+01
 0.59122442793E+01 0.57606552273E+01 0.57606059089E+01 0.59121095571E+01 0.62106052704E+01
 0.66477786377E+01 0.72116897989E+01 0.78851352854E+01 0.79282866573E+01 0.88263304655E+01
 0.97435963559E+01 0.10621505036E+02 0.11401874795E+02 0.12025362571E+02 0.12438195987E+02
 0.12653546616E+02 0.12735846794E+02 0.12753680905E+02 0.12735801843E+02 0.12653470090E+02
 0.12438135199E+02 0.12025371983E+02 0.11401952700E+02 0.10621587998E+02 0.97436320545E+01
 0.88263319438E+01 0.79282992127E+01 0.70979593643E+01 0.63690154888E+01 0.57612511251E+01
 0.52842747955E+01 0.49419629414E+01 0.47359301770E+01 0.46671302646E+01 0.47359418383E+01
 0.49419719560E+01 0.52842651779E+01 0.57612162196E+01 0.63689647170E+01 0.70979179834E+01
 0.74977526117E+01 0.85126764357E+01 0.95729918570E+01 0.10621588368E+02 0.11599290891E+02
 0.12444845285E+02 0.13094455109E+02 0.13522267128E+02 0.13731521805E+02 0.13731472246E+02
 0.13522149857E+02 0.13094348471E+02 0.12444817427E+02 0.11599326556E+02 0.10621587998E+02
 0.95728912383E+01 0.85125655652E+01 0.74978107259E+01 0.65747617660E+01 0.57733733281E+01
 0.51079590230E+01 0.45816578821E+01 0.41918667553E+01 0.39345447822E+01 0.38066085394E+01
 0.38066186255E+01 0.39346090401E+01 0.41919928692E+01 0.45817195331E+01 0.51078065437E+01
 0.57730444585E+01 0.65744817516E+01 0.73542770839E+01 0.85125234820E+01 0.97436034454E+01
 0.10986376449E+02 0.12169513178E+02 0.13214187804E+02 0.14032007830E+02 0.14550991495E+02
 0.14728624817E+02 0.14550887854E+02 0.14031878712E+02 0.13214097528E+02 0.12169468274E+02
 0.10986368370E+02 0.97436320545E+01 0.85125655652E+01 0.73542881458E+01 0.63147452426E+01
 0.54212174787E+01 0.46831990518E+01 0.40975412821E+01 0.36551493466E+01 0.33463785284E+01
 0.31639079778E+01 0.31035156028E+01 0.31638704376E+01 0.33463220007E+01 0.36550903726E+01
 0.40974952522E+01 0.46831884438E+01 0.54212461419E+01 0.63147749527E+01 0.74977728787E+01
 0.88261303650E+01 0.10248324856E+02 0.11688988705E+02 0.13051869027E+02 0.14225224508E+02
 0.15093134494E+02 0.15555548621E+02 0.15555530611E+02 0.15093072840E+02 0.14225116334E+02
 0.13051761346E+02 0.11688982396E+02 0.10248475342E+02 0.88263319438E+01 0.74978107259E+01
 0.63147452426E+01 0.53049314776E+01 0.44748365223E+01 0.38159259105E+01 0.33126423963E+01
 0.29491654791E+01 0.27132088730E+01 0.25970325703E+01 0.25970187352E+01 0.27131439523E+01
 0.29490262123E+01 0.33124925501E+01 0.38159163387E+01 0.44750614099E+01 0.53052820489E+01
 0.63149731081E+01 0.79283029142E+01 0.94470718455E+01 0.11063621846E+02 0.12677351799E+02
 0.14159363402E+02 0.15365034072E+02 0.16156557231E+02 0.16432846893E+02 0.16156543084E+02
 0.15365020936E+02 0.14159353566E+02 0.12677330342E+02 0.11063586043E+02 0.94470436657E+01
 0.79282992127E+01 0.65747617660E+01 0.54212174787E+01 0.44748365223E+01 0.37236471306E+01
 0.31463509920E+01 0.27207248483E+01 0.24286935571E+01 0.22579925067E+01 0.22018085901E+01
 0.22579878957E+01 0.24286948090E+01 0.27207456500E+01 0.31463970829E+01 0.37237070314E+01
 0.44748841661E+01 0.54212335247E+01 0.65747563243E+01 0.86425702088E+01 0.10355934142E+02
 0.12144910113E+02 0.13877131173E+02 0.15392127266E+02 0.16523317814E+02 0.17129733967E+02
 0.17129748572E+02 0.16523377625E+02 0.15392223830E+02 0.13877166301E+02 0.12144776733E+02
 0.10355684184E+02 0.86424278808E+01 0.70979593643E+01 0.57733733281E+01 0.46831990518E+01
 0.38159259105E+01 0.31463509920E+01 0.26462633258E+01 0.22912999402E+01 0.20637406700E+01
 0.19525635084E+01 0.19525669315E+01 0.20637618237E+01 0.22913754846E+01 0.26464166953E+01
 0.31465041868E+01 0.38159115508E+01 0.46829446410E+01 0.57730431768E+01 0.70978211452E+01
 0.96243560278E+01 0.11511431234E+02 0.13422693232E+02 0.15195339347E+02 0.16646064851E+02
 0.17601480241E+02 0.17935460093E+02 0.17601571657E+02 0.16646167091E+02 0.15195398280E+02
 0.13422726464E+02 0.11511464551E+02 0.96243827458E+01 0.78848385369E+01 0.63690154888E+01
 0.51079590230E+01 0.40975412821E+01 0.33126423963E+01 0.27207248483E+01 0.22912999402E+01
 0.20005104636E+01 0.18321456276E+01 0.17770185209E+01 0.18321654665E+01 0.20005412897E+01
 0.22913362244E+01 0.27207550959E+01 0.33126394816E+01 0.40974931521E+01 0.51078965632E+01
 0.63689763162E+01 0.78848183924E+01 0.10831017275E+02 0.12841519289E+02 0.14800698908E+02
 0.16523370538E+02 0.17814997345E+02 0.18509303646E+02 0.18509316486E+02 0.17815017494E+02
 0.16523404312E+02 0.14800824359E+02 0.12841767971E+02 0.10831249076E+02 0.89198403995E+01
 0.72114706378E+01 0.57612511251E+01 0.45816578821E+01 0.36551493466E+01 0.29491654791E+01
 0.24286935571E+01 0.20637406700E+01 0.18321456276E+01 0.17197549489E+01 0.17197618935E+01
 0.18321678871E+01 0.20637550665E+01 0.24286403669E+01 0.29490290724E+01 0.36550398376E+01
 0.45817298655E+01 0.57615047103E+01 0.72116963150E+01 0.89198277442E+01 0.12180227235E+02
 0.14237671273E+02 0.16156585158E+02 0.17738658349E+02 0.18787626630E+02 0.19155609717E+02
 0.18787608996E+02 0.17738626806E+02 0.16156539569E+02 0.14237612067E+02 0.12180165661E+02
 0.10153258319E+02 0.82826668176E+01 0.66477734765E+01 0.52842747955E+01 0.41918667553E+01
 0.33463785284E+01 0.27132088730E+01 0.22579925067E+01 0.19525635084E+01 0.17770185209E+01
 0.17197618935E+01 0.17770140681E+01 0.19525568933E+01 0.22579739648E+01 0.27131664493E+01
 0.33463249595E+01 0.41918339744E+01 0.52842780881E+01 0.66478007095E+01 0.82827048680E+01
 0.10153308665E+02 0.13544948564E+02 0.15555805401E+02 0.17330176019E+02 0.18661392040E+02
 0.19377067624E+02 0.19377070281E+02 0.18661364056E+02 0.17330031569E+02 0.15555497098E+02
 0.13544579790E+02 0.11488438331E+02 0.95241990502E+01 0.77459680715E+01 0.62107449013E+01
 0.49419629414E+01 0.39345447822E+01 0.31639079778E+01 0.25970325703E+01 0.22018085901E+01
 0.19525669315E+01 0.18321654665E+01 0.18321678871E+01 0.19525568933E+01 0.22017690900E+01
 0.25969992135E+01 0.31639432612E+01 0.39346336613E+01 0.49419785680E+01 0.62105890362E+01
 0.77457374523E+01 0.95241283177E+01 0.11488648286E+02 0.14728588901E+02 0.16499005267E+02
 0.17927445999E+02 0.18861942860E+02 0.19187929170E+02 0.18861879536E+02 0.17927394236E+02
 0.16499010469E+02 0.14728618551E+02 0.12781512931E+02 0.10827808646E+02 0.89910774422E+01
 0.73377910342E+01 0.59122442793E+01 0.47359301770E+01 0.38066085394E+01 0.31035156028E+01
 0.25970187352E+01 0.22579878957E+01 0.20637618237E+01 0.20005412897E+01 0.20637550665E+01
 0.22579739648E+01 0.25969992135E+01 0.31035033628E+01 0.38066244442E+01 0.47359774720E+01
 0.59122981912E+01 0.73378295412E+01 0.89911035217E+01 0.10827825527E+02 0.12781505731E+02
 0.15249983260E+02 0.16495917753E+02 0.17392477590E+02 0.17865888688E+02 0.17865900808E+02
 0.17392562030E+02 0.16496158988E+02 0.15250371665E+02 0.13731542954E+02 0.12028975849E+02
 0.10271742660E+02 0.86007055989E+01 0.70816743584E+01 0.57606552273E+01 0.46671302646E+01
 0.38066186255E+01 0.31638704376E+01 0.27131439523E+01 0.24286948090E+01 0.22913754846E+01
 0.22913362244E+01 0.24286403669E+01 0.27131664493E+01 0.31639432612E+01 0.38066244442E+01
 0.46670431014E+01 0.57606158861E+01 0.70818267684E+01 0.86009873801E+01 0.10271910464E+02
 0.12028847720E+02 0.13731175398E+02 0.14523250367E+02 0.15021532699E+02 0.15312965122E+02
 0.15410210573E+02 0.15313072287E+02 0.15021675780E+02 0.14523371670E+02 0.13777213674E+02
 0.12735838293E+02 0.11405557144E+02 0.98970189394E+01 0.83935536819E+01 0.69942810817E+01
 0.57606059089E+01 0.47359418383E+01 0.39346090401E+01 0.33463220007E+01 0.29490262123E+01
 0.27207456500E+01 0.26464166953E+01 0.27207550959E+01 0.29490290724E+01 0.33463249595E+01
 0.39346336613E+01 0.47359774720E+01 0.57606158861E+01 0.69942577005E+01 0.83935223694E+01
 0.98969893633E+01 0.11405511024E+02 0.12735766606E+02 0.13777120373E+02 0.12165534971E+02
 0.11843125978E+02 0.11640005356E+02 0.11639940263E+02 0.11842986569E+02 0.12165404555E+02
 0.12437448508E+02 0.12438594785E+02 0.11988120935E+02 0.11047713101E+02 0.97641973865E+01
 0.83937064547E+01 0.70817384963E+01 0.59121095571E+01 0.49419719560E+01 0.41919928692E+01
 0.36550903726E+01 0.33124925501E+01 0.31463970829E+01 0.31465041868E+01 0.33126394816E+01
 0.36550398376E+01 0.41918339744E+01 0.49419785680E+01 0.59122981912E+01 0.70818267684E+01
 0.83935223694E+01 0.97639104770E+01 0.11047585548E+02 0.11988195457E+02 0.12438734099E+02
 0.12437569888E+02 0.82112814078E+01 0.72184532114E+01 0.68548786433E+01 0.72185815462E+01
 0.82114137125E+01 0.95515124751E+01 0.10830351861E+02 0.11636129556E+02 0.11709269752E+02
 0.11047514976E+02 0.98969738022E+01 0.86010314812E+01 0.73378826857E+01 0.62106052704E+01
 0.52842651779E+01 0.45817195331E+01 0.40974952522E+01 0.38159163387E+01 0.37237070314E+01
 0.38159115508E+01 0.40974931521E+01 0.45817298655E+01 0.52842780881E+01 0.62105890362E+01
 0.73378295412E+01 0.86009873801E+01 0.98969893633E+01 0.11047585548E+02 0.11709356824E+02
 0.11636209152E+02 0.10830398324E+02 0.95514746700E+01 0.32356305881E+01 0.19733531762E+01
 0.19737251600E+01 0.32363444808E+01 0.54311112288E+01 0.79803758538E+01 0.10224914381E+02
 0.11636240141E+02 0.11988096046E+02 0.11405183265E+02 0.10271699565E+02 0.89912867733E+01
 0.77460413476E+01 0.66477786377E+01 0.57612162196E+01 0.51078065437E+01 0.46831884438E+01
 0.44750614099E+01 0.44748841661E+01 0.46829446410E+01 0.51078965632E+01 0.57615047103E+01
 0.66478007095E+01 0.77457374523E+01 0.89911035217E+01 0.10271910464E+02 0.11405511024E+02
 0.11988195457E+02 0.11636209152E+02 0.10225000403E+02 0.79804158391E+01 0.54307205462E+01
 -.17055096958E+01 -.26451784840E+01 -.17055351401E+01 0.86307386839E+00 0.43867341086E+01
 0.79805038476E+01 0.10830434241E+02 0.12438734978E+02 0.12735757408E+02 0.12028820358E+02
 0.10827781399E+02 0.95240968856E+01 0.82826967105E+01 0.72116897989E+01 0.63689647170E+01
 0.57730444585E+01 0.54212461419E+01 0.53052820489E+01 0.54212335247E+01 0.57730431768E+01
 0.63689763162E+01 0.72116963150E+01 0.82827048680E+01 0.95241283177E+01 0.10827825527E+02
 0.12028847720E+02 0.12735766606E+02 0.12438734099E+02 0.10830398324E+02 0.79804158391E+01
 0.43866465719E+01 0.86305295710E+00 -.53595929408E+01 -.53601179727E+01 -.30772498702E+01
 0.86274139095E+00 0.54311135354E+01 0.95518417968E+01 0.12437561728E+02 0.13777118776E+02
 0.13731444798E+02 0.12781687866E+02 0.11488397082E+02 0.10152928427E+02 0.89198329095E+01
 0.78851352854E+01 0.70979179834E+01 0.65744817516E+01 0.63147749527E+01 0.63149731081E+01
 0.65747563243E+01 0.70978211452E+01 0.78848183924E+01 0.89198277442E+01 0.10153308665E+02
 0.11488648286E+02 0.12781505731E+02 0.13731175398E+02 0.13777120373E+02 0.12437569888E+02
 0.95514746700E+01 0.54307205462E+01 0.86305295710E+00 -.30763161465E+01 -.53596792736E+01
 -.26443986563E+01 0.19736484445E+01 0.72182496430E+01 0.11843074196E+02 0.15021894707E+02
 0.16496232645E+02 0.16498877849E+02 0.15555505396E+02 0.14237654986E+02 0.12841717078E+02
 0.11511430589E+02 0.10355693454E+02 0.94469794965E+01 0.88263428442E+01 0.85126966215E+01
 0.85125367166E+01 0.88261338979E+01 0.94470807125E+01 0.10355951400E+02 0.11511441866E+02
 0.12841519946E+02 0.14237676508E+02 0.15555818142E+02 0.16499010866E+02 0.16495913799E+02
 0.15021535071E+02 0.11843138689E+02 0.72184614997E+01 0.19733526429E+01 -.26451755334E+01
 -.53601112607E+01 -.26443986563E+01 0.12284252725E+01 0.63696021001E+01 0.11419142464E+02
 0.15314030489E+02 0.17550342550E+02 0.18175149859E+02 0.17611506617E+02 0.16432865166E+02
 0.15059859906E+02 0.13660220420E+02 0.12359015790E+02 0.11255511366E+02 0.10422023247E+02
 0.99053907462E+01 0.97306164532E+01 0.99053586450E+01 0.10422031227E+02 0.11255576169E+02
 0.12359060658E+02 0.13660205514E+02 0.15059863786E+02 0.16432953441E+02 0.17611596341E+02
 0.18175141717E+02 0.17550327535E+02 0.15314145420E+02 0.11419200983E+02 0.63691644402E+01
 0.12274322789E+01 -.26452840416E+01 -.40883903873E+01 0.19736484445E+01 0.63696021001E+01
 0.11260122575E+02 0.15453447968E+02 0.18226418347E+02 0.19417460432E+02 0.19301719903E+02
 0.18380210050E+02 0.17129720311E+02 0.15756528600E+02 0.14387165778E+02 0.13135111567E+02
 0.12099409209E+02 0.11360873048E+02 0.10976867041E+02 0.10976963531E+02 0.11361027018E+02
 0.12099422563E+02 0.13135016230E+02 0.14387144504E+02 0.15756617446E+02 0.17129778539E+02
 0.18380182851E+02 0.19301745817E+02 0.19417646297E+02 0.18226638433E+02 0.15453476983E+02
 0.11259906381E+02 0.63692975831E+01 0.19734304567E+01 -.64438073376E+00 -.64430870915E+00
 0.72182496430E+01 0.11419142464E+02 0.15453447968E+02 0.18461042221E+02 0.20082881785E+02
 0.20418822106E+02 0.19852351834E+02 0.18834221175E+02 0.17601471609E+02 0.16270444366E+02
 0.14952849616E+02 0.13761374884E+02 0.12806992792E+02 0.12187484532E+02 0.11972327805E+02
 0.12187676675E+02 0.12807160045E+02 0.13761372446E+02 0.14952764447E+02 0.16270416360E+02
 0.17601487474E+02 0.18834207590E+02 0.19852376384E+02 0.20419004731E+02 0.20083128575E+02
 0.18461102429E+02 0.15453309475E+02 0.11419137669E+02 0.72185914685E+01 0.40083739501E+01
 0.28029395521E+01 0.40079748013E+01 0.11843074196E+02 0.15314030489E+02 0.18226418347E+02
 0.20082881785E+02 0.20810244717E+02 0.20647303021E+02 0.19962404359E+02 0.18985499467E+02
 0.17814985685E+02 0.16545577551E+02 0.15284515008E+02 0.14150516936E+02 0.13276057251E+02
 0.12795729753E+02 0.12795849653E+02 0.13276314544E+02 0.14150706861E+02 0.15284529476E+02
 0.16545483295E+02 0.17814898017E+02 0.18985446522E+02 0.19962373782E+02 0.20647351651E+02
 0.20810428654E+02 0.20083096295E+02 0.18226466743E+02 0.15313881506E+02 0.11842908152E+02
 0.86803030053E+01 0.67823002135E+01 0.67822926900E+01 0.86803524584E+01 0.15021894707E+02
 0.17550342550E+02 0.19417460432E+02 0.20418822106E+02 0.20647303021E+02 0.20357877459E+02
 0.19729661549E+02 0.18834248541E+02 0.17738733144E+02 0.16521514323E+02 0.15273462388E+02
 0.14150026968E+02 0.13355648096E+02 0.13067511775E+02 0.13355919428E+02 0.14150358259E+02
 0.15273639657E+02 0.16521496449E+02 0.17738621159E+02 0.18834138276E+02 0.19729580426E+02
 0.20357841166E+02 0.20647350683E+02 0.20418954666E+02 0.19417569051E+02 0.17550261068E+02
 0.15021552762E+02 0.12368904066E+02 0.10332139263E+02 0.95658514607E+01 0.10332481370E+02
 0.12369377789E+02 0.16496232645E+02 0.18175149859E+02 0.19301719903E+02 0.19852351834E+02
 0.19962404359E+02 0.19729661549E+02 0.19190939198E+02 0.18380194226E+02 0.17330096301E+02
 0.16078677674E+02 0.14768872426E+02 0.13651087899E+02 0.13001243258E+02 0.13001420227E+02
 0.13651466426E+02 0.14769178246E+02 0.16078794961E+02 0.17330077866E+02 0.18380111259E+02
 0.19190841159E+02 0.19729607577E+02 0.19962411625E+02 0.19852352621E+02 0.19301660263E+02
 0.18175070700E+02 0.16496187856E+02 0.14528969027E+02 0.12748552590E+02 0.11683159360E+02
 0.11683189688E+02 0.12748604905E+02 0.14529002365E+02 0.16498877849E+02 0.17611506617E+02
 0.18380210050E+02 0.18834221175E+02 0.18985499467E+02 0.18834248541E+02 0.18380194226E+02
 0.17611449023E+02 0.16498852159E+02 0.15131442580E+02 0.13757991467E+02 0.12725062085E+02
 0.12339783250E+02 0.12725229038E+02 0.13758239175E+02 0.15131677052E+02 0.16499001248E+02
 0.17611462341E+02 0.18380105270E+02 0.18834182387E+02 0.18985515184E+02 0.18834218681E+02
 0.18380106555E+02 0.17611428266E+02 0.16499002612E+02 0.15131713978E+02 0.13758241546E+02
 0.12725198748E+02 0.12339793563E+02 0.12725114289E+02 0.13758013933E+02 0.15131432877E+02
 0.15555505396E+02 0.16432865166E+02 0.17129720311E+02 0.17601471609E+02 0.17814985685E+02
 0.17738733144E+02 0.17330096301E+02 0.16498852159E+02 0.15250121087E+02 0.13777151581E+02
 0.12438735980E+02 0.11636212473E+02 0.11636137989E+02 0.12438634821E+02 0.13777218376E+02
 0.15250343402E+02 0.16499014768E+02 0.17330065571E+02 0.17738625171E+02 0.17814983540E+02
 0.17601571153E+02 0.17129778486E+02 0.16432841626E+02 0.15555511362E+02 0.14550988159E+02
 0.13522295193E+02 0.12653541311E+02 0.12150719611E+02 0.12150718429E+02 0.12653496618E+02
 0.13522179817E+02 0.14550886821E+02 0.14237654986E+02 0.15059859906E+02 0.15756528600E+02
 0.16270444366E+02 0.16545577551E+02 0.16521514323E+02 0.16078677674E+02 0.15131442580E+02
 0.13777151581E+02 0.12319760220E+02 0.11187198842E+02 0.10758868060E+02 0.11186881733E+02
 0.12319461927E+02 0.13777127964E+02 0.15131604188E+02 0.16078779222E+02 0.16521472614E+02
 0.16545519018E+02 0.16270504823E+02 0.15756689766E+02 0.15059970169E+02 0.14237590898E+02
 0.13355635498E+02 0.12497316644E+02 0.11760268419E+02 0.11252863378E+02 0.11070811251E+02
 0.11252727978E+02 0.11760194472E+02 0.12497427214E+02 0.13355820448E+02 0.12841717078E+02
 0.13660220420E+02 0.14387165778E+02 0.14952849616E+02 0.15284515008E+02 0.15273462388E+02
 0.14768872426E+02 0.13757991467E+02 0.12438735980E+02 0.11187198842E+02 0.10422710651E+02
 0.10422447981E+02 0.11186676726E+02 0.12438419554E+02 0.13758017505E+02 0.14769017650E+02
 0.15273513839E+02 0.15284470395E+02 0.14952795781E+02 0.14387145584E+02 0.13660241245E+02
 0.12841769429E+02 0.11998203334E+02 0.11195955614E+02 0.10503951181E+02 0.99912656015E+01
 0.97172991538E+01 0.97172846933E+01 0.99912442872E+01 0.10503943554E+02 0.11195937927E+02
 0.11998155113E+02 0.11511430589E+02 0.12359015790E+02 0.13135111567E+02 0.13761374884E+02
 0.14150516936E+02 0.14150026968E+02 0.13651087899E+02 0.12725062085E+02 0.11636212473E+02
 0.10758868060E+02 0.10422447981E+02 0.10758363909E+02 0.11635689992E+02 0.12724912807E+02
 0.13651233977E+02 0.14150164669E+02 0.14150508662E+02 0.13761277310E+02 0.13134984911E+02
 0.12358900705E+02 0.11511434505E+02 0.10662785967E+02 0.98732764096E+01 0.91945492615E+01
 0.86712074737E+01 0.83401885221E+01 0.82269108108E+01 0.83404308930E+01 0.86713970901E+01
 0.91944558366E+01 0.98729929949E+01 0.10662579947E+02 0.10355693454E+02 0.11255511366E+02
 0.12099409209E+02 0.12806992792E+02 0.13276057251E+02 0.13355648096E+02 0.13001243258E+02
 0.12339783250E+02 0.11636137989E+02 0.11186881733E+02 0.11186676726E+02 0.11635689992E+02
 0.12339429976E+02 0.13001179860E+02 0.13355794005E+02 0.13276205310E+02 0.12807033322E+02
 0.12099381993E+02 0.11255489773E+02 0.10355692344E+02 0.94720417084E+01 0.86626120988E+01
 0.79706208569E+01 0.74266804892E+01 0.70521161899E+01 0.68611571277E+01 0.68611935359E+01
 0.70521972597E+01 0.74267562668E+01 0.79706689674E+01 0.86626355827E+01 0.94720464262E+01
 0.94469794965E+01 0.10422023247E+02 0.11360873048E+02 0.12187484532E+02 0.12795729753E+02
 0.13067511775E+02 0.13001420227E+02 0.12725229038E+02 0.12438634821E+02 0.12319461927E+02
 0.12438419554E+02 0.12724912807E+02 0.13001179860E+02 0.13067471970E+02 0.12795870749E+02
 0.12187688210E+02 0.11361050432E+02 0.10422148692E+02 0.94470188125E+01 0.85055901872E+01
 0.76529926189E+01 0.69269025451E+01 0.63496031172E+01 0.59324891571E+01 0.56807366782E+01
 0.55965427024E+01 0.56805980413E+01 0.59323725959E+01 0.63496646700E+01 0.69271331265E+01
 0.76532329272E+01 0.85056973593E+01 0.88263428442E+01 0.99053907462E+01 0.10976867041E+02
 0.11972327805E+02 0.12795849653E+02 0.13355919428E+02 0.13651466426E+02 0.13758239175E+02
 0.13777218376E+02 0.13777127964E+02 0.13758017505E+02 0.13651233977E+02 0.13355794005E+02
 0.12795870749E+02 0.11972439869E+02 0.10976977626E+02 0.99054448904E+01 0.88263489295E+01
 0.78039536736E+01 0.68885637839E+01 0.61122202075E+01 0.54904054950E+01 0.50271929746E+01
 0.47209812531E+01 0.45688348223E+01 0.45688421601E+01 0.47209879487E+01 0.50271733126E+01
 0.54903571585E+01 0.61121691009E+01 0.68885377175E+01 0.78039536090E+01 0.85126966215E+01
 0.97306164532E+01 0.10976963531E+02 0.12187676675E+02 0.13276314544E+02 0.14150358259E+02
 0.14769178246E+02 0.15131677052E+02 0.15250343402E+02 0.15131604188E+02 0.14769017650E+02
 0.14150164669E+02 0.13276205310E+02 0.12187688210E+02 0.10976977626E+02 0.97305137256E+01
 0.85125527139E+01 0.73815376312E+01 0.63817779115E+01 0.55389690091E+01 0.48617769445E+01
 0.43474392422E+01 0.39881764223E+01 0.37761283366E+01 0.37060432205E+01 0.37761589394E+01
 0.39882487583E+01 0.43474705773E+01 0.48616312768E+01 0.55386602231E+01 0.63815212640E+01
 0.73815148449E+01 0.85125367166E+01 0.99053586450E+01 0.11361027018E+02 0.12807160045E+02
 0.14150706861E+02 0.15273639657E+02 0.16078794961E+02 0.16499001248E+02 0.16499014768E+02
 0.16078779222E+02 0.15273513839E+02 0.14150508662E+02 0.12807033322E+02 0.11361050432E+02
 0.99054448904E+01 0.85125527139E+01 0.72407211970E+01 0.61302974221E+01 0.52011247790E+01
 0.44549055993E+01 0.38817164069E+01 0.34673651878E+01 0.31987885627E+01 0.30667627549E+01
 0.30667138161E+01 0.31987030495E+01 0.34673281046E+01 0.38817128259E+01 0.44548805471E+01
 0.52011023381E+01 0.61303348411E+01 0.72407808288E+01 0.88261338979E+01 0.10422031227E+02
 0.12099422563E+02 0.13761372446E+02 0.15284529476E+02 0.16521496449E+02 0.17330077866E+02
 0.17611462341E+02 0.17330065571E+02 0.16521472614E+02 0.15284470395E+02 0.13761277310E+02
 0.12099381993E+02 0.10422148692E+02 0.88263489295E+01 0.73815376312E+01 0.61302974221E+01
 0.50896742127E+01 0.42557929064E+01 0.36117377670E+01 0.31362491387E+01 0.28102636031E+01
 0.26200015908E+01 0.25574553448E+01 0.26199874414E+01 0.28101767137E+01 0.31361182344E+01
 0.36117251680E+01 0.42560154252E+01 0.50900141495E+01 0.61304873178E+01 0.73814516989E+01
 0.94470807125E+01 0.11255576169E+02 0.13135016230E+02 0.14952764447E+02 0.16545483295E+02
 0.17738621159E+02 0.18380111259E+02 0.18380105270E+02 0.17738625171E+02 0.16545519018E+02
 0.14952795781E+02 0.13134984911E+02 0.11255489773E+02 0.94470188125E+01 0.78039536736E+01
 0.63817779115E+01 0.52011247790E+01 0.42557929064E+01 0.35233632472E+01 0.29757738282E+01
 0.25872393570E+01 0.23383208511E+01 0.22167613468E+01 0.22167744884E+01 0.23383421627E+01
 0.25872512519E+01 0.29757990424E+01 0.35234247043E+01 0.42558557940E+01 0.52011306558E+01