    2    2   15    1
  0.1644322E+02  0.3596201E-09  0.3596201E-09  0.3596201E-09  0.5000000E-15
  1.000000000000000E-004
  CAR 
 unknown system                          
      8     60      8
 
  0.6250000E-01  0.6250000E-01  0.6250000E-01  0.3906250E-02
    1       -5.368145   1.000000
    2        7.447573   0.999996
    3        7.900456   0.895378
    4        7.900456   0.895378
    5       10.780130   0.000000
    6       10.780130   0.000000
    7       10.804367   0.000000
    8       14.055372   0.000000
 
  0.1875000E+00  0.6250000E-01  0.6250000E-01  0.1171875E-01
    1       -5.047721   1.000000
    2        5.823159   1.000000
    3        6.902059   1.000000
    4        7.790681   0.978917
    5       11.053634   0.000000
    6       11.146896   0.000000
    7       11.553894   0.000000
    8       14.753043   0.000000
 
  0.3125000E+00  0.6250000E-01  0.6250000E-01  0.1171875E-01
    1       -4.267437   1.000000
    2        3.233857   1.000000
    3        6.371751   1.000000
    4        7.251615   1.000000
    5       10.917122   0.000000
    6       11.494810   0.000000
    7       11.842399   0.000000
    8       14.789787   0.000000
 
  0.4375000E+00  0.6250000E-01  0.6250000E-01  0.1171875E-01
    1       -3.141321   1.000000
    2        0.972380   1.000000
    3        6.159549   1.000000
    4        6.773289   1.000000
    5       10.632606   0.000000
    6       11.375845   0.000000
    7       11.407543   0.000000
    8       16.300385   0.000000
 
 -0.4375000E+00  0.6250000E-01  0.6250000E-01  0.1171875E-01
    1       -2.530905   1.000000
    2        0.070741   1.000000
    3        6.249373   1.000000
    4        6.500181   1.000000
    5       10.518350   0.000000
    6       11.151892   0.000000
    7       11.437483   0.000000
    8       16.225244   0.000000
 
 -0.3125000E+00  0.6250000E-01  0.6250000E-01  0.1171875E-01
    1       -3.535705   1.000000
    2        1.654298   1.000000
    3        6.495568   1.000000
    4        6.595252   1.000000
    5       10.625957   0.000000
    6       11.274773   0.000000
    7       11.839114   0.000000
    8       15.358059   0.000000
 
 -0.1875000E+00  0.6250000E-01  0.6250000E-01  0.1171875E-01
    1       -4.574997   1.000000
    2        4.087533   1.000000
    3        6.792587   1.000000
    4        7.129138   1.000000
    5       10.799131   0.000000
    6       11.471757   0.000000
    7       12.131839   0.000000
    8       14.004901   0.000000
 
 -0.6250000E-01  0.6250000E-01  0.6250000E-01  0.1171875E-01
    1       -5.207326   1.000000
    2        6.669599   1.000000
    3        7.354775   1.000000
    4        7.634116   0.999152
    5       10.447511   0.000000
    6       11.373557   0.000000
    7       11.504263   0.000000
    8       14.200404   0.000000
 
  0.1875000E+00  0.1875000E+00  0.6250000E-01  0.1171875E-01
    1       -4.886964   1.000000
    2        5.780476   1.000000
    3        6.672022   1.000000
    4        6.892098   1.000000
    5        9.929720   0.000000
    6       12.364423   0.000000
    7       12.531384   0.000000
    8       12.976856   0.000000
 
  0.3125000E+00  0.1875000E+00  0.6250000E-01  0.2343750E-01
    1       -4.257226   1.000000
    2        4.094229   1.000000
    3        5.524986   1.000000
    4        6.557398   1.000000
    5       10.125959   0.000000
    6       12.186569   0.000000
    7       12.728330   0.000000
    8       13.432430   0.000000
 
  0.4375000E+00  0.1875000E+00  0.6250000E-01  0.2343750E-01
    1       -3.221514   1.000000
    2        1.823492   1.000000
    3        5.049823   1.000000
    4        6.015698   1.000000
    5       10.308572   0.000000
    6       12.124115   0.000000
    7       13.309926   0.000000
    8       13.633261   0.000000
 
 -0.4375000E+00  0.1875000E+00  0.6250000E-01  0.2343750E-01
    1       -2.214855   1.000000
    2        0.278248   1.000000
    3        4.738880   1.000000
    4        5.886072   1.000000
    5       10.435716   0.000000
    6       11.661952   0.000000
    7       13.175886   0.000000
    8       15.950179   0.000000
 
 -0.3125000E+00  0.1875000E+00  0.6250000E-01  0.2343750E-01
    1       -2.832822   1.000000
    2        1.174585   1.000000
    3        4.600831   1.000000
    4        6.256518   1.000000
    5       10.925835   0.000000
    6       11.430238   0.000000
    7       13.147836   0.000000
    8       14.968788   0.000000
 
 -0.1875000E+00  0.1875000E+00  0.6250000E-01  0.2343750E-01
    1       -3.954871   1.000000
    2        3.310439   1.000000
    3        4.848114   1.000000
    4        6.900342   1.000000
    5       11.254931   0.000000
    6       11.650772   0.000000
    7       13.080264   0.000000
    8       13.218325   0.000000
 
 -0.6250000E-01  0.1875000E+00  0.6250000E-01  0.2343750E-01
    1       -4.729979   1.000000
    2        4.948721   1.000000
    3        6.207071   1.000000
    4        7.367042   1.000000
    5       10.648329   0.000000
    6       11.862340   0.000000
    7       12.287715   0.000000
    8       13.419139   0.000000
 
  0.3125000E+00  0.3125000E+00  0.6250000E-01  0.1171875E-01
    1       -3.780244   1.000000
    2        3.713518   1.000000
    3        5.348157   1.000000
    4        5.493420   1.000000
    5        8.920122   0.000000
    6       10.528128   0.000000
    7       14.815731   0.000000
    8       14.837382   0.000000
 
  0.4375000E+00  0.3125000E+00  0.6250000E-01  0.2343750E-01
    1       -2.870685   1.000000
    2        2.273453   1.000000
    3        4.362046   1.000000
    4        5.051177   1.000000
    5        9.244058   0.000000
    6       10.424639   0.000000
    7       14.695258   0.000000
    8       16.019553   0.000000
 
 -0.4375000E+00  0.3125000E+00  0.6250000E-01  0.2343750E-01
    1       -1.731137   1.000000
    2        0.758175   1.000000
    3        3.338090   1.000000
    4        5.019439   1.000000
    5        9.446798   0.000000
    6       12.398059   0.000000
    7       14.170930   0.000000
    8       15.984231   0.000000
 
 -0.3125000E+00  0.3125000E+00  0.6250000E-01  0.2343750E-01
    1       -1.800503   1.000000
    2        0.860829   1.000000
    3        2.867711   1.000000
    4        5.453257   1.000000
    5        9.958029   0.000000
    6       13.404924   0.000000
    7       14.759641   0.000000
    8       15.231670   0.000000
 
 -0.1875000E+00  0.3125000E+00  0.6250000E-01  0.2343750E-01
    1       -2.930692   1.000000
    2        1.921303   1.000000
    3        3.666566   1.000000
    4        6.192192   1.000000
    5       10.825824   0.000000
    6       12.203549   0.000000
    7       13.808617   0.000000
    8       14.146415   0.000000
 
 -0.6250000E-01  0.3125000E+00  0.6250000E-01  0.2343750E-01
    1       -3.812861   1.000000
    2        2.474298   1.000000
    3        5.748954   1.000000
    4        6.791552   1.000000
    5       10.858835   0.000000
    6       11.537433   0.000000
    7       12.396731   0.000000
    8       14.137291   0.000000
 
  0.4375000E+00  0.4375000E+00  0.6250000E-01  0.1171875E-01
    1       -2.093445   1.000000
    2        1.281436   1.000000
    3        4.494341   1.000000
    4        4.796495   1.000000
    5        8.359887   0.023130
    6        9.042582   0.000000
    7       17.268278   0.000000
    8       17.448913   0.000000
 
 -0.4375000E+00  0.4375000E+00  0.6250000E-01  0.2343750E-01
    1       -0.978656   1.000000
    2        0.113327   1.000000
    3        3.751587   1.000000
    4        4.463537   1.000000
    5        8.823849   0.000000
    6        9.697105   0.000000
    7       16.990919   0.000000
    8       18.263969   0.000000
 
 -0.3125000E+00  0.4375000E+00  0.6250000E-01  0.2343750E-01
    1       -1.014069   1.000000
    2        0.257717   1.000000
    3        2.798184   1.000000
    4        4.849110   1.000000
    5        9.265512   0.000000
    6       12.265686   0.000000
    7       15.241417   0.000000
    8       16.516036   0.000000
 
 -0.1875000E+00  0.4375000E+00  0.6250000E-01  0.2343750E-01
    1       -1.911922   1.000000
    2        0.445809   1.000000
    3        3.709458   1.000000
    4        5.593183   1.000000
    5       10.121865   0.000000
    6       12.493990   0.000000
    7       14.245158   0.000000
    8       15.794567   0.000000
 
 -0.6250000E-01  0.4375000E+00  0.6250000E-01  0.2343750E-01
    1       -2.670765   1.000000
    2        0.486101   1.000000
    3        5.603270   1.000000
    4        6.361741   1.000000
    5       10.811920   0.000000
    6       11.083041   0.000000
    7       12.126061   0.000000
    8       16.172387   0.000000
 
 -0.4375000E+00 -0.4375000E+00  0.6250000E-01  0.1171875E-01
    1       -1.060257   1.000000
    2        0.075705   1.000000
    3        4.329021   1.000000
    4        4.654705   1.000000
    5        8.288645   0.068209
    6        8.704250   0.000005
    7       18.563004   0.000000
    8       18.796369   0.000000
 
 -0.3125000E+00 -0.4375000E+00  0.6250000E-01  0.2343750E-01
    1       -1.977884   1.000000
    2        1.215812   1.000000
    3        3.959128   1.000000
    4        4.649803   1.000000
    5        8.966658   0.000000
    6        9.936259   0.000000
    7       15.795615   0.000000
    8       17.368281   0.000000
 
 -0.1875000E+00 -0.4375000E+00  0.6250000E-01  0.2343750E-01
    1       -2.513196   1.000000
    2        1.267959   1.000000
    3        4.195448   1.000000
    4        5.387378   1.000000
    5        9.803103   0.000000
    6       12.543989   0.000000
    7       13.373364   0.000000
    8       14.705508   0.000000
 
 -0.3125000E+00 -0.3125000E+00  0.6250000E-01  0.1171875E-01
    1       -3.004882   1.000000
    2        2.514654   1.000000
    3        4.830057   1.000000
    4        5.077869   1.000000
    5        8.568953   0.000259
    6        9.654545   0.000000
    7       16.034427   0.000000
    8       16.118415   0.000000
 
 -0.1875000E+00 -0.3125000E+00  0.6250000E-01  0.2343750E-01
    1       -3.634752   1.000000
    2        3.225569   1.000000
    3        4.903997   1.000000
    4        5.709088   1.000000
    5        9.639807   0.000000
    6       11.175516   0.000000
    7       13.677546   0.000000
    8       14.697007   0.000000
 
 -0.1875000E+00 -0.1875000E+00  0.6250000E-01  0.1171875E-01
    1       -4.409803   1.000000
    2        4.809359   1.000000
    3        6.032482   1.000000
    4        6.057049   1.000000
    5        9.389970   0.000000
    6       11.654620   0.000000
    7       13.553829   0.000000
    8       13.665610   0.000000
 
  0.1875000E+00  0.1875000E+00  0.1875000E+00  0.3906250E-02
    1       -4.889543   1.000000
    2        4.954252   1.000000
    3        7.373972   1.000000
    4        7.373972   1.000000
    5       10.836951   0.000000
    6       11.492113   0.000000
    7       11.492113   0.000000
    8       15.031665   0.000000
 
  0.3125000E+00  0.1875000E+00  0.1875000E+00  0.1171875E-01
    1       -4.417886   1.000000
    2        4.102488   1.000000
    3        5.514699   1.000000
    4        7.447023   0.999996
    5       11.489250   0.000000
    6       11.601096   0.000000
    7       12.008274   0.000000
    8       14.042002   0.000000
 
  0.4375000E+00  0.1875000E+00  0.1875000E+00  0.1171875E-01
    1       -3.508876   1.000000
    2        2.577399   1.000000
    3        4.204315   1.000000
    4        6.824091   1.000000
    5       10.929827   0.000000
    6       12.438678   0.000000
    7       12.828816   0.000000
    8       14.232568   0.000000
 
 -0.4375000E+00  0.1875000E+00  0.1875000E+00  0.1171875E-01
    1       -2.367932   1.000000
    2        0.690229   1.000000
    3        4.130617   1.000000
    4        6.164226   1.000000
    5       10.165501   0.000000
    6       12.693486   0.000000
    7       12.939300   0.000000
    8       16.344222   0.000000
 
 -0.3125000E+00  0.1875000E+00  0.1875000E+00  0.1171875E-01
    1       -2.353097   1.000000
    2        0.661537   1.000000
    3        4.528438   1.000000
    4        5.761978   1.000000
    5        9.752175   0.000000
    6       12.992390   0.000000
    7       13.091058   0.000000
    8       14.566784   0.000000
 
 -0.1875000E+00  0.1875000E+00  0.1875000E+00  0.1171875E-01
    1       -3.494704   1.000000
    2        2.564465   1.000000
    3        5.254036   1.000000
    4        5.711450   1.000000
    5        9.693576   0.000000
    6       12.048826   0.000000
    7       13.572407   0.000000
    8       13.664856   0.000000
 
  0.3125000E+00  0.3125000E+00  0.1875000E+00  0.1171875E-01
    1       -4.107823   1.000000
    2        3.292742   1.000000
    3        6.214213   1.000000
    4        6.292630   1.000000
    5       10.295723   0.000000
    6       12.301151   0.000000
    7       12.857451   0.000000
    8       12.979051   0.000000
 
  0.4375000E+00  0.3125000E+00  0.1875000E+00  0.2343750E-01
    1       -3.348151   1.000000
    2        2.570784   1.000000
    3        4.270953   1.000000
    4        5.992658   1.000000
    5       10.791846   0.000000
    6       11.920958   0.000000
    7       12.637227   0.000000
    8       14.452209   0.000000
 
 -0.4375000E+00  0.3125000E+00  0.1875000E+00  0.2343750E-01
    1       -2.240822   1.000000
    2        1.331656   1.000000
    3        3.271346   1.000000
    4        5.243780   1.000000
    5       11.186805   0.000000
    6       11.914768   0.000000
    7       13.349846   0.000000
    8       15.620765   0.000000
 
 -0.3125000E+00  0.3125000E+00  0.1875000E+00  0.2343750E-01
    1       -1.598547   1.000000
    2        0.514833   1.000000
    3        3.343487   1.000000
    4        4.831881   1.000000
    5       10.646120   0.000000
    6       12.250462   0.000000
    7       14.178468   0.000000
    8       15.879115   0.000000
 
 -0.1875000E+00  0.3125000E+00  0.1875000E+00  0.2343750E-01
    1       -2.609894   1.000000
    2        1.839029   1.000000
    3        3.803405   1.000000
    4        5.068307   1.000000
    5       10.394785   0.000000
    6       11.569242   0.000000
    7       13.151819   0.000000
    8       15.876061   0.000000
 
  0.4375000E+00  0.4375000E+00  0.1875000E+00  0.1171875E-01
    1       -2.746860   1.000000
    2        1.848328   1.000000
    3        4.259638   1.000000
    4        5.317360   1.000000
    5        9.171763   0.000000
    6       11.459472   0.000000
    7       14.576915   0.000000
    8       14.834109   0.000000
 
 -0.4375000E+00  0.4375000E+00  0.1875000E+00  0.2343750E-01
    1       -1.760996   1.000000
    2        1.042928   1.000000
    3        3.454686   1.000000
    4        4.377042   1.000000
    5       10.111546   0.000000
    6       11.205288   0.000000
    7       14.076354   0.000000
    8       17.218676   0.000000
 
 -0.3125000E+00  0.4375000E+00  0.1875000E+00  0.2343750E-01
    1       -0.734233   1.000000
    2        0.176766   1.000000
    3        2.995404   1.000000
    4        3.724635   1.000000
    5       11.355405   0.000000
    6       12.318684   0.000000
    7       13.634984   0.000000
    8       14.669523   0.000000
 
 -0.1875000E+00  0.4375000E+00  0.1875000E+00  0.2343750E-01
    1       -1.477943   1.000000
    2        0.764040   1.000000
    3        3.045684   1.000000
    4        4.329591   1.000000
    5       11.418108   0.000000
    6       12.047109   0.000000
    7       13.171982   0.000000
    8       15.873637   0.000000
 
 -0.4375000E+00 -0.4375000E+00  0.1875000E+00  0.1171875E-01
    1       -0.966150   1.000000
    2        0.153404   1.000000
    3        3.137487   1.000000
    4        4.911655   1.000000
    5        8.610443   0.000083
    6       10.892806   0.000000
    7       16.766797   0.000000
    8       17.394179   0.000000
 
 -0.3125000E+00 -0.4375000E+00  0.1875000E+00  0.2343750E-01
    1       -0.846015   1.000000
    2        0.158021   1.000000
    3        3.255917   1.000000
    4        4.035874   1.000000
    5        9.964759   0.000000
    6       11.019249   0.000000
    7       15.174910   0.000000
    8       16.408551   0.000000
 
 -0.3125000E+00 -0.3125000E+00  0.1875000E+00  0.1171875E-01
    1       -1.884882   1.000000
    2        1.049683   1.000000
    3        3.513210   1.000000
    4        5.048045   1.000000
    5        8.800838   0.000000
    6       11.078827   0.000000
    7       15.610587   0.000000
    8       16.129454   0.000000
 
  0.3125000E+00  0.3125000E+00  0.3125000E+00  0.3906250E-02
    1       -3.970365   1.000000
    2        2.385134   1.000000
    3        6.907260   1.000000
    4        6.907260   1.000000
    5       10.492837   0.000000
    6       11.545132   0.000000
    7       11.545132   0.000000
    8       15.968152   0.000000
 
  0.4375000E+00  0.3125000E+00  0.3125000E+00  0.1171875E-01
    1       -3.381510   1.000000
    2        1.756675   1.000000
    3        5.176172   1.000000
    4        6.815972   1.000000
    5       10.927833   0.000000
    6       11.829801   0.000000
    7       11.978092   0.000000
    8       15.299784   0.000000
 
 -0.4375000E+00  0.3125000E+00  0.3125000E+00  0.1171875E-01
    1       -2.402193   1.000000
    2        1.343966   1.000000
    3        3.179802   1.000000
    4        6.079916   1.000000
    5       10.016403   0.000000
    6       13.588266   0.000000
    7       13.912570   0.000000
    8       15.090840   0.000000
 
 -0.3125000E+00  0.3125000E+00  0.3125000E+00  0.1171875E-01
    1       -1.357565   1.000000
    2        0.491571   1.000000
    3        2.680945   1.000000
    4        5.404729   1.000000
    5        9.197576   0.000000
    6       13.572794   0.000000
    7       15.046941   0.000000
    8       15.980131   0.000000
 
  0.4375000E+00  0.4375000E+00  0.3125000E+00  0.1171875E-01
    1       -2.982618   1.000000
    2        1.071048   1.000000
    3        5.659297   1.000000
    4        6.095545   1.000000
    5       10.252758   0.000000
    6       11.994760   0.000000
    7       12.363127   0.000000
    8       14.824901   0.000000
 
 -0.4375000E+00  0.4375000E+00  0.3125000E+00  0.2343750E-01
    1       -2.207358   1.000000
    2        0.751409   1.000000
    3        4.008009   1.000000
    4        5.453253   1.000000
    5       10.916439   0.000000
    6       11.515897   0.000000
    7       14.259022   0.000000
    8       14.810208   0.000000
 
 -0.3125000E+00  0.4375000E+00  0.3125000E+00  0.2343750E-01
    1       -1.197146   1.000000
    2        0.469098   1.000000
    3        2.790104   1.000000
    4        4.545084   1.000000
    5       10.498248   0.000000
    6       13.026256   0.000000
    7       14.163916   0.000000
    8       14.906015   0.000000
 
 -0.4375000E+00 -0.4375000E+00  0.3125000E+00  0.1171875E-01
    1       -1.746301   1.000000
    2        0.465794   1.000000
    3        3.446752   1.000000
    4        5.526181   1.000000
    5        9.385955   0.000000
    6       13.531870   0.000000
    7       13.999339   0.000000
    8       14.974509   0.000000
 
  0.4375000E+00  0.4375000E+00  0.4375000E+00  0.3906250E-02
    1       -2.828117   1.000000
    2        0.374461   1.000000
    3        6.666631   1.000000
    4        6.666631   1.000000
    5       10.273059   0.000000
    6       11.236789   0.000000
    7       11.236789   0.000000
    8       16.009594   0.000000
 
 -0.4375000E+00  0.4375000E+00  0.4375000E+00  0.1171875E-01
    1       -2.373736   1.000000
    2        0.181920   1.000000
    3        5.254394   1.000000
    4        6.316002   1.000000
    5       10.420960   0.000000
    6       11.868877   0.000000
    7       11.942119   0.000000
    8       16.873542   0.000000
