       N       E                     dE             d eps       ncg     rms          rms(c)
DAV:   1     0.419566754569E+01    0.41957E+01   -0.27923E+03   960   0.570E+02
DAV:   2    -0.103825785033E+02   -0.14578E+02   -0.13916E+02  1480   0.743E+01
DAV:   3    -0.105358991833E+02   -0.15332E+00   -0.15332E+00  1168   0.957E+00
DAV:   4    -0.105364445214E+02   -0.54534E-03   -0.54534E-03  1608   0.611E-01
DAV:   5    -0.105364449592E+02   -0.43779E-06   -0.43707E-06  1176   0.120E-02    0.353E+00
DAV:   6    -0.103071050693E+02    0.22934E+00   -0.16797E-01  1080   0.219E+00    0.202E+00
DAV:   7    -0.102141255243E+02    0.92980E-01   -0.25714E-01  1200   0.282E+00    0.194E-01
DAV:   8    -0.102154260980E+02   -0.13006E-02   -0.58410E-03  1144   0.607E-01    0.280E-02
DAV:   9    -0.102154750864E+02   -0.48988E-04   -0.99132E-05   896   0.841E-02
   1 F= -.10215475E+02 E0= -.10214875E+02  d E =-.102155E+02
