 vasp.5.4.4.18Apr17-6-g9f103f2a35 (build Dec 09 2018 21:25:21) complex          
  
 executed on IFC18.0.1.163_CrayMP date 2019.04.01  15:57:01
 running on    8 total cores
 distrk:  each k-point on    8 cores,    1 groups
 distr:  one band on NCORES_PER_BAND=   1 cores,    8 groups


--------------------------------------------------------------------------------------------------------


 INCAR:
 POTCAR:   PAW_PBE Si 05Jan2001                   

 ----------------------------------------------------------------------------- 
|                                                                             |
|           W    W    AA    RRRRR   N    N  II  N    N   GGGG   !!!           |
|           W    W   A  A   R    R  NN   N  II  NN   N  G    G  !!!           |
|           W    W  A    A  R    R  N N  N  II  N N  N  G       !!!           |
|           W WW W  AAAAAA  RRRRR   N  N N  II  N  N N  G  GGG   !            |
|           WW  WW  A    A  R   R   N   NN  II  N   NN  G    G                |
|           W    W  A    A  R    R  N    N  II  N    N   GGGG   !!!           |
|                                                                             |
|      For optimal performance we recommend to set                            |
|        NCORE= 4 - approx SQRT( number of cores)                             |
|      NCORE specifies how many cores store one orbital (NPAR=cpu/NCORE).     |
|      This setting can  greatly improve the performance of VASP for DFT.     |
|      The default,   NCORE=1            might be grossly inefficient         |
|      on modern multi-core architectures or massively parallel machines.     |
|      Do your own testing !!!!                                               |
|      Unfortunately you need to use the default for GW and RPA calculations. |
|      (for HF NCORE is supported but not extensively tested yet)             |
|                                                                             |
 ----------------------------------------------------------------------------- 

 POTCAR:   PAW_PBE Si 05Jan2001                   
   VRHFIN =Si: s2p2                                                             
   LEXCH  = PE                                                                  
   EATOM  =   103.0669 eV,    7.5752 Ry                                         
                                                                                
   TITEL  = PAW_PBE Si 05Jan2001                                                
   LULTRA =        F    use ultrasoft PP ?                                      
   IUNSCR =        1    unscreen: 0-lin 1-nonlin 2-no                           
   RPACOR =    1.500    partial core radius                                     
   POMASS =   28.085; ZVAL   =    4.000    mass and valenz                      
   RCORE  =    1.900    outmost cutoff radius                                   
   RWIGS  =    2.480; RWIGS  =    1.312    wigner-seitz radius (au A)           
   ENMAX  =  245.345; ENMIN  =  184.009 eV                                      
   ICORE  =        2    local potential                                         
   LCOR   =        T    correct aug charges                                     
   LPAW   =        T    paw PP                                                  
   EAUG   =  322.069                                                            
   DEXC   =    -.007                                                            
   RMAX   =    2.944    core radius for proj-oper                               
   RAUG   =    1.300    factor for augmentation sphere                          
   RDEP   =    1.993    radius for radial grids                                 
   QCUT   =   -4.246; QGAM   =    8.493    optimization parameters              
                                                                                
   Description                                                                  
     l     E      TYP  RCUT    TYP  RCUT                                        
     0   .000     23  1.900                                                     
     0   .000     23  1.900                                                     
     1   .000     23  1.900                                                     
     1   .000     23  1.900                                                     
     2   .000      7  1.900                                                     
  local pseudopotential read in
  partial core-charges read in
  atomic valenz-charges read in
  non local Contribution for L=           0  read in
    real space projection operators read in
  non local Contribution for L=           0  read in
    real space projection operators read in
  non local Contribution for L=           1  read in
    real space projection operators read in
  non local Contribution for L=           1  read in
    real space projection operators read in
    PAW grid and wavefunctions read in
 
   number of l-projection  operators is LMAX  =           4
   number of lm-projection operators is LMMAX =           8
 
 PAW_PBE Si 05Jan2001                   :
 energy of atom  1       EATOM= -103.0669
 kinetic energy error for atom=    0.0013 (will be added to EATOM!!)
 
 
 POSCAR: Si2                                     
  positions in direct lattice
  No initial velocities read in
 exchange correlation table for  LEXCH =        8
   RHO(1)=    0.500       N(1)  =     2000
   RHO(2)=  100.500       N(2)  =     4000
 


--------------------------------------------------------------------------------------------------------


 ion  position               nearest neighbor table
   1  0.000  0.000  0.000-   2 2.20   2 2.20   2 2.20   2 2.20
   2  0.250  0.250  0.250-   1 2.20   1 2.20   1 2.20   1 2.20
 
  LATTYP: Found a face centered cubic cell.
 ALAT       =     5.0857960000
  
  Lattice vectors:
  
 A1 = (   0.0000000000,   2.5428980000,   2.5428980000)
 A2 = (   2.5428980000,   0.0000000000,   2.5428980000)
 A3 = (   2.5428980000,   2.5428980000,   0.0000000000)


Analysis of symmetry for initial positions (statically):
=====================================================================
 Subroutine PRICEL returns:
 Original cell was already a primitive cell.
 

 Routine SETGRP: Setting up the symmetry group for a 
 face centered cubic supercell.


 Subroutine GETGRP returns: Found 48 space group operations
 (whereof 24 operations were pure point group operations)
 out of a pool of 48 trial point group operations.


The static configuration has the point symmetry T_d .
 The point group associated with its full space group is O_h .


Analysis of symmetry for dynamics (positions and initial velocities):
=====================================================================
 Subroutine PRICEL returns:
 Original cell was already a primitive cell.
 

 Routine SETGRP: Setting up the symmetry group for a 
 face centered cubic supercell.


 Subroutine GETGRP returns: Found 48 space group operations
 (whereof 24 operations were pure point group operations)
 out of a pool of 48 trial point group operations.


The dynamic configuration has the point symmetry T_d .
 The point group associated with its full space group is O_h .


 Subroutine INISYM returns: Found 48 space group operations
 (whereof 24 operations are pure point group operations),
 and found     1 'primitive' translations

 
 
 KPOINTS: Automatic kpoint scheme                 

Automatic generation of k-mesh.
Space group operators:
 irot       det(A)        alpha          n_x          n_y          n_z        tau_x        tau_y        tau_z
    1     1.000000     0.000000     1.000000     0.000000     0.000000     0.000000     0.000000     0.000000
    2     1.000000   120.000000    -0.577350    -0.577350    -0.577350     0.000000     0.000000     0.000000
    3     1.000000   120.000000     0.577350     0.577350     0.577350     0.000000     0.000000     0.000000
    4    -1.000000    90.000000    -0.000000    -0.000000    -1.000000     0.000000     0.000000     0.000000
    5    -1.000000   180.000000    -0.000000     0.707107     0.707107     0.000000     0.000000     0.000000
    6    -1.000000    90.000000    -0.000000     1.000000    -0.000000     0.000000     0.000000     0.000000
    7     1.000000   180.000000     0.000000     0.000000    -1.000000     0.000000     0.000000     0.000000
    8     1.000000   120.000000    -0.577350     0.577350     0.577350     0.000000     0.000000     0.000000
    9     1.000000   120.000000    -0.577350     0.577350    -0.577350     0.000000     0.000000     0.000000
   10    -1.000000    90.000000     0.000000     0.000000     1.000000     0.000000     0.000000     0.000000
   11    -1.000000    90.000000    -1.000000     0.000000    -0.000000     0.000000     0.000000     0.000000
   12    -1.000000   180.000000     0.707107     0.000000     0.707107     0.000000     0.000000     0.000000
   13     1.000000   120.000000     0.577350    -0.577350     0.577350     0.000000     0.000000     0.000000
   14     1.000000   120.000000    -0.577350    -0.577350     0.577350     0.000000     0.000000     0.000000
   15     1.000000   180.000000     1.000000     0.000000     0.000000     0.000000     0.000000     0.000000
   16    -1.000000    90.000000     0.000000    -1.000000     0.000000     0.000000     0.000000     0.000000
   17    -1.000000   180.000000     0.707107     0.707107    -0.000000     0.000000     0.000000     0.000000
   18    -1.000000    90.000000     1.000000     0.000000     0.000000     0.000000     0.000000     0.000000
   19     1.000000   120.000000     0.577350    -0.577350    -0.577350     0.000000     0.000000     0.000000
   20     1.000000   180.000000    -0.000000    -1.000000    -0.000000     0.000000     0.000000     0.000000
   21     1.000000   120.000000     0.577350     0.577350    -0.577350     0.000000     0.000000     0.000000
   22    -1.000000   180.000000    -0.000000    -0.707107     0.707107     0.000000     0.000000     0.000000
   23    -1.000000   180.000000     0.707107    -0.707107     0.000000     0.000000     0.000000     0.000000
   24    -1.000000   180.000000    -0.707107     0.000000     0.707107     0.000000     0.000000     0.000000
   25    -1.000000     0.000000     1.000000     0.000000     0.000000     0.250000     0.250000     0.250000
   26    -1.000000   120.000000    -0.577350    -0.577350    -0.577350     0.250000     0.250000     0.250000
   27    -1.000000   120.000000     0.577350     0.577350     0.577350     0.250000     0.250000     0.250000
   28     1.000000    90.000000    -0.000000    -0.000000    -1.000000     0.250000     0.250000     0.250000
   29     1.000000   180.000000    -0.000000     0.707107     0.707107     0.250000     0.250000     0.250000
   30     1.000000    90.000000    -0.000000     1.000000    -0.000000     0.250000     0.250000     0.250000
   31    -1.000000   180.000000     0.000000     0.000000    -1.000000     0.250000     0.250000     0.250000
   32    -1.000000   120.000000    -0.577350     0.577350     0.577350     0.250000     0.250000     0.250000
   33    -1.000000   120.000000    -0.577350     0.577350    -0.577350     0.250000     0.250000     0.250000
   34     1.000000    90.000000     0.000000     0.000000     1.000000     0.250000     0.250000     0.250000
   35     1.000000    90.000000    -1.000000     0.000000    -0.000000     0.250000     0.250000     0.250000
   36     1.000000   180.000000     0.707107     0.000000     0.707107     0.250000     0.250000     0.250000
   37    -1.000000   120.000000     0.577350    -0.577350     0.577350     0.250000     0.250000     0.250000
   38    -1.000000   120.000000    -0.577350    -0.577350     0.577350     0.250000     0.250000     0.250000
   39    -1.000000   180.000000     1.000000     0.000000     0.000000     0.250000     0.250000     0.250000
   40     1.000000    90.000000     0.000000    -1.000000     0.000000     0.250000     0.250000     0.250000
   41     1.000000   180.000000     0.707107     0.707107    -0.000000     0.250000     0.250000     0.250000
   42     1.000000    90.000000     1.000000     0.000000     0.000000     0.250000     0.250000     0.250000
   43    -1.000000   120.000000     0.577350    -0.577350    -0.577350     0.250000     0.250000     0.250000
   44    -1.000000   180.000000    -0.000000    -1.000000    -0.000000     0.250000     0.250000     0.250000
   45    -1.000000   120.000000     0.577350     0.577350    -0.577350     0.250000     0.250000     0.250000
   46     1.000000   180.000000    -0.000000    -0.707107     0.707107     0.250000     0.250000     0.250000
   47     1.000000   180.000000     0.707107    -0.707107     0.000000     0.250000     0.250000     0.250000
   48     1.000000   180.000000    -0.707107     0.000000     0.707107     0.250000     0.250000     0.250000
 
 Subroutine IBZKPT returns following result:
 ===========================================
 
 Found     60 irreducible k-points:
 
 Following reciprocal coordinates:
            Coordinates               Weight
  0.062500  0.062500  0.062500     96.000000
  0.187500  0.062500  0.062500    288.000000
  0.312500  0.062500  0.062500    288.000000
  0.437500  0.062500  0.062500    288.000000
 -0.437500  0.062500  0.062500    288.000000
 -0.312500  0.062500  0.062500    288.000000
 -0.187500  0.062500  0.062500    288.000000
 -0.062500  0.062500  0.062500    288.000000
  0.187500  0.187500  0.062500    288.000000
  0.312500  0.187500  0.062500    576.000000
  0.437500  0.187500  0.062500    576.000000
 -0.437500  0.187500  0.062500    576.000000
 -0.312500  0.187500  0.062500    576.000000
 -0.187500  0.187500  0.062500    576.000000
 -0.062500  0.187500  0.062500    576.000000
  0.312500  0.312500  0.062500    288.000000
  0.437500  0.312500  0.062500    576.000000
 -0.437500  0.312500  0.062500    576.000000
 -0.312500  0.312500  0.062500    576.000000
 -0.187500  0.312500  0.062500    576.000000
 -0.062500  0.312500  0.062500    576.000000
  0.437500  0.437500  0.062500    288.000000
 -0.437500  0.437500  0.062500    576.000000
 -0.312500  0.437500  0.062500    576.000000
 -0.187500  0.437500  0.062500    576.000000
 -0.062500  0.437500  0.062500    576.000000
 -0.437500 -0.437500  0.062500    288.000000
 -0.312500 -0.437500  0.062500    576.000000
 -0.187500 -0.437500  0.062500    576.000000
 -0.312500 -0.312500  0.062500    288.000000
 -0.187500 -0.312500  0.062500    576.000000
 -0.187500 -0.187500  0.062500    288.000000
  0.187500  0.187500  0.187500     96.000000
  0.312500  0.187500  0.187500    288.000000
  0.437500  0.187500  0.187500    288.000000
 -0.437500  0.187500  0.187500    288.000000
 -0.312500  0.187500  0.187500    288.000000
 -0.187500  0.187500  0.187500    288.000000
  0.312500  0.312500  0.187500    288.000000
  0.437500  0.312500  0.187500    576.000000
 -0.437500  0.312500  0.187500    576.000000
 -0.312500  0.312500  0.187500    576.000000
 -0.187500  0.312500  0.187500    576.000000
  0.437500  0.437500  0.187500    288.000000
 -0.437500  0.437500  0.187500    576.000000
 -0.312500  0.437500  0.187500    576.000000
 -0.187500  0.437500  0.187500    576.000000
 -0.437500 -0.437500  0.187500    288.000000
 -0.312500 -0.437500  0.187500    576.000000
 -0.312500 -0.312500  0.187500    288.000000
  0.312500  0.312500  0.312500     96.000000
  0.437500  0.312500  0.312500    288.000000
 -0.437500  0.312500  0.312500    288.000000
 -0.312500  0.312500  0.312500    288.000000
  0.437500  0.437500  0.312500    288.000000
 -0.437500  0.437500  0.312500    576.000000
 -0.312500  0.437500  0.312500    576.000000
 -0.437500 -0.437500  0.312500    288.000000
  0.437500  0.437500  0.437500     96.000000
 -0.437500  0.437500  0.437500    288.000000
 
 Following cartesian coordinates:
            Coordinates               Weight
  0.012289  0.012289  0.012289     96.000000
 -0.012289  0.036867  0.036867    288.000000
 -0.036867  0.061446  0.061446    288.000000
 -0.061446  0.086024  0.086024    288.000000
  0.110602 -0.086024 -0.086024    288.000000
  0.086024 -0.061446 -0.061446    288.000000
  0.061446 -0.036867 -0.036867    288.000000
  0.036867 -0.012289 -0.012289    288.000000
  0.012289  0.012289  0.061446    288.000000
 -0.012289  0.036867  0.086024    576.000000
 -0.036867  0.061446  0.110602    576.000000
  0.135180 -0.110602 -0.061446    576.000000
  0.110602 -0.086024 -0.036867    576.000000
  0.086024 -0.061446 -0.012289    576.000000
  0.061446 -0.036867  0.012289    576.000000
  0.012289  0.012289  0.110602    288.000000
 -0.012289  0.036867  0.135180    576.000000
  0.159759 -0.135180 -0.036867    576.000000
  0.135180 -0.110602 -0.012289    576.000000
  0.110602 -0.086024  0.012289    576.000000
  0.086024 -0.061446  0.036867    576.000000
  0.012289  0.012289  0.159759    288.000000
  0.184337 -0.159759 -0.012289    576.000000
  0.159759 -0.135180  0.012289    576.000000
  0.135180 -0.110602  0.036867    576.000000
  0.110602 -0.086024  0.061446    576.000000
  0.012289  0.012289 -0.184337    288.000000
 -0.012289  0.036867 -0.159759    576.000000
 -0.036867  0.061446 -0.135180    576.000000
  0.012289  0.012289 -0.135180    288.000000
 -0.012289  0.036867 -0.110602    576.000000
  0.012289  0.012289 -0.086024    288.000000
  0.036867  0.036867  0.036867     96.000000
  0.012289  0.061446  0.061446    288.000000
 -0.012289  0.086024  0.086024    288.000000
  0.159759 -0.086024 -0.086024    288.000000
  0.135180 -0.061446 -0.061446    288.000000
  0.110602 -0.036867 -0.036867    288.000000
  0.036867  0.036867  0.086024    288.000000
  0.012289  0.061446  0.110602    576.000000
  0.184337 -0.110602 -0.061446    576.000000
  0.159759 -0.086024 -0.036867    576.000000
  0.135180 -0.061446 -0.012289    576.000000
  0.036867  0.036867  0.135180    288.000000
  0.208915 -0.135180 -0.036867    576.000000
  0.184337 -0.110602 -0.012289    576.000000
  0.159759 -0.086024  0.012289    576.000000
  0.036867  0.036867 -0.208915    288.000000
  0.012289  0.061446 -0.184337    576.000000
  0.036867  0.036867 -0.159759    288.000000
  0.061446  0.061446  0.061446     96.000000
  0.036867  0.086024  0.086024    288.000000
  0.208915 -0.086024 -0.086024    288.000000
  0.184337 -0.061446 -0.061446    288.000000
  0.061446  0.061446  0.110602    288.000000
  0.233493 -0.110602 -0.061446    576.000000
  0.208915 -0.086024 -0.036867    576.000000
  0.061446  0.061446 -0.233493    288.000000
  0.086024  0.086024  0.086024     96.000000
  0.258072 -0.086024 -0.086024    288.000000
 


--------------------------------------------------------------------------------------------------------




 Dimension of arrays:
   k-points           NKPTS =     60   k-points in BZ     NKDIM =     60   number of bands    NBANDS=      8
   number of dos      NEDOS =    301   number of ions     NIONS =      2
   non local maximal  LDIM  =      4   non local SUM 2l+1 LMDIM =      8
   total plane-waves  NPLWV =   4096
   max r-space proj   IRMAX =      1   max aug-charges    IRDMAX=   4363
   dimension x,y,z NGX =    16 NGY =   16 NGZ =   16
   dimension x,y,z NGXF=    32 NGYF=   32 NGZF=   32
   support grid    NGXF=    32 NGYF=   32 NGZF=   32
   ions per type =               2
   NGX,Y,Z   is equivalent  to a cutoff of   7.40,  7.40,  7.40 a.u.
   NGXF,Y,Z  is equivalent  to a cutoff of  14.79, 14.79, 14.79 a.u.

 SYSTEM =  unknown system                          
 POSCAR =  Si2                                     

 Startparameter for this run:
   NWRITE =      2    write-flag & timer
   PREC   = normal    normal or accurate (medium, high low for compatibility)
   ISTART =      0    job   : 0-new  1-cont  2-samecut
   ICHARG =      2    charge: 1-file 2-atom 10-const
   ISPIN  =      1    spin polarized calculation?
   LNONCOLLINEAR =      F non collinear calculations
   LSORBIT =      F    spin-orbit coupling
   INIWAV =      1    electr: 0-lowe 1-rand  2-diag
   LASPH  =      F    aspherical Exc in radial PAW
   METAGGA=      F    non-selfconsistent MetaGGA calc.

 Electronic Relaxation 1
   ENCUT  =  350.0 eV  25.72 Ry    5.07 a.u.   5.49  5.49  5.49*2*pi/ulx,y,z
   ENINI  =  350.0     initial cutoff
   ENAUG  =  322.1 eV  augmentation charge cutoff
   NELM   =     60;   NELMIN=  2; NELMDL= -5     # of ELM steps 
   EDIFF  = 0.4E-03   stopping-criterion for ELM
   LREAL  =      F    real-space projection
   NLSPLINE    = F    spline interpolate recip. space projectors
   LCOMPAT=      F    compatible to vasp.4.4
   GGA_COMPAT  = T    GGA compatible to vasp.4.4-vasp.4.6
   LMAXPAW     = -100 max onsite density
   LMAXMIX     =    2 max onsite mixed and CHGCAR
   VOSKOWN=      0    Vosko Wilk Nusair interpolation
   ROPT   =    0.00000
 Ionic relaxation
   EDIFFG = -.1E-01   stopping-criterion for IOM
   NSW    =     15    number of steps for IOM
   NBLOCK =      1;   KBLOCK =     15    inner block; outer block 
   IBRION =      2    ionic relax: 0-MD 1-quasi-New 2-CG
   NFREE  =      1    steps in history (QN), initial steepest desc. (CG)
   ISIF   =      2    stress and relaxation
   IWAVPR =     11    prediction:  0-non 1-charg 2-wave 3-comb
   ISYM   =      2    0-nonsym 1-usesym 2-fastsym
   LCORR  =      T    Harris-Foulkes like correction to forces

   POTIM  = 0.5000    time-step for ionic-motion
   TEIN   =    0.0    initial temperature
   TEBEG  =    0.0;   TEEND  =   0.0 temperature during run
   SMASS  =  -3.00    Nose mass-parameter (am)
   estimated Nose-frequenzy (Omega)   =  0.10E-29 period in steps =****** mass=  -0.296E-27a.u.
   SCALEE = 1.0000    scale energy and forces
   NPACO  =    256;   APACO  = 16.0  distance and # of slots for P.C.
   PSTRESS=    0.0 pullay stress

  Mass of Ions in am
   POMASS =  28.09
  Ionic Valenz
   ZVAL   =   4.00
  Atomic Wigner-Seitz radii
   RWIGS  =  -1.00
  virtual crystal weights 
   VCA    =   1.00
   NELECT =       8.0000    total number of electrons
   NUPDOWN=      -1.0000    fix difference up-down

 DOS related values:
   EMIN   =  10.00;   EMAX   =-10.00  energy-range for DOS
   EFERMI =   0.00
   ISMEAR =     0;   SIGMA  =   0.20  broadening in eV -4-tet -1-fermi 0-gaus

 Electronic relaxation 2 (details)
   IALGO  =     38    algorithm
   LDIAG  =      T    sub-space diagonalisation (order eigenvalues)
   LSUBROT=      F    optimize rotation matrix (better conditioning)
   TURBO    =      0    0=normal 1=particle mesh
   IRESTART =      0    0=no restart 2=restart with 2 vectors
   NREBOOT  =      0    no. of reboots
   NMIN     =      0    reboot dimension
   EREF     =   0.00    reference energy to select bands
   IMIX   =      4    mixing-type and parameters
     AMIX     =   0.40;   BMIX     =  1.00
     AMIX_MAG =   1.60;   BMIX_MAG =  1.00
     AMIN     =   0.10
     WC   =   100.;   INIMIX=   1;  MIXPRE=   1;  MAXMIX= -45

 Intra band minimization:
   WEIMIN = 0.0010     energy-eigenvalue tresh-hold
   EBREAK =  0.13E-04  absolut break condition
   DEPER  =   0.30     relativ break condition  

   TIME   =   0.40     timestep for ELM

  volume/ion in A,a.u.               =      16.44       110.96
  Fermi-wavevector in a.u.,A,eV,Ry     =   1.021957  1.931218 14.209867  1.044396
  Thomas-Fermi vector in A             =   2.155610
 
 Write flags
   LWAVE        =      T    write WAVECAR
   LDOWNSAMPLE  =      F    k-point downsampling of WAVECAR
   LCHARG       =      T    write CHGCAR
   LVTOT        =      F    write LOCPOT, total local potential
   LVHAR        =      F    write LOCPOT, Hartree potential only
   LELF         =      F    write electronic localiz. function (ELF)
   LORBIT       =      0    0 simple, 1 ext, 2 COOP (PROOUT), +10 PAW based schemes


 Dipole corrections
   LMONO  =      F    monopole corrections only (constant potential shift)
   LDIPOL =      F    correct potential (dipole corrections)
   IDIPOL =      0    1-x, 2-y, 3-z, 4-all directions 
   EPSILON=  1.0000000 bulk dielectric constant

 Exchange correlation treatment:
   GGA     =    --    GGA type
   LEXCH   =     8    internal setting for exchange type
   VOSKOWN=      0    Vosko Wilk Nusair interpolation
   LHFCALC =     F    Hartree Fock is set to
   LHFONE  =     F    Hartree Fock one center treatment
   AEXX    =    0.0000 exact exchange contribution

 Linear response parameters
   LEPSILON=     F    determine dielectric tensor
   LRPA    =     F    only Hartree local field effects (RPA)
   LNABLA  =     F    use nabla operator in PAW spheres
   LVEL    =     F    velocity operator in full k-point grid
   LINTERFAST=   F  fast interpolation
   KINTER  =     0    interpolate to denser k-point grid
   CSHIFT  =0.1000    complex shift for real part using Kramers Kronig
   OMEGAMAX=  -1.0    maximum frequency
   DEG_THRESHOLD= 0.2000000E-02 threshold for treating states as degnerate
   RTIME   =   -0.100 relaxation time in fs
  (WPLASMAI=    0.000 imaginary part of plasma frequency in eV, 0.658/RTIME)
   DFIELD  = 0.0000000 0.0000000 0.0000000 field for delta impulse in time
 
 Orbital magnetization related:
   ORBITALMAG=     F  switch on orbital magnetization
   LCHIMAG   =     F  perturbation theory with respect to B field
   DQ        =  0.001000  dq finite difference perturbation B field
   LLRAUG    =     F  two centre corrections for induced B field



--------------------------------------------------------------------------------------------------------


 conjugate gradient relaxation of ions
 charge density and potential will be updated during run
 non-spin polarized calculation
 Variant of blocked Davidson
 Davidson routine will perform the subspace rotation
 perform sub-space diagonalisation
    after iterative eigenvector-optimisation
 modified Broyden-mixing scheme, WC =      100.0
 initial mixing is a Kerker type mixing with AMIX =  0.4000 and BMIX =      1.0000
 Hartree-type preconditioning will be used
 using additional bands            4
 reciprocal scheme for non local part
 use partial core corrections
 calculate Harris-corrections to forces 
   (improved forces if not selfconsistent)
 use gradient corrections 
 use of overlap-Matrix (Vanderbilt PP)
 Gauss-broadening in eV      SIGMA  =   0.20


--------------------------------------------------------------------------------------------------------


  energy-cutoff  :      350.00
  volume of cell :       32.89
      direct lattice vectors                 reciprocal lattice vectors
     0.000000000  2.542898000  2.542898000    -0.196626054  0.196626054  0.196626054
     2.542898000  0.000000000  2.542898000     0.196626054 -0.196626054  0.196626054
     2.542898000  2.542898000  0.000000000     0.196626054  0.196626054 -0.196626054

  length of vectors
     3.596200839  3.596200839  3.596200839     0.340566316  0.340566316  0.340566316


 
 k-points in units of 2pi/SCALE and weight: Automatic kpoint scheme                 
   0.01228913  0.01228913  0.01228913       0.004
  -0.01228913  0.03686739  0.03686739       0.012
  -0.03686739  0.06144564  0.06144564       0.012
  -0.06144564  0.08602390  0.08602390       0.012
   0.11060216 -0.08602390 -0.08602390       0.012
   0.08602390 -0.06144564 -0.06144564       0.012
   0.06144564 -0.03686739 -0.03686739       0.012
   0.03686739 -0.01228913 -0.01228913       0.012
   0.01228913  0.01228913  0.06144564       0.012
  -0.01228913  0.03686739  0.08602390       0.023
  -0.03686739  0.06144564  0.11060216       0.023
   0.13518041 -0.11060216 -0.06144564       0.023
   0.11060216 -0.08602390 -0.03686739       0.023
   0.08602390 -0.06144564 -0.01228913       0.023
   0.06144564 -0.03686739  0.01228913       0.023
   0.01228913  0.01228913  0.11060216       0.012
  -0.01228913  0.03686739  0.13518041       0.023
   0.15975867 -0.13518041 -0.03686739       0.023
   0.13518041 -0.11060216 -0.01228913       0.023
   0.11060216 -0.08602390  0.01228913       0.023
   0.08602390 -0.06144564  0.03686739       0.023
   0.01228913  0.01228913  0.15975867       0.012
   0.18433693 -0.15975867 -0.01228913       0.023
   0.15975867 -0.13518041  0.01228913       0.023
   0.13518041 -0.11060216  0.03686739       0.023
   0.11060216 -0.08602390  0.06144564       0.023
   0.01228913  0.01228913 -0.18433693       0.012
  -0.01228913  0.03686739 -0.15975867       0.023
  -0.03686739  0.06144564 -0.13518041       0.023
   0.01228913  0.01228913 -0.13518041       0.012
  -0.01228913  0.03686739 -0.11060216       0.023
   0.01228913  0.01228913 -0.08602390       0.012
   0.03686739  0.03686739  0.03686739       0.004
   0.01228913  0.06144564  0.06144564       0.012
  -0.01228913  0.08602390  0.08602390       0.012
   0.15975867 -0.08602390 -0.08602390       0.012
   0.13518041 -0.06144564 -0.06144564       0.012
   0.11060216 -0.03686739 -0.03686739       0.012
   0.03686739  0.03686739  0.08602390       0.012
   0.01228913  0.06144564  0.11060216       0.023
   0.18433693 -0.11060216 -0.06144564       0.023
   0.15975867 -0.08602390 -0.03686739       0.023
   0.13518041 -0.06144564 -0.01228913       0.023
   0.03686739  0.03686739  0.13518041       0.012
   0.20891518 -0.13518041 -0.03686739       0.023
   0.18433693 -0.11060216 -0.01228913       0.023
   0.15975867 -0.08602390  0.01228913       0.023
   0.03686739  0.03686739 -0.20891518       0.012
   0.01228913  0.06144564 -0.18433693       0.023
   0.03686739  0.03686739 -0.15975867       0.012
   0.06144564  0.06144564  0.06144564       0.004
   0.03686739  0.08602390  0.08602390       0.012
   0.20891518 -0.08602390 -0.08602390       0.012
   0.18433693 -0.06144564 -0.06144564       0.012
   0.06144564  0.06144564  0.11060216       0.012
   0.23349344 -0.11060216 -0.06144564       0.023
   0.20891518 -0.08602390 -0.03686739       0.023
   0.06144564  0.06144564 -0.23349344       0.012
   0.08602390  0.08602390  0.08602390       0.004
   0.25807170 -0.08602390 -0.08602390       0.012
 
 k-points in reciprocal lattice and weights: Automatic kpoint scheme                 
   0.06250000  0.06250000  0.06250000       0.004
   0.18750000  0.06250000  0.06250000       0.012
   0.31250000  0.06250000  0.06250000       0.012
   0.43750000  0.06250000  0.06250000       0.012
  -0.43750000  0.06250000  0.06250000       0.012
  -0.31250000  0.06250000  0.06250000       0.012
  -0.18750000  0.06250000  0.06250000       0.012
  -0.06250000  0.06250000  0.06250000       0.012
   0.18750000  0.18750000  0.06250000       0.012
   0.31250000  0.18750000  0.06250000       0.023
   0.43750000  0.18750000  0.06250000       0.023
  -0.43750000  0.18750000  0.06250000       0.023
  -0.31250000  0.18750000  0.06250000       0.023
  -0.18750000  0.18750000  0.06250000       0.023
  -0.06250000  0.18750000  0.06250000       0.023
   0.31250000  0.31250000  0.06250000       0.012
   0.43750000  0.31250000  0.06250000       0.023
  -0.43750000  0.31250000  0.06250000       0.023
  -0.31250000  0.31250000  0.06250000       0.023
  -0.18750000  0.31250000  0.06250000       0.023
  -0.06250000  0.31250000  0.06250000       0.023
   0.43750000  0.43750000  0.06250000       0.012
  -0.43750000  0.43750000  0.06250000       0.023
  -0.31250000  0.43750000  0.06250000       0.023
  -0.18750000  0.43750000  0.06250000       0.023
  -0.06250000  0.43750000  0.06250000       0.023
  -0.43750000 -0.43750000  0.06250000       0.012
  -0.31250000 -0.43750000  0.06250000       0.023
  -0.18750000 -0.43750000  0.06250000       0.023
  -0.31250000 -0.31250000  0.06250000       0.012
  -0.18750000 -0.31250000  0.06250000       0.023
  -0.18750000 -0.18750000  0.06250000       0.012
   0.18750000  0.18750000  0.18750000       0.004
   0.31250000  0.18750000  0.18750000       0.012
   0.43750000  0.18750000  0.18750000       0.012
  -0.43750000  0.18750000  0.18750000       0.012
  -0.31250000  0.18750000  0.18750000       0.012
  -0.18750000  0.18750000  0.18750000       0.012
   0.31250000  0.31250000  0.18750000       0.012
   0.43750000  0.31250000  0.18750000       0.023
  -0.43750000  0.31250000  0.18750000       0.023
  -0.31250000  0.31250000  0.18750000       0.023
  -0.18750000  0.31250000  0.18750000       0.023
   0.43750000  0.43750000  0.18750000       0.012
  -0.43750000  0.43750000  0.18750000       0.023
  -0.31250000  0.43750000  0.18750000       0.023
  -0.18750000  0.43750000  0.18750000       0.023
  -0.43750000 -0.43750000  0.18750000       0.012
  -0.31250000 -0.43750000  0.18750000       0.023
  -0.31250000 -0.31250000  0.18750000       0.012
   0.31250000  0.31250000  0.31250000       0.004
   0.43750000  0.31250000  0.31250000       0.012
  -0.43750000  0.31250000  0.31250000       0.012
  -0.31250000  0.31250000  0.31250000       0.012
   0.43750000  0.43750000  0.31250000       0.012
  -0.43750000  0.43750000  0.31250000       0.023
  -0.31250000  0.43750000  0.31250000       0.023
  -0.43750000 -0.43750000  0.31250000       0.012
   0.43750000  0.43750000  0.43750000       0.004
  -0.43750000  0.43750000  0.43750000       0.012
 
 position of ions in fractional coordinates (direct lattice) 
   0.00000000  0.00000000  0.00000000
   0.25000000  0.25000000  0.25000000
 
 position of ions in cartesian coordinates  (Angst):
   0.00000000  0.00000000  0.00000000
   1.27144900  1.27144900  1.27144900
 


--------------------------------------------------------------------------------------------------------


 k-point  1 :   0.0625 0.0625 0.0625  plane waves:     522
 k-point  2 :   0.1875 0.0625 0.0625  plane waves:     503
 k-point  3 :   0.3125 0.0625 0.0625  plane waves:     493
 k-point  4 :   0.4375 0.0625 0.0625  plane waves:     487
 k-point  5 :  -0.4375 0.0625 0.0625  plane waves:     483
 k-point  6 :  -0.3125 0.0625 0.0625  plane waves:     494
 k-point  7 :  -0.1875 0.0625 0.0625  plane waves:     494
 k-point  8 :  -0.0625 0.0625 0.0625  plane waves:     510
 k-point  9 :   0.1875 0.1875 0.0625  plane waves:     501
 k-point 10 :   0.3125 0.1875 0.0625  plane waves:     489
 k-point 11 :   0.4375 0.1875 0.0625  plane waves:     490
 k-point 12 :  -0.4375 0.1875 0.0625  plane waves:     484
 k-point 13 :  -0.3125 0.1875 0.0625  plane waves:     490
 k-point 14 :  -0.1875 0.1875 0.0625  plane waves:     493
 k-point 15 :  -0.0625 0.1875 0.0625  plane waves:     499
 k-point 16 :   0.3125 0.3125 0.0625  plane waves:     493
 k-point 17 :   0.4375 0.3125 0.0625  plane waves:     481
 k-point 18 :  -0.4375 0.3125 0.0625  plane waves:     488
 k-point 19 :  -0.3125 0.3125 0.0625  plane waves:     487
 k-point 20 :  -0.1875 0.3125 0.0625  plane waves:     493
 k-point 21 :  -0.0625 0.3125 0.0625  plane waves:     496
 k-point 22 :   0.4375 0.4375 0.0625  plane waves:     484
 k-point 23 :  -0.4375 0.4375 0.0625  plane waves:     483
 k-point 24 :  -0.3125 0.4375 0.0625  plane waves:     487
 k-point 25 :  -0.1875 0.4375 0.0625  plane waves:     483
 k-point 26 :  -0.0625 0.4375 0.0625  plane waves:     486
 k-point 27 :  -0.4375-0.4375 0.0625  plane waves:     474
 k-point 28 :  -0.3125-0.4375 0.0625  plane waves:     481
 k-point 29 :  -0.1875-0.4375 0.0625  plane waves:     485
 k-point 30 :  -0.3125-0.3125 0.0625  plane waves:     481
 k-point 31 :  -0.1875-0.3125 0.0625  plane waves:     487
 k-point 32 :  -0.1875-0.1875 0.0625  plane waves:     488
 k-point 33 :   0.1875 0.1875 0.1875  plane waves:     489
 k-point 34 :   0.3125 0.1875 0.1875  plane waves:     493
 k-point 35 :   0.4375 0.1875 0.1875  plane waves:     492
 k-point 36 :  -0.4375 0.1875 0.1875  plane waves:     488
 k-point 37 :  -0.3125 0.1875 0.1875  plane waves:     486
 k-point 38 :  -0.1875 0.1875 0.1875  plane waves:     495
 k-point 39 :   0.3125 0.3125 0.1875  plane waves:     492
 k-point 40 :   0.4375 0.3125 0.1875  plane waves:     489
 k-point 41 :  -0.4375 0.3125 0.1875  plane waves:     490
 k-point 42 :  -0.3125 0.3125 0.1875  plane waves:     485
 k-point 43 :  -0.1875 0.3125 0.1875  plane waves:     489
 k-point 44 :   0.4375 0.4375 0.1875  plane waves:     487
 k-point 45 :  -0.4375 0.4375 0.1875  plane waves:     488
 k-point 46 :  -0.3125 0.4375 0.1875  plane waves:     487
 k-point 47 :  -0.1875 0.4375 0.1875  plane waves:     491
 k-point 48 :  -0.4375-0.4375 0.1875  plane waves:     483
 k-point 49 :  -0.3125-0.4375 0.1875  plane waves:     487
 k-point 50 :  -0.3125-0.3125 0.1875  plane waves:     482
 k-point 51 :   0.3125 0.3125 0.3125  plane waves:     492
 k-point 52 :   0.4375 0.3125 0.3125  plane waves:     492
 k-point 53 :  -0.4375 0.3125 0.3125  plane waves:     492
 k-point 54 :  -0.3125 0.3125 0.3125  plane waves:     488
 k-point 55 :   0.4375 0.4375 0.3125  plane waves:     491
 k-point 56 :  -0.4375 0.4375 0.3125  plane waves:     487
 k-point 57 :  -0.3125 0.4375 0.3125  plane waves:     487
 k-point 58 :  -0.4375-0.4375 0.3125  plane waves:     488
 k-point 59 :   0.4375 0.4375 0.4375  plane waves:     489
 k-point 60 :  -0.4375 0.4375 0.4375  plane waves:     486

 maximum and minimum number of plane-waves per node :       522      474

 maximum number of plane-waves:       522
 maximum index in each direction: 
   IXMAX=    5   IYMAX=    5   IZMAX=    5
   IXMIN=   -5   IYMIN=   -5   IZMIN=   -5


 serial   3D FFT for wavefunctions
 parallel 3D FFT for charge:
    minimum data exchange during FFTs selected (reduces bandwidth)


 total amount of memory used by VASP MPI-rank0    33104. kBytes
=======================================================================

   base      :      30000. kBytes
   nonl-proj :       2044. kBytes
   fftplans  :        160. kBytes
   grid      :        372. kBytes
   one-center:          6. kBytes
   wavefun   :        522. kBytes
 
     INWAV:  cpu time    0.0000: real time    0.0004
 Broyden mixing: mesh for mixing (old mesh)
   NGX = 11   NGY = 11   NGZ = 11
  (NGX  = 32   NGY  = 32   NGZ  = 32)
  gives a total of   1331 points

 initial charge density was supplied:
 charge density of overlapping atoms calculated
 number of electron       8.0000000 magnetization 
 keeping initial charge density in first step


--------------------------------------------------------------------------------------------------------


 Maximum index for augmentation-charges          541 (set IRDMAX)


--------------------------------------------------------------------------------------------------------


 First call to EWALD:  gamma=   0.553
 Maximum number of real-space cells 3x 3x 3
 Maximum number of reciprocal cells 3x 3x 3

    FEWALD:  cpu time    0.0080: real time    0.0071


--------------------------------------- Iteration      1(   1)  ---------------------------------------


    POTLOK:  cpu time    0.0280: real time    0.0398
    SETDIJ:  cpu time    0.0080: real time    0.0091
     EDDAV:  cpu time    0.5200: real time    0.5243
       DOS:  cpu time    0.0040: real time    0.0034
    --------------------------------------------
      LOOP:  cpu time    0.5600: real time    0.5773

 eigenvalue-minimisations  :   960
 total energy-change (2. order) : 0.4195668E+01  (-0.2792311E+03)
 number of electron       8.0000000 magnetization 
 augmentation part        8.0000000 magnetization 

 Free energy of the ion-electron system (eV)
  ---------------------------------------------------
  alpha Z        PSCENC =         4.09446350
  Ewald energy   TEWEN  =      -244.03258415
  -Hartree energ DENC   =        -8.25525404
  -exchange      EXHF   =         0.00000000
  -V(xc)+E(xc)   XCENC  =       -17.78388753
  PAW double counting   =        65.95520812      -30.76852678
  entropy T*S    EENTRO =        -0.01211532
  eigenvalues    EBANDS =        28.86710962
  atomic energy  EATOM  =       206.13125414
  Solvation  Ediel_sol  =         0.00000000
  ---------------------------------------------------
  free energy    TOTEN  =         4.19566755 eV

  energy without entropy =        4.20778286  energy(sigma->0) =        4.20172520


--------------------------------------------------------------------------------------------------------




--------------------------------------- Iteration      1(   2)  ---------------------------------------


     EDDAV:  cpu time    0.8200: real time    0.8274
       DOS:  cpu time    0.0000: real time    0.0031
    --------------------------------------------
      LOOP:  cpu time    0.8200: real time    0.8305

 eigenvalue-minimisations  :  1480
 total energy-change (2. order) :-0.1457825E+02  (-0.1391567E+02)
 number of electron       8.0000000 magnetization 
 augmentation part        8.0000000 magnetization 

 Free energy of the ion-electron system (eV)
  ---------------------------------------------------
  alpha Z        PSCENC =         4.09446350
  Ewald energy   TEWEN  =      -244.03258415
  -Hartree energ DENC   =        -8.25525404
  -exchange      EXHF   =         0.00000000
  -V(xc)+E(xc)   XCENC  =       -17.78388753
  PAW double counting   =        65.95520812      -30.76852678
  entropy T*S    EENTRO =        -0.00003269
  eigenvalues    EBANDS =        14.27678094
  atomic energy  EATOM  =       206.13125414
  Solvation  Ediel_sol  =         0.00000000
  ---------------------------------------------------
  free energy    TOTEN  =       -10.38257850 eV

  energy without entropy =      -10.38254581  energy(sigma->0) =      -10.38256216


--------------------------------------------------------------------------------------------------------




--------------------------------------- Iteration      1(   3)  ---------------------------------------


     EDDAV:  cpu time    0.6440: real time    0.6519
       DOS:  cpu time    0.0040: real time    0.0031
    --------------------------------------------
      LOOP:  cpu time    0.6480: real time    0.6552

 eigenvalue-minimisations  :  1168
 total energy-change (2. order) :-0.1533207E+00  (-0.1533206E+00)
 number of electron       8.0000000 magnetization 
 augmentation part        8.0000000 magnetization 

 Free energy of the ion-electron system (eV)
  ---------------------------------------------------
  alpha Z        PSCENC =         4.09446350
  Ewald energy   TEWEN  =      -244.03258415
  -Hartree energ DENC   =        -8.25525404
  -exchange      EXHF   =         0.00000000
  -V(xc)+E(xc)   XCENC  =       -17.78388753
  PAW double counting   =        65.95520812      -30.76852678
  entropy T*S    EENTRO =        -0.00003238
  eigenvalues    EBANDS =        14.12345995
  atomic energy  EATOM  =       206.13125414
  Solvation  Ediel_sol  =         0.00000000
  ---------------------------------------------------
  free energy    TOTEN  =       -10.53589918 eV

  energy without entropy =      -10.53586680  energy(sigma->0) =      -10.53588299


--------------------------------------------------------------------------------------------------------




--------------------------------------- Iteration      1(   4)  ---------------------------------------


     EDDAV:  cpu time    0.9120: real time    0.9155
       DOS:  cpu time    0.0040: real time    0.0031
    --------------------------------------------
      LOOP:  cpu time    0.9160: real time    0.9184

 eigenvalue-minimisations  :  1608
 total energy-change (2. order) :-0.5453381E-03  (-0.5453389E-03)
 number of electron       8.0000000 magnetization 
 augmentation part        8.0000000 magnetization 

 Free energy of the ion-electron system (eV)
  ---------------------------------------------------
  alpha Z        PSCENC =         4.09446350
  Ewald energy   TEWEN  =      -244.03258415
  -Hartree energ DENC   =        -8.25525404
  -exchange      EXHF   =         0.00000000
  -V(xc)+E(xc)   XCENC  =       -17.78388753
  PAW double counting   =        65.95520812      -30.76852678
  entropy T*S    EENTRO =        -0.00003232
  eigenvalues    EBANDS =        14.12291455
  atomic energy  EATOM  =       206.13125414
  Solvation  Ediel_sol  =         0.00000000
  ---------------------------------------------------
  free energy    TOTEN  =       -10.53644452 eV

  energy without entropy =      -10.53641220  energy(sigma->0) =      -10.53642836


--------------------------------------------------------------------------------------------------------




--------------------------------------- Iteration      1(   5)  ---------------------------------------


     EDDAV:  cpu time    0.6440: real time    0.6512
       DOS:  cpu time    0.0000: real time    0.0033
    CHARGE:  cpu time    0.0200: real time    0.0201
    MIXING:  cpu time    0.0040: real time    0.0021
    --------------------------------------------
      LOOP:  cpu time    0.6680: real time    0.6768

 eigenvalue-minimisations  :  1176
 total energy-change (2. order) :-0.4377871E-06  (-0.4370740E-06)
 number of electron       8.0000011 magnetization 
 augmentation part       -0.4887247 magnetization 

 Broyden mixing:
  rms(total) = 0.35294E+00    rms(broyden)= 0.35294E+00
  rms(prec ) = 0.10759E+01
  weight for this iteration     100.00

 Free energy of the ion-electron system (eV)
  ---------------------------------------------------
  alpha Z        PSCENC =         4.09446350
  Ewald energy   TEWEN  =      -244.03258415
  -Hartree energ DENC   =        -8.25525404
  -exchange      EXHF   =         0.00000000
  -V(xc)+E(xc)   XCENC  =       -17.78388753
  PAW double counting   =        65.95520812      -30.76852678
  entropy T*S    EENTRO =        -0.00003232
  eigenvalues    EBANDS =        14.12291411
  atomic energy  EATOM  =       206.13125414
  Solvation  Ediel_sol  =         0.00000000
  ---------------------------------------------------
  free energy    TOTEN  =       -10.53644496 eV

  energy without entropy =      -10.53641264  energy(sigma->0) =      -10.53642880


--------------------------------------------------------------------------------------------------------




--------------------------------------- Iteration      1(   6)  ---------------------------------------


    POTLOK:  cpu time    0.0200: real time    0.0237
    SETDIJ:  cpu time    0.0080: real time    0.0086
     EDDAV:  cpu time    0.5800: real time    0.5813
       DOS:  cpu time    0.0040: real time    0.0034
    CHARGE:  cpu time    0.0200: real time    0.0191
    MIXING:  cpu time    0.0000: real time    0.0022
    --------------------------------------------
      LOOP:  cpu time    0.6320: real time    0.6382

 eigenvalue-minimisations  :  1080
 total energy-change (2. order) : 0.2293399E+00  (-0.1679711E-01)
 number of electron       8.0000011 magnetization 
 augmentation part       -0.4798782 magnetization 

 Broyden mixing:
  rms(total) = 0.20242E+00    rms(broyden)= 0.20242E+00
  rms(prec ) = 0.60937E+00
  weight for this iteration     100.00

 eigenvalues of (default mixing * dielectric matrix)
  average eigenvalue GAMMA=   2.3227
  2.3227

 Free energy of the ion-electron system (eV)
  ---------------------------------------------------
  alpha Z        PSCENC =         4.09446350
  Ewald energy   TEWEN  =      -244.03258415
  -Hartree energ DENC   =       -10.01135696
  -exchange      EXHF   =         0.00000000
  -V(xc)+E(xc)   XCENC  =       -17.49356286
  PAW double counting   =        73.18321320      -38.19927293
  entropy T*S    EENTRO =        -0.00025073
  eigenvalues    EBANDS =        16.02099173
  atomic energy  EATOM  =       206.13125414
  Solvation  Ediel_sol  =         0.00000000
  ---------------------------------------------------
  free energy    TOTEN  =       -10.30710507 eV

  energy without entropy =      -10.30685434  energy(sigma->0) =      -10.30697970


--------------------------------------------------------------------------------------------------------




--------------------------------------- Iteration      1(   7)  ---------------------------------------


    POTLOK:  cpu time    0.0200: real time    0.0264
    SETDIJ:  cpu time    0.0080: real time    0.0085
     EDDAV:  cpu time    0.6440: real time    0.6435
       DOS:  cpu time    0.0040: real time    0.0032
    CHARGE:  cpu time    0.0160: real time    0.0185
    MIXING:  cpu time    0.0040: real time    0.0017
    --------------------------------------------
      LOOP:  cpu time    0.6960: real time    0.7019

 eigenvalue-minimisations  :  1200
 total energy-change (2. order) : 0.9297955E-01  (-0.2571417E-01)
 number of electron       8.0000011 magnetization 
 augmentation part       -0.4697472 magnetization 

 Broyden mixing:
  rms(total) = 0.19398E-01    rms(broyden)= 0.19398E-01
  rms(prec ) = 0.51411E-01
  weight for this iteration     100.00

 eigenvalues of (default mixing * dielectric matrix)
  average eigenvalue GAMMA=   2.4125
  2.4125  2.4125

 Free energy of the ion-electron system (eV)
  ---------------------------------------------------
  alpha Z        PSCENC =         4.09446350
  Ewald energy   TEWEN  =      -244.03258415
  -Hartree energ DENC   =       -12.62949329
  -exchange      EXHF   =         0.00000000
  -V(xc)+E(xc)   XCENC  =       -17.05339647
  PAW double counting   =        82.99125425      -48.26649616
  entropy T*S    EENTRO =        -0.00137978
  eigenvalues    EBANDS =        18.55225244
  atomic energy  EATOM  =       206.13125414
  Solvation  Ediel_sol  =         0.00000000
  ---------------------------------------------------
  free energy    TOTEN  =       -10.21412552 eV

  energy without entropy =      -10.21274574  energy(sigma->0) =      -10.21343563


--------------------------------------------------------------------------------------------------------




--------------------------------------- Iteration      1(   8)  ---------------------------------------


    POTLOK:  cpu time    0.0200: real time    0.0242
    SETDIJ:  cpu time    0.0080: real time    0.0085
     EDDAV:  cpu time    0.6200: real time    0.6212
       DOS:  cpu time    0.0040: real time    0.0033
    CHARGE:  cpu time    0.0200: real time    0.0186
    MIXING:  cpu time    0.0000: real time    0.0016
    --------------------------------------------
      LOOP:  cpu time    0.6720: real time    0.6774

 eigenvalue-minimisations  :  1144
 total energy-change (2. order) :-0.1300574E-02  (-0.5841000E-03)
 number of electron       8.0000011 magnetization 
 augmentation part       -0.4709736 magnetization 

 Broyden mixing:
  rms(total) = 0.28015E-02    rms(broyden)= 0.28009E-02
  rms(prec ) = 0.99846E-02
  weight for this iteration     100.00

 eigenvalues of (default mixing * dielectric matrix)
  average eigenvalue GAMMA=   2.0847
  1.4570  2.7628  2.0341

 Free energy of the ion-electron system (eV)
  ---------------------------------------------------
  alpha Z        PSCENC =         4.09446350
  Ewald energy   TEWEN  =      -244.03258415
  -Hartree energ DENC   =       -12.59628347
  -exchange      EXHF   =         0.00000000
  -V(xc)+E(xc)   XCENC  =       -17.03249806
  PAW double counting   =        82.25144773      -47.49875236
  entropy T*S    EENTRO =        -0.00118777
  eigenvalues    EBANDS =        18.46871434
  atomic energy  EATOM  =       206.13125414
  Solvation  Ediel_sol  =         0.00000000
  ---------------------------------------------------
  free energy    TOTEN  =       -10.21542610 eV

  energy without entropy =      -10.21423833  energy(sigma->0) =      -10.21483221


--------------------------------------------------------------------------------------------------------




--------------------------------------- Iteration      1(   9)  ---------------------------------------


    POTLOK:  cpu time    0.0200: real time    0.0249
    SETDIJ:  cpu time    0.0080: real time    0.0085
     EDDAV:  cpu time    0.5160: real time    0.5148
       DOS:  cpu time    0.0000: real time    0.0032
    --------------------------------------------
      LOOP:  cpu time    0.5440: real time    0.5512

 eigenvalue-minimisations  :   896
 total energy-change (2. order) :-0.4898833E-04  (-0.9913211E-05)
 number of electron       8.0000011 magnetization 
 augmentation part       -0.4709736 magnetization 

 Free energy of the ion-electron system (eV)
  ---------------------------------------------------
  alpha Z        PSCENC =         4.09446350
  Ewald energy   TEWEN  =      -244.03258415
  -Hartree energ DENC   =       -12.64575012
  -exchange      EXHF   =         0.00000000
  -V(xc)+E(xc)   XCENC  =       -17.02382373
  PAW double counting   =        82.36146048      -47.61191095
  entropy T*S    EENTRO =        -0.00120035
  eigenvalues    EBANDS =        18.51261609
  atomic energy  EATOM  =       206.13125414
  Solvation  Ediel_sol  =         0.00000000
  ---------------------------------------------------
  free energy    TOTEN  =       -10.21547509 eV

  energy without entropy =      -10.21427474  energy(sigma->0) =      -10.21487491


--------------------------------------------------------------------------------------------------------




 average (electrostatic) potential at core
  the test charge radii are     0.9892
  (the norm of the test charge is              1.0000)
       1 -80.9073       2 -80.9073
 
 
 
 E-fermi :   8.0780     XC(G=0): -10.2020     alpha+bet :-14.5863


 k-point     1 :       0.0625    0.0625    0.0625
  band No.  band energies     occupation 
      1      -5.3681      2.00000
      2       7.4476      1.99999
      3       7.9005      1.79076
      4       7.9005      1.79076
      5      10.7801      0.00000
      6      10.7801      0.00000
      7      10.8044      0.00000
      8      14.0554      0.00000

 k-point     2 :       0.1875    0.0625    0.0625
  band No.  band energies     occupation 
      1      -5.0477      2.00000
      2       5.8232      2.00000
      3       6.9021      2.00000
      4       7.7907      1.95783
      5      11.0536      0.00000
      6      11.1469      0.00000
      7      11.5539      0.00000
      8      14.7530      0.00000

 k-point     3 :       0.3125    0.0625    0.0625
  band No.  band energies     occupation 
      1      -4.2674      2.00000
      2       3.2339      2.00000
      3       6.3718      2.00000
      4       7.2516      2.00000
      5      10.9171      0.00000
      6      11.4948      0.00000
      7      11.8424      0.00000
      8      14.7898      0.00000

 k-point     4 :       0.4375    0.0625    0.0625
  band No.  band energies     occupation 
      1      -3.1413      2.00000
      2       0.9724      2.00000
      3       6.1595      2.00000
      4       6.7733      2.00000
      5      10.6326      0.00000
      6      11.3758      0.00000
      7      11.4075      0.00000
      8      16.3004      0.00000

 k-point     5 :      -0.4375    0.0625    0.0625
  band No.  band energies     occupation 
      1      -2.5309      2.00000
      2       0.0707      2.00000
      3       6.2494      2.00000
      4       6.5002      2.00000
      5      10.5183      0.00000
      6      11.1519      0.00000
      7      11.4375      0.00000
      8      16.2252      0.00000

 k-point     6 :      -0.3125    0.0625    0.0625
  band No.  band energies     occupation 
      1      -3.5357      2.00000
      2       1.6543      2.00000
      3       6.4956      2.00000
      4       6.5953      2.00000
      5      10.6260      0.00000
      6      11.2748      0.00000
      7      11.8391      0.00000
      8      15.3581      0.00000

 k-point     7 :      -0.1875    0.0625    0.0625
  band No.  band energies     occupation 
      1      -4.5750      2.00000
      2       4.0875      2.00000
      3       6.7926      2.00000
      4       7.1291      2.00000
      5      10.7991      0.00000
      6      11.4718      0.00000
      7      12.1318      0.00000
      8      14.0049      0.00000

 k-point     8 :      -0.0625    0.0625    0.0625
  band No.  band energies     occupation 
      1      -5.2073      2.00000
      2       6.6696      2.00000
      3       7.3548      2.00000
      4       7.6341      1.99830
      5      10.4475      0.00000
      6      11.3736      0.00000
      7      11.5043      0.00000
      8      14.2004      0.00000

 k-point     9 :       0.1875    0.1875    0.0625
  band No.  band energies     occupation 
      1      -4.8870      2.00000
      2       5.7805      2.00000
      3       6.6720      2.00000
      4       6.8921      2.00000
      5       9.9297      0.00000
      6      12.3644      0.00000
      7      12.5314      0.00000
      8      12.9769      0.00000

 k-point    10 :       0.3125    0.1875    0.0625
  band No.  band energies     occupation 
      1      -4.2572      2.00000
      2       4.0942      2.00000
      3       5.5250      2.00000
      4       6.5574      2.00000
      5      10.1260      0.00000
      6      12.1866      0.00000
      7      12.7283      0.00000
      8      13.4324      0.00000

 k-point    11 :       0.4375    0.1875    0.0625
  band No.  band energies     occupation 
      1      -3.2215      2.00000
      2       1.8235      2.00000
      3       5.0498      2.00000
      4       6.0157      2.00000
      5      10.3086      0.00000
      6      12.1241      0.00000
      7      13.3099      0.00000
      8      13.6333      0.00000

 k-point    12 :      -0.4375    0.1875    0.0625
  band No.  band energies     occupation 
      1      -2.2149      2.00000
      2       0.2782      2.00000
      3       4.7389      2.00000
      4       5.8861      2.00000
      5      10.4357      0.00000
      6      11.6620      0.00000
      7      13.1759      0.00000
      8      15.9502      0.00000

 k-point    13 :      -0.3125    0.1875    0.0625
  band No.  band energies     occupation 
      1      -2.8328      2.00000
      2       1.1746      2.00000
      3       4.6008      2.00000
      4       6.2565      2.00000
      5      10.9258      0.00000
      6      11.4302      0.00000
      7      13.1478      0.00000
      8      14.9688      0.00000

 k-point    14 :      -0.1875    0.1875    0.0625
  band No.  band energies     occupation 
      1      -3.9549      2.00000
      2       3.3104      2.00000
      3       4.8481      2.00000
      4       6.9003      2.00000
      5      11.2549      0.00000
      6      11.6508      0.00000
      7      13.0803      0.00000
      8      13.2183      0.00000

 k-point    15 :      -0.0625    0.1875    0.0625
  band No.  band energies     occupation 
      1      -4.7300      2.00000
      2       4.9487      2.00000
      3       6.2071      2.00000
      4       7.3670      2.00000
      5      10.6483      0.00000
      6      11.8623      0.00000
      7      12.2877      0.00000
      8      13.4191      0.00000

 k-point    16 :       0.3125    0.3125    0.0625
  band No.  band energies     occupation 
      1      -3.7802      2.00000
      2       3.7135      2.00000
      3       5.3482      2.00000
      4       5.4934      2.00000
      5       8.9201      0.00000
      6      10.5281      0.00000
      7      14.8157      0.00000
      8      14.8374      0.00000

 k-point    17 :       0.4375    0.3125    0.0625
  band No.  band energies     occupation 
      1      -2.8707      2.00000
      2       2.2735      2.00000
      3       4.3620      2.00000
      4       5.0512      2.00000
      5       9.2441      0.00000
      6      10.4246      0.00000
      7      14.6953      0.00000
      8      16.0196      0.00000

 k-point    18 :      -0.4375    0.3125    0.0625
  band No.  band energies     occupation 
      1      -1.7311      2.00000
      2       0.7582      2.00000
      3       3.3381      2.00000
      4       5.0194      2.00000
      5       9.4468      0.00000
      6      12.3981      0.00000
      7      14.1709      0.00000
      8      15.9842      0.00000

 k-point    19 :      -0.3125    0.3125    0.0625
  band No.  band energies     occupation 
      1      -1.8005      2.00000
      2       0.8608      2.00000
      3       2.8677      2.00000
      4       5.4533      2.00000
      5       9.9580      0.00000
      6      13.4049      0.00000
      7      14.7596      0.00000
      8      15.2317      0.00000

 k-point    20 :      -0.1875    0.3125    0.0625
  band No.  band energies     occupation 
      1      -2.9307      2.00000
      2       1.9213      2.00000
      3       3.6666      2.00000
      4       6.1922      2.00000
      5      10.8258      0.00000
      6      12.2035      0.00000
      7      13.8086      0.00000
      8      14.1464      0.00000

 k-point    21 :      -0.0625    0.3125    0.0625
  band No.  band energies     occupation 
      1      -3.8129      2.00000
      2       2.4743      2.00000
      3       5.7490      2.00000
      4       6.7916      2.00000
      5      10.8588      0.00000
      6      11.5374      0.00000
      7      12.3967      0.00000
      8      14.1373      0.00000

 k-point    22 :       0.4375    0.4375    0.0625
  band No.  band energies     occupation 
      1      -2.0934      2.00000
      2       1.2814      2.00000
      3       4.4943      2.00000
      4       4.7965      2.00000
      5       8.3599      0.04626
      6       9.0426      0.00000
      7      17.2683      0.00000
      8      17.4489      0.00000

 k-point    23 :      -0.4375    0.4375    0.0625
  band No.  band energies     occupation 
      1      -0.9787      2.00000
      2       0.1133      2.00000
      3       3.7516      2.00000
      4       4.4635      2.00000
      5       8.8238      0.00000
      6       9.6971      0.00000
      7      16.9909      0.00000
      8      18.2640      0.00000

 k-point    24 :      -0.3125    0.4375    0.0625
  band No.  band energies     occupation 
      1      -1.0141      2.00000
      2       0.2577      2.00000
      3       2.7982      2.00000
      4       4.8491      2.00000
      5       9.2655      0.00000
      6      12.2657      0.00000
      7      15.2414      0.00000
      8      16.5160      0.00000

 k-point    25 :      -0.1875    0.4375    0.0625
  band No.  band energies     occupation 
      1      -1.9119      2.00000
      2       0.4458      2.00000
      3       3.7095      2.00000
      4       5.5932      2.00000
      5      10.1219      0.00000
      6      12.4940      0.00000
      7      14.2452      0.00000
      8      15.7946      0.00000

 k-point    26 :      -0.0625    0.4375    0.0625
  band No.  band energies     occupation 
      1      -2.6708      2.00000
      2       0.4861      2.00000
      3       5.6033      2.00000
      4       6.3617      2.00000
      5      10.8119      0.00000
      6      11.0830      0.00000
      7      12.1261      0.00000
      8      16.1724      0.00000

 k-point    27 :      -0.4375   -0.4375    0.0625
  band No.  band energies     occupation 
      1      -1.0603      2.00000
      2       0.0757      2.00000
      3       4.3290      2.00000
      4       4.6547      2.00000
      5       8.2886      0.13642
      6       8.7043      0.00001
      7      18.5630      0.00000
      8      18.7964      0.00000

 k-point    28 :      -0.3125   -0.4375    0.0625
  band No.  band energies     occupation 
      1      -1.9779      2.00000
      2       1.2158      2.00000
      3       3.9591      2.00000
      4       4.6498      2.00000
      5       8.9667      0.00000
      6       9.9363      0.00000
      7      15.7956      0.00000
      8      17.3683      0.00000

 k-point    29 :      -0.1875   -0.4375    0.0625
  band No.  band energies     occupation 
      1      -2.5132      2.00000
      2       1.2680      2.00000
      3       4.1954      2.00000
      4       5.3874      2.00000
      5       9.8031      0.00000
      6      12.5440      0.00000
      7      13.3734      0.00000
      8      14.7055      0.00000

 k-point    30 :      -0.3125   -0.3125    0.0625
  band No.  band energies     occupation 
      1      -3.0049      2.00000
      2       2.5147      2.00000
      3       4.8301      2.00000
      4       5.0779      2.00000
      5       8.5690      0.00052
      6       9.6545      0.00000
      7      16.0344      0.00000
      8      16.1184      0.00000

 k-point    31 :      -0.1875   -0.3125    0.0625
  band No.  band energies     occupation 
      1      -3.6348      2.00000
      2       3.2256      2.00000
      3       4.9040      2.00000
      4       5.7091      2.00000
      5       9.6398      0.00000
      6      11.1755      0.00000
      7      13.6775      0.00000
      8      14.6970      0.00000

 k-point    32 :      -0.1875   -0.1875    0.0625
  band No.  band energies     occupation 
      1      -4.4098      2.00000
      2       4.8094      2.00000
      3       6.0325      2.00000
      4       6.0570      2.00000
      5       9.3900      0.00000
      6      11.6546      0.00000
      7      13.5538      0.00000
      8      13.6656      0.00000

 k-point    33 :       0.1875    0.1875    0.1875
  band No.  band energies     occupation 
      1      -4.8895      2.00000
      2       4.9543      2.00000
      3       7.3740      2.00000
      4       7.3740      2.00000
      5      10.8370      0.00000
      6      11.4921      0.00000
      7      11.4921      0.00000
      8      15.0317      0.00000

 k-point    34 :       0.3125    0.1875    0.1875
  band No.  band energies     occupation 
      1      -4.4179      2.00000
      2       4.1025      2.00000
      3       5.5147      2.00000
      4       7.4470      1.99999
      5      11.4893      0.00000
      6      11.6011      0.00000
      7      12.0083      0.00000
      8      14.0420      0.00000

 k-point    35 :       0.4375    0.1875    0.1875
  band No.  band energies     occupation 
      1      -3.5089      2.00000
      2       2.5774      2.00000
      3       4.2043      2.00000
      4       6.8241      2.00000
      5      10.9298      0.00000
      6      12.4387      0.00000
      7      12.8288      0.00000
      8      14.2326      0.00000

 k-point    36 :      -0.4375    0.1875    0.1875
  band No.  band energies     occupation 
      1      -2.3679      2.00000
      2       0.6902      2.00000
      3       4.1306      2.00000
      4       6.1642      2.00000
      5      10.1655      0.00000
      6      12.6935      0.00000
      7      12.9393      0.00000
      8      16.3442      0.00000

 k-point    37 :      -0.3125    0.1875    0.1875
  band No.  band energies     occupation 
      1      -2.3531      2.00000
      2       0.6615      2.00000
      3       4.5284      2.00000
      4       5.7620      2.00000
      5       9.7522      0.00000
      6      12.9924      0.00000
      7      13.0911      0.00000
      8      14.5668      0.00000

 k-point    38 :      -0.1875    0.1875    0.1875
  band No.  band energies     occupation 
      1      -3.4947      2.00000
      2       2.5645      2.00000
      3       5.2540      2.00000
      4       5.7114      2.00000
      5       9.6936      0.00000
      6      12.0488      0.00000
      7      13.5724      0.00000
      8      13.6649      0.00000

 k-point    39 :       0.3125    0.3125    0.1875
  band No.  band energies     occupation 
      1      -4.1078      2.00000
      2       3.2927      2.00000
      3       6.2142      2.00000
      4       6.2926      2.00000
      5      10.2957      0.00000
      6      12.3012      0.00000
      7      12.8575      0.00000
      8      12.9791      0.00000

 k-point    40 :       0.4375    0.3125    0.1875
  band No.  band energies     occupation 
      1      -3.3482      2.00000
      2       2.5708      2.00000
      3       4.2710      2.00000
      4       5.9927      2.00000
      5      10.7918      0.00000
      6      11.9210      0.00000
      7      12.6372      0.00000
      8      14.4522      0.00000

 k-point    41 :      -0.4375    0.3125    0.1875
  band No.  band energies     occupation 
      1      -2.2408      2.00000
      2       1.3317      2.00000
      3       3.2713      2.00000
      4       5.2438      2.00000
      5      11.1868      0.00000
      6      11.9148      0.00000
      7      13.3498      0.00000
      8      15.6208      0.00000

 k-point    42 :      -0.3125    0.3125    0.1875
  band No.  band energies     occupation 
      1      -1.5985      2.00000
      2       0.5148      2.00000
      3       3.3435      2.00000
      4       4.8319      2.00000
      5      10.6461      0.00000
      6      12.2505      0.00000
      7      14.1785      0.00000
      8      15.8791      0.00000

 k-point    43 :      -0.1875    0.3125    0.1875
  band No.  band energies     occupation 
      1      -2.6099      2.00000
      2       1.8390      2.00000
      3       3.8034      2.00000
      4       5.0683      2.00000
      5      10.3948      0.00000
      6      11.5692      0.00000
      7      13.1518      0.00000
      8      15.8761      0.00000

 k-point    44 :       0.4375    0.4375    0.1875
  band No.  band energies     occupation 
      1      -2.7469      2.00000
      2       1.8483      2.00000
      3       4.2596      2.00000
      4       5.3174      2.00000
      5       9.1718      0.00000
      6      11.4595      0.00000
      7      14.5769      0.00000
      8      14.8341      0.00000

 k-point    45 :      -0.4375    0.4375    0.1875
  band No.  band energies     occupation 
      1      -1.7610      2.00000
      2       1.0429      2.00000
      3       3.4547      2.00000
      4       4.3770      2.00000
      5      10.1115      0.00000
      6      11.2053      0.00000
      7      14.0764      0.00000
      8      17.2187      0.00000

 k-point    46 :      -0.3125    0.4375    0.1875
  band No.  band energies     occupation 
      1      -0.7342      2.00000
      2       0.1768      2.00000
      3       2.9954      2.00000
      4       3.7246      2.00000
      5      11.3554      0.00000
      6      12.3187      0.00000
      7      13.6350      0.00000
      8      14.6695      0.00000

 k-point    47 :      -0.1875    0.4375    0.1875
  band No.  band energies     occupation 
      1      -1.4779      2.00000
      2       0.7640      2.00000
      3       3.0457      2.00000
      4       4.3296      2.00000
      5      11.4181      0.00000
      6      12.0471      0.00000
      7      13.1720      0.00000
      8      15.8736      0.00000

 k-point    48 :      -0.4375   -0.4375    0.1875
  band No.  band energies     occupation 
      1      -0.9662      2.00000
      2       0.1534      2.00000
      3       3.1375      2.00000
      4       4.9117      2.00000
      5       8.6104      0.00017
      6      10.8928      0.00000
      7      16.7668      0.00000
      8      17.3942      0.00000

 k-point    49 :      -0.3125   -0.4375    0.1875
  band No.  band energies     occupation 
      1      -0.8460      2.00000
      2       0.1580      2.00000
      3       3.2559      2.00000
      4       4.0359      2.00000
      5       9.9648      0.00000
      6      11.0192      0.00000
      7      15.1749      0.00000
      8      16.4086      0.00000

 k-point    50 :      -0.3125   -0.3125    0.1875
  band No.  band energies     occupation 
      1      -1.8849      2.00000
      2       1.0497      2.00000
      3       3.5132      2.00000
      4       5.0480      2.00000
      5       8.8008      0.00000
      6      11.0788      0.00000
      7      15.6106      0.00000
      8      16.1295      0.00000

 k-point    51 :       0.3125    0.3125    0.3125
  band No.  band energies     occupation 
      1      -3.9704      2.00000
      2       2.3851      2.00000
      3       6.9073      2.00000
      4       6.9073      2.00000
      5      10.4928      0.00000
      6      11.5451      0.00000
      7      11.5451      0.00000
      8      15.9682      0.00000

 k-point    52 :       0.4375    0.3125    0.3125
  band No.  band energies     occupation 
      1      -3.3815      2.00000
      2       1.7567      2.00000
      3       5.1762      2.00000
      4       6.8160      2.00000
      5      10.9278      0.00000
      6      11.8298      0.00000
      7      11.9781      0.00000
      8      15.2998      0.00000

 k-point    53 :      -0.4375    0.3125    0.3125
  band No.  band energies     occupation 
      1      -2.4022      2.00000
      2       1.3440      2.00000
      3       3.1798      2.00000
      4       6.0799      2.00000
      5      10.0164      0.00000
      6      13.5883      0.00000
      7      13.9126      0.00000
      8      15.0908      0.00000

 k-point    54 :      -0.3125    0.3125    0.3125
  band No.  band energies     occupation 
      1      -1.3576      2.00000
      2       0.4916      2.00000
      3       2.6809      2.00000
      4       5.4047      2.00000
      5       9.1976      0.00000
      6      13.5728      0.00000
      7      15.0469      0.00000
      8      15.9801      0.00000

 k-point    55 :       0.4375    0.4375    0.3125
  band No.  band energies     occupation 
      1      -2.9826      2.00000
      2       1.0710      2.00000
      3       5.6593      2.00000
      4       6.0955      2.00000
      5      10.2528      0.00000
      6      11.9948      0.00000
      7      12.3631      0.00000
      8      14.8249      0.00000

 k-point    56 :      -0.4375    0.4375    0.3125
  band No.  band energies     occupation 
      1      -2.2074      2.00000
      2       0.7514      2.00000
      3       4.0080      2.00000
      4       5.4533      2.00000
      5      10.9164      0.00000
      6      11.5159      0.00000
      7      14.2590      0.00000
      8      14.8102      0.00000

 k-point    57 :      -0.3125    0.4375    0.3125
  band No.  band energies     occupation 
      1      -1.1971      2.00000
      2       0.4691      2.00000
      3       2.7901      2.00000
      4       4.5451      2.00000
      5      10.4982      0.00000
      6      13.0263      0.00000
      7      14.1639      0.00000
      8      14.9060      0.00000

 k-point    58 :      -0.4375   -0.4375    0.3125
  band No.  band energies     occupation 
      1      -1.7463      2.00000
      2       0.4658      2.00000
      3       3.4468      2.00000
      4       5.5262      2.00000
      5       9.3860      0.00000
      6      13.5319      0.00000
      7      13.9993      0.00000
      8      14.9745      0.00000

 k-point    59 :       0.4375    0.4375    0.4375
  band No.  band energies     occupation 
      1      -2.8281      2.00000
      2       0.3745      2.00000
      3       6.6666      2.00000
      4       6.6666      2.00000
      5      10.2731      0.00000
      6      11.2368      0.00000
      7      11.2368      0.00000
      8      16.0096      0.00000

 k-point    60 :      -0.4375    0.4375    0.4375
  band No.  band energies     occupation 
      1      -2.3737      2.00000
      2       0.1819      2.00000
      3       5.2544      2.00000
      4       6.3160      2.00000
      5      10.4210      0.00000
      6      11.8689      0.00000
      7      11.9421      0.00000
      8      16.8735      0.00000


--------------------------------------------------------------------------------------------------------


 soft charge-density along one line, spin component           1
         0         1         2         3         4         5         6         7         8         9
 total charge-density along one line
 
 pseudopotential strength for first ion, spin component:           1
 18.182  -0.003  -0.000  -0.000  -0.000   0.000   0.000   0.000
 -0.003   0.006   0.000   0.000   0.000  -0.000  -0.000  -0.000
 -0.000   0.000   4.158  -0.000  -0.000  -0.006   0.000   0.000
 -0.000   0.000  -0.000   4.158  -0.000   0.000  -0.006   0.000
 -0.000   0.000  -0.000  -0.000   4.158   0.000   0.000  -0.006
  0.000  -0.000  -0.006   0.000   0.000   0.005  -0.000  -0.000
  0.000  -0.000   0.000  -0.006   0.000  -0.000   0.005  -0.000
  0.000  -0.000   0.000   0.000  -0.006  -0.000  -0.000   0.005
 total augmentation occupancy for first ion, spin component:           1
  1.485  -1.082   0.000   0.000   0.000   0.000   0.000   0.000
 -1.082   1.262  -0.000   0.000   0.000   0.000   0.000   0.000
  0.000   0.000   1.179   0.000   0.000  -0.737   0.000   0.000
  0.000   0.000   0.000   1.179   0.000   0.000  -0.737  -0.000
  0.000   0.000   0.000   0.000   1.179  -0.000  -0.000  -0.737
 -0.000   0.000  -0.737   0.000   0.000   0.544   0.000   0.000
  0.000   0.000   0.000  -0.737   0.000   0.000   0.544  -0.000
  0.000   0.000   0.000   0.000  -0.737  -0.000   0.000   0.544


------------------------ aborting loop because EDIFF is reached ----------------------------------------


    CHARGE:  cpu time    0.0200: real time    0.0189
    FORLOC:  cpu time    0.0000: real time    0.0007
    FORNL :  cpu time    0.0200: real time    0.0197
    STRESS:  cpu time    0.2280: real time    0.2278
    FORCOR:  cpu time    0.0120: real time    0.0142
    FORHAR:  cpu time    0.0040: real time    0.0037
    MIXING:  cpu time    0.0040: real time    0.0012
    OFIELD:  cpu time    0.0000: real time    0.0005

  FORCE on cell =-STRESS in cart. coord.  units (eV):
  Direction    XX          YY          ZZ          XY          YZ          ZX
  --------------------------------------------------------------------------------------
  Alpha Z     4.09446     4.09446     4.09446
  Ewald     -81.34423   -81.34423   -81.34423    -0.00000    -0.00000     0.00000
  Hartree     4.21623     4.21623     4.21623     0.00000     0.00000     0.00000
  E(xc)     -26.62499   -26.62499   -26.62499    -0.00000    -0.00000    -0.00000
  Local     -26.77180   -26.77180   -26.77180     0.00004     0.00004     0.00004
  n-local    82.66179    85.33431    80.25149     1.33180    -1.42359     0.05802
  augment   -11.87277   -11.87277   -11.87277    -0.00004    -0.00004    -0.00004
  Kinetic    63.95115    59.33315    62.09279     0.57892    -0.68901     0.04885
  Fock        0.00000     0.00000     0.00000     0.00000     0.00000     0.00000
  -------------------------------------------------------------------------------------
  Total       6.23845     6.23845     6.23845     0.00000     0.00000    -0.00000
  in kB     303.92801   303.92801   303.92801     0.00000     0.00000    -0.00000
  external pressure =      303.93 kB  Pullay stress =        0.00 kB


 VOLUME and BASIS-vectors are now :
 -----------------------------------------------------------------------------
  energy-cutoff  :      350.00
  volume of cell :       32.89
      direct lattice vectors                 reciprocal lattice vectors
     0.000000000  2.542898000  2.542898000    -0.196626054  0.196626054  0.196626054
     2.542898000  0.000000000  2.542898000     0.196626054 -0.196626054  0.196626054
     2.542898000  2.542898000  0.000000000     0.196626054  0.196626054 -0.196626054

  length of vectors
     3.596200839  3.596200839  3.596200839     0.340566316  0.340566316  0.340566316


 FORCES acting on ions
    electron-ion (+dipol)            ewald-force                    non-local-force                 convergence-correction
 -----------------------------------------------------------------------------------------------
   -.241E-05 -.241E-05 -.116E-05   0.964E-15 -.839E-15 0.461E-14   -.541E-17 -.888E-17 -.110E-16   -.183E-06 -.183E-06 -.183E-06
   0.241E-05 0.241E-05 0.116E-05   -.735E-15 0.889E-15 -.511E-14   0.378E-17 0.899E-17 0.105E-16   0.183E-06 0.183E-06 0.183E-06
 -----------------------------------------------------------------------------------------------
   0.431E-13 0.332E-13 0.103E-13   0.229E-15 0.495E-16 -.500E-15   -.163E-17 0.106E-18 -.433E-18   -.277E-14 -.121E-15 0.341E-14
 
 
 POSITION                                       TOTAL-FORCE (eV/Angst)
 -----------------------------------------------------------------------------------
      0.00000      0.00000      0.00000         0.000000      0.000000      0.000000
      1.27145      1.27145      1.27145        -0.000000     -0.000000     -0.000000
 -----------------------------------------------------------------------------------
    total drift:                                0.000000      0.000000      0.000000


--------------------------------------------------------------------------------------------------------



  FREE ENERGIE OF THE ION-ELECTRON SYSTEM (eV)
  ---------------------------------------------------
  free  energy   TOTEN  =       -10.21547509 eV

  energy  without entropy=      -10.21427474  energy(sigma->0) =      -10.21487491
 


--------------------------------------------------------------------------------------------------------


    POTLOK:  cpu time    0.0320: real time    0.0400


--------------------------------------------------------------------------------------------------------




--------------------------------------------------------------------------------------------------------


  
 reached required accuracy - stopping structural energy minimisation
 writing wavefunctions
     LOOP+:  cpu time    7.4240: real time    7.9380
    4ORBIT:  cpu time    0.0000: real time    0.0000

 total amount of memory used by VASP MPI-rank0    33104. kBytes
=======================================================================

   base      :      30000. kBytes
   nonl-proj :       2044. kBytes
   fftplans  :        160. kBytes
   grid      :        372. kBytes
   one-center:          6. kBytes
   wavefun   :        522. kBytes
 
  
  
 General timing and accounting informations for this job:
 ========================================================
  
                  Total CPU time used (sec):       12.596
                            User time (sec):       10.528
                          System time (sec):        2.068
                         Elapsed time (sec):       14.039
  
                   Maximum memory used (kb):        9516.
                   Average memory used (kb):           0.
  
                          Minor page faults:        38080
                          Major page faults:           23
                 Voluntary context switches:        30961
