unknown system                          
   1.00000000000000     
     0.000000    2.715000    2.715000
     2.715000    0.000000    2.715000
     2.715000    2.715000    0.000000
   Si
     2
Direct
  0.500000  0.500000  0.500000
  0.750000  0.750000  0.750000
 
   28   28   28
 0.88749939558E+00 0.91449681563E+00 0.99776430603E+00 0.11443809704E+01 0.13663979375E+01
 0.16796446435E+01 0.20999852692E+01 0.26369504200E+01 0.32861359016E+01 0.40225761779E+01
 0.47971909363E+01 0.55381488465E+01 0.61589990990E+01 0.65743999502E+01 0.67207421961E+01
 0.65743887633E+01 0.61590084571E+01 0.55381938901E+01 0.47972416756E+01 0.40225886080E+01
 0.32861014989E+01 0.26369024474E+01 0.20999603681E+01 0.16796498198E+01 0.13664149899E+01
 0.11443916627E+01 0.99776491738E+00 0.91449393307E+00 0.91449681563E+00 0.95999840767E+00
 0.10544845807E+01 0.12051321870E+01 0.14225397388E+01 0.17189503611E+01 0.21043682605E+01
 0.25809377746E+01 0.31370008383E+01 0.37427919680E+01 0.43496342714E+01 0.48940914761E+01
 0.53077859307E+01 0.55318114833E+01 0.55318118976E+01 0.53077959836E+01 0.48941174039E+01
 0.43496554845E+01 0.37427802226E+01 0.31369598816E+01 0.25809039076E+01 0.21043686365E+01
 0.17189757409E+01 0.14225633349E+01 0.12051420358E+01 0.10544878580E+01 0.96000248231E+00
 0.91449928983E+00 0.99776430603E+00 0.10544845807E+01 0.11536601382E+01 0.13021446118E+01
 0.15086456883E+01 0.17816260251E+01 0.21257210413E+01 0.25371811233E+01 0.29996384133E+01
 0.34819162351E+01 0.39393993244E+01 0.43197698289E+01 0.45727232475E+01 0.46615410670E+01
 0.45727260748E+01 0.43197737859E+01 0.39393948664E+01 0.34818949006E+01 0.29996109780E+01
 0.25371726822E+01 0.21257414915E+01 0.17816562224E+01 0.15086601841E+01 0.13021397491E+01
 0.11536518945E+01 0.10544849507E+01 0.99776926899E+00 0.97932115434E+00 0.11443809704E+01
 0.12051321870E+01 0.13021446118E+01 0.14416649695E+01 0.16303064275E+01 0.18729795741E+01
 0.21699240824E+01 0.25133273432E+01 0.28846714956E+01 0.32542398821E+01 0.35838628181E+01
 0.38330729480E+01 0.39675670167E+01 0.39675666831E+01 0.38330711573E+01 0.35838577185E+01
 0.32542323925E+01 0.28846693873E+01 0.25133387084E+01 0.21699438705E+01 0.18729905179E+01
 0.16302985011E+01 0.14416472222E+01 0.13021325882E+01 0.12051304422E+01 0.11443835731E+01
 0.11152331630E+01 0.11152318003E+01 0.13663979375E+01 0.14225397388E+01 0.15086456883E+01
 0.16303064275E+01 0.17922236202E+01 0.19964388323E+01 0.22401215552E+01 0.25133260221E+01
 0.27976512807E+01 0.30669044695E+01 0.32904417204E+01 0.34389163793E+01 0.34910114997E+01
 0.34389176296E+01 0.32904465861E+01 0.30669141275E+01 0.27976636896E+01 0.25133360217E+01
 0.22401217615E+01 0.19964249031E+01 0.17922025003E+01 0.16302941883E+01 0.15086507952E+01
 0.14225526687E+01 0.13664043238E+01 0.13351043679E+01 0.13250982079E+01 0.13351053901E+01
 0.16796446435E+01 0.17189503611E+01 0.17816260251E+01 0.18729795741E+01 0.19964388323E+01
 0.21522226688E+01 0.23359075006E+01 0.25371801734E+01 0.27394711326E+01 0.29212635143E+01
 0.30594585839E+01 0.31342874460E+01 0.31342898424E+01 0.30594659189E+01 0.29212730569E+01
 0.27394745809E+01 0.25371696291E+01 0.23358846363E+01 0.21521997109E+01 0.19964300113E+01
 0.18729909892E+01 0.17816509328E+01 0.17189732636E+01 0.16796533870E+01 0.16578146639E+01
 0.16483799741E+01 0.16483835586E+01 0.16578182538E+01 0.20999852692E+01 0.21043682605E+01
 0.21257210413E+01 0.21699240824E+01 0.22401215552E+01 0.23359075006E+01 0.24526269047E+01
 0.25809402598E+01 0.27071239518E+01 0.28146612734E+01 0.28873078954E+01 0.29130151788E+01
 0.28873141260E+01 0.28146630825E+01 0.27071094228E+01 0.25809088909E+01 0.24525947590E+01
 0.23358969707E+01 0.22401417317E+01 0.21699607368E+01 0.21257488706E+01 0.21043738658E+01
 0.20999758787E+01 0.21050346409E+01 0.21119409989E+01 0.21149582212E+01 0.21119449502E+01
 0.21050443914E+01 0.26369504200E+01 0.25809377746E+01 0.25371811233E+01 0.25133273432E+01
 0.25133260221E+01 0.25371801734E+01 0.25809402598E+01 0.26369534196E+01 0.26946434335E+01
 0.27421767361E+01 0.27690656701E+01 0.27690707524E+01 0.27421792318E+01 0.26946237030E+01
 0.26369155078E+01 0.25809138351E+01 0.25371912600E+01 0.25133702496E+01 0.25133724957E+01
 0.25371948018E+01 0.25809150955E+01 0.26369166661E+01 0.26946270103E+01 0.27421812959E+01
 0.27690685846E+01 0.27690625768E+01 0.27421762073E+01 0.26946429942E+01 0.32861359016E+01
 0.31370008383E+01 0.29996384133E+01 0.28846714956E+01 0.27976512807E+01 0.27394711326E+01
 0.27071239518E+01 0.26946434335E+01 0.26942879376E+01 0.26981542062E+01 0.27002070721E+01
 0.26981583051E+01 0.26942739411E+01 0.26946094372E+01 0.27071037304E+01 0.27394941525E+01
 0.27977031363E+01 0.28847081193E+01 0.29996321684E+01 0.31369630949E+01 0.32861000695E+01
 0.34316739120E+01 0.35552188942E+01 0.36385021814E+01 0.36679373971E+01 0.36384832485E+01
 0.35552027060E+01 0.34316830433E+01 0.40225761779E+01 0.37427919680E+01 0.34819162351E+01
 0.32542398821E+01 0.30669044695E+01 0.29212635143E+01 0.28146612734E+01 0.27421767361E+01
 0.26981542062E+01 0.26776189728E+01 0.26776173415E+01 0.26981393336E+01 0.27421439251E+01
 0.28146387120E+01 0.29212832278E+01 0.30669538679E+01 0.32542704382E+01 0.34819010917E+01
 0.37427533641E+01 0.40225525279E+01 0.42995230588E+01 0.45459526766E+01 0.47321893785E+01
 0.48327379842E+01 0.48327329805E+01 0.47321746592E+01 0.45459345480E+01 0.42995186982E+01
 0.47971909363E+01 0.43496342714E+01 0.39393993244E+01 0.35838628181E+01 0.32904417204E+01
 0.30594585839E+01 0.28873078954E+01 0.27690656701E+01 0.27002070721E+01 0.26776173415E+01
 0.27001845392E+01 0.27690261736E+01 0.28872783138E+01 0.30594712243E+01 0.32904916489E+01
 0.35839039510E+01 0.39393960878E+01 0.43496003902E+01 0.47971651636E+01 0.52532621356E+01
 0.56786802042E+01 0.60283475924E+01 0.62592452025E+01 0.63400490265E+01 0.62592480027E+01
 0.60283446428E+01 0.56786710505E+01 0.52532633403E+01 0.55381488465E+01 0.48940914761E+01
 0.43197698289E+01 0.38330729480E+01 0.34389163793E+01 0.31342874460E+01 0.29130151788E+01
 0.27690707524E+01 0.26981583051E+01 0.26981393336E+01 0.27690261736E+01 0.29129795129E+01
 0.31342973051E+01 0.34389734528E+01 0.38331336194E+01 0.43197862125E+01 0.48940580636E+01
 0.55380993791E+01 0.62174878665E+01 0.68809526079E+01 0.74647746369E+01 0.79023031856E+01
 0.81372730210E+01 0.81372640113E+01 0.79022831394E+01 0.74647590484E+01 0.68809566907E+01
 0.62175196884E+01 0.61589990990E+01 0.53077859307E+01 0.45727232475E+01 0.39675670167E+01
 0.34910114997E+01 0.31342898424E+01 0.28873141260E+01 0.27421792318E+01 0.26942739411E+01
 0.27421439251E+01 0.28872783138E+01 0.31342973051E+01 0.34910731540E+01 0.39676410006E+01
 0.45727486217E+01 0.53077400891E+01 0.61589156311E+01 0.70907705096E+01 0.80428521827E+01
 0.89324593525E+01 0.96645025813E+01 0.10148236259E+02 0.10317555807E+02 0.10148178581E+02
 0.96644263015E+01 0.89324124848E+01 0.80428631289E+01 0.70908361077E+01 0.65743999502E+01
 0.55318114833E+01 0.46615410670E+01 0.39675666831E+01 0.34389176296E+01 0.30594659189E+01
 0.28146630825E+01 0.26946237030E+01 0.26946094372E+01 0.28146387120E+01 0.30594712243E+01
 0.34389734528E+01 0.39676410006E+01 0.46615664336E+01 0.55317505264E+01 0.65742890682E+01
 0.77599140440E+01 0.90264277902E+01 0.10277303853E+02 0.11389036206E+02 0.12228973218E+02
 0.12682494634E+02 0.12682464949E+02 0.12228893697E+02 0.11388936361E+02 0.10277230929E+02
 0.90264280918E+01 0.77599957234E+01 0.67207421961E+01 0.55318118976E+01 0.45727260748E+01
 0.38330711573E+01 0.32904465861E+01 0.29212730569E+01 0.27071094228E+01 0.26369155078E+01
 0.27071037304E+01 0.29212832278E+01 0.32904916489E+01 0.38331336194E+01 0.45727486217E+01
 0.55317505264E+01 0.67206277151E+01 0.81243992246E+01 0.96900313508E+01 0.11318820348E+02
 0.12867417819E+02 0.14161779367E+02 0.15027083974E+02 0.15331240828E+02 0.15027103876E+02
 0.14161764421E+02 0.12867336322E+02 0.11318721202E+02 0.96900034681E+01 0.81244743558E+01
 0.65743887633E+01 0.53077959836E+01 0.43197737859E+01 0.35838577185E+01 0.30669141275E+01
 0.27394745809E+01 0.25809088909E+01 0.25809138351E+01 0.27394941525E+01 0.30669538679E+01
 0.35839039510E+01 0.43197862125E+01 0.53077400891E+01 0.65742890682E+01 0.81243992246E+01
 0.99249215918E+01 0.11890395126E+02 0.13875073294E+02 0.15675727934E+02 0.17045603759E+02
 0.17781771235E+02 0.17781840850E+02 0.17045736899E+02 0.15675781359E+02 0.13874991636E+02
 0.11890263349E+02 0.99248651963E+01 0.81244555421E+01 0.61590084571E+01 0.48941174039E+01
 0.39393948664E+01 0.32542323925E+01 0.27976636896E+01 0.25371696291E+01 0.24525947590E+01
 0.25371912600E+01 0.27977031363E+01 0.32542704382E+01 0.39393960878E+01 0.48940580636E+01
 0.61589156311E+01 0.77599140440E+01 0.96900313508E+01 0.11890395126E+02 0.14233775461E+02
 0.16509373898E+02 0.18409541793E+02 0.19660573309E+02 0.20095997526E+02 0.19660741214E+02
 0.18409725051E+02 0.16509417298E+02 0.14233662566E+02 0.11890243236E+02 0.96899657241E+01
 0.77599612358E+01 0.55381938901E+01 0.43496554845E+01 0.34818949006E+01 0.28846693873E+01
 0.25133360217E+01 0.23358846363E+01 0.23358969707E+01 0.25133702496E+01 0.28847081193E+01
 0.34819010917E+01 0.43496003902E+01 0.55380993791E+01 0.70907705096E+01 0.90264277902E+01
 0.11318820348E+02 0.13875073294E+02 0.16509373898E+02 0.18891171847E+02 0.20678346781E+02
 0.21632033873E+02 0.21632130623E+02 0.20678556462E+02 0.18891326157E+02 0.16509364013E+02
 0.13874931373E+02 0.11318672374E+02 0.90263786944E+01 0.70908287954E+01 0.47972416756E+01
 0.37427802226E+01 0.29996109780E+01 0.25133387084E+01 0.22401217615E+01 0.21521997109E+01
 0.22401417317E+01 0.25133724957E+01 0.29996321684E+01 0.37427533641E+01 0.47971651636E+01
 0.62174878665E+01 0.80428521827E+01 0.10277303853E+02 0.12867417819E+02 0.15675727934E+02
 0.18409541793E+02 0.20678346781E+02 0.22169620579E+02 0.22688737902E+02 0.22169800101E+02
 0.20678565736E+02 0.18409642454E+02 0.15675660713E+02 0.12867261881E+02 0.10277184322E+02
 0.80428392537E+01 0.62175579364E+01 0.40225886080E+01 0.31369598816E+01 0.25371726822E+01
 0.21699438705E+01 0.19964249031E+01 0.19964300113E+01 0.21699607368E+01 0.25371948018E+01
 0.31369630949E+01 0.40225525279E+01 0.52532621356E+01 0.68809526079E+01 0.89324593525E+01
 0.11389036206E+02 0.14161779367E+02 0.17045603759E+02 0.19660573309E+02 0.21632033873E+02
 0.22688737902E+02 0.22688840852E+02 0.21632258097E+02 0.19660745761E+02 0.17045617222E+02
 0.14161664528E+02 0.11388904759E+02 0.89324005011E+01 0.68809774312E+01 0.52533204191E+01
 0.32861014989E+01 0.25809039076E+01 0.21257414915E+01 0.18729905179E+01 0.17922025003E+01
 0.18729909892E+01 0.21257488706E+01 0.25809150955E+01 0.32861000695E+01 0.42995230588E+01
 0.56786802042E+01 0.74647746369E+01 0.96645025813E+01 0.12228973218E+02 0.15027083974E+02
 0.17781771235E+02 0.20095997526E+02 0.21632130623E+02 0.22169800101E+02 0.21632258097E+02
 0.20096135018E+02 0.17781808406E+02 0.15027017510E+02 0.12228882345E+02 0.96644577843E+01
 0.74647868496E+01 0.56787169407E+01 0.42995485310E+01 0.26369024474E+01 0.21043686365E+01
 0.17816562224E+01 0.16302985011E+01 0.16302941883E+01 0.17816509328E+01 0.21043738658E+01
 0.26369166661E+01 0.34316739120E+01 0.45459526766E+01 0.60283475924E+01 0.79023031856E+01
 0.10148236259E+02 0.12682494634E+02 0.15331240828E+02 0.17781840850E+02 0.19660741214E+02
 0.20678556462E+02 0.20678565736E+02 0.19660745761E+02 0.17781808406E+02 0.15331184197E+02
 0.12682460574E+02 0.10148249445E+02 0.79023443567E+01 0.60283827012E+01 0.45459641314E+01
 0.34316650838E+01 0.20999603681E+01 0.17189757409E+01 0.15086601841E+01 0.14416472222E+01
 0.15086507952E+01 0.17189732636E+01 0.20999758787E+01 0.26946270103E+01 0.35552188942E+01
 0.47321893785E+01 0.62592452025E+01 0.81372730210E+01 0.10317555807E+02 0.12682464949E+02
 0.15027103876E+02 0.17045736899E+02 0.18409725051E+02 0.18891326157E+02 0.18409642454E+02
 0.17045617222E+02 0.15027017510E+02 0.12682460574E+02 0.10317621313E+02 0.81373508764E+01
 0.62592875523E+01 0.47321890363E+01 0.35551943391E+01 0.26945990466E+01 0.16796498198E+01
 0.14225633349E+01 0.13021397491E+01 0.13021325882E+01 0.14225526687E+01 0.16796533870E+01
 0.21050346409E+01 0.27421812959E+01 0.36385021814E+01 0.48327379842E+01 0.63400490265E+01
 0.81372640113E+01 0.10148178581E+02 0.12228893697E+02 0.14161764421E+02 0.15675781359E+02
 0.16509417298E+02 0.16509364013E+02 0.15675660713E+02 0.14161664528E+02 0.12228882345E+02
 0.10148249445E+02 0.81373508764E+01 0.63400926765E+01 0.48327304022E+01 0.36384694187E+01
 0.27421472480E+01 0.21050122328E+01 0.13664149899E+01 0.12051420358E+01 0.11536518945E+01
 0.12051304422E+01 0.13664043238E+01 0.16578146639E+01 0.21119409989E+01 0.27690685846E+01
 0.36679373971E+01 0.48327329805E+01 0.62592480027E+01 0.79022831394E+01 0.96644263015E+01
 0.11388936361E+02 0.12867336322E+02 0.13874991636E+02 0.14233662566E+02 0.13874931373E+02
 0.12867261881E+02 0.11388904759E+02 0.96644577843E+01 0.79023443567E+01 0.62592875523E+01
 0.48327304022E+01 0.36679104997E+01 0.27690424460E+01 0.21119267039E+01 0.16578140372E+01
 0.11443916627E+01 0.10544878580E+01 0.10544849507E+01 0.11443835731E+01 0.13351043679E+01
 0.16483799741E+01 0.21149582212E+01 0.27690625768E+01 0.36384832485E+01 0.47321746592E+01
 0.60283446428E+01 0.74647590484E+01 0.89324124848E+01 0.10277230929E+02 0.11318721202E+02
 0.11890263349E+02 0.11890243236E+02 0.11318672374E+02 0.10277184322E+02 0.89324005011E+01
 0.74647868496E+01 0.60283827012E+01 0.47321890363E+01 0.36384694187E+01 0.27690424460E+01
 0.21149508972E+01 0.16483861333E+01 0.13351149441E+01 0.99776491738E+00 0.96000248231E+00
 0.99776926899E+00 0.11152331630E+01 0.13250982079E+01 0.16483835586E+01 0.21119449502E+01
 0.27421762073E+01 0.35552027060E+01 0.45459345480E+01 0.56786710505E+01 0.68809566907E+01
 0.80428631289E+01 0.90264280918E+01 0.96900034681E+01 0.99248651963E+01 0.96899657241E+01
 0.90263786944E+01 0.80428392537E+01 0.68809774312E+01 0.56787169407E+01 0.45459641314E+01
 0.35551943391E+01 0.27421472480E+01 0.21119267039E+01 0.16483861333E+01 0.13251071870E+01
 0.11152342701E+01 0.91449393307E+00 0.91449928983E+00 0.97932115434E+00 0.11152318003E+01
 0.13351053901E+01 0.16578182538E+01 0.21050443914E+01 0.26946429942E+01 0.34316830433E+01
 0.42995186982E+01 0.52532633403E+01 0.62175196884E+01 0.70908361077E+01 0.77599957234E+01
 0.81244743558E+01 0.81244555421E+01 0.77599612358E+01 0.70908287954E+01 0.62175579364E+01
 0.52533204191E+01 0.42995485310E+01 0.34316650838E+01 0.26945990466E+01 0.21050122328E+01
 0.16578140372E+01 0.13351149441E+01 0.11152342701E+01 0.97931330762E+00 0.91449770601E+00
 0.95999996778E+00 0.10544857192E+01 0.12051329969E+01 0.14225410806E+01 0.17189520413E+01
 0.21043693074E+01 0.25809381276E+01 0.31370010367E+01 0.37427915666E+01 0.43496323744E+01
 0.48940885683E+01 0.53077834858E+01 0.55318100686E+01 0.55318112829E+01 0.53077966254E+01
 0.48941199572E+01 0.43496591253E+01 0.37427832091E+01 0.31369615502E+01 0.25809045669E+01
 0.21043680089E+01 0.17189733411E+01 0.14225600441E+01 0.12051394812E+01 0.10544864365E+01
 0.96000157815E+00 0.91449899909E+00 0.95999996778E+00 0.10152385787E+01 0.11116212565E+01
 0.12556557076E+01 0.14557621670E+01 0.17202437873E+01 0.20537273364E+01 0.24526260040E+01
 0.29009772297E+01 0.33683809731E+01 0.38114761378E+01 0.41796199999E+01 0.44242939281E+01
 0.45101755613E+01 0.44243001699E+01 0.41796325588E+01 0.38114813420E+01 0.33683601871E+01
 0.29009365712E+01 0.24525991455E+01 0.20537379916E+01 0.17202780048E+01 0.14557882561E+01
 0.12556614490E+01 0.11116195741E+01 0.10152428050E+01 0.96000707611E+00 0.94201424234E+00
 0.10544857192E+01 0.11116212565E+01 0.12024766803E+01 0.13328008189E+01 0.15089409978E+01
 0.17358183344E+01 0.20139187721E+01 0.23359096360E+01 0.26841281073E+01 0.30303387228E+01
 0.33386226007E+01 0.35713009570E+01 0.36967161397E+01 0.36967175549E+01 0.35713014050E+01
 0.33386130145E+01 0.30303145928E+01 0.26841012139E+01 0.23359023299E+01 0.20139395552E+01
 0.17358493392E+01 0.15089572311E+01 0.13327967688E+01 0.12024666634E+01 0.11116184796E+01
 0.10544897124E+01 0.10269665754E+01 0.10269638367E+01 0.12051329969E+01 0.12556557076E+01
 0.13328008189E+01 0.14417460865E+01 0.15871664840E+01 0.17714030324E+01 0.19921307166E+01
 0.22401237028E+01 0.24981547975E+01 0.27419948400E+01 0.29438306735E+01 0.30775243539E+01
 0.31243590723E+01 0.30775250739E+01 0.29438252456E+01 0.27419821461E+01 0.24981465592E+01
 0.22401327469E+01 0.19921528811E+01 0.17714184391E+01 0.15871621176E+01 0.14417302346E+01
 0.13327899369E+01 0.12556540622E+01 0.12051334388E+01 0.11767870809E+01 0.11676799876E+01
 0.11767882195E+01 0.14225410806E+01 0.14557621670E+01 0.15089409978E+01 0.15871664840E+01
 0.16940712420E+01 0.18303377011E+01 0.19921299021E+01 0.21699240886E+01 0.23484590810E+01
 0.25083601945E+01 0.26294107256E+01 0.26947440082E+01 0.26947459206E+01 0.26294129732E+01
 0.25083589879E+01 0.23484586594E+01 0.21699308763E+01 0.19921398647E+01 0.18303381411E+01
 0.16940580394E+01 0.15871522641E+01 0.15089400677E+01 0.14557721843E+01 0.14225477239E+01
 0.14040304671E+01 0.13959671717E+01 0.13959702625E+01 0.14040329894E+01 0.17189520413E+01
 0.17202437873E+01 0.17358183344E+01 0.17714030324E+01 0.18303377011E+01 0.19125757499E+01
 0.20139183190E+01 0.21257217655E+01 0.22354889209E+01 0.23286329186E+01 0.23912705081E+01
 0.24133725548E+01 0.23912729464E+01 0.23286322295E+01 0.22354827962E+01 0.21257141010E+01
 0.20139125826E+01 0.19125713458E+01 0.18303348534E+01 0.17714056146E+01 0.17358280911E+01
 0.17202553181E+01 0.17189575587E+01 0.17250440805E+01 0.17319159466E+01 0.17347919859E+01
 0.17319201327E+01 0.17250462487E+01 0.21043693074E+01 0.20537273364E+01 0.20139187721E+01
 0.19921307166E+01 0.19921299021E+01 0.20139183190E+01 0.20537292963E+01 0.21043718058E+01
 0.21561409086E+01 0.21984863910E+01 0.22223115464E+01 0.22223116707E+01 0.21984821018E+01
 0.21561270191E+01 0.21043542388E+01 0.20537206411E+01 0.20139247300E+01 0.19921470529E+01
 0.19921489148E+01 0.20139281180E+01 0.20537229226E+01 0.21043564485E+01 0.21561302729E+01
 0.21984839732E+01 0.22223101883E+01 0.22223090161E+01 0.21984853264E+01 0.21561399200E+01
 0.25809381276E+01 0.24526260040E+01 0.23359096360E+01 0.22401237028E+01 0.21699240886E+01
 0.21257217655E+01 0.21043718058E+01 0.20999886421E+01 0.21050450655E+01 0.21119451285E+01
 0.21149594117E+01 0.21119400987E+01 0.21050297838E+01 0.20999706571E+01 0.21043714957E+01
 0.21257476386E+01 0.21699592602E+01 0.22401429037E+01 0.23359022875E+01 0.24526003074E+01
 0.25809113258E+01 0.27071105533E+01 0.28146645427E+01 0.28873132898E+01 0.29130106681E+01
 0.28873034710E+01 0.28146598565E+01 0.27071231929E+01 0.31370010367E+01 0.29009772297E+01
 0.26841281073E+01 0.24981547975E+01 0.23484590810E+01 0.22354889209E+01 0.21561409086E+01
 0.21050450655E+01 0.20758962487E+01 0.20630201476E+01 0.20630158350E+01 0.20758824070E+01
 0.21050299271E+01 0.21561472737E+01 0.22355272395E+01 0.23485032303E+01 0.24981649148E+01
 0.26840957270E+01 0.29009327010E+01 0.31369776707E+01 0.33735698027E+01 0.35861966555E+01
 0.37480656322E+01 0.38358436813E+01 0.38358379847E+01 0.37480501699E+01 0.35861788643E+01
 0.33735653071E+01 0.37427915666E+01 0.33683809731E+01 0.30303387228E+01 0.27419948400E+01
 0.25083601945E+01 0.23286329186E+01 0.21984863910E+01 0.21119451285E+01 0.20630201476E+01
 0.20472577980E+01 0.20630067565E+01 0.21119308487E+01 0.21984944734E+01 0.23286738301E+01
 0.25084060818E+01 0.27419990232E+01 0.30302901677E+01 0.33683226374E+01 0.37427732773E+01
 0.41300114891E+01 0.44961706976E+01 0.48006330119E+01 0.50033770406E+01 0.50746437931E+01
 0.50033790962E+01 0.48006193735E+01 0.44961367436E+01 0.41299856920E+01 0.43496323744E+01
 0.38114761378E+01 0.33386226007E+01 0.29438306735E+01 0.26294107256E+01 0.23912705081E+01
 0.22223115464E+01 0.21149594117E+01 0.20630158350E+01 0.20630067565E+01 0.21149451589E+01
 0.22223194763E+01 0.23913122855E+01 0.26294589224E+01 0.29438375179E+01 0.33385728158E+01
 0.38114112452E+01 0.43496088770E+01 0.49261395300E+01 0.54979557440E+01 0.60084238443E+01
 0.63954939149E+01 0.66049756964E+01 0.66049852349E+01 0.63955055962E+01 0.60084085017E+01
 0.54979133332E+01 0.49261103150E+01 0.48940885683E+01 0.41796199999E+01 0.35713009570E+01
 0.30775243539E+01 0.26947440082E+01 0.24133725548E+01 0.22223116707E+01 0.21119400987E+01
 0.20758824070E+01 0.21119308487E+01 0.22223194763E+01 0.24134140572E+01 0.26947953215E+01
 0.30775367896E+01 0.35712536333E+01 0.41795489013E+01 0.48940525070E+01 0.56881607231E+01
 0.65124945960E+01 0.72948425913E+01 0.79474946148E+01 0.83831789124E+01 0.85365326715E+01
 0.83831912400E+01 0.79474962507E+01 0.72948135671E+01 0.65124478028E+01 0.56881398471E+01
 0.53077834858E+01 0.44242939281E+01 0.36967161397E+01 0.31243590723E+01 0.26947459206E+01
 0.23912729464E+01 0.21984821018E+01 0.21050297838E+01 0.21050299271E+01 0.21984944734E+01
 0.23913122855E+01 0.26947953215E+01 0.31243729146E+01 0.36966670284E+01 0.44242108767E+01
 0.53077310404E+01 0.63270430208E+01 0.74327368409E+01 0.85418444725E+01 0.95416688555E+01
 0.10305666602E+02 0.10721208277E+02 0.10721219939E+02 0.10305684015E+02 0.95416571881E+01
 0.85417909192E+01 0.74326742490E+01 0.63270266208E+01 0.55318100686E+01 0.45101755613E+01
 0.36967175549E+01 0.30775250739E+01 0.26294129732E+01 0.23286322295E+01 0.21561270191E+01
 0.20999706571E+01 0.21561472737E+01 0.23286738301E+01 0.26294589224E+01 0.30775367896E+01
 0.36966670284E+01 0.45100842402E+01 0.55317452130E+01 0.67547100558E+01 0.81386869550E+01
 0.95999515065E+01 0.11008517155E+02 0.12199273790E+02 0.13002030190E+02 0.13286093428E+02
 0.13002099528E+02 0.12199338616E+02 0.11008504437E+02 0.95998621238E+01 0.81385947222E+01
 0.67546911381E+01 0.55318112829E+01 0.44243001699E+01 0.35713014050E+01 0.29438252456E+01
 0.25083589879E+01 0.22354827962E+01 0.21043542388E+01 0.21043714957E+01 0.22355272395E+01
 0.25084060818E+01 0.29438375179E+01 0.35712536333E+01 0.44242108767E+01 0.55317452130E+01
 0.69054194062E+01 0.85235021199E+01 0.10314962597E+02 0.12147795762E+02 0.13830042909E+02
 0.15134465764E+02 0.15850825883E+02 0.15850909923E+02 0.15134643097E+02 0.13830161880E+02
 0.12147768414E+02 0.10314831455E+02 0.85233830079E+01 0.69053953236E+01 0.53077966254E+01
 0.41796325588E+01 0.33386130145E+01 0.27419821461E+01 0.23484586594E+01 0.21257141010E+01
 0.20537206411E+01 0.21257476386E+01 0.23485032303E+01 0.27419990232E+01 0.33385728158E+01
 0.41795489013E+01 0.53077310404E+01 0.67547100558E+01 0.85235021199E+01 0.10568245645E+02
 0.12774048523E+02 0.14944649264E+02 0.16812960176E+02 0.18089467490E+02 0.18544378370E+02
 0.18089652781E+02 0.16813185222E+02 0.14944753426E+02 0.12773984130E+02 0.10568091931E+02
 0.85233799601E+01 0.67546892173E+01 0.48941199572E+01 0.38114813420E+01 0.30303145928E+01
 0.24981465592E+01 0.21699308763E+01 0.20139125826E+01 0.20139247300E+01 0.21699592602E+01
 0.24981649148E+01 0.30302901677E+01 0.38114112452E+01 0.48940525070E+01 0.63270430208E+01
 0.81386869550E+01 0.10314962597E+02 0.12774048523E+02 0.15341926496E+02 0.17743784966E+02
 0.19633596065E+02 0.20677563808E+02 0.20677642432E+02 0.19633775466E+02 0.17743942504E+02
 0.15341967727E+02 0.12773966711E+02 0.10314829070E+02 0.81385943529E+01 0.63270415636E+01
 0.43496591253E+01 0.33683601871E+01 0.26841012139E+01 0.22401327469E+01 0.19921398647E+01
 0.19125713458E+01 0.19921470529E+01 0.22401429037E+01 0.26840957270E+01 0.33683226374E+01
 0.43496088770E+01 0.56881607231E+01 0.74327368409E+01 0.95999515065E+01 0.12147795762E+02
 0.14944649264E+02 0.17743784966E+02 0.20185524039E+02 0.21859294285E+02 0.22455055642E+02
 0.21859352391E+02 0.20185609263E+02 0.17743851704E+02 0.14944659751E+02 0.12147742951E+02
 0.95998716695E+01 0.74326887335E+01 0.56881747282E+01 0.37427832091E+01 0.29009365712E+01
 0.23359023299E+01 0.19921528811E+01 0.18303381411E+01 0.18303348534E+01 0.19921489148E+01
 0.23359022875E+01 0.29009327010E+01 0.37427732773E+01 0.49261395300E+01 0.65124945960E+01
 0.85418444725E+01 0.11008517155E+02 0.13830042909E+02 0.16812960176E+02 0.19633596065E+02
 0.21859294285E+02 0.23088455484E+02 0.23088448037E+02 0.21859282994E+02 0.19633602401E+02
 0.16812989761E+02 0.13830072387E+02 0.11008517605E+02 0.85418177134E+01 0.65124712169E+01
 0.49261387123E+01 0.31369615502E+01 0.24525991455E+01 0.20139395552E+01 0.17714184391E+01
 0.16940580394E+01 0.17714056146E+01 0.20139281180E+01 0.24526003074E+01 0.31369776707E+01
 0.41300114891E+01 0.54979557440E+01 0.72948425913E+01 0.95416688555E+01 0.12199273790E+02
 0.15134465764E+02 0.18089467490E+02 0.20677563808E+02 0.22455055642E+02 0.23088448037E+02
 0.22454989581E+02 0.20677481610E+02 0.18089432963E+02 0.15134503280E+02 0.12199345853E+02
 0.95417153325E+01 0.72948393224E+01 0.54979243342E+01 0.41299816949E+01 0.25809045669E+01
 0.20537379916E+01 0.17358493392E+01 0.15871621176E+01 0.15871522641E+01 0.17358280911E+01
 0.20537229226E+01 0.25809113258E+01 0.33735698027E+01 0.44961706976E+01 0.60084238443E+01
 0.79474946148E+01 0.10305666602E+02 0.13002030190E+02 0.15850825883E+02 0.18544378370E+02
 0.20677642432E+02 0.21859352391E+02 0.21859282994E+02 0.20677481610E+02 0.18544236535E+02
 0.15850796109E+02 0.13002114615E+02 0.10305781007E+02 0.79475520459E+01 0.60084070842E+01
 0.44961223916E+01 0.33735346385E+01 0.21043680089E+01 0.17202780048E+01 0.15089572311E+01
 0.14417302346E+01 0.15089400677E+01 0.17202553181E+01 0.21043564485E+01 0.27071105533E+01
 0.35861966555E+01 0.48006330119E+01 0.63954939149E+01 0.83831789124E+01 0.10721208277E+02
 0.13286093428E+02 0.15850909923E+02 0.18089652781E+02 0.19633775466E+02 0.20185609263E+02
 0.19633602401E+02 0.18089432963E+02 0.15850796109E+02 0.13286143471E+02 0.10721348565E+02
 0.83832863876E+01 0.63955084295E+01 0.48005858051E+01 0.35861493521E+01 0.27070945593E+01
 0.17189733411E+01 0.14557882561E+01 0.13327967688E+01 0.13327899369E+01 0.14557721843E+01
 0.17189575587E+01 0.21561302729E+01 0.28146645427E+01 0.37480656322E+01 0.50033770406E+01
 0.66049756964E+01 0.85365326715E+01 0.10721219939E+02 0.13002099528E+02 0.15134643097E+02
 0.16813185222E+02 0.17743942504E+02 0.17743851704E+02 0.16812989761E+02 0.15134503280E+02
 0.13002114615E+02 0.10721348565E+02 0.85366510763E+01 0.66050022257E+01 0.50033290346E+01
 0.37480087145E+01 0.28146385336E+01 0.21561332086E+01 0.14225600441E+01 0.12556614490E+01
 0.12024666634E+01 0.12556540622E+01 0.14225477239E+01 0.17250440805E+01 0.21984839732E+01
 0.28873132898E+01 0.38358436813E+01 0.50746437931E+01 0.66049852349E+01 0.83831912400E+01
 0.10305684015E+02 0.12199338616E+02 0.13830161880E+02 0.14944753426E+02 0.15341967727E+02
 0.14944659751E+02 0.13830072387E+02 0.12199345853E+02 0.10305781007E+02 0.83832863876E+01
 0.66050022257E+01 0.50745901845E+01 0.38357813302E+01 0.28872852913E+01 0.21984873711E+01
 0.17250578397E+01 0.12051394812E+01 0.11116195741E+01 0.11116184796E+01 0.12051334388E+01
 0.14040304671E+01 0.17319159466E+01 0.22223101883E+01 0.29130106681E+01 0.38358379847E+01
 0.50033790962E+01 0.63955055962E+01 0.79474962507E+01 0.95416571881E+01 0.11008504437E+02
 0.12147768414E+02 0.12773984130E+02 0.12773966711E+02 0.12147742951E+02 0.11008517605E+02
 0.95417153325E+01 0.79475520459E+01 0.63955084295E+01 0.50033290346E+01 0.38357813302E+01
 0.29129885956E+01 0.22223239877E+01 0.17319406581E+01 0.14040468781E+01 0.10544864365E+01
 0.10152428050E+01 0.10544897124E+01 0.11767870809E+01 0.13959671717E+01 0.17347919859E+01
 0.22223090161E+01 0.28873034710E+01 0.37480501699E+01 0.48006193735E+01 0.60084085017E+01
 0.72948135671E+01 0.85417909192E+01 0.95998621238E+01 0.10314831455E+02 0.10568091931E+02
 0.10314829070E+02 0.95998716695E+01 0.85418177134E+01 0.72948393224E+01 0.60084070842E+01
 0.48005858051E+01 0.37480087145E+01 0.28872852913E+01 0.22223239877E+01 0.17348232157E+01
 0.13959904063E+01 0.11767927165E+01 0.96000157815E+00 0.96000707611E+00 0.10269665754E+01
 0.11676799876E+01 0.13959702625E+01 0.17319201327E+01 0.21984853264E+01 0.28146598565E+01
 0.35861788643E+01 0.44961367436E+01 0.54979133332E+01 0.65124478028E+01 0.74326742490E+01
 0.81385947222E+01 0.85233830079E+01 0.85233799601E+01 0.81385943529E+01 0.74326887335E+01
 0.65124712169E+01 0.54979243342E+01 0.44961223916E+01 0.35861493521E+01 0.28146385336E+01
 0.21984873711E+01 0.17319406581E+01 0.13959904063E+01 0.11676848246E+01 0.10269586958E+01
 0.91449899909E+00 0.94201424234E+00 0.10269638367E+01 0.11767882195E+01 0.14040329894E+01
 0.17250462487E+01 0.21561399200E+01 0.27071231929E+01 0.33735653071E+01 0.41299856920E+01
 0.49261103150E+01 0.56881398471E+01 0.63270266208E+01 0.67546911381E+01 0.69053953236E+01
 0.67546892173E+01 0.63270415636E+01 0.56881747282E+01 0.49261387123E+01 0.41299816949E+01
 0.33735346385E+01 0.27070945593E+01 0.21561332086E+01 0.17250578397E+01 0.14040468781E+01
 0.11767927165E+01 0.10269586958E+01 0.94200767204E+00 0.99776691924E+00 0.10544874446E+01
 0.11536616624E+01 0.13021453363E+01 0.15086470795E+01 0.17816274927E+01 0.21257209468E+01
 0.25371797023E+01 0.29996368891E+01 0.34819141651E+01 0.39393957708E+01 0.43197661526E+01
 0.45727218082E+01 0.46615420270E+01 0.45727281565E+01 0.43197770085E+01 0.39393996149E+01
 0.34818993929E+01 0.29996127149E+01 0.25371716347E+01 0.21257392145E+01 0.17816529497E+01
 0.15086556216E+01 0.13021355450E+01 0.11536502297E+01 0.10544854983E+01 0.99777028907E+00
 0.97932256740E+00 0.10544874446E+01 0.11116225532E+01 0.12024770538E+01 0.13328007272E+01
 0.15089410474E+01 0.17358181209E+01 0.20139176264E+01 0.23359078554E+01 0.26841263730E+01
 0.30303370380E+01 0.33386209387E+01 0.35713002155E+01 0.36967172143E+01 0.36967200359E+01
 0.35713042350E+01 0.33386157386E+01 0.30303169093E+01 0.26841021324E+01 0.23359010802E+01
 0.20139367793E+01 0.17358462979E+01 0.15089544564E+01 0.13327944814E+01 0.12024656571E+01
 0.11116193143E+01 0.10544916546E+01 0.10269684913E+01 0.10269655436E+01 0.11536616624E+01
 0.12024770538E+01 0.12768113227E+01 0.13816777429E+01 0.15217319872E+01 0.16994162290E+01