unknown system                          
   1.00000000000000     
    -2.450000    2.450000    1.274000
     2.450000   -2.450000    1.274000
     2.450000    2.450000   -1.274000
   Si
     2
Direct
  0.250000  0.750000  0.500000
  0.000000  0.000000  0.000000
 
   32   32   32
 -5.3417     -4.1663     -1.0087      3.1795      7.2413      10.226      11.659      11.603      10.522      9.0464    
  7.5939      6.3097      5.2661      4.4837      3.9508      3.6441      3.5443      3.6441      3.9507      4.4837    
  5.2661      6.3097      7.5938      9.0464      10.522      11.603      11.659      10.226      7.2413      3.1795    
 -1.0087     -4.1664     -4.1664     -4.7728     -3.1040     0.31446      4.4616      8.2190      10.754      11.738    
  11.348      10.107      8.6218      7.2104      5.9908      5.0201      4.3085      3.8398      3.5908      3.5445    
  3.6971      4.0591      4.6518      5.4974      6.6020      7.9347      9.4100      10.850      11.764      11.540    
  9.7922      6.5769      2.4838     -1.4728     -1.0087     -3.1040     -3.1481     -1.1329      2.3013      6.1315    
  9.3428      11.263      11.717      10.985      9.6208      8.1536      6.8008      5.6591      4.7697      4.1335    
  3.7308      3.5394      3.5450      3.7474      4.1602      4.8055      5.7035      6.8545      8.2179      9.6976    
  11.085      11.853      11.440      9.5491      6.3418      2.4838      3.1795     0.31445     -1.1329     -.69854    
  1.4677      4.6672      7.9406      10.428      11.639      11.550      10.517      9.0875      7.6604      6.3819    
  5.3282      4.5251      3.9655      3.6279      3.4915      3.5456      3.7929      4.2494      4.9377      5.8750    
  7.0555      8.4305      9.8968      11.224      11.892      11.402      9.5491      6.5769      7.2413      4.4616    
  2.3013      1.4677      2.2384      4.3453      7.0913      9.6363      11.307      11.800      11.218      9.9655    
  8.5293      7.1619      5.9707      5.0110      4.2954      3.8106      3.5345      3.4488      3.5458      3.8313    
  4.3229      5.0424      6.0037      7.1952      8.5623      9.9987      11.270      11.892      11.440      9.7922    
  10.226      8.2190      6.1315      4.6672      4.3453      5.2808      7.1372      9.2741      11.008      11.864    
  11.706      10.738      9.3712      7.9686      6.6782      5.5827      4.7188      4.0883      3.6738      3.4537    
  3.4124      3.5455      3.8612      4.3776      5.1149      6.0834      7.2668      8.6071      9.9987      11.224    
  11.853      11.540      11.659      10.754      9.3428      7.9406      7.0913      7.1372      8.0697      9.5347    
  10.989      11.924      12.050      11.374      10.159      8.7734      7.4288      6.2281      5.2321      4.4618    
  3.9106      3.5593      3.3879      3.3837      3.5449      3.8816      4.4112      5.1520      6.1105      7.2668    
  8.5623      9.8968      11.085      11.764      11.603      11.738      11.263      10.428      9.6363      9.2741    
  9.5347      10.330      11.330      12.115      12.346      11.893      10.867      9.5521      8.2003      6.9325    
  5.8288      4.9308      4.2475      3.7672      3.4704      3.3393      3.3637      3.5444      3.8918      4.4226    
  5.1520      6.0834      7.1952      8.4305      9.6976      10.850      10.522      11.348      11.717      11.639    
  11.307      11.008      10.989      11.330      11.906      12.441      12.643      12.324      11.480      10.282    
  8.9703      7.6790      6.5002      5.4942      4.6879      4.0820      3.6622      3.4098      3.3093      3.3534    
  3.5441      3.8918      4.4112      5.1149      6.0037      7.0555      8.2179      9.4100      9.0464      10.107    
  10.985      11.550      11.800      11.864      11.924      12.115      12.441      12.773      12.907      12.665    
  11.981      10.937      9.7132      8.4467      7.2336      6.1482      5.2351      4.5103      3.9696      3.5981    
  3.3790      3.2992      3.3534      3.5444      3.8816      4.3776      5.0424      5.8750      6.8545      7.9347    
  7.5938      8.6218      9.6208      10.517      11.218      11.706      12.050      12.346      12.643      12.907    
  13.024      12.862      12.339      11.477      10.395      9.2076      8.0097      6.8837      5.8890      5.0587    
  4.4021      3.9128      3.5766      3.3790      3.3093      3.3637      3.5449      3.8612      4.3229      4.9377    
  5.7035      6.6020      6.3097      7.2104      8.1536      9.0874      9.9655      10.738      11.374      11.893    
  12.324      12.665      12.862      12.829      12.498      11.856      10.970      9.9230      8.7988      7.6822    
  6.6433      5.7306      4.9695      4.3658      3.9128      3.5981      3.4098      3.3393      3.3837      3.5455    
  3.8313      4.2494      4.8055      5.4974      5.2661      5.9908      6.8008      7.6604      8.5293      9.3712    
  10.159      10.867      11.480      11.981      12.339      12.498      12.400      12.023      11.388      10.543    
  9.5586      8.5124      7.4797      6.5210      5.6773      4.9695      4.4021      3.9696      3.6622      3.4704    
  3.3879      3.4124      3.5458      3.7929      4.1602      4.6518      4.4837      5.0201      5.6591      6.3819    
  7.1619      7.9686      8.7734      9.5521      10.282      10.937      11.477      11.856      12.023      11.941    
  11.598      11.014      10.236      9.3291      8.3651      7.4112      6.5210      5.7306      5.0587      4.5103    
  4.0820      3.7672      3.5593      3.4537      3.4488      3.5456      3.7474      4.0591      3.9507      4.3085    
  4.7697      5.3282      5.9707      6.6782      7.4288      8.2003      8.9703      9.7132      10.395      10.970    
  11.388      11.598      11.567      11.286      10.774      10.076      9.2508      8.3651      7.4797      6.6433    
  5.8890      5.2351      4.6879      4.2475      3.9106      3.6738      3.5345      3.4915      3.5450      3.6971    
  3.6441      3.8398      4.1335      4.5251      5.0110      5.5827      6.2281      6.9325      7.6790      8.4467    
  9.2076      9.9230      10.543      11.014      11.286      11.325      11.121      10.692      10.076      9.3291    
  8.5124      7.6822      6.8837      6.1482      5.4942      4.9308      4.4618      4.0883      3.8106      3.6279    
  3.5394      3.5445      3.5443      3.5908      3.7309      3.9656      4.2954      4.7189      5.2321      5.8288    
  6.5002      7.2336      8.0097      8.7988      9.5586      10.236      10.774      11.121      11.241      11.121    
  10.774      10.236      9.5586      8.7988      8.0097      7.2336      6.5002      5.8288      5.2321      4.7188    
  4.2954      3.9655      3.7308      3.5908      3.6441      3.5446      3.5394      3.6279      3.8106      4.0883    
  4.4618      4.9308      5.4942      6.1482      6.8837      7.6822      8.5124      9.3291      10.076      10.692    
  11.121      11.325      11.286      11.014      10.543      9.9230      9.2076      8.4467      7.6790      6.9325    
  6.2281      5.5827      5.0110      4.5251      4.1335      3.8398      3.9508      3.6971      3.5451      3.4916    
  3.5346      3.6738      3.9106      4.2475      4.6879      5.2351      5.8890      6.6433      7.4797      8.3651    
  9.2508      10.076      10.774      11.286      11.567      11.598      11.388      10.970      10.395      9.7132    
  8.9703      8.2003      7.4288      6.6782      5.9707      5.3282      4.7697      4.3085      4.4837      4.0591    
  3.7475      3.5456      3.4488      3.4538      3.5593      3.7672      4.0820      4.5103      5.0587      5.7306    
  6.5210      7.4112      8.3651      9.3291      10.236      11.014      11.598      11.941      12.023      11.856    
  11.477      10.937      10.282      9.5521      8.7734      7.9686      7.1619      6.3819      5.6591      5.0201    
  5.2661      4.6518      4.1602      3.7930      3.5458      3.4124      3.3879      3.4704      3.6622      3.9696    
  4.4021      4.9695      5.6773      6.5210      7.4797      8.5124      9.5586      10.543      11.388      12.023    
  12.400      12.498      12.339      11.981      11.480      10.867      10.159      9.3712      8.5293      7.6604    
  6.8008      5.9908      6.3097      5.4974      4.8055      4.2495      3.8314      3.5455      3.3837      3.3393    
  3.4098      3.5981      3.9127      4.3658      4.9695      5.7306      6.6433      7.6822      8.7988      9.9230    
  10.970      11.856      12.498      12.829      12.862      12.665      12.324      11.893      11.374      10.738    
  9.9655      9.0875      8.1536      7.2104      7.5939      6.6020      5.7035      4.9377      4.3229      3.8612    
  3.5449      3.3636      3.3093      3.3790      3.5766      3.9127      4.4021      5.0587      5.8890      6.8837    
  8.0097      9.2076      10.395      11.477      12.339      12.862      13.024      12.907      12.643      12.346    
  12.050      11.706      11.218      10.517      9.6208      8.6218      9.0464      7.9347      6.8545      5.8750    
  5.0424      4.3776      3.8815      3.5443      3.3534      3.2992      3.3790      3.5981      3.9696      4.5103    
  5.2351      6.1482      7.2336      8.4467      9.7132      10.937      11.981      12.665      12.907      12.773    
  12.441      12.115      11.924      11.864      11.800      11.550      10.985      10.107      10.522      9.4100    
  8.2180      7.0555      6.0037      5.1149      4.4112      3.8918      3.5441      3.3534      3.3093      3.4098    
  3.6622      4.0820      4.6879      5.4942      6.5002      7.6790      8.9703      10.282      11.480      12.324    
  12.643      12.441      11.906      11.330      10.989      11.008      11.307      11.639      11.717      11.348    
  11.603      10.850      9.6976      8.4306      7.1952      6.0834      5.1519      4.4226      3.8918      3.5443    
  3.3636      3.3393      3.4704      3.7672      4.2475      4.9308      5.8288      6.9325      8.2003      9.5521    
  10.867      11.893      12.346      12.115      11.330      10.330      9.5347      9.2741      9.6363      10.428    
  11.263      11.738      11.659      11.764      11.085      9.8968      8.5624      7.2668      6.1104      5.1519    
  4.4112      3.8815      3.5449      3.3837      3.3879      3.5593      3.9106      4.4618      5.2321      6.2281    
  7.4288      8.7734      10.159      11.374      12.050      11.924      10.989      9.5347      8.0697      7.1372    
  7.0913      7.9406      9.3428      10.754      10.226      11.540      11.853      11.224      9.9987      8.6071    
  7.2668      6.0834      5.1149      4.3776      3.8612      3.5455      3.4124      3.4538      3.6738      4.0883    
  4.7189      5.5827      6.6782      7.9686      9.3712      10.738      11.706      11.864      11.008      9.2741    
  7.1372      5.2808      4.3453      4.6672      6.1315      8.2190      7.2413      9.7922      11.440      11.892    
  11.270      9.9987      8.5624      7.1952      6.0037      5.0424      4.3229      3.8314      3.5458      3.4488    
  3.5346      3.8106      4.2954      5.0110      5.9707      7.1619      8.5293      9.9655      11.218      11.800    
  11.307      9.6363      7.0913      4.3453      2.2384      1.4677      2.3013      4.4616      3.1795      6.5769    
  9.5491      11.402      11.892      11.224      9.8968      8.4306      7.0555      5.8750      4.9377      4.2495    
  3.7930      3.5456      3.4916      3.6279      3.9656      4.5251      5.3282      6.3819      7.6604      9.0874    
  10.517      11.550      11.639      10.428      7.9406      4.6672      1.4677     -.69854     -1.1329     0.31446    
 -1.0087      2.4838      6.3417      9.5491      11.440      11.853      11.085      9.6976      8.2180      6.8545    
  5.7035      4.8055      4.1602      3.7475      3.5451      3.5394      3.7309      4.1335      4.7697      5.6591    
  6.8008      8.1536      9.6208      10.985      11.717      11.263      9.3428      6.1315      2.3013     -1.1329    
 -3.1481     -3.1040     -4.1663     -1.4728      2.4838      6.5769      9.7922      11.540      11.764      10.850    
  9.4100      7.9347      6.6020      5.4974      4.6518      4.0591      3.6971      3.5446      3.5908      3.8398    
  4.3085      5.0201      5.9908      7.2104      8.6218      10.107      11.348      11.738      10.754      8.2190    
  4.4616     0.31445     -3.1040     -4.7728     -4.1662     -3.3042     -.52040      3.3368      7.1780      10.067    
  11.500      11.487      10.446      8.9809      7.5238      6.2262      5.1646      4.3622      3.8083      3.4791    
  3.3535      3.4223      3.6911      4.1783      4.9081      5.8963      7.1296      8.5457      10.019      11.204    
  11.502      10.428      7.8620      4.1886     0.26012     -2.8375     -3.3042     -4.1664     -2.8376     0.26013    
  4.1886      7.8620      10.427      11.502      11.204      10.019      8.5456      7.1295      5.8963      4.9082    
  4.1783      3.6910      3.4223      3.3536      3.4791      3.8083      4.3622      5.1646      6.2263      7.5238    
  8.9809      10.446      11.487      11.500      10.067      7.1780      3.3368     -.52031     -.43255     -2.7424    
 -3.1040     -1.4120      1.7886      5.5281      8.7876      10.844      11.454      10.842      9.5323      8.0747    
  6.7160      5.5603      4.6545      4.0022      3.5840      3.3763      3.3637      3.5445      3.9313      4.5469    
  5.4137      6.5367      7.8828      9.3638      10.799      11.703      11.503      9.8589      6.8654      3.1135    
  3.5594     0.51310     -1.2332     -1.1330     0.76435      3.8360      7.1424      9.7863      11.207      11.306    
  10.394      9.0060      7.5853      6.2989      5.2311      4.4133      3.8404      3.4907      3.3425      3.3837    
  3.6161      4.0553      4.7248      5.6448      6.8142      8.1909      9.6784      11.072      11.870      11.552    
  9.8651      6.9885      7.5338      4.6082      2.1773      1.0065      1.4677      3.3842      6.1079      8.7866    
  10.685      11.420      11.025      9.8715      8.4608      7.0951      5.8938      4.9207      4.1927      3.6981    
  3.4144      3.3220      3.4124      3.6909      4.1751      4.8884      5.8477      7.0459      8.4339      9.9101    
  11.258      11.995      11.666      10.099      10.523      8.4121      6.0991      4.3187      3.6646      4.3452    
  6.0969      8.2993      10.232      11.343      11.420      10.608      9.3036      7.9155      6.6218      5.5151    
  4.6395      4.0000      3.5799      3.3571      3.3151      3.4487      3.7661      4.2860      5.0306      6.0130    
  7.2207      8.5996      10.047      11.352      12.075      11.833      12.016      11.054      9.4774      7.8085    
  6.6389      6.3908      7.1372      8.5731      10.151      11.307      11.675      11.193      10.084      8.7291    
  7.3901      6.1824      5.1757      4.3965      3.8407      3.4888      3.3205      3.3220      3.4914      3.8390    
  4.3835      5.1451      6.1327      7.3296      8.6788      10.081      11.347      12.096      12.035      12.160    
  11.586      10.555      9.4911      8.8366      8.8594      9.5347      10.559      11.489      11.925      11.669    
  10.776      9.5124      8.1745      6.9053      5.7931      4.8867      4.1989      3.7192      3.4276      3.3055    
  3.3425      3.5392      3.9070      4.4637      5.2265      6.2008      7.3664      8.6667      10.008      11.234    
  11.010      11.867      12.203      12.007      11.475      10.926      10.661      10.823      11.330      11.915    
  12.250      12.091      11.378      10.246      8.9526      7.6647      6.4806      5.4674      4.6570      4.0522    
  3.6388      3.3977      3.3127      3.3762      3.5907      3.9675      4.5228      5.2709      6.2135      7.3288    
  8.5627      9.8300      9.5548      10.676      11.575      12.095      12.226      12.108      11.955      11.950    
  12.148      12.441      12.622      12.476      11.892      10.908      9.7011      8.4393      7.2235      6.1326    
  5.2161      4.4931      3.9600      3.6015      3.4000      3.3421      3.4223      3.6440      4.0180      4.5583    
  5.2758      6.1698      7.2181      8.3714      8.1015      9.1937      10.243      11.154      11.811      12.192    
  12.381      12.504      12.651      12.819      12.907      12.769      12.293      11.466      10.389      9.2024    
  8.0017      6.8713      5.8745      5.0470      4.3993      3.9247      3.6083      3.4347      3.3929      3.4791    
  3.6970      4.0561      4.5679      5.2406      6.0715      7.0396      6.8019      7.7659      8.7630      9.7340    
  10.622      11.356      11.903      12.296      12.591      12.814      12.931      12.862      12.520      11.875    
  10.975      9.9172      8.7859      7.6643      6.6239      5.7154      4.9648      4.3780      3.9472      3.6592    
  3.5008      3.4635      3.5446      3.7475      4.0800      4.5511      5.1668      5.9232      5.7324      6.5166    
  7.3804      8.2818      9.1741      10.015      10.770      11.405      11.917      12.309      12.568      12.650    
  12.498      12.076      11.405      10.535      9.5352      8.4803      7.4455      6.4919      5.6606      4.9721    
  4.4300      4.0273      3.7530      3.5967      3.5517      3.6162      3.7930      4.0881      4.5083      5.0577    
  4.9187      5.5083      6.1973      6.9624      7.7712      8.5881      9.3797      10.120      10.787      11.357    
  11.804      12.091      12.176      12.023      11.625      11.002      10.197      9.2751      8.3064      7.3573    
  6.4809      5.7124      5.0691      4.5546      4.1634      3.8876      3.7194      3.6544      3.6910      3.8314    
  4.0799      4.4415      4.3540      4.7566      5.2614      5.8585      6.5306      7.2538      8.0017      8.7491    
  9.4729      10.149      10.750      11.238      11.567      11.697      11.598      11.264      10.714      9.9930    
  9.1589      8.2764      7.4052      6.5927      5.8703      5.2544      4.7492      4.3526      4.0595      3.8655    
  3.7680      3.7662      3.8613      4.0562      4.0180      4.2500      4.5790      5.0030      5.5151      6.1033    
  6.7514      7.4410      8.1533      8.8677      9.5590      10.193      10.728      11.115      11.311      11.286    
  11.035      10.574      9.9433      9.1973      8.3944      7.5892      6.8249      6.1310      5.5238      5.0097    
  4.5900      4.2639      4.0304      3.8888      3.8391      3.8817      3.8919      3.9675      4.1346      4.3938    
  4.7440      5.1811      5.6978      6.2845      6.9297      7.6196      8.3359      9.0518      9.7300      10.323    
  10.781      11.058      11.121      10.963      10.596      10.055      9.3911      8.6569      7.9034      7.1711    
  6.4878      5.8706      5.3291      4.8691      4.4946      4.2086      4.0125      3.9070      3.9675      3.8919    
  3.9071      4.0125      4.2085      4.4946      4.8691      5.3291      5.8706      6.4878      7.1711      7.9034    
  8.6569      9.3910      10.055      10.596      10.963      11.121      11.058      10.781      10.323      9.7300    
  9.0518      8.3359      7.6197      6.9297      6.2844      5.6978      5.1811      4.7440      4.3938      4.1345    
  4.2501      4.0180      3.8816      3.8391      3.8888      4.0304      4.2639      4.5900      5.0097      5.5238    
  6.1310      6.8249      7.5892      8.3945      9.1973      9.9433      10.574      11.034      11.286      11.311    
  11.115      10.728      10.193      9.5590      8.8677      8.1533      7.4410      6.7514      6.1033      5.5151    
  5.0030      4.5791      4.7567      4.3540      4.0561      3.8613      3.7662      3.7680      3.8655      4.0594    
  4.3526      4.7493      5.2544      5.8703      6.5927      7.4052      8.2764      9.1589      9.9929      10.714    
  11.264      11.598      11.697      11.567      11.238      10.750      10.149      9.4729      8.7492      8.0018    
  7.2538      6.5306      5.8585      5.2614      5.5082      4.9187      4.4415      4.0799      3.8314      3.6909    
  3.6543      3.7194      3.8876      4.1634      4.5546      5.0692      5.7124      6.4809      7.3573      8.3064    
  9.2751      10.197      11.002      11.625      12.023      12.176      12.091      11.804      11.357      10.787    
  10.120      9.3797      8.5881      7.7713      6.9624      6.1973      6.5166      5.7324      5.0577      4.5083    
  4.0880      3.7929      3.6161      3.5516      3.5966      3.7530      4.0273      4.4300      4.9721      5.6606    
  6.4919      7.4455      8.4804      9.5352      10.535      11.405      12.076      12.498      12.650      12.568    
  12.309      11.917      11.405      10.770      10.015      9.1742      8.2818      7.3803      7.7660      6.8019    
  5.9232      5.1667      4.5511      4.0799      3.7474      3.5445      3.4635      3.5008      3.6592      3.9472    
  4.3780      4.9648      5.7154      6.6239      7.6643      8.7859      9.9172      10.975      11.875      12.520    
  12.862      12.931      12.814      12.591      12.296      11.903      11.356      10.622      9.7340      8.7630    
  9.1938      8.1015      7.0396      6.0714      5.2406      4.5679      4.0561      3.6970      3.4791      3.3929    
  3.4347      3.6083      3.9247      4.3993      5.0470      5.8745      6.8713      8.0017      9.2024      10.389    
  11.466      12.293      12.769      12.907      12.819      12.651      12.504      12.381      12.192      11.811    
  11.154      10.243      10.676      9.5547      8.3714      7.2182      6.1698      5.2758      4.5582      4.0180    
  3.6440      3.4223      3.3421      3.4001      3.6015      3.9600      4.4931      5.2161      6.1326      7.2235    
  8.4393      9.7011      10.908      11.892      12.476      12.622      12.441      12.147      11.950      11.955    
  12.108      12.226      12.095      11.575      11.867      11.010      9.8301      8.5628      7.3288      6.2135    
  5.2709      4.5228      3.9675      3.5907      3.3763      3.3128      3.3977      3.6388      4.0522      4.6570    
  5.4674      6.4806      7.6647      8.9526      10.246      11.378      12.091      12.250      11.915      11.330    
  10.823      10.661      10.926      11.475      12.007      12.203      12.160      12.035      11.234      10.008    
  8.6667      7.3664      6.2008      5.2265      4.4637      3.9070      3.5393      3.3425      3.3055      3.4276    
  3.7192      4.1989      4.8867      5.7931      6.9053      8.1745      9.5124      10.776      11.669      11.925    
  11.489      10.559      9.5347      8.8594      8.8367      9.4911      10.555      11.586      11.054      12.016    
  12.096      11.347      10.081      8.6789      7.3296      6.1327      5.1451      4.3836      3.8391      3.4915    
  3.3220      3.3206      3.4889      3.8406      4.3965      5.1757      6.1825      7.3901      8.7291      10.084    
  11.193      11.675      11.307      10.150      8.5731      7.1373      6.3908      6.6389      7.8084      9.4774    
  8.4121      10.523      11.833      12.075      11.352      10.047      8.5996      7.2207      6.0130      5.0306    
  4.2861      3.7662      3.4488      3.3152      3.3572      3.5799      3.9999      4.6395      5.5151      6.6218    
  7.9155      9.3036      10.608      11.420      11.343      10.232      8.2994      6.0970      4.3453      3.6646    
  4.3188      6.0992      4.6082      7.5337      10.099      11.666      11.995      11.258      9.9101      8.4339    
  7.0459      5.8476      4.8884      4.1752      3.6910      3.4124      3.3220      3.4144      3.6982      4.1927    
  4.9206      5.8938      7.0952      8.4608      9.8715      11.025      11.420      10.685      8.7866      6.1079    
  3.3842      1.4678      1.0066      2.1773     0.51310      3.5595      6.9885      9.8651      11.552      11.870    
  11.072      9.6784      8.1909      6.8141      5.6448      4.7248      4.0553      3.6161      3.3837      3.3426    
  3.4908      3.8404      4.4133      5.2311      6.2990      7.5853      9.0060      10.394      11.306      11.207    
  9.7863      7.1424      3.8361     0.76451     -1.1329     -1.2331     -2.7423     -.43244      3.1135      6.8653    
  9.8589      11.503      11.703      10.799      9.3638      7.8828      6.5367      5.4136      4.5469      3.9314    
  3.5446      3.3638      3.3763      3.5839      4.0022      4.6546      5.5603      6.7159      8.0747      9.5323    
  10.842      11.454      10.844      8.7876      5.5283      1.7886     -1.4120     -3.1039     -1.0085     -.43239    
  1.8109      5.0149      8.2324      10.628      11.740      11.564      10.471      9.0088      7.5604      6.2662    
  5.2004      4.3866      3.8153      3.4634      3.3093      3.3421      3.5649      3.9943      4.6535      5.5608    
  6.7112      8.0566      9.4934      10.786      11.419      10.913      9.0886      6.2025      2.9475     0.26024    
 -.52026     -1.4727     -.52024      2.0262      5.3650      8.5268      10.725      11.588      11.204      10.006    
  8.5466      7.1420      5.9131      4.9218      4.1825      3.6808      3.3928      3.2993      3.3928      3.6808    
  4.1826      4.9218      5.9131      7.1420      8.5466      10.006      11.204      11.588      10.725      8.5268    
  5.3650      2.0262      1.8109     -.43240     -1.0085     0.26026      2.9475      6.2025      9.0886      10.913    
  11.419      10.786      9.4933      8.0565      6.7113      5.5608      4.6535      3.9943      3.5649      3.3421    
  3.3093      3.4634      3.8153      4.3866      5.2004      6.2662      7.5604      9.0088      10.471      11.564    
  11.740      10.628      8.2324      5.0149      5.2221      2.3417     0.51321     0.31457      1.7886      4.4255    
  7.3772      9.7921      11.108      11.191      10.307      8.9521      7.5558      6.2839      5.2223      4.4048    
  3.8281      3.4713      3.3127      3.3393      3.5516      3.9639      4.5991      5.4787      6.6065      7.9499    
  9.4250      10.873      11.872      11.909      10.683      8.2808      8.6819      5.9631      3.5417      2.1773    
  2.3014      3.8361      6.2294      8.6884      10.489      11.220      10.873      9.7733      8.4011      7.0609    
  5.8744      4.9087      4.1836      3.6889      3.4028      3.3056      3.3879      3.6542      4.1212      4.8122    
  5.7456      6.9194      8.2933      9.7767      11.198      12.130      12.110      10.911      11.289      9.3775    
  7.1254      5.2329      4.3188      4.6673      6.1079      8.0918      9.9256      11.041      11.183      10.451    
  9.2064      7.8565      6.5877      5.4962      4.6298      3.9964      3.5806      3.3610      3.3205      3.4537    
  3.7680      4.2816      5.0171      5.9893      7.1906      8.5740      10.046      11.433      12.330      12.336    
  12.555      11.754      10.254      8.5307      7.1696      6.6388      7.0912      8.2993      9.7599      10.910    
  11.348      10.964      9.9402      8.6383      7.3354      6.1516      5.1610      4.3938      3.8482      3.5060    
  3.3469      3.3572      3.5345      3.8888      4.4389      5.2052      6.1988      7.4063      8.7770      10.217    
  11.563      12.456      12.484      12.720      12.216      11.165      9.9682      9.0840      8.8366      9.2740    
  10.150      11.041      11.528      11.370      10.577      9.3834      8.0917      6.8557      5.7671      4.8789    
  4.2071      3.7428      3.4669      3.3610      3.4145      3.6279      4.0126      4.5868      5.3682      6.3636    
  7.5552      8.8903      10.278      11.577      11.463      12.389      12.777      12.578      11.959      11.234    
  10.735      10.661      10.989      11.489      11.832      11.747      11.128      10.076      8.8351      7.5880    
  6.4350      5.4466      4.6581      4.0746      3.6829      3.4643      3.4028      3.4908      3.7308      4.1346    
  4.7190      5.4983      6.4751      7.6286      8.9064      10.224      10.054      11.220      12.155      12.679    
  12.757      12.511      12.169      11.948      11.950      12.115      12.250      12.131      11.614      10.701    
  9.5462      8.3280      7.1489      6.0891      5.2007      4.5050      3.9997      3.6699      3.4983      3.4714    
  3.5840      3.8398      4.2501      4.8295      5.5888      6.5270      7.6217      8.8228      8.6429      9.7759    
  10.854      11.774      12.400      12.697      12.743      12.683      12.640      12.651      12.643      12.476    
  12.022      11.238      10.201      9.0521      7.8892      6.7943      5.8312      5.0371      4.4236      3.9844    
  3.7044      3.5683      3.5650      3.6911      3.9507      4.3541      4.9129      5.6349      6.5161      7.5341    
  7.3699      8.3754      9.4025      10.386      11.261      11.943      12.390      12.639      12.766      12.826    
  12.814      12.665      12.293      11.649      10.763      9.7286      8.6294      7.5434      6.5404      5.6709    
  4.9611      4.4166      4.0295      3.7859      3.6727      3.6809      3.8084      4.0591      4.4416      4.9648    
  5.6337      6.4425      6.3099      7.1374      8.0337      8.9520      9.8403      10.650      11.339      11.869    
  12.243      12.484      12.600      12.568      12.339      11.875      11.182      10.314      9.3324      8.3075    