unknown system                          
   1.00000000000000     
    -2.450000    2.450000    1.274000
     2.450000   -2.450000    1.274000
     2.450000    2.450000   -1.274000
   Si
     2
Direct
  0.250000  0.750000  0.500000
  0.000000  0.000000  0.000000
 
   36   36   36
 -5.2558     -4.3249     -1.7684      1.7875      5.5329      8.7171      10.835      11.712      11.483      10.501    
  9.2031      7.8977      6.7014      5.6818      4.8689      4.2638      3.8521      3.6149      3.5376      3.6149    
  3.8521      4.2638      4.8689      5.6818      6.7014      7.8977      9.2031      10.501      11.483      11.712    
  10.835      8.7171      5.5329      1.7875     -1.7684     -4.3250     -4.3250     -4.8129     -3.4861     -.68267    
  2.9159      6.5063      9.3952      11.161      11.712      11.245      10.141      8.8281      7.5471      6.3960    
  5.4323      4.6774      4.1272      3.7651      3.5728      3.5375      3.6564      3.9374      4.3964      5.0520    
  5.9161      6.9819      8.2113      9.5283      10.793      11.649      11.670      10.545      8.2031      4.8954    
  1.1881     -2.1445     -1.7684     -3.4861     -3.5330     -1.9014     0.99052      4.4425      7.6951      10.141    
  11.458      11.636      10.926      9.7241      8.4152      7.1715      6.0766      5.1765      4.4843      3.9912    
  3.6794      3.5315      3.5372      3.6961      4.0182      4.5204      5.2203      6.1267      7.2272      8.4768    
  9.7931      11.012      11.755      11.620      10.345      7.9263      4.6736      1.1881      1.7875     -.68268    
 -1.9014     -1.5566     0.25559      3.0663      6.1936      8.9554      10.851      11.662      11.458      10.528    
  9.2655      7.9775      6.7836      5.7540      4.9230      4.2958      3.8602      3.5977      3.4925      3.5368    
  3.7328      4.0919      4.6314      5.3675      6.3056      7.4282      8.6847      9.9886      11.157      11.812    
  11.587      10.274      7.9263      4.8954      5.5329      2.9159     0.99051     0.25559     0.90347      2.7546    
  5.3225      7.9782      10.141      11.428      11.724      11.165      10.063      8.7814      7.5290      6.3961    
  5.4386      4.6797      4.1179      3.7380      3.5223      3.4570      3.5366      3.7653      4.1559      4.7254    
  5.4881      6.4461      7.5774      8.8276      10.108      11.229      11.830      11.587      10.345      8.2031    
  8.7171      6.5063      4.4425      3.0663      2.7546      3.5914      5.3407      7.5314      9.6141      11.125    
  11.800      11.616      10.762      9.5546      8.2863      7.0838      6.0210      5.1400      4.4537      3.9552    
  3.6282      3.4557      3.4262      3.5366      3.7928      4.2082      4.7990      5.5776      6.5428      7.6692    
  8.9003      10.149      11.229      11.812      11.620      10.545      10.835      9.3952      7.6951      6.1936    
  5.3225      5.3408      6.2444      7.7704      9.4909      10.954      11.817      11.927      11.339      10.276    
  9.0314      7.7957      6.6556      5.6695      4.8664      4.2509      3.8121      3.5333      3.3993      3.4009    
  3.5368      3.8144      4.2469      4.8496      5.6327      6.5921      7.7002      8.9003      10.108      11.157    
  11.755      11.670      11.712      11.161      10.141      8.9554      7.9782      7.5314      7.7704      8.6285    
  9.8433      11.051      11.904      12.176      11.810      10.922      9.7463      8.5117      7.3256      6.2575    
  5.3512      4.6247      4.0758      3.6914      3.4555      3.3546      3.3816      3.5372      3.8292      4.2707    
  4.8754      5.6513      6.5921      7.6692      8.8276      9.9886      11.012      11.649      11.483      11.712    
  11.458      10.851      10.141      9.6141      9.4909      9.8433      10.568      11.426      12.128      12.431    
  12.210      11.488      10.417      9.2151      8.0145      6.8914      5.9012      5.0746      4.4204      3.9321    
  3.5957      3.3961      3.3222      3.3687      3.5375      3.8368      4.2787      4.8754      5.6327      6.5428    
  7.5774      8.6847      9.7931      10.793      10.501      11.245      11.636      11.662      11.428      11.125    
  10.954      11.051      11.426      11.963      12.462      12.712      12.563      11.976      11.029      9.8906    
  8.7069      7.5583      6.5076      5.5968      4.8461      4.2577      3.8224      3.5263      3.3561      3.3026    
  3.3622      3.5376      3.8368      4.2707      4.8496      5.5776      6.4461      7.4282      8.4768      9.5283    
  9.2031      10.141      10.926      11.458      11.724      11.800      11.817      11.904      12.128      12.462    
  12.796      12.974      12.859      12.381      11.563      10.520      9.3866      8.2444      7.1606      6.1863    
  5.3522      4.6707      4.1395      3.7484      3.4843      3.3360      3.2960      3.3622      3.5375      3.8292    
  4.2469      4.7990      5.4881      6.3056      7.2272      8.2113      7.8977      8.8281      9.7241      10.528    
  11.165      11.616      11.927      12.176      12.431      12.712      12.974      13.121      13.045      12.673    
  11.996      11.080      10.033      8.9331      7.8484      6.8362      5.9371      5.1735      4.5519      4.0679    
  3.7111      3.4703      3.3360      3.3026      3.3687      3.5372      3.8144      4.2082      4.7254      5.3675    
  6.1267      6.9819      6.7014      7.5471      8.4152      9.2655      10.063      10.762      11.339      11.810    
  12.210      12.563      12.859      13.045      13.048      12.805      12.289      11.536      10.618      9.6019    
  8.5544      7.5364      6.5966      5.7673      5.0647      4.4920      4.0439      3.7111      3.4843      3.3561    
  3.3222      3.3816      3.5368      3.7928      4.1559      4.6314      5.2203      5.9161      5.6818      6.3960    
  7.1715      7.9775      8.7814      9.5546      10.276      10.922      11.488      11.976      12.381      12.673    
  12.805      12.724      12.403      11.849      11.104      10.220      9.2542      8.2700      7.3214      6.4498    
  5.6813      5.0282      4.4920      4.0679      3.7484      3.5263      3.3961      3.3546      3.4009      3.5366    
  3.7653      4.0919      4.5204      5.0520      4.8689      5.4323      6.0766      6.7836      7.5290      8.2863    
  9.0314      9.7463      10.417      11.029      11.563      11.996      12.289      12.403      12.303      11.983    
  11.453      10.747      9.9143      9.0109      8.0939      7.2118      6.4003      5.6813      5.0647      4.5519    
  4.1395      3.8224      3.5957      3.4555      3.3993      3.4262      3.5366      3.7328      4.0182      4.3964    
  4.2638      4.6774      5.1765      5.7540      6.3961      7.0838      7.7957      8.5117      9.2151      9.8906    
  10.520      11.080      11.536      11.849      11.983      11.912      11.628      11.144      10.493      9.7228    
  8.8858      8.0343      7.2118      6.4498      5.7673      5.1735      4.6707      4.2577      3.9321      3.6914    
  3.5333      3.4557      3.4570      3.5368      3.6961      3.9374      3.8521      4.1272      4.4843      4.9230    
  5.4386      6.0210      6.6556      7.3256      8.0145      8.7069      9.3866      10.033      10.618      11.104    
  11.453      11.628      11.603      11.372      10.948      10.362      9.6577      8.8858      8.0939      7.3214    
  6.5966      5.9371      5.3522      4.8461      4.4204      4.0758      3.8121      3.6282      3.5223      3.4925    
  3.5372      3.6564      3.6149      3.7651      3.9912      4.2959      4.6797      5.1400      5.6695      6.2575    
  6.8914      7.5583      8.2444      8.9331      9.6019      10.220      10.747      11.144      11.372      11.407    
  11.239      10.881      10.362      9.7228      9.0109      8.2700      7.5364      6.8362      6.1863      5.5968    
  5.0746      4.6247      4.2509      3.9552      3.7380      3.5977      3.5315      3.5375      3.5376      3.5728    
  3.6794      3.8602      4.1179      4.4537      4.8664      5.3512      5.9012      6.5076      7.1606      7.8484    
  8.5544      9.2542      9.9143      10.493      10.948      11.239      11.339      11.239      10.948      10.493    
  9.9143      9.2542      8.5544      7.8484      7.1606      6.5076      5.9012      5.3512      4.8664      4.4537    
  4.1179      3.8602      3.6794      3.5728      3.6149      3.5375      3.5315      3.5976      3.7380      3.9552    
  4.2509      4.6247      5.0746      5.5968      6.1863      6.8362      7.5364      8.2700      9.0109      9.7228    
  10.362      10.881      11.239      11.407      11.372      11.144      10.747      10.220      9.6019      8.9331    
  8.2444      7.5583      6.8914      6.2575      5.6695      5.1400      4.6797      4.2958      3.9912      3.7651    
  3.8521      3.6564      3.5372      3.4925      3.5223      3.6282      3.8121      4.0758      4.4204      4.8461    
  5.3522      5.9371      6.5966      7.3214      8.0939      8.8858      9.6576      10.362      10.948      11.372    
  11.603      11.628      11.453      11.104      10.618      10.033      9.3866      8.7069      8.0145      7.3256    
  6.6556      6.0210      5.4386      4.9230      4.4843      4.1272      4.2638      3.9374      3.6961      3.5368    
  3.4570      3.4557      3.5333      3.6914      3.9321      4.2577      4.6707      5.1735      5.7673      6.4498    
  7.2118      8.0343      8.8858      9.7228      10.493      11.144      11.628      11.912      11.983      11.849    
  11.536      11.080      10.520      9.8906      9.2151      8.5117      7.7957      7.0838      6.3961      5.7540    
  5.1765      4.6774      4.8689      4.3964      4.0182      3.7327      3.5366      3.4262      3.3993      3.4555    
  3.5957      3.8224      4.1395      4.5519      5.0647      5.6813      6.4003      7.2118      8.0939      9.0109    
  9.9143      10.747      11.453      11.983      12.303      12.403      12.289      11.996      11.563      11.029    
  10.417      9.7463      9.0314      8.2863      7.5290      6.7836      6.0766      5.4323      5.6818      5.0520    
  4.5204      4.0919      3.7653      3.5366      3.4009      3.3546      3.3961      3.5263      3.7484      4.0679    
  4.4920      5.0282      5.6813      6.4498      7.3214      8.2700      9.2542      10.220      11.104      11.849    
  12.403      12.724      12.805      12.673      12.381      11.976      11.488      10.922      10.276      9.5546    
  8.7814      7.9775      7.1715      6.3960      6.7014      5.9162      5.2203      4.6314      4.1559      3.7928    
  3.5368      3.3816      3.3222      3.3561      3.4843      3.7111      4.0439      4.4920      5.0647      5.7673    
  6.5966      7.5364      8.5544      9.6019      10.618      11.536      12.289      12.805      13.048      13.045    
  12.859      12.563      12.210      11.810      11.339      10.762      10.063      9.2655      8.4152      7.5471    
  7.8977      6.9819      6.1267      5.3675      4.7254      4.2082      3.8144      3.5372      3.3687      3.3026    
  3.3360      3.4703      3.7111      4.0679      4.5519      5.1735      5.9371      6.8362      7.8484      8.9331    
  10.033      11.080      11.996      12.673      13.045      13.121      12.974      12.712      12.431      12.176    
  11.927      11.616      11.165      10.528      9.7241      8.8281      9.2031      8.2113      7.2272      6.3056    
  5.4881      4.7990      4.2469      3.8292      3.5375      3.3622      3.2961      3.3360      3.4843      3.7484    
  4.1395      4.6707      5.3522      6.1863      7.1606      8.2444      9.3866      10.520      11.563      12.381    
  12.859      12.974      12.796      12.462      12.128      11.904      11.817      11.800      11.724      11.458    
  10.926      10.141      10.501      9.5283      8.4768      7.4282      6.4461      5.5777      4.8497      4.2707    
  3.8368      3.5377      3.3622      3.3026      3.3561      3.5263      3.8224      4.2577      4.8461      5.5968    
  6.5076      7.5583      8.7069      9.8906      11.029      11.976      12.563      12.712      12.462      11.963    
  11.426      11.051      10.954      11.125      11.428      11.662      11.636      11.245      11.483      10.793    
  9.7931      8.6847      7.5774      6.5428      5.6327      4.8754      4.2787      3.8368      3.5375      3.3687    
  3.3222      3.3961      3.5957      3.9321      4.4204      5.0746      5.9012      6.8914      8.0145      9.2151    
  10.417      11.488      12.210      12.431      12.128      11.426      10.568      9.8433      9.4909      9.6141    
  10.141      10.851      11.458      11.712      11.712      11.649      11.012      9.9886      8.8276      7.6692    
  6.5921      5.6513      4.8754      4.2707      3.8292      3.5372      3.3816      3.3546      3.4555      3.6914    
  4.0758      4.6247      5.3512      6.2575      7.3256      8.5117      9.7463      10.922      11.810      12.176    
  11.904      11.051      9.8433      8.6285      7.7704      7.5314      7.9782      8.9554      10.141      11.161    
  10.835      11.670      11.755      11.157      10.108      8.9003      7.7002      6.5921      5.6327      4.8497    
  4.2469      3.8144      3.5368      3.4009      3.3993      3.5333      3.8121      4.2509      4.8664      5.6695    
  6.6556      7.7957      9.0314      10.276      11.339      11.927      11.817      10.954      9.4909      7.7704    
  6.2444      5.3407      5.3225      6.1936      7.6951      9.3952      8.7171      10.545      11.620      11.812    
  11.229      10.149      8.9003      7.6692      6.5428      5.5777      4.7990      4.2082      3.7928      3.5366    
  3.4262      3.4557      3.6282      3.9552      4.4537      5.1400      6.0210      7.0838      8.2863      9.5546    
  10.762      11.616      11.800      11.125      9.6141      7.5314      5.3408      3.5914      2.7546      3.0663    
  4.4425      6.5063      5.5329      8.2031      10.345      11.587      11.830      11.229      10.108      8.8276    
  7.5774      6.4461      5.4881      4.7254      4.1559      3.7653      3.5366      3.4570      3.5223      3.7380    
  4.1179      4.6797      5.4386      6.3961      7.5290      8.7814      10.063      11.165      11.724      11.428    
  10.141      7.9782      5.3225      2.7546     0.90347     0.25559     0.99052      2.9159      1.7875      4.8954    
  7.9263      10.274      11.587      11.812      11.157      9.9886      8.6847      7.4282      6.3056      5.3675    
  4.6314      4.0919      3.7327      3.5368      3.4925      3.5976      3.8602      4.2959      4.9230      5.7540    
  6.7836      7.9775      9.2655      10.528      11.458      11.662      10.851      8.9554      6.1936      3.0663    
 0.25559     -1.5566     -1.9014     -.68267     -1.7684      1.1881      4.6736      7.9263      10.345      11.620    
  11.755      11.012      9.7931      8.4768      7.2272      6.1267      5.2203      4.5204      4.0182      3.6961    
  3.5372      3.5315      3.6794      3.9912      4.4843      5.1765      6.0766      7.1715      8.4152      9.7241    
  10.926      11.636      11.458      10.141      7.6951      4.4425     0.99051     -1.9014     -3.5330     -3.4861    
 -4.3249     -2.1445      1.1881      4.8954      8.2031      10.545      11.670      11.649      10.793      9.5283    
  8.2113      6.9819      5.9162      5.0520      4.3964      3.9374      3.6564      3.5375      3.5728      3.7651    
  4.1272      4.6774      5.4323      6.3960      7.5471      8.8281      10.141      11.245      11.712      11.161    
  9.3952      6.5063      2.9159     -.68268     -3.4861     -4.8129     -4.3250     -3.6332     -1.3614      1.9304    
  5.4811      8.5592      10.650      11.551      11.365      10.417      9.1306      7.8251      6.6218      5.5906    
  4.7634      4.1430      3.7148      3.4597      3.3622      3.4155      3.6236      4.0003      4.5645      5.3326    
  6.3075      7.4653      8.7454      10.045      11.104      11.498      10.868      9.0494      6.1728      2.6853    
 -.71760     -3.2625     -3.6332     -4.3250     -3.2625     -.71760      2.6853      6.1728      9.0494      10.868    
  11.498      11.104      10.045      8.7454      7.4653      6.3075      5.3326      4.5645      4.0003      3.6236    
  3.4155      3.3622      3.4597      3.7148      4.1430      4.7634      5.5906      6.6218      7.8251      9.1306    
  10.417      11.365      11.551      10.650      8.5592      5.4811      1.9304     -1.3614     -1.2911     -3.1873    
 -3.4861     -2.1168     0.56620      3.9050      7.1489      9.6693      11.103      11.401      10.781      9.6251    
  8.3285      7.0855      5.9837      5.0730      4.3687      3.8634      3.5392      3.3781      3.3687      3.5096    
  3.8101      4.2870      4.9592      5.8383      6.9161      8.1532      9.4723      10.730      11.572      11.592    
  10.507      8.2765      5.1654      1.7312      2.1130     -.51425     -1.9746     -1.9014     -.32386      2.3440    
  5.4444      8.2832      10.322      11.296      11.232      10.394      9.1695      7.8923      6.6978      5.6609    
  4.8199      4.1823      3.7365      3.4641      3.3488      3.3816      3.5639      3.9068      4.4280      5.1453    
  6.0671      7.1801      8.4382      9.7595      10.980      11.734      11.644      10.477      8.2485      5.2691    
  5.7821      3.0320     0.88161     -.12909     0.25557      1.9198      4.4180      7.1256      9.4332      10.910    
  11.389      10.971      9.9487      8.6939      7.4494      6.3141      5.3491      4.5811      4.0106      3.6231    
  3.4006      3.3286      3.4009      3.6211      4.0019      4.5612      5.3153      6.2690      7.4042      8.6702    
  9.9822      11.164      11.858      11.724      10.578      8.4850      8.9575      6.6426      4.3821      2.7412    
  2.1490      2.7545      4.3761      6.5666      8.7637      10.462      11.346      11.343      10.613      9.4620    
  8.2112      7.0127      5.9458      5.0572      4.3631      3.8581      3.5263      3.3504      3.3183      3.4262    
  3.6798      4.0927      4.6823      5.4631      6.4365      7.5802      8.8405      10.132      11.278      11.943    
  11.829      10.801      11.114      9.6034      7.7461      6.0100      4.8629      4.6212      5.3407      6.7993    
  8.5763      10.194      11.260      11.572      11.143      10.172      8.9595      7.7348      6.5948      5.6031    
  4.7929      4.1714      3.7288      3.4485      3.3149      3.3183      3.4570      3.7383      4.1762      4.7872    
  5.5834      6.5631      7.7011      8.9422      10.203      11.317      11.983      11.948      12.053      11.466    
  10.335      8.9605      7.7360      7.0268      7.0439      7.7704      8.9698      10.271      11.293      11.759    
  11.567      10.799      9.6777      8.4603      7.2787      6.2075      5.2951      4.5627      4.0102      3.6252    
  3.3913      3.2950      3.3286      3.4925      3.7949      4.2497      4.8720      5.6716      6.6440      7.7619    
  8.9707      10.191      11.278      11.969      11.885      12.112      11.795      11.054      10.145      9.3798    
  9.0251      9.2015      9.8433      10.723      11.535      11.997      11.940      11.348      10.352      9.1731    
  7.9807      6.8570      5.8618      5.0295      4.3717      3.8828      3.5493      3.3558      3.2908      3.3488    
  3.5316      3.8478      4.3106      4.9337      5.7243      6.6756      7.7596      8.9240      10.095      11.155    
  10.946      11.718      12.092      12.039      11.664      11.168      10.785      10.689      10.934      11.426    
  11.966      12.320      12.303      11.835      10.968      9.8591      8.6850      7.5376      6.4830      5.5669    
  4.8125      4.2235      3.7914      3.5022      3.3424      3.3022      3.3781      3.5728      3.8950      4.3568    
  4.9698      5.7390      6.6562      7.6938      8.8031      9.9174      9.6635      10.652      11.457      11.963    
  12.147      12.087      11.931      11.838      11.910      12.151      12.462      12.683      12.650      12.263    
  11.515      10.502      9.3758      8.2348      7.1477      6.1685      5.3308      4.6487      4.1209      3.7372    
  3.4845      3.3508      3.3286      3.4155      3.6149      3.9350      4.3864      4.9787      5.7149      6.5861    
  7.5665      8.6119      8.3572      9.3419      10.282      11.101      11.709      12.083      12.273      12.375    
  12.484      12.648      12.842      12.974      12.927      12.605      11.973      11.078      10.033      8.9315    
  7.8429      6.8259      5.9234      5.1594      4.5415      4.0656      3.7210      3.4960      3.3807      3.3690    
  3.4597      3.6564      3.9662      4.3982      4.9598      5.6527      6.4679      7.3823      7.1482      8.0483    
  8.9637      9.8487      10.658      11.332      11.841      12.210      12.489      12.727      12.930      13.061    
  13.045      12.807      12.304      11.553      10.627      9.6049      8.5512      7.5277      6.5844      5.7551    
  5.0569      4.4932      4.0585      3.7430      3.5365      3.4311      3.4223      3.5096      3.6961      3.9877    
  4.3917      4.9137      5.5545      6.3060      6.1069      6.8734      7.6969      8.5421      9.3713      10.151    
  10.850      11.440      11.922      12.313      12.624      12.839      12.917      12.805      12.462      11.887    
  11.123      10.224      9.2479      8.2563      7.3037      6.4323      5.6690      5.0262      4.5050      4.0999    
  3.8026      3.6050      3.5010      3.4874      3.5639      3.7328      3.9986      4.3670      4.8421      5.4243    
  5.2672      5.8785      6.5686      7.3158      8.0917      8.8651      9.6083      10.301      10.925      11.468    
  11.922      12.274      12.496      12.550      12.403      12.040      11.478      10.749      9.8992      8.9853    
  8.0631      7.1812      6.3756      5.6682      5.0685      4.5770      4.1893      3.8991      3.7004      3.5892    
  3.5628      3.6211      3.7653      3.9986      4.3250      4.7477      4.6342      5.0894      5.6296      6.2450    
  6.9187      7.6278      8.3473      9.0539      9.7292      10.359      10.927      11.416      11.797      12.039    
  12.108      11.983      11.655      11.138      10.464      9.6787      8.8344      7.9826      7.1665      6.4173    
  5.7536      5.1837      4.7084      4.3254      4.0308      3.8211      3.6937      3.6469      3.6798      3.7928    
  3.9877      4.2672      4.1959      4.5059      4.8978      5.3696      5.9144      6.5192      7.1661      7.8353    
  8.5078      9.1672      9.7984      10.384      10.899      11.314      11.594      11.706      11.628      11.355    
  10.900      10.293      9.5789      8.8057      8.0204      7.2618      6.5575      5.9242      5.3699      4.8972    
  4.5061      4.1956      3.9648      3.8126      3.7375      3.7383      3.8144      3.9662      3.9350      4.1137    
  4.3678      4.6993      5.1076      5.5878      6.1304      6.7218      7.3468      7.9906      8.6388      9.2762    
  9.8829      10.432      10.890      11.220      11.388      11.372      11.167      10.783      10.250      9.6080    
  8.9026      8.1766      7.4650      6.7931      6.1764      5.6237      5.1398      4.7279      4.3904      4.1287    
  3.9430      3.8323      3.7949      3.8292      3.8368      3.8950      4.0235      4.2248      4.5010      4.8522    
  5.2755      5.7642      6.3087      6.8982      7.5215      8.1666      8.8181      9.4546      10.047      10.557    
  10.948      11.183      11.239      11.107      10.799      10.339      9.7665      9.1222      8.4460      7.7702    
  7.1178      6.5041      5.9393      5.4311      4.9864      4.6110      4.3089      4.0817      3.9287      3.8478    
  3.8950      3.8368      3.8478      3.9287      4.0817      4.3089      4.6110      4.9864      5.4311      5.9393    
  6.5041      7.1178      7.7702      8.4460      9.1222      9.7665      10.339      10.799      11.107      11.239    
  11.183      10.948      10.557      10.047      9.4546      8.8181      8.1666      7.5215      6.8982      6.3087    
  5.7642      5.2756      4.8523      4.5010      4.2248      4.0235      4.1137      3.9350      3.8292      3.7949    
  3.8323      3.9430      4.1287      4.3904      4.7279      5.1398      5.6237      6.1764      6.7931      7.4650    
  8.1766      8.9026      9.6080      10.250      10.783      11.167      11.372      11.388      11.220      10.890    
  10.432      9.8829      9.2762      8.6388      7.9906      7.3468      6.7218      6.1304      5.5879      5.1076    
  4.6993      4.3678      4.5059      4.1959      3.9663      3.8144      3.7383      3.7375      3.8126      3.9648    
  4.1956      4.5061      4.8972      5.3699      5.9242      6.5575      7.2618      8.0204      8.8057      9.5789    
  10.293      10.900      11.355      11.628      11.706      11.594      11.314      10.899      10.384      9.7984    
  9.1672      8.5078      7.8353      7.1662      6.5192      5.9144      5.3696      4.8978      5.0894      4.6341    
  4.2672      3.9877      3.7928      3.6798      3.6469      3.6937      3.8211      4.0308      4.3254      4.7084    
  5.1837      5.7537      6.4173      7.1665      7.9826      8.8344      9.6787      10.464      11.138      11.655    
  11.983      12.108      12.039      11.797      11.416      10.927      10.359      9.7292      9.0539      8.3473    
  7.6278      6.9187      6.2450      5.6296      5.8785      5.2672      4.7477      4.3250      3.9987      3.7653    
  3.6211      3.5629      3.5892      3.7004      3.8991      4.1893      4.5770      5.0685      5.6682      6.3756    
  7.1812      8.0631      8.9853      9.8992      10.749      11.478      12.040      12.403      12.550      12.496    
  12.274      11.922      11.468      10.925      10.301      9.6083      8.8651      8.0916      7.3158      6.5686    
  6.8734      6.1069      5.4243      4.8421      4.3670      3.9987      3.7328      3.5639      3.4875      3.5011    
  3.6050      3.8026      4.0999      4.5050      5.0262      5.6691      6.4323      7.3037      8.2562      9.2479    
  10.224      11.123      11.887      12.462      12.805      12.917      12.839      12.624      12.313      11.922    
  11.440      10.850      10.151      9.3713      8.5421      7.6969      8.0483      7.1482      6.3060      5.5545    
  4.9137      4.3917      3.9877      3.6961      3.5097      3.4224      3.4311      3.5365      3.7430      4.0585    
  4.4932      5.0569      5.7551      6.5844      7.5277      8.5512      9.6049      10.627      11.553      12.304    
  12.807      13.045      13.061      12.930      12.727      12.489      12.210      11.841      11.332      10.658    
  9.8487      8.9637      9.3419      8.3571      7.3823      6.4679      5.6527      4.9598      4.3982      3.9662    
  3.6564      3.4597      3.3690      3.3807      3.4960      3.7210      4.0656      4.5415      5.1594      5.9234    
  6.8259      7.8429      8.9315      10.033      11.078      11.973      12.605      12.927      12.974      12.842    
  12.648      12.484      12.375      12.273      12.083      11.709      11.101      10.282      10.652      9.6635    
  8.6119      7.5665      6.5861      5.7149      4.9787      4.3864      3.9350      3.6149      3.4155      3.3286    
  3.3508      3.4845      3.7372      4.1209      4.6487      5.3308      6.1685      7.1477      8.2348      9.3758    
  10.502      11.515      12.263      12.650      12.683      12.462      12.151      11.910      11.838      11.931    
  12.087      12.147      11.963      11.457      11.718      10.946      9.9174      8.8031      7.6938      6.6562    
  5.7390      4.9698      4.3568      3.8950      3.5728      3.3781      3.3022      3.3424      3.5022      3.7914    
  4.2235      4.8125      5.5669      6.4830      7.5376      8.6850      9.8591      10.968      11.835      12.303    
  12.320      11.966      11.426      10.934      10.689      10.785      11.168      11.664      12.039      12.092    
  12.112      11.885      11.155      10.095      8.9240      7.7596      6.6756      5.7243      4.9337      4.3106    
  3.8477      3.5315      3.3488      3.2908      3.3558      3.5493      3.8829      4.3717      5.0295      5.8618    
  6.8570      7.9807      9.1731      10.352      11.348      11.940      11.997      11.535      10.723      9.8433    
  9.2015      9.0251      9.3798      10.145      11.054      11.795      11.466      12.053      11.969      11.278    
  10.191      8.9707      7.7619      6.6440      5.6716      4.8720      4.2497      3.7949      3.4925      3.3286    
  3.2950      3.3913      3.6252      4.0103      4.5627      5.2951      6.2075      7.2787      8.4603      9.6777    
  10.799      11.567      11.759      11.293      10.271      8.9698      7.7704      7.0439      7.0268      7.7361    
  8.9605      10.335      9.6034      11.114      11.948      11.983      11.317      10.203      8.9422      7.7011    
  6.5631      5.5834      4.7872      4.1762      3.7383      3.4570      3.3183      3.3149      3.4485      3.7288    
  4.1714      4.7929      5.6031      6.5948      7.7348      8.9595      10.172      11.142      11.572      11.260    
  10.194      8.5763      6.7993      5.3408      4.6212      4.8629      6.0100      7.7461      6.6426      8.9575    