<?xml version="1.0" encoding="ISO-8859-1"?>
<modeling>
 <generator>
  <i name="program" type="string">vasp </i>
  <i name="version" type="string">5.4.4.18Apr17-6-g9f103f2a35  </i>
  <i name="subversion" type="string">(build Dec 09 2018 21:25:21) complex            parallel </i>
  <i name="platform" type="string">IFC18.0.1.163_CrayMPICH7.7.0_MKL18.0.1.163 </i>
  <i name="date" type="string">2019 03 20 </i>
  <i name="time" type="string">09:37:44 </i>
 </generator>
 <incar>
  <i type="string" name="PREC">normal</i>
  <i type="int" name="IBRION">     2</i>
  <i name="EDIFF">      0.00040000</i>
  <i name="EDIFFG">     -0.01000000</i>
  <i type="int" name="NSW">    15</i>
  <i type="int" name="ISIF">     3</i>
  <i name="ENCUT">    350.00000000</i>
  <i type="int" name="NBANDS">     8</i>
  <i type="logical" name="LREAL"> F  </i>
  <i type="int" name="ISMEAR">     0</i>
  <i name="SIGMA">      0.20000000</i>
  <v type="int" name="KPOINT_BSE">    -1     0     0     0</v>
 </incar>
 <structure name="primitive_cell" >
  <crystal>
   <varray name="basis" >
    <v>      -2.45000000       2.45000000       1.27400000 </v>
    <v>       2.45000000      -2.45000000       1.27400000 </v>
    <v>       2.45000000       2.45000000      -1.27400000 </v>
   </varray>
   <i name="volume">     30.58874000 </i>
   <varray name="rec_basis" >
    <v>       0.00000000       0.20408163       0.39246468 </v>
    <v>       0.20408163       0.00000000       0.39246468 </v>
    <v>       0.20408163       0.20408163      -0.00000000 </v>
   </varray>
  </crystal>
  <varray name="positions" >
   <v>       0.25000000      -0.25000000      -0.50000000 </v>
   <v>       0.00000000       0.00000000       0.00000000 </v>
  </varray>
 </structure>
 <varray name="primitive_index" >
  <v type="int" >        1 </v>
  <v type="int" >        2 </v>
 </varray>
 <kpoints>
  <generation param="Monkhorst-Pack">
   <v type="int" name="divisions">       7        7        7 </v>
   <v name="usershift">      0.00000000       0.00000000       0.00000000 </v>
   <v name="genvec1">      0.14285714       0.00000000      -0.00000000 </v>
   <v name="genvec2">      0.00000000       0.14285714      -0.00000000 </v>
   <v name="genvec3">      0.00000000      -0.00000000       0.14285714 </v>
   <v name="shift">      0.00000000       0.00000000       0.00000000 </v>
  </generation>
  <varray name="kpointlist" >
   <v>       0.00000000       0.00000000       0.00000000 </v>
   <v>       0.14285714      -0.00000000       0.00000000 </v>
   <v>       0.28571429      -0.00000000       0.00000000 </v>
   <v>       0.42857143      -0.00000000       0.00000000 </v>
   <v>       0.14285714       0.14285714       0.00000000 </v>
   <v>       0.28571429       0.14285714       0.00000000 </v>
   <v>       0.42857143       0.14285714       0.00000000 </v>
   <v>      -0.42857143       0.14285714      -0.00000000 </v>
   <v>      -0.28571429       0.14285714      -0.00000000 </v>
   <v>      -0.14285714       0.14285714      -0.00000000 </v>
   <v>       0.28571429       0.28571429       0.00000000 </v>
   <v>       0.42857143       0.28571429       0.00000000 </v>
   <v>      -0.42857143       0.28571429      -0.00000000 </v>
   <v>      -0.28571429       0.28571429      -0.00000000 </v>
   <v>       0.42857143       0.42857143       0.00000000 </v>
   <v>      -0.42857143       0.42857143       0.00000000 </v>
   <v>       0.14285714       0.14285714       0.14285714 </v>
   <v>       0.28571429       0.14285714       0.14285714 </v>
   <v>      -0.14285714       0.14285714       0.14285714 </v>
   <v>       0.28571429       0.28571429       0.14285714 </v>
   <v>       0.42857143       0.28571429       0.14285714 </v>
   <v>      -0.28571429       0.28571429       0.14285714 </v>
   <v>      -0.14285714       0.28571429       0.14285714 </v>
   <v>      -0.42857143       0.42857143       0.14285714 </v>
   <v>      -0.28571429       0.42857143       0.14285714 </v>
   <v>      -0.14285714       0.42857143       0.14285714 </v>
   <v>      -0.42857143      -0.42857143       0.14285714 </v>
   <v>      -0.28571429      -0.42857143       0.14285714 </v>
   <v>      -0.14285714      -0.42857143       0.14285714 </v>
   <v>      -0.28571429      -0.28571429       0.14285714 </v>
   <v>      -0.14285714      -0.28571429       0.14285714 </v>
   <v>      -0.14285714      -0.14285714       0.14285714 </v>
   <v>      -0.28571429       0.28571429       0.28571429 </v>
   <v>      -0.42857143       0.42857143       0.28571429 </v>
   <v>      -0.28571429       0.42857143       0.28571429 </v>
   <v>      -0.42857143      -0.42857143       0.28571429 </v>
   <v>      -0.28571429      -0.42857143       0.28571429 </v>
   <v>      -0.28571429      -0.28571429       0.28571429 </v>
   <v>      -0.42857143       0.42857143       0.42857143 </v>
   <v>      -0.42857143      -0.42857143       0.42857143 </v>
  </varray>
  <varray name="weights" >
   <v>       0.00291545 </v>
   <v>       0.02332362 </v>
   <v>       0.02332362 </v>
   <v>       0.02332362 </v>
   <v>       0.02332362 </v>
   <v>       0.04664723 </v>
   <v>       0.04664723 </v>
   <v>       0.04664723 </v>
   <v>       0.04664723 </v>
   <v>       0.01166181 </v>
   <v>       0.02332362 </v>
   <v>       0.04664723 </v>
   <v>       0.04664723 </v>
   <v>       0.01166181 </v>
   <v>       0.02332362 </v>
   <v>       0.01166181 </v>
   <v>       0.02332362 </v>
   <v>       0.04664723 </v>
   <v>       0.01166181 </v>
   <v>       0.02332362 </v>
   <v>       0.02332362 </v>
   <v>       0.02332362 </v>
   <v>       0.02332362 </v>
   <v>       0.02332362 </v>
   <v>       0.04664723 </v>
   <v>       0.02332362 </v>
   <v>       0.02332362 </v>
   <v>       0.04664723 </v>
   <v>       0.02332362 </v>
   <v>       0.02332362 </v>
   <v>       0.02332362 </v>
   <v>       0.00583090 </v>
   <v>       0.01166181 </v>
   <v>       0.02332362 </v>
   <v>       0.02332362 </v>
   <v>       0.02332362 </v>
   <v>       0.02332362 </v>
   <v>       0.00583090 </v>
   <v>       0.01166181 </v>
   <v>       0.00583090 </v>
  </varray>
 </kpoints>
 <parameters>
  <separator name="general" >
   <i type="string" name="SYSTEM">unknown system</i>
   <i type="logical" name="LCOMPAT"> F  </i>
  </separator>
  <separator name="electronic" >
   <i type="string" name="PREC">normal</i>
   <i name="ENMAX">    350.00000000</i>
   <i name="ENAUG">    322.06900000</i>
   <i name="EDIFF">      0.00040000</i>
   <i type="int" name="IALGO">    38</i>
   <i type="int" name="IWAVPR">    11</i>
   <i type="int" name="NBANDS">     8</i>
   <i name="NELECT">      8.00000000</i>
   <i type="int" name="TURBO">     0</i>
   <i type="int" name="IRESTART">     0</i>
   <i type="int" name="NREBOOT">     0</i>
   <i type="int" name="NMIN">     0</i>
   <i name="EREF">      0.00000000</i>
   <separator name="electronic smearing" >
    <i type="int" name="ISMEAR">     0</i>
    <i name="SIGMA">      0.20000000</i>
    <i name="KSPACING">      0.50000000</i>
    <i type="logical" name="KGAMMA"> T  </i>
   </separator>
   <separator name="electronic projectors" >
    <i type="logical" name="LREAL"> F  </i>
    <v name="ROPT">      0.00000000</v>
    <i type="int" name="LMAXPAW">  -100</i>
    <i type="int" name="LMAXMIX">     2</i>
    <i type="logical" name="NLSPLINE"> F  </i>
   </separator>
   <separator name="electronic startup" >
    <i type="int" name="ISTART">     0</i>
    <i type="int" name="ICHARG">     2</i>
    <i type="int" name="INIWAV">     1</i>
   </separator>
   <separator name="electronic spin" >
    <i type="int" name="ISPIN">     1</i>
    <i type="logical" name="LNONCOLLINEAR"> F  </i>
    <v name="MAGMOM">      1.00000000      1.00000000</v>
    <i name="NUPDOWN">     -1.00000000</i>
    <i type="logical" name="LSORBIT"> F  </i>
    <v name="SAXIS">      0.00000000      0.00000000      1.00000000</v>
    <i type="logical" name="LSPIRAL"> F  </i>
    <v name="QSPIRAL">      0.00000000      0.00000000      0.00000000</v>
    <i type="logical" name="LZEROZ"> F  </i>
   </separator>
   <separator name="electronic exchange-correlation" >
    <i type="logical" name="LASPH"> F  </i>
    <i type="logical" name="LMETAGGA"> F  </i>
   </separator>
   <separator name="electronic convergence" >
    <i type="int" name="NELM">    60</i>
    <i type="int" name="NELMDL">    -5</i>
    <i type="int" name="NELMIN">     2</i>
    <i name="ENINI">    350.00000000</i>
    <separator name="electronic convergence detail" >
     <i type="logical" name="LDIAG"> T  </i>
     <i type="logical" name="LSUBROT"> F  </i>
     <i name="WEIMIN">      0.00100000</i>
     <i name="EBREAK">      0.00001250</i>
     <i name="DEPER">      0.30000000</i>
     <i type="int" name="NRMM">     4</i>
     <i name="TIME">      0.40000000</i>
    </separator>
   </separator>
   <separator name="electronic mixer" >
    <i name="AMIX">      0.40000000</i>
    <i name="BMIX">      1.00000000</i>
    <i name="AMIN">      0.10000000</i>
    <i name="AMIX_MAG">      1.60000000</i>
    <i name="BMIX_MAG">      1.00000000</i>
    <separator name="electronic mixer details" >
     <i type="int" name="IMIX">     4</i>
     <i type="logical" name="MIXFIRST"> F  </i>
     <i type="int" name="MAXMIX">   -45</i>
     <i name="WC">    100.00000000</i>
     <i type="int" name="INIMIX">     1</i>
     <i type="int" name="MIXPRE">     1</i>
     <i type="int" name="MREMOVE">     5</i>
    </separator>
   </separator>
   <separator name="electronic dipolcorrection" >
    <i type="logical" name="LDIPOL"> F  </i>
    <i type="logical" name="LMONO"> F  </i>
    <i type="int" name="IDIPOL">     0</i>
    <i name="EPSILON">      1.00000000</i>
    <v name="DIPOL">   -100.00000000   -100.00000000   -100.00000000</v>
    <i name="EFIELD">      0.00000000</i>
   </separator>
  </separator>
  <separator name="grids" >
   <i type="int" name="NGX">    18</i>
   <i type="int" name="NGY">    18</i>
   <i type="int" name="NGZ">    18</i>
   <i type="int" name="NGXF">    36</i>
   <i type="int" name="NGYF">    36</i>
   <i type="int" name="NGZF">    36</i>
   <i type="logical" name="ADDGRID"> F  </i>
  </separator>
  <separator name="ionic" >
   <i type="int" name="NSW">    15</i>
   <i type="int" name="IBRION">     2</i>
   <i type="int" name="MDALGO">     0</i>
   <i type="int" name="ISIF">     3</i>
   <i name="PSTRESS">      0.00000000</i>
   <i name="EDIFFG">     -0.01000000</i>
   <i type="int" name="NFREE">     1</i>
   <i name="POTIM">      0.50000000</i>
   <i name="SMASS">     -3.00000000</i>
   <i name="SCALEE">      1.00000000</i>
  </separator>
  <separator name="ionic md" >
   <i name="TEBEG">      0.00010000</i>
   <i name="TEEND">      0.00010000</i>
   <i type="int" name="NBLOCK">     1</i>
   <i type="int" name="KBLOCK">    15</i>
   <i type="int" name="NPACO">   256</i>
   <i name="APACO">     16.00000000</i>
  </separator>
  <separator name="symmetry" >
   <i type="int" name="ISYM">     2</i>
   <i name="SYMPREC">      0.00001000</i>
  </separator>
  <separator name="dos" >
   <i type="int" name="LORBIT">     0</i>
   <v name="RWIGS">     -1.00000000</v>
   <i type="int" name="NEDOS">   301</i>
   <i name="EMIN">     10.00000000</i>
   <i name="EMAX">    -10.00000000</i>
   <i name="EFERMI">      0.00000000</i>
  </separator>
  <separator name="writing" >
   <i type="int" name="NWRITE">     2</i>
   <i type="logical" name="LWAVE"> T  </i>
   <i type="logical" name="LDOWNSAMPLE"> F  </i>
   <i type="logical" name="LCHARG"> T  </i>
   <i type="logical" name="LPARD"> F  </i>
   <i type="logical" name="LVTOT"> F  </i>
   <i type="logical" name="LVHAR"> F  </i>
   <i type="logical" name="LELF"> F  </i>
   <i type="logical" name="LOPTICS"> F  </i>
   <v name="STM">      0.00000000      0.00000000      0.00000000      0.00000000      0.00000000      0.00000000      0.00000000</v>
  </separator>
  <separator name="performance" >
   <i type="int" name="NPAR">     8</i>
   <i type="int" name="NSIM">     4</i>
   <i type="int" name="NBLK">    -1</i>
   <i type="logical" name="LPLANE"> T  </i>
   <i type="logical" name="LSCALAPACK"> T  </i>
   <i type="logical" name="LSCAAWARE"> F  </i>
   <i type="logical" name="LSCALU"> F  </i>
   <i type="logical" name="LASYNC"> F  </i>
   <i type="logical" name="LORBITALREAL"> F  </i>
  </separator>
  <separator name="miscellaneous" >
   <i type="int" name="IDIOT">     3</i>
   <i type="int" name="ISPECIAL">     0</i>
   <i type="logical" name="LMUSIC"> F  </i>
   <v name="POMASS">     28.08500000</v>
   <v name="DARWINR">      0.00000000</v>
   <v name="DARWINV">      1.00000000</v>
   <i type="logical" name="LCORR"> T  </i>
  </separator>
  <i type="logical" name="GGA_COMPAT"> T  </i>
  <i type="logical" name="LBERRY"> F  </i>
  <i type="int" name="ICORELEVEL">     0</i>
  <i type="logical" name="LDAU"> F  </i>
  <i type="int" name="I_CONSTRAINED_M">     0</i>
  <separator name="electronic exchange-correlation" >
   <i type="string" name="GGA">--</i>
   <i type="int" name="VOSKOWN">     0</i>
   <i type="logical" name="LHFCALC"> F  </i>
   <i type="string" name="PRECFOCK"></i>
   <i type="logical" name="LSYMGRAD"> F  </i>
   <i type="logical" name="LHFONE"> F  </i>
   <i type="logical" name="LRHFCALC"> F  </i>
   <i type="logical" name="LTHOMAS"> F  </i>
   <i type="logical" name="LMODELHF"> F  </i>
   <i name="ENCUT4O">     -1.00000000</i>
   <i type="int" name="EXXOEP">     0</i>
   <i type="int" name="FOURORBIT">     0</i>
   <i name="AEXX">      0.00000000</i>
   <i name="HFALPHA">      0.00000000</i>
   <i name="MCALPHA">      0.00000000</i>
   <i name="ALDAX">      1.00000000</i>
   <i name="AGGAX">      1.00000000</i>
   <i name="ALDAC">      1.00000000</i>
   <i name="AGGAC">      1.00000000</i>
   <i type="int" name="NKREDX">     1</i>
   <i type="int" name="NKREDY">     1</i>
   <i type="int" name="NKREDZ">     1</i>
   <i type="logical" name="SHIFTRED"> F  </i>
   <i type="logical" name="ODDONLY"> F  </i>
   <i type="logical" name="EVENONLY"> F  </i>
   <i type="int" name="LMAXFOCK">     0</i>
   <i type="int" name="NMAXFOCKAE">     0</i>
   <i type="logical" name="LFOCKAEDFT"> F  </i>
   <i name="HFSCREEN">      0.00000000</i>
   <i name="HFSCREENC">      0.00000000</i>
   <i type="int" name="NBANDSGWLOW">     0</i>
  </separator>
  <separator name="vdW DFT" >
   <i type="logical" name="LUSE_VDW"> F  </i>
   <i name="Zab_VDW">     -0.84910000</i>
   <i name="PARAM1">      0.12340000</i>
   <i name="PARAM2">      1.00000000</i>
   <i name="PARAM3">      0.00000000</i>
  </separator>
  <separator name="model GW" >
   <i type="int" name="MODEL_GW">     0</i>
   <i name="MODEL_EPS0">      9.17662200</i>
   <i name="MODEL_ALPHA">      1.00000000</i>
  </separator>
  <separator name="linear response parameters" >
   <i type="logical" name="LEPSILON"> F  </i>
   <i type="logical" name="LRPA"> F  </i>
   <i type="logical" name="LNABLA"> F  </i>
   <i type="logical" name="LVEL"> F  </i>
   <i type="int" name="KINTER">     0</i>
   <i name="CSHIFT">      0.10000000</i>
   <i name="OMEGAMAX">     -1.00000000</i>
   <i name="DEG_THRESHOLD">      0.00200000</i>
   <i name="RTIME">     -0.10000000</i>
   <i name="WPLASMAI">      0.00000000</i>
   <v name="DFIELD">      0.00000000      0.00000000      0.00000000</v>
   <v name="WPLASMA">      0.00000000      0.00000000      0.00000000      0.00000000      0.00000000      0.00000000      0.00000000      0.00000000      0.00000000</v>
  </separator>
  <separator name="orbital magnetization" >
   <i type="logical" name="NUCIND"> F  </i>
   <v name="MAGPOS">      0.00000000      0.00000000      0.00000000</v>
   <i type="logical" name="LNICSALL"> T  </i>
   <i type="logical" name="ORBITALMAG"> F  </i>
   <i type="logical" name="LMAGBLOCH"> F  </i>
   <i type="logical" name="LCHIMAG"> F  </i>
   <i type="logical" name="LGAUGE"> T  </i>
   <i type="int" name="MAGATOM">     0</i>
   <v name="MAGDIPOL">      0.00000000      0.00000000      0.00000000</v>
   <v name="AVECCONST">      0.00000000      0.00000000      0.00000000</v>
  </separator>
  <separator name="response functions" >
   <i type="logical" name="LADDER"> F  </i>
   <i type="logical" name="LRPAFORCE"> F  </i>
   <i type="logical" name="LFXC"> F  </i>
   <i type="logical" name="LHARTREE"> T  </i>
   <i type="int" name="IBSE">     0</i>
   <v type="int" name="KPOINT">    -1     0     0     0</v>
   <i type="logical" name="LTCTE"> F  </i>
   <i type="logical" name="LTETE"> F  </i>
   <i type="logical" name="LTRIPLET"> F  </i>
   <i type="logical" name="LFXCEPS"> F  </i>
   <i type="logical" name="LFXHEG"> F  </i>
   <i type="int" name="NATURALO">     2</i>
   <i type="logical" name="L2ORDER"> F  </i>
   <i type="logical" name="LMP2LT"> F  </i>
   <i type="logical" name="LUSEW"> F  </i>
   <i name="ENCUTGW">     -2.00000000</i>
   <i name="ENCUTGWSOFT">     -2.00000000</i>
   <i name="ENCUTLF">     -1.00000000</i>
   <i type="int" name="LMAXMP2">    -1</i>
   <i name="SCISSOR">      0.00000000</i>
   <i type="int" name="NOMEGA">     0</i>
   <i type="int" name="NOMEGAR">     0</i>
   <i type="int" name="NBANDSGW">    -1</i>
   <i type="int" name="NBANDSO">    -1</i>
   <i type="int" name="NBANDSV">    -1</i>
   <i type="int" name="NELM">     1</i>
   <i type="int" name="NELMHF">     1</i>
   <i type="int" name="DIM">     3</i>
   <i type="int" name="ANTIRES">     0</i>
   <i name="OMEGAMAX">    -30.00000000</i>
   <i name="OMEGAMIN">    -30.00000000</i>
   <i name="OMEGATL">   -200.00000000</i>
   <i type="int" name="OMEGAGRID">   140</i>
   <i name="CSHIFT">     -0.10000000</i>
   <i type="logical" name="SELFENERGY"> F  </i>
   <i type="logical" name="LSPECTRAL"> F  </i>
   <i type="logical" name="LSPECTRALGW"> F  </i>
   <i type="logical" name="LSINGLES"> F  </i>
   <i type="logical" name="LFERMIGW"> F  </i>
   <i type="logical" name="ODDONLYGW"> F  </i>
   <i type="logical" name="EVENONLYGW"> F  </i>
   <i type="int" name="NKREDLFX">     1</i>
   <i type="int" name="NKREDLFY">     1</i>
   <i type="int" name="NKREDLFZ">     1</i>
   <i type="int" name="MAXMEM">  2800</i>
   <i type="int" name="TELESCOPE">     0</i>
   <i type="int" name="TAUPAR">     1</i>
   <i type="int" name="OMEGAPAR">    -1</i>
   <i name="LAMBDA">      1.00000000</i>
  </separator>
  <separator name="External order field" >
   <i name="OFIELD_KAPPA">      0.00000000</i>
   <v name="OFIELD_K">      0.00000000      0.00000000      0.00000000</v>
   <i name="OFIELD_Q6_NEAR">      0.00000000</i>
   <i name="OFIELD_Q6_FAR">      0.00000000</i>
   <i name="OFIELD_A">      0.00000000</i>
  </separator>
 </parameters>
 <atominfo>
  <atoms>       2 </atoms>
  <types>       1 </types>
  <array name="atoms" >
   <dimension dim="1">ion</dimension>
   <field type="string">element</field>
   <field type="int">atomtype</field>
   <set>
    <rc><c>Si</c><c>   1</c></rc>
    <rc><c>Si</c><c>   1</c></rc>
   </set>
  </array>
  <array name="atomtypes" >
   <dimension dim="1">type</dimension>
   <field type="int">atomspertype</field>
   <field type="string">element</field>
   <field>mass</field>
   <field>valence</field>
   <field type="string">pseudopotential</field>
   <set>
    <rc><c>   2</c><c>Si</c><c>     28.08500000</c><c>      4.00000000</c><c> PAW_PBE Si 05Jan2001                   </c></rc>
   </set>
  </array>
 </atominfo>
 <structure name="initialpos" >
  <crystal>
   <varray name="basis" >
    <v>      -2.45000000       2.45000000       1.27400000 </v>
    <v>       2.45000000      -2.45000000       1.27400000 </v>
    <v>       2.45000000       2.45000000      -1.27400000 </v>
   </varray>
   <i name="volume">     30.58874000 </i>
   <varray name="rec_basis" >
    <v>       0.00000000       0.20408163       0.39246468 </v>
    <v>       0.20408163       0.00000000       0.39246468 </v>
    <v>       0.20408163       0.20408163      -0.00000000 </v>
   </varray>
  </crystal>
  <varray name="positions" >
   <v>       0.25000000       0.75000000       0.50000000 </v>
   <v>       0.00000000       0.00000000       0.00000000 </v>
  </varray>
 </structure>
 <calculation>
  <scstep>
   <time name="dav">    0.52    0.52</time>
   <time name="total">    0.57    0.64</time>
   <energy>
    <i name="alphaZ">      4.40202223 </i>
    <i name="ewald">   -265.18101312 </i>
    <i name="hartreedc">     -2.30415367 </i>
    <i name="XCdc">    -17.81549222 </i>
    <i name="pawpsdc">     65.95520812 </i>
    <i name="pawaedc">    -30.76852678 </i>
    <i name="eentropy">     -0.00596561 </i>
    <i name="bandstr">     40.46255172 </i>
    <i name="atom">    206.13125414 </i>
    <i name="e_fr_energy">      0.87588482 </i>
    <i name="e_wo_entrp">      0.88185042 </i>
    <i name="e_0_energy">      0.87886762 </i>
   </energy>
  </scstep>
  <scstep>
   <time name="dav">    0.75    0.77</time>
   <time name="total">    0.76    0.77</time>
   <energy>
    <i name="e_fr_energy">    -10.15579606 </i>
    <i name="e_wo_entrp">    -10.13941434 </i>
    <i name="e_0_energy">    -10.14760520 </i>
   </energy>
  </scstep>
  <scstep>
   <time name="dav">    0.70    0.71</time>
   <time name="total">    0.70    0.71</time>
   <energy>
    <i name="e_fr_energy">    -10.27597606 </i>
    <i name="e_wo_entrp">    -10.25970415 </i>
    <i name="e_0_energy">    -10.26784010 </i>
   </energy>
  </scstep>
  <scstep>
   <time name="dav">    0.76    0.77</time>
   <time name="total">    0.76    0.78</time>
   <energy>
    <i name="e_fr_energy">    -10.27640280 </i>
    <i name="e_wo_entrp">    -10.26010938 </i>
    <i name="e_0_energy">    -10.26825609 </i>
   </energy>
  </scstep>
  <scstep>
   <time name="dav">    0.69    0.70</time>
   <time name="total">    0.74    0.75</time>
   <energy>
    <i name="e_fr_energy">    -10.27640321 </i>
    <i name="e_wo_entrp">    -10.26010981 </i>
    <i name="e_0_energy">    -10.26825651 </i>
   </energy>
  </scstep>
  <scstep>
   <time name="dav">    0.66    0.65</time>
   <time name="total">    0.74    0.75</time>
   <energy>
    <i name="e_fr_energy">    -10.27203286 </i>
    <i name="e_wo_entrp">    -10.25573976 </i>
    <i name="e_0_energy">    -10.26388631 </i>
   </energy>
  </scstep>
  <scstep>
   <time name="dav">    0.59    0.60</time>
   <time name="total">    0.68    0.69</time>
   <energy>
    <i name="e_fr_energy">    -10.26837002 </i>
    <i name="e_wo_entrp">    -10.25208995 </i>
    <i name="e_0_energy">    -10.26022999 </i>
   </energy>
  </scstep>
  <scstep>
   <time name="dav">    0.42    0.41</time>
   <time name="total">    0.45    0.46</time>
   <energy>
    <i name="alphaZ">      4.40202223 </i>
    <i name="ewald">   -265.18101312 </i>
    <i name="hartreedc">     -2.49607159 </i>
    <i name="XCdc">    -17.58438897 </i>
    <i name="pawpsdc">     70.21584616 </i>
    <i name="pawaedc">    -35.12785874 </i>
    <i name="eentropy">     -0.01627515 </i>
    <i name="bandstr">     29.38812841 </i>
    <i name="atom">    206.13125414 </i>
    <i name="e_fr_energy">    -10.26835662 </i>
    <i name="e_wo_entrp">    -10.25208147 </i>
    <i name="e_0_energy">    -10.26021904 </i>
   </energy>
  </scstep>
  <structure>
   <crystal>
    <varray name="basis" >
     <v>      -2.45000000       2.45000000       1.27400000 </v>
     <v>       2.45000000      -2.45000000       1.27400000 </v>
     <v>       2.45000000       2.45000000      -1.27400000 </v>
    </varray>
    <i name="volume">     30.58874000 </i>
    <varray name="rec_basis" >
     <v>       0.00000000       0.20408163       0.39246468 </v>
     <v>       0.20408163       0.00000000       0.39246468 </v>
     <v>       0.20408163       0.20408163      -0.00000000 </v>
    </varray>
   </crystal>
   <varray name="positions" >
    <v>       0.25000000       0.75000000       0.50000000 </v>
    <v>       0.00000000       0.00000000       0.00000000 </v>
   </varray>
  </structure>
  <varray name="forces" >
   <v>      -0.00000000       0.00000000      -0.00000000 </v>
   <v>       0.00000000      -0.00000000       0.00000000 </v>
  </varray>
  <varray name="stress" >
   <v>     -37.15005056       0.00000000       0.00000000 </v>
   <v>      -0.00000000     -37.15005056       0.00000000 </v>
   <v>       0.00000000       0.00000000      87.79435139 </v>
  </varray>
  <energy>
   <i name="e_fr_energy">    -10.26835662 </i>
   <i name="e_wo_entrp">    -10.26021904 </i>
   <i name="e_0_energy">     -0.01627515 </i>
  </energy>
  <time name="totalsc">    6.79    7.67</time>
 </calculation>
 <calculation>
  <scstep>
   <time name="dav">    0.71    0.71</time>
   <time name="total">    0.80    0.80</time>
   <energy>
    <i name="alphaZ">      4.37953107 </i>
    <i name="ewald">   -264.83909449 </i>
    <i name="hartreedc">     -2.46396681 </i>
    <i name="XCdc">    -17.61185302 </i>
    <i name="pawpsdc">     70.20760190 </i>
    <i name="pawaedc">    -35.11988546 </i>
    <i name="eentropy">     -0.01061918 </i>
    <i name="bandstr">     28.97985315 </i>
    <i name="atom">    206.13125414 </i>
    <i name="e_fr_energy">    -10.34717870 </i>
    <i name="e_wo_entrp">    -10.33655951 </i>
    <i name="e_0_energy">    -10.34186911 </i>
   </energy>
  </scstep>
  <scstep>
   <time name="dav">    0.63    0.63</time>
   <time name="total">    0.71    0.72</time>
   <energy>
    <i name="e_fr_energy">    -10.32318483 </i>
    <i name="e_wo_entrp">    -10.31252818 </i>
    <i name="e_0_energy">    -10.31785650 </i>
   </energy>
  </scstep>
  <scstep>
   <time name="dav">    0.63    0.63</time>
   <time name="total">    0.72    0.72</time>
   <energy>
    <i name="e_fr_energy">    -10.31167239 </i>
    <i name="e_wo_entrp">    -10.30094638 </i>
    <i name="e_0_energy">    -10.30630939 </i>
   </energy>
  </scstep>
  <scstep>
   <time name="dav">    0.55    0.55</time>
   <time name="total">    0.59    0.60</time>
   <energy>
    <i name="alphaZ">      4.37953107 </i>
    <i name="ewald">   -264.83909449 </i>
    <i name="hartreedc">     -2.48426574 </i>
    <i name="XCdc">    -17.61000148 </i>
    <i name="pawpsdc">     70.21299228 </i>
    <i name="pawaedc">    -35.12613179 </i>
    <i name="eentropy">     -0.01072401 </i>
    <i name="bandstr">     29.03466631 </i>
    <i name="atom">    206.13125414 </i>
    <i name="e_fr_energy">    -10.31177371 </i>
    <i name="e_wo_entrp">    -10.30104970 </i>
    <i name="e_0_energy">    -10.30641171 </i>
   </energy>
  </scstep>
  <structure>
   <crystal>
    <varray name="basis" >
     <v>      -2.40808421       2.40808421       1.32550960 </v>
     <v>       2.40808421      -2.40808421       1.32550960 </v>
     <v>       2.40808421       2.40808421      -1.32550960 </v>
    </varray>
    <i name="volume">     30.74582907 </i>
    <varray name="rec_basis" >
     <v>      -0.00000000       0.20763394       0.37721341 </v>
     <v>       0.20763394      -0.00000000       0.37721341 </v>
     <v>       0.20763394       0.20763394      -0.00000000 </v>
    </varray>
   </crystal>
   <varray name="positions" >
    <v>       0.25000000       0.75000000       0.50000000 </v>
    <v>      -0.00000000       0.00000000      -0.00000000 </v>
   </varray>
  </structure>
  <varray name="forces" >
   <v>      -0.00000000      -0.00000000      -0.00000000 </v>
   <v>       0.00000000       0.00000000       0.00000000 </v>
  </varray>
  <varray name="stress" >
   <v>       2.02125534       0.00000000       0.00000000 </v>
   <v>       0.00000000       2.02125534       0.00000000 </v>
   <v>       0.00000000       0.00000000      -8.75627995 </v>
  </varray>
  <energy>
   <i name="e_fr_energy">    -10.31177371 </i>
   <i name="e_wo_entrp">    -10.30641171 </i>
   <i name="e_0_energy">     -0.01072401 </i>
  </energy>
  <time name="totalsc">    3.25    3.44</time>
 </calculation>
 <calculation>
  <scstep>
   <time name="dav">    0.70    0.70</time>
   <time name="total">    0.78    0.80</time>
   <energy>
    <i name="alphaZ">      4.38099912 </i>
    <i name="ewald">   -264.87274532 </i>
    <i name="hartreedc">     -2.48287814 </i>
    <i name="XCdc">    -17.60869854 </i>
    <i name="pawpsdc">     70.20638843 </i>
    <i name="pawaedc">    -35.11909869 </i>
    <i name="eentropy">     -0.01078846 </i>
    <i name="bandstr">     29.06328737 </i>
    <i name="atom">    206.13125414 </i>
    <i name="e_fr_energy">    -10.31228009 </i>
    <i name="e_wo_entrp">    -10.30149163 </i>
    <i name="e_0_energy">    -10.30688586 </i>
   </energy>
  </scstep>
  <scstep>
   <time name="dav">    0.42    0.43</time>
   <time name="total">    0.46    0.48</time>
   <energy>
    <i name="alphaZ">      4.38099912 </i>
    <i name="ewald">   -264.87274532 </i>
    <i name="hartreedc">     -2.47875570 </i>
    <i name="XCdc">    -17.60945406 </i>
    <i name="pawpsdc">     70.19291025 </i>
    <i name="pawaedc">    -35.10514402 </i>
    <i name="eentropy">     -0.01077909 </i>
    <i name="bandstr">     29.05965281 </i>
    <i name="atom">    206.13125414 </i>
    <i name="e_fr_energy">    -10.31206186 </i>
    <i name="e_wo_entrp">    -10.30128277 </i>
    <i name="e_0_energy">    -10.30667231 </i>
   </energy>
  </scstep>
  <structure>
   <crystal>
    <varray name="basis" >
     <v>      -2.41148277       2.41148277       1.32133317 </v>
     <v>       2.41148277      -2.41148277       1.32133317 </v>
     <v>       2.41148277       2.41148277      -1.32133317 </v>
    </varray>
    <i name="volume">     30.73552630 </i>
    <varray name="rec_basis" >
     <v>       0.00000000       0.20734131       0.37840570 </v>
     <v>       0.20734131       0.00000000       0.37840570 </v>
     <v>       0.20734131       0.20734131      -0.00000000 </v>
    </varray>
   </crystal>
   <varray name="positions" >
    <v>       0.25000000       0.75000000       0.50000000 </v>
    <v>      -0.00000000       0.00000000      -0.00000000 </v>
   </varray>
  </structure>
  <varray name="forces" >
   <v>       0.00000000      -0.00000000       0.00000000 </v>
   <v>      -0.00000000       0.00000000      -0.00000000 </v>
  </varray>
  <varray name="stress" >
   <v>      -0.32364750       0.00000000      -0.00000000 </v>
   <v>       0.00000000      -0.32364750       0.00000000 </v>
   <v>       0.00000000      -0.00000000      -4.07322843 </v>
  </varray>
  <energy>
   <i name="e_fr_energy">    -10.31206186 </i>
   <i name="e_wo_entrp">    -10.30667231 </i>
   <i name="e_0_energy">     -0.01077909 </i>
  </energy>
  <time name="totalsc">    1.68    1.85</time>
 </calculation>
 <calculation>
  <scstep>
   <time name="dav">    0.56    0.56</time>
   <time name="total">    0.63    0.65</time>
   <energy>
    <i name="alphaZ">      4.38152994 </i>
    <i name="ewald">   -264.88435316 </i>
    <i name="hartreedc">     -2.47425802 </i>
    <i name="XCdc">    -17.60967596 </i>
    <i name="pawpsdc">     70.17904431 </i>
    <i name="pawaedc">    -35.09075457 </i>
    <i name="eentropy">     -0.01077155 </i>
    <i name="bandstr">     29.06607318 </i>
    <i name="atom">    206.13125414 </i>
    <i name="e_fr_energy">    -10.31191169 </i>
    <i name="e_wo_entrp">    -10.30114014 </i>
    <i name="e_0_energy">    -10.30652591 </i>
   </energy>
  </scstep>
  <scstep>
   <time name="dav">    0.25    0.25</time>
   <time name="total">    0.28    0.30</time>
   <energy>
    <i name="alphaZ">      4.38152994 </i>
    <i name="ewald">   -264.88435316 </i>
    <i name="hartreedc">     -2.47364561 </i>
    <i name="XCdc">    -17.60974257 </i>
    <i name="pawpsdc">     70.17824118 </i>
    <i name="pawaedc">    -35.08992726 </i>
    <i name="eentropy">     -0.01076843 </i>
    <i name="bandstr">     29.06551564 </i>
    <i name="atom">    206.13125414 </i>
    <i name="e_fr_energy">    -10.31189613 </i>
    <i name="e_wo_entrp">    -10.30112770 </i>
    <i name="e_0_energy">    -10.30651192 </i>
   </energy>
  </scstep>
  <structure>
   <crystal>
    <varray name="basis" >
     <v>      -2.41267772       2.41267772       1.31986471 </v>
     <v>       2.41267772      -2.41267772       1.31986471 </v>
     <v>       2.41267772       2.41267772      -1.31986471 </v>
    </varray>
    <i name="volume">     30.73180271 </i>
    <varray name="rec_basis" >
     <v>       0.00000000       0.20723862       0.37882671 </v>
     <v>       0.20723862       0.00000000       0.37882671 </v>
     <v>       0.20723862       0.20723862       0.00000000 </v>
    </varray>
   </crystal>
   <varray name="positions" >
    <v>       0.25000000       0.75000000       0.50000000 </v>
    <v>      -0.00000000       0.00000000      -0.00000000 </v>
   </varray>
  </structure>
  <varray name="forces" >
   <v>       0.00000000      -0.00000000      -0.00000000 </v>
   <v>      -0.00000000       0.00000000       0.00000000 </v>
  </varray>
  <varray name="stress" >
   <v>      -2.69381936      -0.00000000      -0.00000000 </v>
   <v>      -0.00000000      -2.69381936       0.00000000 </v>
   <v>       0.00000000       0.00000000       1.29736887 </v>
  </varray>
  <energy>
   <i name="e_fr_energy">    -10.31189613 </i>
   <i name="e_wo_entrp">    -10.30651192 </i>
   <i name="e_0_energy">     -0.01076843 </i>
  </energy>
  <time name="totalsc">    1.28    1.47</time>
 </calculation>
 <calculation>
  <scstep>
   <time name="dav">    0.34    0.33</time>
   <time name="total">    0.40    0.42</time>
   <energy>
    <i name="alphaZ">      4.38127158 </i>
    <i name="ewald">   -264.87873914 </i>
    <i name="hartreedc">     -2.47285215 </i>
    <i name="XCdc">    -17.61009861 </i>
    <i name="pawpsdc">     70.17820691 </i>
    <i name="pawaedc">    -35.08989486 </i>
    <i name="eentropy">     -0.01076494 </i>
    <i name="bandstr">     29.05967792 </i>
    <i name="atom">    206.13125414 </i>
    <i name="e_fr_energy">    -10.31193913 </i>
    <i name="e_wo_entrp">    -10.30117420 </i>
    <i name="e_0_energy">    -10.30655666 </i>
   </energy>
  </scstep>
  <scstep>
   <time name="dav">    0.25    0.25</time>
   <time name="total">    0.29    0.30</time>
   <energy>
    <i name="alphaZ">      4.38127158 </i>
    <i name="ewald">   -264.87873914 </i>
    <i name="hartreedc">     -2.47326371 </i>
    <i name="XCdc">    -17.61003928 </i>
    <i name="pawpsdc">     70.17945641 </i>
    <i name="pawaedc">    -35.09118829 </i>
    <i name="eentropy">     -0.01076639 </i>
    <i name="bandstr">     29.06007866 </i>
    <i name="atom">    206.13125414 </i>
    <i name="e_fr_energy">    -10.31193600 </i>
    <i name="e_wo_entrp">    -10.30116962 </i>
    <i name="e_0_energy">    -10.30655281 </i>
   </energy>
  </scstep>
  <structure>
   <crystal>
    <varray name="basis" >
     <v>      -2.41209828       2.41209828       1.32057678 </v>
     <v>       2.41209828      -2.41209828       1.32057678 </v>
     <v>       2.41209828       2.41209828      -1.32057678 </v>
    </varray>
    <i name="volume">     30.73361489 </i>
    <varray name="rec_basis" >
     <v>       0.00000000       0.20728840       0.37862244 </v>
     <v>       0.20728840       0.00000000       0.37862244 </v>
     <v>       0.20728840       0.20728840       0.00000000 </v>
    </varray>
   </crystal>
   <varray name="positions" >
    <v>       0.25000000       0.75000000       0.50000000 </v>
    <v>      -0.00000000       0.00000000      -0.00000000 </v>
   </varray>
  </structure>
  <varray name="forces" >
   <v>       0.00000000      -0.00000000      -0.00000000 </v>
   <v>      -0.00000000       0.00000000       0.00000000 </v>
  </varray>
  <varray name="stress" >
   <v>      -2.77713833       0.00000000      -0.00000000 </v>
   <v>       0.00000000      -2.77713833       0.00000000 </v>
   <v>       0.00000000      -0.00000000       1.66311770 </v>
  </varray>
  <energy>
   <i name="e_fr_energy">    -10.31193600 </i>
   <i name="e_wo_entrp">    -10.30655281 </i>
   <i name="e_0_energy">     -0.01076639 </i>
  </energy>
  <time name="totalsc">    1.06    1.22</time>
 </calculation>
 <calculation>
  <scstep>
   <time name="dav">    0.25    0.25</time>
   <time name="total">    0.32    0.33</time>
   <energy>
    <i name="alphaZ">      4.38113137 </i>
    <i name="ewald">   -264.87566410 </i>
    <i name="hartreedc">     -2.47384258 </i>
    <i name="XCdc">    -17.61011673 </i>
    <i name="pawpsdc">     70.18050402 </i>
    <i name="pawaedc">    -35.09227603 </i>
    <i name="eentropy">     -0.01076725 </i>
    <i name="bandstr">     29.05782515 </i>
    <i name="atom">    206.13125414 </i>
    <i name="e_fr_energy">    -10.31195201 </i>
    <i name="e_wo_entrp">    -10.30118476 </i>
    <i name="e_0_energy">    -10.30656839 </i>
   </energy>
  </scstep>
  <scstep>
   <time name="dav">    0.25    0.25</time>
   <time name="total">    0.29    0.30</time>
   <energy>
    <i name="alphaZ">      4.38113137 </i>
    <i name="ewald">   -264.87566410 </i>
    <i name="hartreedc">     -2.47397710 </i>
    <i name="XCdc">    -17.61010616 </i>
    <i name="pawpsdc">     70.18076729 </i>
    <i name="pawaedc">    -35.09254788 </i>
    <i name="eentropy">     -0.01076796 </i>
    <i name="bandstr">     29.05795935 </i>
    <i name="atom">    206.13125414 </i>
    <i name="e_fr_energy">    -10.31195104 </i>
    <i name="e_wo_entrp">    -10.30118308 </i>
    <i name="e_0_energy">    -10.30656706 </i>
   </energy>
  </scstep>
  <structure>
   <crystal>
    <varray name="basis" >
     <v>      -2.41178210       2.41178210       1.32096533 </v>
     <v>       2.41178210      -2.41178210       1.32096533 </v>
     <v>       2.41178210       2.41178210      -1.32096533 </v>
    </varray>
    <i name="volume">     30.73459849 </i>
    <varray name="rec_basis" >
     <v>       0.00000000       0.20731558       0.37851107 </v>
     <v>       0.20731558       0.00000000       0.37851107 </v>
     <v>       0.20731558       0.20731558       0.00000000 </v>
    </varray>
   </crystal>
   <varray name="positions" >
    <v>       0.25000000       0.75000000       0.50000000 </v>
    <v>      -0.00000000       0.00000000      -0.00000000 </v>
   </varray>
  </structure>
  <varray name="forces" >
   <v>       0.00000000       0.00000000       0.00000000 </v>
   <v>      -0.00000000      -0.00000000      -0.00000000 </v>
  </varray>
  <varray name="stress" >
   <v>      -2.36006227       0.00000000       0.00000000 </v>
   <v>       0.00000000      -2.36006227      -0.00000000 </v>
   <v>       0.00000000       0.00000000       0.75715418 </v>
  </varray>
  <energy>
   <i name="e_fr_energy">    -10.31195104 </i>
   <i name="e_wo_entrp">    -10.30656706 </i>
   <i name="e_0_energy">     -0.01076796 </i>
  </energy>
  <time name="totalsc">    0.94    1.06</time>
 </calculation>
 <calculation>
  <scstep>
   <time name="dav">    0.12    0.12</time>
   <time name="total">    0.15    0.16</time>
   <energy>
    <i name="alphaZ">      4.38107573 </i>
    <i name="ewald">   -264.87443830 </i>
    <i name="hartreedc">     -2.47416490 </i>
    <i name="XCdc">    -17.61015748 </i>
    <i name="pawpsdc">     70.18091813 </i>
    <i name="pawaedc">    -35.09270522 </i>
    <i name="eentropy">     -0.01076820 </i>
    <i name="bandstr">     29.05703004 </i>
    <i name="atom">    206.13125414 </i>
    <i name="e_fr_energy">    -10.31195605 </i>
    <i name="e_wo_entrp">    -10.30118785 </i>
    <i name="e_0_energy">    -10.30657195 </i>
   </energy>
  </scstep>
  <scstep>
   <time name="dav">    0.11    0.12</time>
   <time name="total">    0.14    0.14</time>
   <energy>
    <i name="alphaZ">      4.38107573 </i>
    <i name="ewald">   -264.87443830 </i>
    <i name="hartreedc">     -2.47420764 </i>
    <i name="XCdc">    -17.61015529 </i>
    <i name="pawpsdc">     70.18097310 </i>
    <i name="pawaedc">    -35.09276144 </i>
    <i name="eentropy">     -0.01076848 </i>
    <i name="bandstr">     29.05707229 </i>
    <i name="atom">    206.13125414 </i>
    <i name="e_fr_energy">    -10.31195589 </i>
    <i name="e_wo_entrp">    -10.30118741 </i>
    <i name="e_0_energy">    -10.30657165 </i>
   </energy>
  </scstep>
  <structure>
   <crystal>
    <varray name="basis" >
     <v>      -2.41165630       2.41165630       1.32111992 </v>
     <v>       2.41165630      -2.41165630       1.32111992 </v>
     <v>       2.41165630       2.41165630      -1.32111992 </v>
    </varray>
    <i name="volume">     30.73498883 </i>
    <varray name="rec_basis" >
     <v>       0.00000000       0.20732639       0.37846678 </v>
     <v>       0.20732639       0.00000000       0.37846678 </v>
     <v>       0.20732639       0.20732639       0.00000000 </v>
    </varray>
   </crystal>
   <varray name="positions" >
    <v>       0.25000000       0.75000000       0.50000000 </v>
    <v>      -0.00000000       0.00000000      -0.00000000 </v>
   </varray>
  </structure>
  <varray name="forces" >
   <v>       0.00000000      -0.00000000       0.00000000 </v>
   <v>      -0.00000000       0.00000000      -0.00000000 </v>
  </varray>
  <varray name="stress" >
   <v>      -2.18204178       0.00000000      -0.00000000 </v>
   <v>       0.00000000      -2.18204178      -0.00000000 </v>
   <v>       0.00000000       0.00000000       0.36116801 </v>
  </varray>
  <energy>
   <i name="e_fr_energy">    -10.31195589 </i>
   <i name="e_wo_entrp">    -10.30657165 </i>
   <i name="e_0_energy">     -0.01076848 </i>
  </energy>
  <time name="totalsc">    0.48    0.60</time>
 </calculation>
 <calculation>
  <scstep>
   <time name="dav">    0.12    0.12</time>
   <time name="total">    0.15    0.16</time>
   <energy>
    <i name="alphaZ">      4.38103740 </i>
    <i name="ewald">   -264.87359212 </i>
    <i name="hartreedc">     -2.47425876 </i>
    <i name="XCdc">    -17.61019821 </i>
    <i name="pawpsdc">     70.18101800 </i>
    <i name="pawaedc">    -35.09280786 </i>
    <i name="eentropy">     -0.01076830 </i>
    <i name="bandstr">     29.05635658 </i>
    <i name="atom">    206.13125414 </i>
    <i name="e_fr_energy">    -10.31195913 </i>
    <i name="e_wo_entrp">    -10.30119082 </i>
    <i name="e_0_energy">    -10.30657497 </i>
   </energy>
  </scstep>
  <scstep>
   <time name="dav">    0.12    0.12</time>
   <time name="total">    0.13    0.14</time>
   <energy>
    <i name="alphaZ">      4.38103740 </i>
    <i name="ewald">   -264.87359212 </i>
    <i name="hartreedc">     -2.47429492 </i>
    <i name="XCdc">    -17.61019501 </i>
    <i name="pawpsdc">     70.18109436 </i>
    <i name="pawaedc">    -35.09288630 </i>
    <i name="eentropy">     -0.01076850 </i>
    <i name="bandstr">     29.05639189 </i>
    <i name="atom">    206.13125414 </i>
    <i name="e_fr_energy">    -10.31195905 </i>
    <i name="e_wo_entrp">    -10.30119055 </i>
    <i name="e_0_energy">    -10.30657480 </i>
   </energy>
  </scstep>
  <structure>
   <crystal>
    <varray name="basis" >
     <v>      -2.41156953       2.41156953       1.32122655 </v>
     <v>       2.41156953      -2.41156953       1.32122655 </v>
     <v>       2.41156953       2.41156953      -1.32122655 </v>
    </varray>
    <i name="volume">     30.73525770 </i>
    <varray name="rec_basis" >
     <v>      -0.00000000       0.20733385       0.37843623 </v>
     <v>       0.20733385      -0.00000000       0.37843623 </v>
     <v>       0.20733385       0.20733385      -0.00000000 </v>
    </varray>
   </crystal>
   <varray name="positions" >
    <v>       0.25000000       0.75000000       0.50000000 </v>
    <v>      -0.00000000       0.00000000      -0.00000000 </v>
   </varray>
  </structure>
  <varray name="forces" >
   <v>       0.00000000      -0.00000000       0.00000000 </v>
   <v>      -0.00000000       0.00000000      -0.00000000 </v>
  </varray>
  <varray name="stress" >
   <v>      -2.09150408       0.00000000      -0.00000000 </v>
   <v>       0.00000000      -2.09150408       0.00000000 </v>
   <v>      -0.00000000       0.00000000       0.16541890 </v>
  </varray>
  <energy>
   <i name="e_fr_energy">    -10.31195905 </i>
   <i name="e_wo_entrp">    -10.30657480 </i>
   <i name="e_0_energy">     -0.01076850 </i>
  </energy>
  <time name="totalsc">    0.48    0.60</time>
 </calculation>
 <calculation>
  <scstep>
   <time name="dav">    0.12    0.12</time>
   <time name="total">    0.15    0.16</time>
   <energy>
    <i name="alphaZ">      4.38101826 </i>
    <i name="ewald">   -264.87316880 </i>
    <i name="hartreedc">     -2.47434424 </i>
    <i name="XCdc">    -17.61021329 </i>
    <i name="pawpsdc">     70.18115517 </i>
    <i name="pawaedc">    -35.09294894 </i>
    <i name="eentropy">     -0.01076846 </i>
    <i name="bandstr">     29.05605567 </i>
    <i name="atom">    206.13125414 </i>
    <i name="e_fr_energy">    -10.31196049 </i>
    <i name="e_wo_entrp">    -10.30119203 </i>
    <i name="e_0_energy">    -10.30657626 </i>
   </energy>
  </scstep>
  <scstep>
   <time name="dav">    0.12    0.12</time>
   <time name="total">    0.13    0.14</time>
   <energy>
    <i name="alphaZ">      4.38101826 </i>
    <i name="ewald">   -264.87316880 </i>
    <i name="hartreedc">     -2.47435979 </i>
    <i name="XCdc">    -17.61021207 </i>
    <i name="pawpsdc">     70.18117985 </i>
    <i name="pawaedc">    -35.09297411 </i>
    <i name="eentropy">     -0.01076856 </i>
    <i name="bandstr">     29.05607060 </i>
    <i name="atom">    206.13125414 </i>
    <i name="e_fr_energy">    -10.31196047 </i>
    <i name="e_wo_entrp">    -10.30119191 </i>
    <i name="e_0_energy">    -10.30657619 </i>
   </energy>
  </scstep>
  <structure>
   <crystal>
    <varray name="basis" >
     <v>      -2.41152615       2.41152615       1.32127986 </v>
     <v>       2.41152615      -2.41152615       1.32127986 </v>
     <v>       2.41152615       2.41152615      -1.32127986 </v>
    </varray>
    <i name="volume">     30.73539204 </i>
    <varray name="rec_basis" >
     <v>       0.00000000       0.20733758       0.37842097 </v>
     <v>       0.20733758       0.00000000       0.37842097 </v>
     <v>       0.20733758       0.20733758      -0.00000000 </v>
    </varray>
   </crystal>
   <varray name="positions" >
    <v>       0.25000000       0.75000000       0.50000000 </v>
    <v>      -0.00000000       0.00000000      -0.00000000 </v>
   </varray>
  </structure>
  <varray name="forces" >
   <v>      -0.00000000       0.00000000      -0.00000000 </v>
   <v>       0.00000000      -0.00000000       0.00000000 </v>
  </varray>
  <varray name="stress" >
   <v>      -2.03655011       0.00000000      -0.00000000 </v>
   <v>       0.00000000      -2.03655011       0.00000000 </v>
   <v>       0.00000000      -0.00000000       0.04324827 </v>
  </varray>
  <energy>
   <i name="e_fr_energy">    -10.31196047 </i>
   <i name="e_wo_entrp">    -10.30657619 </i>
   <i name="e_0_energy">     -0.01076856 </i>
  </energy>
  <time name="totalsc">    0.48    0.62</time>
 </calculation>
 <calculation>
  <scstep>
   <time name="dav">    0.12    0.12</time>
   <time name="total">    0.15    0.16</time>
   <energy>
    <i name="alphaZ">      4.38100869 </i>
    <i name="ewald">   -264.87295708 </i>
    <i name="hartreedc">     -2.47438098 </i>
    <i name="XCdc">    -17.61022176 </i>
    <i name="pawpsdc">     70.18120363 </i>
    <i name="pawaedc">    -35.09299843 </i>
    <i name="eentropy">     -0.01076853 </i>
    <i name="bandstr">     29.05589915 </i>
    <i name="atom">    206.13125414 </i>
    <i name="e_fr_energy">    -10.31196116 </i>
    <i name="e_wo_entrp">    -10.30119264 </i>
    <i name="e_0_energy">    -10.30657690 </i>
   </energy>
  </scstep>
  <scstep>
   <time name="dav">    0.12    0.12</time>
   <time name="total">    0.13    0.15</time>
   <energy>
    <i name="alphaZ">      4.38100869 </i>
    <i name="ewald">   -264.87295708 </i>
    <i name="hartreedc">     -2.47438869 </i>
    <i name="XCdc">    -17.61022114 </i>
    <i name="pawpsdc">     70.18121615 </i>
    <i name="pawaedc">    -35.09301117 </i>
    <i name="eentropy">     -0.01076857 </i>
    <i name="bandstr">     29.05590652 </i>
    <i name="atom">    206.13125414 </i>
    <i name="e_fr_energy">    -10.31196116 </i>
    <i name="e_wo_entrp">    -10.30119258 </i>
    <i name="e_0_energy">    -10.30657687 </i>
   </energy>
  </scstep>
  <structure>
   <crystal>
    <varray name="basis" >
     <v>      -2.41150446       2.41150446       1.32130652 </v>
     <v>       2.41150446      -2.41150446       1.32130652 </v>
     <v>       2.41150446       2.41150446      -1.32130652 </v>
    </varray>
    <i name="volume">     30.73545918 </i>
    <varray name="rec_basis" >
     <v>       0.00000000       0.20733945       0.37841333 </v>
     <v>       0.20733945       0.00000000       0.37841333 </v>
     <v>       0.20733945       0.20733945       0.00000000 </v>
    </varray>
   </crystal>
   <varray name="positions" >
    <v>       0.25000000       0.75000000       0.50000000 </v>
    <v>      -0.00000000       0.00000000      -0.00000000 </v>
   </varray>
  </structure>
  <varray name="forces" >
   <v>      -0.00000000      -0.00000000      -0.00000000 </v>
   <v>       0.00000000       0.00000000       0.00000000 </v>
  </varray>
  <varray name="stress" >
   <v>      -2.01006383      -0.00000000      -0.00000000 </v>
   <v>      -0.00000000      -2.01006383       0.00000000 </v>
   <v>      -0.00000000       0.00000000      -0.01578707 </v>
  </varray>
  <energy>
   <i name="e_fr_energy">    -10.31196116 </i>
   <i name="e_wo_entrp">    -10.30657687 </i>
   <i name="e_0_energy">     -0.01076857 </i>
  </energy>
  <time name="totalsc">    0.48    0.60</time>
 </calculation>
 <calculation>
  <scstep>
   <time name="dav">    0.12    0.12</time>
   <time name="total">    0.15    0.16</time>
   <energy>
    <i name="alphaZ">      4.38100390 </i>
    <i name="ewald">   -264.87285121 </i>
    <i name="hartreedc">     -2.47439920 </i>
    <i name="XCdc">    -17.61022599 </i>
    <i name="pawpsdc">     70.18122867 </i>
    <i name="pawaedc">    -35.09302394 </i>
    <i name="eentropy">     -0.01076856 </i>
    <i name="bandstr">     29.05582069 </i>
    <i name="atom">    206.13125414 </i>
    <i name="e_fr_energy">    -10.31196149 </i>
    <i name="e_wo_entrp">    -10.30119294 </i>
    <i name="e_0_energy">    -10.30657721 </i>
   </energy>
  </scstep>
  <scstep>
   <time name="dav">    0.12    0.12</time>
   <time name="total">    0.13    0.14</time>
   <energy>
    <i name="alphaZ">      4.38100390 </i>
    <i name="ewald">   -264.87285121 </i>
    <i name="hartreedc">     -2.47440298 </i>
    <i name="XCdc">    -17.61022569 </i>
    <i name="pawpsdc">     70.18123458 </i>
    <i name="pawaedc">    -35.09302994 </i>
    <i name="eentropy">     -0.01076858 </i>
    <i name="bandstr">     29.05582428 </i>
    <i name="atom">    206.13125414 </i>
    <i name="e_fr_energy">    -10.31196149 </i>
    <i name="e_wo_entrp">    -10.30119291 </i>
    <i name="e_0_energy">    -10.30657720 </i>
   </energy>
  </scstep>
  <structure>
   <crystal>
    <varray name="basis" >
     <v>      -2.41149361       2.41149361       1.32131984 </v>
     <v>       2.41149361      -2.41149361       1.32131984 </v>
     <v>       2.41149361       2.41149361      -1.32131984 </v>
    </varray>
    <i name="volume">     30.73549274 </i>
    <varray name="rec_basis" >
     <v>       0.00000000       0.20734038       0.37840951 </v>
     <v>       0.20734038       0.00000000       0.37840951 </v>
     <v>       0.20734038       0.20734038      -0.00000000 </v>
    </varray>
   </crystal>
   <varray name="positions" >
    <v>       0.25000000       0.75000000       0.50000000 </v>
    <v>      -0.00000000       0.00000000      -0.00000000 </v>
   </varray>
  </structure>
  <varray name="forces" >
   <v>       0.00000000       0.00000000       0.00000000 </v>
   <v>      -0.00000000      -0.00000000      -0.00000000 </v>
  </varray>
  <varray name="stress" >
   <v>      -1.99668426       0.00000000      -0.00000000 </v>
   <v>       0.00000000      -1.99668426       0.00000000 </v>
   <v>       0.00000000      -0.00000000      -0.04567030 </v>
  </varray>
  <energy>
   <i name="e_fr_energy">    -10.31196149 </i>
   <i name="e_wo_entrp">    -10.30657720 </i>
   <i name="e_0_energy">     -0.01076858 </i>
  </energy>
  <time name="totalsc">    0.97    2.60</time>
 </calculation>
 <calculation>
  <scstep>
   <time name="dav">    0.12    0.12</time>
   <time name="total">    0.15    0.16</time>
   <energy>
    <i name="alphaZ">      4.38100151 </i>
    <i name="ewald">   -264.87279827 </i>
    <i name="hartreedc">     -2.47440807 </i>
    <i name="XCdc">    -17.61022813 </i>
    <i name="pawpsdc">     70.18124081 </i>
    <i name="pawaedc">    -35.09303628 </i>
    <i name="eentropy">     -0.01076857 </i>
    <i name="bandstr">     29.05578120 </i>
    <i name="atom">    206.13125414 </i>
    <i name="e_fr_energy">    -10.31196166 </i>
    <i name="e_wo_entrp">    -10.30119309 </i>
    <i name="e_0_energy">    -10.30657737 </i>
   </energy>
  </scstep>
  <scstep>
   <time name="dav">    0.12    0.12</time>
   <time name="total">    0.13    0.14</time>
   <energy>
    <i name="alphaZ">      4.38100151 </i>
    <i name="ewald">   -264.87279827 </i>
    <i name="hartreedc">     -2.47440997 </i>
    <i name="XCdc">    -17.61022798 </i>
    <i name="pawpsdc">     70.18124385 </i>
    <i name="pawaedc">    -35.09303937 </i>
    <i name="eentropy">     -0.01076859 </i>
    <i name="bandstr">     29.05578301 </i>
    <i name="atom">    206.13125414 </i>
    <i name="e_fr_energy">    -10.31196166 </i>
    <i name="e_wo_entrp">    -10.30119307 </i>
    <i name="e_0_energy">    -10.30657736 </i>
   </energy>
  </scstep>
  <structure>
   <crystal>
    <varray name="basis" >
     <v>      -2.41148819       2.41148819       1.32132651 </v>
     <v>       2.41148819      -2.41148819       1.32132651 </v>
     <v>       2.41148819       2.41148819      -1.32132651 </v>
    </varray>
    <i name="volume">     30.73550952 </i>
    <varray name="rec_basis" >
     <v>       0.00000000       0.20734085       0.37840761 </v>
     <v>       0.20734085       0.00000000       0.37840761 </v>
     <v>       0.20734085       0.20734085      -0.00000000 </v>
    </varray>
   </crystal>
   <varray name="positions" >
    <v>       0.25000000       0.75000000       0.50000000 </v>
    <v>      -0.00000000       0.00000000      -0.00000000 </v>
   </varray>
  </structure>
  <varray name="forces" >
   <v>       0.00000000       0.00000000      -0.00000000 </v>
   <v>      -0.00000000      -0.00000000       0.00000000 </v>
  </varray>
  <varray name="stress" >
   <v>      -1.99000382       0.00000000       0.00000000 </v>
   <v>       0.00000000      -1.99000382       0.00000000 </v>
   <v>       0.00000000       0.00000000      -0.06056492 </v>
  </varray>
  <energy>
   <i name="e_fr_energy">    -10.31196166 </i>
   <i name="e_wo_entrp">    -10.30657736 </i>
   <i name="e_0_energy">     -0.01076859 </i>
  </energy>
  <time name="totalsc">    0.48    0.66</time>
 </calculation>
 <calculation>
  <scstep>
   <time name="dav">    0.11    0.12</time>
   <time name="total">    0.14    0.16</time>
   <energy>
    <i name="alphaZ">      4.38100031 </i>
    <i name="ewald">   -264.87277180 </i>
    <i name="hartreedc">     -2.47441251 </i>
    <i name="XCdc">    -17.61022920 </i>
    <i name="pawpsdc">     70.18124712 </i>
    <i name="pawaedc">    -35.09304270 </i>
    <i name="eentropy">     -0.01076858 </i>
    <i name="bandstr">     29.05576146 </i>
    <i name="atom">    206.13125414 </i>
    <i name="e_fr_energy">    -10.31196174 </i>
    <i name="e_wo_entrp">    -10.30119316 </i>
    <i name="e_0_energy">    -10.30657745 </i>
   </energy>
  </scstep>
  <scstep>
   <time name="dav">    0.11    0.12</time>
   <time name="total">    0.14    0.15</time>
   <energy>
    <i name="alphaZ">      4.38100031 </i>
    <i name="ewald">   -264.87277180 </i>
    <i name="hartreedc">     -2.47441346 </i>
    <i name="XCdc">    -17.61022912 </i>
    <i name="pawpsdc">     70.18124863 </i>
    <i name="pawaedc">    -35.09304424 </i>
    <i name="eentropy">     -0.01076859 </i>
    <i name="bandstr">     29.05576237 </i>
    <i name="atom">    206.13125414 </i>
    <i name="e_fr_energy">    -10.31196174 </i>
    <i name="e_wo_entrp">    -10.30119315 </i>
    <i name="e_0_energy">    -10.30657745 </i>
   </energy>
  </scstep>
  <structure>
   <crystal>
    <varray name="basis" >
     <v>      -2.41148548       2.41148548       1.32132984 </v>
     <v>       2.41148548      -2.41148548       1.32132984 </v>
     <v>       2.41148548       2.41148548      -1.32132984 </v>
    </varray>
    <i name="volume">     30.73551791 </i>
    <varray name="rec_basis" >
     <v>       0.00000000       0.20734108       0.37840665 </v>
     <v>       0.20734108       0.00000000       0.37840665 </v>
     <v>       0.20734108       0.20734108       0.00000000 </v>
    </varray>
   </crystal>
   <varray name="positions" >
    <v>       0.25000000       0.75000000       0.50000000 </v>
    <v>      -0.00000000       0.00000000      -0.00000000 </v>
   </varray>
  </structure>
  <varray name="forces" >
   <v>      -0.00000000       0.00000000      -0.00000000 </v>
   <v>       0.00000000      -0.00000000       0.00000000 </v>
  </varray>
  <varray name="stress" >
   <v>      -1.98665431       0.00000000      -0.00000000 </v>
   <v>       0.00000000      -1.98665431       0.00000000 </v>
   <v>       0.00000000       0.00000000      -0.06803454 </v>
  </varray>
  <energy>
   <i name="e_fr_energy">    -10.31196174 </i>
   <i name="e_wo_entrp">    -10.30657745 </i>
   <i name="e_0_energy">     -0.01076859 </i>
  </energy>
  <time name="totalsc">    0.48    0.64</time>
 </calculation>
 <calculation>
  <scstep>
   <time name="dav">    0.11    0.11</time>
   <time name="total">    0.15    0.16</time>
   <energy>
    <i name="alphaZ">      4.38099972 </i>
    <i name="ewald">   -264.87275856 </i>
    <i name="hartreedc">     -2.47441472 </i>
    <i name="XCdc">    -17.61022973 </i>
    <i name="pawpsdc">     70.18125028 </i>
    <i name="pawaedc">    -35.09304591 </i>
    <i name="eentropy">     -0.01076858 </i>
    <i name="bandstr">     29.05575158 </i>
    <i name="atom">    206.13125414 </i>
    <i name="e_fr_energy">    -10.31196178 </i>
    <i name="e_wo_entrp">    -10.30119320 </i>
    <i name="e_0_energy">    -10.30657749 </i>
   </energy>
  </scstep>
  <scstep>
   <time name="dav">    0.12    0.12</time>
   <time name="total">    0.13    0.14</time>
   <energy>
    <i name="alphaZ">      4.38099972 </i>
    <i name="ewald">   -264.87275856 </i>
    <i name="hartreedc">     -2.47441520 </i>
    <i name="XCdc">    -17.61022969 </i>
    <i name="pawpsdc">     70.18125106 </i>
    <i name="pawaedc">    -35.09304670 </i>
    <i name="eentropy">     -0.01076859 </i>
    <i name="bandstr">     29.05575204 </i>
    <i name="atom">    206.13125414 </i>
    <i name="e_fr_energy">    -10.31196178 </i>
    <i name="e_wo_entrp">    -10.30119319 </i>
    <i name="e_0_energy">    -10.30657749 </i>
   </energy>
  </scstep>
  <structure>
   <crystal>
    <varray name="basis" >
     <v>      -2.41148412       2.41148412       1.32133151 </v>
     <v>       2.41148412      -2.41148412       1.32133151 </v>
     <v>       2.41148412       2.41148412      -1.32133151 </v>
    </varray>
    <i name="volume">     30.73552210 </i>
    <varray name="rec_basis" >
     <v>       0.00000000       0.20734120       0.37840617 </v>
     <v>       0.20734120       0.00000000       0.37840617 </v>
     <v>       0.20734120       0.20734120      -0.00000000 </v>
    </varray>
   </crystal>
   <varray name="positions" >
    <v>       0.25000000       0.75000000       0.50000000 </v>
    <v>      -0.00000000       0.00000000      -0.00000000 </v>
   </varray>
  </structure>
  <varray name="forces" >
   <v>      -0.00000000       0.00000000      -0.00000000 </v>
   <v>       0.00000000      -0.00000000       0.00000000 </v>
  </varray>
  <varray name="stress" >
   <v>      -1.98497782       0.00000000       0.00000000 </v>
   <v>       0.00000000      -1.98497782      -0.00000000 </v>
   <v>       0.00000000      -0.00000000      -0.07176923 </v>
  </varray>
  <energy>
   <i name="e_fr_energy">    -10.31196178 </i>
   <i name="e_wo_entrp">    -10.30657749 </i>
   <i name="e_0_energy">     -0.01076859 </i>
  </energy>
  <time name="totalsc">    0.48    0.62</time>
 </calculation>
 <calculation>
  <scstep>
   <time name="dav">    0.12    0.12</time>
   <time name="total">    0.15    0.16</time>
   <energy>
    <i name="alphaZ">      4.38099942 </i>
    <i name="ewald">   -264.87275194 </i>
    <i name="hartreedc">     -2.47441583 </i>
    <i name="XCdc">    -17.61023000 </i>
    <i name="pawpsdc">     70.18125188 </i>
    <i name="pawaedc">    -35.09304754 </i>
    <i name="eentropy">     -0.01076859 </i>
    <i name="bandstr">     29.05574665 </i>
    <i name="atom">    206.13125414 </i>
    <i name="e_fr_energy">    -10.31196180 </i>
    <i name="e_wo_entrp">    -10.30119322 </i>
    <i name="e_0_energy">    -10.30657751 </i>
   </energy>
  </scstep>
  <scstep>
   <time name="dav">    0.12    0.12</time>
   <time name="total">    0.13    0.15</time>
   <energy>
    <i name="alphaZ">      4.38099942 </i>
    <i name="ewald">   -264.87275194 </i>
    <i name="hartreedc">     -2.47441607 </i>
    <i name="XCdc">    -17.61022998 </i>
    <i name="pawpsdc">     70.18125228 </i>
    <i name="pawaedc">    -35.09304794 </i>
    <i name="eentropy">     -0.01076859 </i>
    <i name="bandstr">     29.05574688 </i>
    <i name="atom">    206.13125414 </i>
    <i name="e_fr_energy">    -10.31196180 </i>
    <i name="e_wo_entrp">    -10.30119321 </i>
    <i name="e_0_energy">    -10.30657751 </i>
   </energy>
  </scstep>
  <structure>
   <crystal>
    <varray name="basis" >
     <v>      -2.41148344       2.41148344       1.32133234 </v>
     <v>       2.41148344      -2.41148344       1.32133234 </v>
     <v>       2.41148344       2.41148344      -1.32133234 </v>
    </varray>
    <i name="volume">     30.73552420 </i>
    <varray name="rec_basis" >
     <v>      -0.00000000       0.20734125       0.37840594 </v>
     <v>       0.20734125      -0.00000000       0.37840594 </v>
     <v>       0.20734125       0.20734125       0.00000000 </v>
    </varray>
   </crystal>
   <varray name="positions" >
    <v>       0.25000000       0.75000000       0.50000000 </v>
    <v>      -0.00000000       0.00000000      -0.00000000 </v>
   </varray>
  </structure>
  <varray name="forces" >
   <v>       0.00000000       0.00000000       0.00000000 </v>
   <v>      -0.00000000      -0.00000000      -0.00000000 </v>
  </varray>
  <varray name="stress" >
   <v>      -1.98413778      -0.00000000      -0.00000000 </v>
   <v>      -0.00000000      -1.98413778       0.00000000 </v>
   <v>       0.00000000      -0.00000000      -0.07364086 </v>
  </varray>
  <energy>
   <i name="e_fr_energy">    -10.31196180 </i>
   <i name="e_wo_entrp">    -10.30657751 </i>
   <i name="e_0_energy">     -0.01076859 </i>
  </energy>
  <time name="totalsc">    0.50    0.79</time>
  <eigenvalues>
   <array>
    <dimension dim="1">band</dimension>
    <dimension dim="2">kpoint</dimension>
    <dimension dim="3">spin</dimension>
    <field>eigene</field>
    <field>occ</field>
    <set>
     <set comment="spin 1">
      <set comment="kpoint 1">
       <r>   -4.6196    1.0000 </r>
       <r>    6.5340    1.0000 </r>
       <r>    6.5340    1.0000 </r>
       <r>    6.8753    1.0000 </r>
       <r>   10.6416    0.0000 </r>
       <r>   16.6180    0.0000 </r>
       <r>   17.7974    0.0000 </r>
       <r>   17.7974    0.0000 </r>
      </set>
      <set comment="kpoint 2">
       <r>   -4.0732    1.0000 </r>
       <r>    5.5332    1.0000 </r>
       <r>    6.3899    1.0000 </r>
       <r>    8.7895    0.8594 </r>
       <r>   11.7776    0.0000 </r>
       <r>   13.9777    0.0000 </r>
       <r>   14.4820    0.0000 </r>
       <r>   16.4896    0.0000 </r>
      </set>
      <set comment="kpoint 3">
       <r>   -2.4460    1.0000 </r>
       <r>    5.3579    1.0000 </r>
       <r>    6.5150    1.0000 </r>
       <r>    8.5131    0.9988 </r>
       <r>   10.9847    0.0000 </r>
       <r>   12.2991    0.0000 </r>
       <r>   12.9971    0.0000 </r>
       <r>   14.5547    0.0000 </r>
      </set>
      <set comment="kpoint 4">
       <r>    0.2062    1.0000 </r>
       <r>    3.9221    1.0000 </r>
       <r>    6.3902    1.0000 </r>
       <r>    7.1796    1.0000 </r>
       <r>    8.2979    1.0000 </r>
       <r>   10.6699    0.0000 </r>
       <r>   13.5876    0.0000 </r>
       <r>   14.4491    0.0000 </r>
      </set>
      <set comment="kpoint 5">
       <r>   -2.6944    1.0000 </r>
       <r>    5.5960    1.0000 </r>
       <r>    7.9072    1.0000 </r>
       <r>    9.1992    0.0344 </r>
       <r>   10.3192    0.0000 </r>
       <r>   10.8133    0.0000 </r>
       <r>   13.3934    0.0000 </r>
       <r>   13.9932    0.0000 </r>
      </set>
      <set comment="kpoint 6">
       <r>   -0.2728    1.0000 </r>
       <r>    5.0444    1.0000 </r>
       <r>    6.2710    1.0000 </r>
       <r>    6.7316    1.0000 </r>
       <r>    9.2728    0.0096 </r>
       <r>   11.3875    0.0000 </r>
       <r>   12.1895    0.0000 </r>
       <r>   13.8542    0.0000 </r>
      </set>
      <set comment="kpoint 7">
       <r>    1.1424    1.0000 </r>
       <r>    3.1951    1.0000 </r>
       <r>    4.6320    1.0000 </r>
       <r>    7.3786    1.0000 </r>
       <r>    8.7150    0.9457 </r>
       <r>   11.4570    0.0000 </r>
       <r>   12.5292    0.0000 </r>
       <r>   16.1151    0.0000 </r>
      </set>
      <set comment="kpoint 8">
       <r>   -1.7036    1.0000 </r>
       <r>    3.3098    1.0000 </r>
       <r>    6.7146    1.0000 </r>
       <r>    7.7544    1.0000 </r>
       <r>   10.5153    0.0000 </r>
       <r>   12.5221    0.0000 </r>
       <r>   13.5029    0.0000 </r>
       <r>   14.9050    0.0000 </r>
      </set>
      <set comment="kpoint 9">
       <r>   -3.5720    1.0000 </r>
       <r>    3.1965    1.0000 </r>
       <r>    6.5881    1.0000 </r>
       <r>   10.0886    0.0000 </r>
       <r>   12.4453    0.0000 </r>
       <r>   13.4724    0.0000 </r>
       <r>   14.2154    0.0000 </r>
       <r>   15.4871    0.0000 </r>
      </set>
      <set comment="kpoint 10">
       <r>   -4.3680    1.0000 </r>
       <r>    4.0701    1.0000 </r>
       <r>    6.7633    1.0000 </r>
       <r>    8.4309    0.9998 </r>
       <r>   12.1914    0.0000 </r>
       <r>   14.5311    0.0000 </r>
       <r>   16.4300    0.0000 </r>
       <r>   18.1438    0.0000 </r>
      </set>
      <set comment="kpoint 11">
       <r>    2.2355    1.0000 </r>
       <r>    2.6429    1.0000 </r>
       <r>    3.4456    1.0000 </r>
       <r>    7.4986    1.0000 </r>
       <r>    9.2959    0.0062 </r>
       <r>   10.3883    0.0000 </r>
       <r>   14.5149    0.0000 </r>
       <r>   15.3277    0.0000 </r>
      </set>
      <set comment="kpoint 12">
       <r>   -0.4768    1.0000 </r>
       <r>    1.2137    1.0000 </r>
       <r>    7.0613    1.0000 </r>
       <r>    7.9712    1.0000 </r>
       <r>    9.3841    0.0009 </r>
       <r>   11.4216    0.0000 </r>
       <r>   14.7128    0.0000 </r>
       <r>   16.2069    0.0000 </r>
      </set>
      <set comment="kpoint 13">
       <r>   -2.5747    1.0000 </r>
       <r>    0.8498    1.0000 </r>
       <r>    7.4863    1.0000 </r>
       <r>   10.4999    0.0000 </r>
       <r>   11.1258    0.0000 </r>
       <r>   12.8061    0.0000 </r>
       <r>   14.3941    0.0000 </r>
       <r>   14.9164    0.0000 </r>
      </set>
      <set comment="kpoint 14">
       <r>   -3.6155    1.0000 </r>
       <r>    1.5254    1.0000 </r>
       <r>    7.4498    1.0000 </r>
       <r>    9.4678    0.0001 </r>
       <r>   12.1745    0.0000 </r>
       <r>   14.3202    0.0000 </r>
       <r>   15.5225    0.0000 </r>
       <r>   17.7159    0.0000 </r>
      </set>
      <set comment="kpoint 15">
       <r>   -1.0949    1.0000 </r>
       <r>   -1.0914    1.0000 </r>
       <r>    8.8196    0.8064 </r>
       <r>    8.8371    0.7705 </r>
       <r>   11.6525    0.0000 </r>
       <r>   12.7590    0.0000 </r>
       <r>   13.8139    0.0000 </r>
       <r>   14.2000    0.0000 </r>
      </set>
      <set comment="kpoint 16">
       <r>   -2.3698    1.0000 </r>
       <r>   -0.6463    1.0000 </r>
       <r>    8.5896    0.9936 </r>
       <r>   10.1725    0.0000 </r>
       <r>   10.7265    0.0000 </r>
       <r>   12.3576    0.0000 </r>
       <r>   17.4799    0.0000 </r>
       <r>   17.5714    0.0000 </r>
      </set>
      <set comment="kpoint 17">
       <r>   -1.9495    1.0000 </r>
       <r>    3.1216    1.0000 </r>
       <r>    8.1345    1.0000 </r>
       <r>    8.8300    0.7854 </r>
       <r>   10.0963    0.0000 </r>
       <r>   11.2837    0.0000 </r>
       <r>   14.3621    0.0000 </r>
       <r>   14.8630    0.0000 </r>
      </set>
      <set comment="kpoint 18">
       <r>    0.6913    1.0000 </r>
       <r>    3.8304    1.0000 </r>
       <r>    4.6818    1.0000 </r>
       <r>    6.0811    1.0000 </r>
       <r>   10.5680    0.0000 </r>
       <r>   13.1181    0.0000 </r>
       <r>   13.9798    0.0000 </r>
       <r>   14.1625    0.0000 </r>
      </set>
      <set comment="kpoint 19">
       <r>   -4.1170    1.0000 </r>
       <r>    3.8245    1.0000 </r>
       <r>    5.0716    1.0000 </r>
       <r>   10.3728    0.0000 </r>
       <r>   12.5704    0.0000 </r>
       <r>   13.0501    0.0000 </r>
       <r>   17.3123    0.0000 </r>
       <r>   18.2080    0.0000 </r>
      </set>
      <set comment="kpoint 20">
       <r>    2.0687    1.0000 </r>
       <r>    2.1428    1.0000 </r>
       <r>    4.3363    1.0000 </r>
       <r>    5.8619    1.0000 </r>
       <r>   11.7055    0.0000 </r>
       <r>   12.5273    0.0000 </r>
       <r>   14.5687    0.0000 </r>
       <r>   15.4724    0.0000 </r>
      </set>
      <set comment="kpoint 21">
       <r>   -0.7174    1.0000 </r>
       <r>    0.9849    1.0000 </r>
       <r>    8.2198    1.0000 </r>
       <r>    8.3946    0.9999 </r>
       <r>   10.7789    0.0000 </r>
       <r>   11.9912    0.0000 </r>
       <r>   12.7213    0.0000 </r>
       <r>   13.8714    0.0000 </r>
      </set>
      <set comment="kpoint 22">
       <r>   -3.3668    1.0000 </r>
       <r>    1.7191    1.0000 </r>
       <r>    5.3344    1.0000 </r>
       <r>   10.1604    0.0000 </r>
       <r>   11.8297    0.0000 </r>
       <r>   15.8724    0.0000 </r>
       <r>   16.0493    0.0000 </r>
       <r>   17.3716    0.0000 </r>
      </set>
      <set comment="kpoint 23">
       <r>   -3.0738    1.0000 </r>
       <r>    3.1250    1.0000 </r>
       <r>    4.5168    1.0000 </r>
       <r>   10.3075    0.0000 </r>
       <r>   11.5543    0.0000 </r>
       <r>   13.6381    0.0000 </r>
       <r>   15.3709    0.0000 </r>
       <r>   16.2293    0.0000 </r>
      </set>
      <set comment="kpoint 24">
       <r>   -2.1261    1.0000 </r>
       <r>   -0.4138    1.0000 </r>
       <r>    6.4734    1.0000 </r>
       <r>    8.0995    1.0000 </r>
       <r>   13.0724    0.0000 </r>
       <r>   14.5206    0.0000 </r>
       <r>   16.8715    0.0000 </r>
       <r>   17.0744    0.0000 </r>
      </set>
      <set comment="kpoint 25">
       <r>   -2.0839    1.0000 </r>
       <r>    1.2727    1.0000 </r>
       <r>    4.9484    1.0000 </r>
       <r>    8.1381    1.0000 </r>
       <r>   11.1511    0.0000 </r>
       <r>   14.9099    0.0000 </r>
       <r>   16.0587    0.0000 </r>
       <r>   17.8074    0.0000 </r>
      </set>
      <set comment="kpoint 26">
       <r>   -0.9698    1.0000 </r>
       <r>    3.4408    1.0000 </r>
       <r>    4.8951    1.0000 </r>
       <r>    6.8055    1.0000 </r>
       <r>    9.1396    0.0810 </r>
       <r>   13.1009    0.0000 </r>
       <r>   14.3783    0.0000 </r>
       <r>   16.4330    0.0000 </r>
      </set>
      <set comment="kpoint 27">
       <r>   -0.6239    1.0000 </r>
       <r>   -0.6131    1.0000 </r>
       <r>    6.2984    1.0000 </r>
       <r>    6.3143    1.0000 </r>
       <r>   10.9638    0.0000 </r>
       <r>   15.7454    0.0000 </r>
       <r>   16.2005    0.0000 </r>
       <r>   16.6870    0.0000 </r>
      </set>
      <set comment="kpoint 28">
       <r>    0.2367    1.0000 </r>
       <r>    1.8661    1.0000 </r>
       <r>    5.4560    1.0000 </r>
       <r>    6.3312    1.0000 </r>
       <r>    7.2633    1.0000 </r>
       <r>   13.1156    0.0000 </r>
       <r>   16.2734    0.0000 </r>
       <r>   17.7733    0.0000 </r>
      </set>
      <set comment="kpoint 29">
       <r>    1.8746    1.0000 </r>
       <r>    2.7381    1.0000 </r>
       <r>    5.0389    1.0000 </r>
       <r>    6.1772    1.0000 </r>
       <r>    8.5132    0.9988 </r>
       <r>   11.0743    0.0000 </r>
       <r>   12.0498    0.0000 </r>
       <r>   16.5951    0.0000 </r>
      </set>
      <set comment="kpoint 30">
       <r>    2.0280    1.0000 </r>
       <r>    3.5600    1.0000 </r>
       <r>    3.8277    1.0000 </r>
       <r>    6.9693    1.0000 </r>
       <r>    7.1355    1.0000 </r>
       <r>   11.0581    0.0000 </r>
       <r>   13.7611    0.0000 </r>
       <r>   14.7598    0.0000 </r>
      </set>
      <set comment="kpoint 31">
       <r>   -0.7594    1.0000 </r>
       <r>    6.1913    1.0000 </r>
       <r>    7.3137    1.0000 </r>
       <r>    7.8261    1.0000 </r>
       <r>    8.2457    1.0000 </r>
       <r>   10.6031    0.0000 </r>
       <r>   11.0886    0.0000 </r>
       <r>   12.6580    0.0000 </r>
      </set>
      <set comment="kpoint 32">
       <r>   -2.9436    1.0000 </r>
       <r>    7.7789    1.0000 </r>
       <r>    7.7789    1.0000 </r>
       <r>    8.3596    1.0000 </r>
       <r>   10.7151    0.0000 </r>
       <r>   10.9474    0.0000 </r>
       <r>   12.3249    0.0000 </r>
       <r>   13.2015    0.0000 </r>
      </set>
      <set comment="kpoint 33">
       <r>   -2.6246    1.0000 </r>
       <r>    1.8591    1.0000 </r>
       <r>    3.3575    1.0000 </r>
       <r>    7.6925    1.0000 </r>
       <r>   14.2463    0.0000 </r>
       <r>   15.8976    0.0000 </r>
       <r>   17.0755    0.0000 </r>
       <r>   17.5499    0.0000 </r>
      </set>
      <set comment="kpoint 34">
       <r>   -1.4027    1.0000 </r>
       <r>    0.2509    1.0000 </r>
       <r>    3.9962    1.0000 </r>
       <r>    5.6007    1.0000 </r>
       <r>   15.0443    0.0000 </r>
       <r>   15.3969    0.0000 </r>
       <r>   17.6481    0.0000 </r>
       <r>   18.7942    0.0000 </r>
      </set>
      <set comment="kpoint 35">
       <r>   -1.1135    1.0000 </r>
       <r>    1.6446    1.0000 </r>
       <r>    3.1817    1.0000 </r>
       <r>    5.8651    1.0000 </r>
       <r>   10.5555    0.0000 </r>
       <r>   17.6770    0.0000 </r>
       <r>   17.8250    0.0000 </r>
       <r>   18.8058    0.0000 </r>
      </set>
      <set comment="kpoint 36">
       <r>    0.2796    1.0000 </r>
       <r>    0.3001    1.0000 </r>
       <r>    4.0327    1.0000 </r>
       <r>    4.0474    1.0000 </r>
       <r>   10.3412    0.0000 </r>
       <r>   17.9478    0.0000 </r>
       <r>   19.1616    0.0000 </r>
       <r>   19.8763    0.0000 </r>
      </set>
      <set comment="kpoint 37">
       <r>    1.3754    1.0000 </r>
       <r>    2.4626    1.0000 </r>
       <r>    4.0087    1.0000 </r>
       <r>    5.0204    1.0000 </r>
       <r>    6.0535    1.0000 </r>
       <r>   15.1286    0.0000 </r>
       <r>   16.2922    0.0000 </r>
       <r>   17.9522    0.0000 </r>
      </set>
      <set comment="kpoint 38">
       <r>    1.8566    1.0000 </r>
       <r>    4.4446    1.0000 </r>
       <r>    4.6824    1.0000 </r>
       <r>    5.7785    1.0000 </r>
       <r>    5.7785    1.0000 </r>
       <r>   13.1540    0.0000 </r>
       <r>   13.5080    0.0000 </r>
       <r>   13.5080    0.0000 </r>
      </set>
      <set comment="kpoint 39">
       <r>   -0.2444    1.0000 </r>
       <r>    0.8614    1.0000 </r>
       <r>    2.4438    1.0000 </r>
       <r>    3.5333    1.0000 </r>
       <r>   15.0429    0.0000 </r>
       <r>   15.0999    0.0000 </r>
       <r>   20.2413    0.0000 </r>
       <r>   21.2118    0.0000 </r>
      </set>
      <set comment="kpoint 40">
       <r>    1.1277    1.0000 </r>
       <r>    1.1641    1.0000 </r>
       <r>    2.7229    1.0000 </r>
       <r>    2.7229    1.0000 </r>
       <r>   10.1239    0.0000 </r>
       <r>   19.0871    0.0000 </r>
       <r>   20.4746    0.0000 </r>
       <r>   20.4746    0.0000 </r>
      </set>
     </set>
    </set>
   </array>
  </eigenvalues>
  <separator name="orbital magnetization" >
   <v name="MAGDIPOLOUT">      0.00000000      0.00000000      0.00000000</v>
  </separator>
  <dos>
   <i name="efermi">      8.94185479 </i>
   <total>
    <array>
     <dimension dim="1">gridpoints</dimension>
     <dimension dim="2">spin</dimension>
     <field>energy</field>
     <field>total</field>
     <field>integrated</field>
     <set>
      <set comment="spin 1">
       <r>    -6.6196     0.0000     0.0000 </r>
       <r>    -6.5202     0.0000     0.0000 </r>
       <r>    -6.4208     0.0000     0.0000 </r>
       <r>    -6.3213     0.0000     0.0000 </r>
       <r>    -6.2219     0.0000     0.0000 </r>
       <r>    -6.1225     0.0000     0.0000 </r>
       <r>    -6.0230     0.0000     0.0000 </r>
       <r>    -5.9236     0.0000     0.0000 </r>
       <r>    -5.8241     0.0000     0.0000 </r>
       <r>    -5.7247     0.0000     0.0000 </r>
       <r>    -5.6253     0.0000     0.0000 </r>
       <r>    -5.5258     0.0000     0.0000 </r>
       <r>    -5.4264     0.0000     0.0000 </r>
       <r>    -5.3269     0.0000     0.0000 </r>
       <r>    -5.2275     0.0000     0.0000 </r>
       <r>    -5.1281     0.0000     0.0000 </r>
       <r>    -5.0286     0.0001     0.0000 </r>
       <r>    -4.9292     0.0007     0.0001 </r>
       <r>    -4.8298     0.0033     0.0004 </r>
       <r>    -4.7303     0.0098     0.0014 </r>
       <r>    -4.6309     0.0210     0.0035 </r>
       <r>    -4.5314     0.0378     0.0072 </r>
       <r>    -4.4320     0.0625     0.0134 </r>
       <r>    -4.3326     0.0932     0.0227 </r>
       <r>    -4.2331     0.1335     0.0360 </r>
       <r>    -4.1337     0.1830     0.0542 </r>
       <r>    -4.0343     0.2015     0.0742 </r>
       <r>    -3.9348     0.1578     0.0899 </r>
       <r>    -3.8354     0.1091     0.1008 </r>
       <r>    -3.7359     0.1427     0.1149 </r>
       <r>    -3.6365     0.2611     0.1409 </r>
       <r>    -3.5371     0.3608     0.1768 </r>
       <r>    -3.4376     0.3538     0.2120 </r>
       <r>    -3.3382     0.2729     0.2391 </r>
       <r>    -3.2387     0.1982     0.2588 </r>
       <r>    -3.1393     0.1706     0.2758 </r>
       <r>    -3.0399     0.1728     0.2930 </r>
       <r>    -2.9404     0.1665     0.3095 </r>
       <r>    -2.8410     0.1760     0.3270 </r>
       <r>    -2.7416     0.2655     0.3534 </r>
       <r>    -2.6421     0.4189     0.3951 </r>
       <r>    -2.5427     0.5194     0.4467 </r>
       <r>    -2.4432     0.4881     0.4953 </r>
       <r>    -2.3438     0.3843     0.5335 </r>
       <r>    -2.2444     0.3390     0.5672 </r>
       <r>    -2.1449     0.4069     0.6076 </r>
       <r>    -2.0455     0.4854     0.6559 </r>
       <r>    -1.9460     0.4589     0.7015 </r>
       <r>    -1.8466     0.3742     0.7387 </r>
       <r>    -1.7472     0.3314     0.7717 </r>
       <r>    -1.6477     0.3105     0.8026 </r>
       <r>    -1.5483     0.2577     0.8282 </r>
       <r>    -1.4489     0.2073     0.8488 </r>
       <r>    -1.3494     0.2038     0.8691 </r>
       <r>    -1.2500     0.2634     0.8953 </r>
       <r>    -1.1505     0.3901     0.9341 </r>
       <r>    -1.0511     0.4989     0.9837 </r>
       <r>    -0.9517     0.4960     1.0330 </r>
       <r>    -0.8522     0.4580     1.0785 </r>
       <r>    -0.7528     0.5185     1.1301 </r>
       <r>    -0.6534     0.6531     1.1950 </r>
       <r>    -0.5539     0.7419     1.2688 </r>
       <r>    -0.4545     0.7425     1.3426 </r>
       <r>    -0.3550     0.6817     1.4104 </r>
       <r>    -0.2556     0.5671     1.4668 </r>
       <r>    -0.1562     0.3952     1.5061 </r>
       <r>    -0.0567     0.2367     1.5297 </r>
       <r>     0.0427     0.2305     1.5526 </r>
       <r>     0.1422     0.4382     1.5962 </r>
       <r>     0.2416     0.6999     1.6658 </r>
       <r>     0.3410     0.7355     1.7389 </r>
       <r>     0.4405     0.5167     1.7903 </r>
       <r>     0.5399     0.3171     1.8218 </r>
       <r>     0.6393     0.3212     1.8537 </r>
       <r>     0.7388     0.4560     1.8991 </r>
       <r>     0.8382     0.5702     1.9558 </r>
       <r>     0.9377     0.6131     2.0168 </r>
       <r>     1.0371     0.6639     2.0828 </r>
       <r>     1.1365     0.7968     2.1620 </r>
       <r>     1.2360     0.9078     2.2523 </r>
       <r>     1.3354     0.8306     2.3349 </r>
       <r>     1.4348     0.6054     2.3951 </r>
       <r>     1.5343     0.4299     2.4378 </r>
       <r>     1.6337     0.4166     2.4792 </r>
       <r>     1.7332     0.5319     2.5321 </r>
       <r>     1.8326     0.6779     2.5995 </r>
       <r>     1.9320     0.7503     2.6741 </r>
       <r>     2.0315     0.7132     2.7451 </r>
       <r>     2.1309     0.6138     2.8061 </r>
       <r>     2.2304     0.4925     2.8551 </r>
       <r>     2.3298     0.3840     2.8933 </r>
       <r>     2.4292     0.3339     2.9265 </r>
       <r>     2.5287     0.3425     2.9605 </r>
       <r>     2.6281     0.3705     2.9974 </r>
       <r>     2.7275     0.3692     3.0341 </r>
       <r>     2.8270     0.3096     3.0648 </r>
       <r>     2.9264     0.2771     3.0924 </r>
       <r>     3.0259     0.4395     3.1361 </r>
       <r>     3.1253     0.8097     3.2166 </r>
       <r>     3.2247     1.1312     3.3291 </r>
       <r>     3.3242     1.1653     3.4450 </r>
       <r>     3.4236     0.9732     3.5418 </r>
       <r>     3.5230     0.7363     3.6150 </r>
       <r>     3.6225     0.5606     3.6707 </r>
       <r>     3.7219     0.5388     3.7243 </r>
       <r>     3.8214     0.7003     3.7939 </r>
       <r>     3.9208     0.8997     3.8834 </r>
       <r>     4.0202     0.9408     3.9769 </r>
       <r>     4.1197     0.7617     4.0527 </r>
       <r>     4.2191     0.4936     4.1018 </r>
       <r>     4.3186     0.3332     4.1349 </r>
       <r>     4.4180     0.3450     4.1692 </r>
       <r>     4.5174     0.4792     4.2169 </r>
       <r>     4.6169     0.6453     4.2810 </r>
       <r>     4.7163     0.7294     4.3536 </r>
       <r>     4.8157     0.7441     4.4276 </r>
       <r>     4.9152     0.8304     4.5101 </r>
       <r>     5.0146     0.9448     4.6041 </r>
       <r>     5.1141     0.8793     4.6915 </r>
       <r>     5.2135     0.6693     4.7581 </r>
       <r>     5.3129     0.5711     4.8148 </r>
       <r>     5.4124     0.6524     4.8797 </r>
       <r>     5.5118     0.7438     4.9537 </r>
       <r>     5.6113     0.7101     5.0243 </r>
       <r>     5.7107     0.5902     5.0830 </r>
       <r>     5.8101     0.5132     5.1340 </r>
       <r>     5.9096     0.5392     5.1876 </r>
       <r>     6.0090     0.6634     5.2536 </r>
       <r>     6.1084     0.8873     5.3418 </r>
       <r>     6.2079     1.1717     5.4583 </r>
       <r>     6.3073     1.3936     5.5969 </r>
       <r>     6.4068     1.4194     5.7381 </r>
       <r>     6.5062     1.2802     5.8654 </r>
       <r>     6.6056     1.1523     5.9799 </r>
       <r>     6.7051     1.0915     6.0885 </r>
       <r>     6.8045     0.9868     6.1866 </r>
       <r>     6.9039     0.8172     6.2679 </r>
       <r>     7.0034     0.7294     6.3404 </r>
       <r>     7.1028     0.7895     6.4189 </r>
       <r>     7.2023     0.9111     6.5095 </r>
       <r>     7.3017     1.0118     6.6101 </r>
       <r>     7.4011     1.0409     6.7136 </r>
       <r>     7.5006     0.9529     6.8084 </r>
       <r>     7.6000     0.7930     6.8873 </r>
       <r>     7.6995     0.7104     6.9579 </r>
       <r>     7.7989     0.7574     7.0332 </r>
       <r>     7.8983     0.8382     7.1166 </r>
       <r>     7.9978     0.9071     7.2068 </r>
       <r>     8.0972     0.9879     7.3050 </r>
       <r>     8.1966     1.0346     7.4079 </r>
       <r>     8.2961     0.9770     7.5050 </r>
       <r>     8.3955     0.8553     7.5901 </r>
       <r>     8.4950     0.7585     7.6655 </r>
       <r>     8.5944     0.7283     7.7379 </r>
       <r>     8.6938     0.7761     7.8151 </r>
       <r>     8.7933     0.8285     7.8975 </r>
       <r>     8.8927     0.7399     7.9711 </r>
       <r>     8.9921     0.5433     8.0251 </r>
       <r>     9.0916     0.4683     8.0716 </r>
       <r>     9.1910     0.6058     8.1319 </r>
       <r>     9.2905     0.7802     8.2095 </r>
       <r>     9.3899     0.7740     8.2864 </r>
       <r>     9.4893     0.5606     8.3422 </r>
       <r>     9.5888     0.2913     8.3711 </r>
       <r>     9.6882     0.1094     8.3820 </r>
       <r>     9.7877     0.0495     8.3870 </r>
       <r>     9.8871     0.1079     8.3977 </r>
       <r>     9.9865     0.3017     8.4277 </r>
       <r>    10.0860     0.5855     8.4859 </r>
       <r>    10.1854     0.8271     8.5682 </r>
       <r>    10.2848     0.9893     8.6665 </r>
       <r>    10.3843     1.1661     8.7825 </r>
       <r>    10.4837     1.3683     8.9185 </r>
       <r>    10.5832     1.4465     9.0624 </r>
       <r>    10.6826     1.2892     9.1906 </r>
       <r>    10.7820     1.0216     9.2922 </r>
       <r>    10.8815     0.8798     9.3797 </r>
       <r>    10.9809     0.9695     9.4761 </r>
       <r>    11.0803     1.1639     9.5918 </r>
       <r>    11.1798     1.2310     9.7142 </r>
       <r>    11.2792     1.1555     9.8291 </r>
       <r>    11.3787     1.1104     9.9395 </r>
       <r>    11.4781     1.0835    10.0473 </r>
       <r>    11.5775     0.9540    10.1421 </r>
       <r>    11.6770     0.7788    10.2196 </r>
       <r>    11.7764     0.6521    10.2844 </r>
       <r>    11.8759     0.5672    10.3408 </r>
       <r>    11.9753     0.5350    10.3940 </r>
       <r>    12.0747     0.5908    10.4528 </r>
       <r>    12.1742     0.7021    10.5226 </r>
       <r>    12.2736     0.8133    10.6035 </r>
       <r>    12.3730     0.9512    10.6981 </r>
       <r>    12.4725     1.1393    10.8113 </r>
       <r>    12.5719     1.2457    10.9352 </r>
       <r>    12.6714     1.1616    11.0507 </r>
       <r>    12.7708     0.9793    11.1481 </r>
       <r>    12.8702     0.8415    11.2318 </r>
       <r>    12.9697     0.8583    11.3171 </r>
       <r>    13.0691     1.0097    11.4175 </r>
       <r>    13.1686     1.0508    11.5220 </r>
       <r>    13.2680     0.8813    11.6097 </r>
       <r>    13.3674     0.7645    11.6857 </r>
       <r>    13.4669     0.8538    11.7706 </r>
       <r>    13.5663     0.9525    11.8653 </r>
       <r>    13.6657     0.9332    11.9581 </r>
       <r>    13.7652     0.9380    12.0514 </r>
       <r>    13.8646     1.0513    12.1559 </r>
       <r>    13.9641     1.1491    12.2702 </r>
       <r>    14.0635     1.1594    12.3855 </r>
       <r>    14.1629     1.1784    12.5026 </r>
       <r>    14.2624     1.2726    12.6292 </r>
       <r>    14.3618     1.3983    12.7682 </r>
       <r>    14.4612     1.4714    12.9145 </r>
       <r>    14.5607     1.4013    13.0539 </r>
       <r>    14.6601     1.2305    13.1762 </r>
       <r>    14.7596     1.1584    13.2914 </r>
       <r>    14.8590     1.2504    13.4158 </r>
       <r>    14.9584     1.2956    13.5446 </r>
       <r>    15.0579     1.1105    13.6550 </r>
       <r>    15.1573     0.8124    13.7358 </r>
       <r>    15.2568     0.6472    13.8002 </r>
       <r>    15.3562     0.6966    13.8694 </r>
       <r>    15.4556     0.7945    13.9485 </r>
       <r>    15.5551     0.7329    14.0213 </r>
       <r>    15.6545     0.5413    14.0751 </r>
       <r>    15.7539     0.4158    14.1165 </r>
       <r>    15.8534     0.4538    14.1616 </r>
       <r>    15.9528     0.6454    14.2258 </r>
       <r>    16.0523     0.9612    14.3214 </r>
       <r>    16.1517     1.2773    14.4484 </r>
       <r>    16.2511     1.3873    14.5863 </r>
       <r>    16.3506     1.2169    14.7073 </r>
       <r>    16.4500     0.9212    14.7990 </r>
       <r>    16.5494     0.6796    14.8665 </r>
       <r>    16.6489     0.5191    14.9182 </r>
       <r>    16.7483     0.3994    14.9579 </r>
       <r>    16.8478     0.3172    14.9894 </r>
       <r>    16.9472     0.2843    15.0177 </r>
       <r>    17.0466     0.2827    15.0458 </r>
       <r>    17.1461     0.2770    15.0733 </r>
       <r>    17.2455     0.2710    15.1003 </r>
       <r>    17.3450     0.3035    15.1305 </r>
       <r>    17.4444     0.3865    15.1689 </r>
       <r>    17.5438     0.5311    15.2217 </r>
       <r>    17.6433     0.7608    15.2974 </r>
       <r>    17.7427     1.0062    15.3974 </r>
       <r>    17.8421     1.0883    15.5056 </r>
       <r>    17.9416     0.9158    15.5967 </r>
       <r>    18.0410     0.6135    15.6577 </r>
       <r>    18.1405     0.3608    15.6936 </r>
       <r>    18.2399     0.2081    15.7143 </r>
       <r>    18.3393     0.1126    15.7255 </r>
       <r>    18.4388     0.0518    15.7306 </r>
       <r>    18.5382     0.0389    15.7345 </r>
       <r>    18.6376     0.0905    15.7435 </r>
       <r>    18.7371     0.1917    15.7626 </r>
       <r>    18.8365     0.2647    15.7889 </r>
       <r>    18.9360     0.2487    15.8136 </r>
       <r>    19.0354     0.1993    15.8334 </r>
       <r>    19.1348     0.1810    15.8514 </r>
       <r>    19.2343     0.1604    15.8674 </r>
       <r>    19.3337     0.1037    15.8777 </r>
       <r>    19.4332     0.0439    15.8821 </r>
       <r>    19.5326     0.0147    15.8835 </r>
       <r>    19.6320     0.0181    15.8853 </r>
       <r>    19.7315     0.0522    15.8905 </r>
       <r>    19.8309     0.1042    15.9009 </r>
       <r>    19.9303     0.1317    15.9140 </r>
       <r>    20.0298     0.1123    15.9251 </r>
       <r>    20.1292     0.0838    15.9335 </r>
       <r>    20.2287     0.0809    15.9415 </r>
       <r>    20.3281     0.0906    15.9505 </r>
       <r>    20.4275     0.0930    15.9598 </r>
       <r>    20.5270     0.0814    15.9679 </r>
       <r>    20.6264     0.0545    15.9733 </r>
       <r>    20.7259     0.0251    15.9758 </r>
       <r>    20.8253     0.0081    15.9766 </r>
       <r>    20.9247     0.0056    15.9772 </r>
       <r>    21.0242     0.0168    15.9788 </r>
       <r>    21.1236     0.0409    15.9829 </r>
       <r>    21.2230     0.0622    15.9891 </r>
       <r>    21.3225     0.0590    15.9949 </r>
       <r>    21.4219     0.0348    15.9984 </r>
       <r>    21.5214     0.0128    15.9997 </r>
       <r>    21.6208     0.0029    16.0000 </r>
       <r>    21.7202     0.0004    16.0000 </r>
       <r>    21.8197     0.0000    16.0000 </r>
       <r>    21.9191     0.0000    16.0000 </r>
       <r>    22.0185     0.0000    16.0000 </r>
       <r>    22.1180     0.0000    16.0000 </r>
       <r>    22.2174     0.0000    16.0000 </r>
       <r>    22.3169     0.0000    16.0000 </r>
       <r>    22.4163     0.0000    16.0000 </r>
       <r>    22.5157     0.0000    16.0000 </r>
       <r>    22.6152     0.0000    16.0000 </r>
       <r>    22.7146     0.0000    16.0000 </r>
       <r>    22.8141     0.0000    16.0000 </r>
       <r>    22.9135     0.0000    16.0000 </r>
       <r>    23.0129     0.0000    16.0000 </r>
       <r>    23.1124     0.0000    16.0000 </r>
       <r>    23.2118     0.0000    16.0000 </r>
      </set>
     </set>
    </array>
   </total>
  </dos>
 </calculation>
 <structure name="finalpos" >
  <crystal>
   <varray name="basis" >
    <v>      -2.41148344       2.41148344       1.32133234 </v>
    <v>       2.41148344      -2.41148344       1.32133234 </v>
    <v>       2.41148344       2.41148344      -1.32133234 </v>
   </varray>
   <i name="volume">     30.73552420 </i>
   <varray name="rec_basis" >
    <v>      -0.00000000       0.20734125       0.37840594 </v>
    <v>       0.20734125      -0.00000000       0.37840594 </v>
    <v>       0.20734125       0.20734125       0.00000000 </v>
   </varray>
  </crystal>
  <varray name="positions" >
   <v>       0.25000000       0.75000000       0.50000000 </v>
   <v>      -0.00000000       0.00000000      -0.00000000 </v>
  </varray>
 </structure>
</modeling>
