unknown system                          
   1.00000000000000     
    -2.421581    2.421581    1.307923
     2.421581   -2.421581    1.307923
     2.421581    2.421581   -1.307923
   Si
     2
Direct
  0.250000  0.750000  0.500000
  0.000000  0.000000  0.000000
 
   28   28   28
 -5.5812     -4.0472     -.50307E-01  4.8978      9.1058      11.441      11.703      10.502      8.7912      7.1700    
  5.8161      4.7895      4.0865      3.6805      3.5481      3.6805      4.0865      4.7895      5.8162      7.1700    
  8.7912      10.502      11.703      11.441      9.1058      4.8978     -.50328E-01 -4.0473     -4.0473     -4.8404    
 -2.6897      1.5513      6.2919      9.9597      11.662      11.432      10.007      8.2986      6.7459      5.4838    
  4.5509      3.9345      3.6071      3.5481      3.7527      4.2333      5.0150      6.1217      7.5462      9.2083    
  10.881      11.851      11.204      8.4892      4.1190     -.62094     -.50328E-01 -2.6897     -2.7532     -.22372    
  3.8804      8.0160      10.841      11.756      11.016      9.4255      7.7593      6.2991      5.1438      4.3126    
  3.7856      3.5364      3.5481      3.8198      4.3666      5.2141      6.3818      7.8512      9.5251      11.134    
  11.918      11.055      8.2647      4.1190      4.8978      1.5513     -.22372     0.30709      2.9115      6.5131    
  9.7341      11.540      11.638      10.457      8.7968      7.2039      5.8547      4.8148      4.0870      3.6474    
  3.4721      3.5482      3.8782      4.4790      5.3750      6.5802      8.0660      9.7230      11.259      11.935    
  11.055      8.4892      9.1058      6.2919      3.8804      2.9116      3.8162      6.1892      9.0048      11.141    
  11.905      11.277      9.7992      8.1559      6.6622      5.4355      4.5130      3.8848      3.5264      3.4171    
  3.5482      3.9248      4.5640      5.4879      6.7045      8.1769      9.7903      11.259      11.918      11.204    
  11.441      9.9597      8.0160      6.5131      6.1892      7.2179      9.1120      10.989      12.031      11.873    
  10.710      9.1112      7.5368      6.1611      5.0612      4.2514      3.7147      3.4276      3.3739      3.5483    
  3.9572      4.6170      5.5461      6.7468      8.1769      9.7230      11.134      11.851      11.703      11.662    
  10.841      9.7341      9.0048      9.1121      10.043      11.316      12.250      12.337      11.487      10.031    
  8.4449      6.9710      5.7233      4.7467      4.0398      3.5826      3.3548      3.3442      3.5483      3.9738    
  4.6350      5.5461      6.7045      8.0660      9.5251      10.881      10.502      11.432      11.756      11.540    
  11.141      10.989      11.316      12.000      12.631      12.753      12.131      10.875      9.3503      7.8391    
  6.4856      5.3665      4.5030      3.8848      3.4926      3.3102      3.3291      3.5483      3.9738      4.6170    
  5.4879      6.5802      7.8512      9.2083      8.7912      10.007      11.016      11.638      11.905      12.031    
  12.250      12.631      13.012      13.094      12.630      11.595      10.208      8.7322      7.3285      6.1028    
  5.1034      4.3371      3.7905      3.4471      3.2952      3.3291      3.5483      3.9572      4.5640      5.3750    
  6.3818      7.5462      7.1700      8.2986      9.4255      10.457      11.277      11.873      12.337      12.753    
  13.094      13.206      12.909      12.124      10.957      9.6036      8.2228      6.9421      5.8386      4.9425    
  4.2533      3.7588      3.4471      3.3102      3.3442      3.5483      3.9248      4.4790      5.2141      6.1217    
  5.8162      6.7459      7.7593      8.7968      9.7992      10.710      11.487      12.131      12.630      12.909    
  12.851      12.378      11.518      10.388      9.1232      7.8604      6.7014      5.7039      4.8883      4.2533    
  3.7905      3.4926      3.3548      3.3739      3.5482      3.8782      4.3666      5.0150      4.7895      5.4838    
  6.2991      7.2039      8.1559      9.1112      10.031      10.875      11.595      12.124      12.378      12.279    
  11.806      11.002      9.9631      8.8147      7.6721      6.6196      5.7039      4.9425      4.3371      3.8848    
  3.5826      3.4276      3.4171      3.5482      3.8198      4.2333      4.0865      4.5509      5.1438      5.8546    
  6.6622      7.5368      8.4449      9.3503      10.208      10.957      11.518      11.806      11.759      11.362    
  10.658      9.7370      8.7084      7.6721      6.7014      5.8386      5.1034      4.5030      4.0398      3.7147    
  3.5264      3.4721      3.5481      3.7527      3.6805      3.9345      4.3126      4.8148      5.4355      6.1611    
  6.9709      7.8391      8.7322      9.6036      10.388      11.002      11.362      11.407      11.120      10.537    
  9.7370      8.8147      7.8604      6.9421      6.1028      5.3665      4.7467      4.2514      3.8848      3.6474    
  3.5364      3.5481      3.5481      3.6071      3.7856      4.0869      4.5130      5.0612      5.7233      6.4856    
  7.3285      8.2228      9.1232      9.9631      10.658      11.120      11.282      11.120      10.658      9.9631    
  9.1232      8.2228      7.3285      6.4856      5.7233      5.0612      4.5130      4.0870      3.7856      3.6071    
  3.6805      3.5481      3.5364      3.6474      3.8848      4.2514      4.7467      5.3665      6.1028      6.9421    
  7.8604      8.8147      9.7370      10.537      11.120      11.407      11.362      11.002      10.388      9.6036    
  8.7322      7.8391      6.9710      6.1611      5.4355      4.8148      4.3126      3.9345      4.0865      3.7527    
  3.5481      3.4720      3.5264      3.7146      4.0398      4.5030      5.1034      5.8386      6.7014      7.6721    
  8.7084      9.7370      10.658      11.362      11.759      11.806      11.518      10.957      10.208      9.3503    
  8.4449      7.5368      6.6622      5.8547      5.1438      4.5509      4.7895      4.2333      3.8198      3.5481    
  3.4170      3.4276      3.5825      3.8848      4.3371      4.9424      5.7039      6.6196      7.6721      8.8147    
  9.9631      11.002      11.806      12.279      12.378      12.124      11.595      10.875      10.031      9.1112    
  8.1559      7.2039      6.2991      5.4838      5.8161      5.0150      4.3666      3.8782      3.5482      3.3739    
  3.3547      3.4925      3.7904      4.2532      4.8883      5.7039      6.7014      7.8604      9.1232      10.388    
  11.518      12.378      12.851      12.909      12.630      12.131      11.487      10.710      9.7992      8.7968    
  7.7593      6.7459      7.1700      6.1216      5.2141      4.4790      3.9247      3.5482      3.3442      3.3101    
  3.4470      3.7588      4.2532      4.9424      5.8386      6.9421      8.2228      9.6036      10.957      12.124    
  12.909      13.206      13.094      12.753      12.337      11.873      11.277      10.457      9.4255      8.2986    
  8.7912      7.5462      6.3817      5.3750      4.5640      3.9571      3.5483      3.3291      3.2952      3.4470    
  3.7904      4.3371      5.1034      6.1028      7.3285      8.7322      10.208      11.595      12.630      13.094    
  13.012      12.631      12.250      12.031      11.905      11.638      11.016      10.007      10.502      9.2083    
  7.8512      6.5801      5.4879      4.6169      3.9737      3.5483      3.3291      3.3101      3.4925      3.8848    
  4.5030      5.3665      6.4856      7.8391      9.3503      10.875      12.131      12.753      12.631      12.000    
  11.316      10.989      11.141      11.540      11.756      11.432      11.703      10.881      9.5251      8.0659    
  6.7044      5.5461      4.6349      3.9737      3.5483      3.3442      3.3547      3.5825      4.0398      4.7467    
  5.7233      6.9709      8.4449      10.031      11.487      12.337      12.250      11.316      10.043      9.1120    
  9.0048      9.7341      10.841      11.662      11.441      11.851      11.134      9.7230      8.1768      6.7467    
  5.5461      4.6169      3.9571      3.5482      3.3739      3.4276      3.7146      4.2514      5.0612      6.1611    
  7.5368      9.1112      10.710      11.873      12.031      10.989      9.1121      7.2179      6.1892      6.5131    
  8.0160      9.9597      9.1058      11.204      11.918      11.259      9.7903      8.1768      6.7044      5.4879    
  4.5640      3.9247      3.5482      3.4170      3.5264      3.8848      4.5130      5.4355      6.6622      8.1559    
  9.7992      11.277      11.905      11.141      9.0048      6.1892      3.8162      2.9115      3.8804      6.2919    
  4.8978      8.4892      11.055      11.935      11.259      9.7230      8.0659      6.5801      5.3750      4.4790    
  3.8782      3.5481      3.4720      3.6474      4.0869      4.8148      5.8546      7.2039      8.7968      10.457    
  11.638      11.540      9.7341      6.5131      2.9116     0.30709     -.22372      1.5513     -.50307E-01  4.1190    
  8.2648      11.055      11.918      11.134      9.5251      7.8512      6.3817      5.2141      4.3666      3.8198    
  3.5481      3.5364      3.7856      4.3126      5.1438      6.2991      7.7593      9.4255      11.016      11.756    
  10.841      8.0160      3.8804     -.22372     -2.7532     -2.6897     -4.0472     -.62091      4.1190      8.4892    
  11.204      11.851      10.881      9.2083      7.5462      6.1216      5.0150      4.2333      3.7527      3.5481    
  3.6071      3.9345      4.5509      5.4838      6.7459      8.2986      10.007      11.432      11.662      9.9597    
  6.2919      1.5513     -2.6897     -4.8404     -4.0472     -2.9352     0.55921      5.0857      9.0423      11.293    
  11.569      10.404      8.7039      7.0774      5.7085      4.6606      3.9323      3.4968      3.3290      3.4180    
  3.7704      4.4084      5.3597      6.6352      8.1911      9.8852      11.246      11.375      9.6071      6.0006    
  1.5037     -2.3370     -2.9352     -4.0472     -2.3370      1.5037      6.0006      9.6072      11.375      11.246    
  9.8852      8.1911      6.6352      5.3597      4.4083      3.7704      3.4180      3.3290      3.4968      3.9324    
  4.6607      5.7085      7.0774      8.7040      10.404      11.569      11.293      9.0422      5.0857     0.55920    
 0.65898     -2.2307     -2.6897     -.55159      3.3011      7.3838      10.319      11.411      10.820      9.2965    
  7.6442      6.1810      5.0139      4.1675      3.6237      3.3554      3.3442      3.5881      4.1017      4.9116    
  6.0418      7.4834      9.1548      10.829      11.814      11.261      8.7901      4.8457      5.3449      1.7906    
 -.35220     -.22370      2.0894      5.6037      8.9398      10.979      11.312      10.284      8.6734      7.0915    
  5.7383      4.6885      3.9496      3.4991      3.3118      3.3739      3.6875      4.2699      5.1479      6.3406    
  7.8291      9.5171      11.146      12.005      11.345      8.9381      9.4690      6.4880      3.7406      2.3582    
  2.9116      5.1170      7.9914      10.360      11.413      11.021      9.6619      8.0479      6.5598      5.3282    
  4.3984      3.7645      3.4021      3.2894      3.4171      3.7907      4.4286      5.3563      6.5872      8.0930    
  9.7680      11.344      12.150      11.559      11.856      10.265      8.0439      6.1465      5.4261      6.1892    
  8.0333      10.070      11.394      11.517      10.541      9.0067      7.4488      6.0733      4.9686      4.1557    
  3.6198      3.3369      3.2894      3.4722      3.8927      4.5695      5.5248      6.7659      8.2573      9.8893    
  11.411      12.234      12.222      12.145      11.138      9.7043      8.5831      8.3535      9.1121      10.421    
  11.558      11.911      11.280      9.9318      8.3719      6.9033      5.6525      4.6735      3.9694      3.5206    
  3.3058      3.3118      3.5366      3.9886      4.6847      5.6429      6.8646      8.3094      9.8704      11.333    
  11.101      12.069      12.315      11.882      11.159      10.660      10.727      11.316      12.024      12.334    
  11.912      10.783      9.2942      7.7914      6.4358      5.3137      4.4530      3.8452      3.4699      3.3096    
  3.3554      3.6073      4.0733      4.7674      5.7028      6.8758      8.2440      9.7091      9.4137      10.716    
  11.744      12.273      12.328      12.168      12.107      12.299      12.631      12.785      12.451      11.523    
  10.172      8.7028      7.2964      6.0667      5.0691      4.3135      3.7860      3.4684      3.3476      3.4181    
  3.6807      4.1419      4.8123      5.6999      6.7974      8.0641      7.7808      9.0023      10.198      11.240    
  11.971      12.384      12.615      12.816      13.019      13.094      12.831      12.097      10.946      9.5888    
  8.2015      6.9151      5.8123      4.9268      4.2584      3.7929      3.5156      3.4180      3.4968      3.7528    
  4.1903      4.8159      5.6337      6.6341      6.3965      7.4132      8.5017      9.5864      10.589      11.425    
  12.055      12.518      12.852      13.019      12.909      12.414      11.532      10.381      9.1016      7.8295    
  6.6702      5.6840      4.8915      4.2889      3.8648      3.6095      3.5178      3.5880      3.8198      4.2153    
  4.7777      5.5080      5.3309      6.1007      6.9859      7.9445      8.9212      9.8595      10.713      11.442    
  12.020      12.413      12.558      12.378      11.842      10.994      9.9266      8.7625      7.6179      6.5780    
  5.6887      4.9649      4.4041      3.9997      3.7468      3.6432      3.6874      3.8781      4.2153      4.6997    
  4.5870      5.1143      5.7663      6.5266      7.3654      8.2433      9.1183      9.9516      10.705      11.331    
  11.768      11.944      11.806      11.341      10.591      9.6443      8.6099      7.5871      6.6470      5.8284    
  5.1457      4.6011      4.1938      3.9233      3.7893      3.7905      3.9246      4.1902      4.1418      4.4467    
  4.8719      5.4142      6.0629      6.7977      7.5912      8.4121      9.2267      9.9943      10.660      11.155    
  11.407      11.362      11.009      10.388      9.5746      8.6648      7.7449      6.8777      6.1000      5.4297    
  4.8753      4.4418      4.1330      3.9503      3.8925      3.9570      3.9736      4.0731      4.2877      4.6185    
  5.0648      5.6200      6.2710      6.9992      7.7818      8.5904      9.3846      10.107      10.685      11.041    
  11.120      10.903      10.418      9.7327      8.9291      8.0858      7.2617      6.4951      5.8090      5.2187    
  4.7358      4.3681      4.1192      3.9884      4.0731      3.9736      3.9885      4.1192      4.3682      4.7358    
  5.2187      5.8090      6.4951      7.2617      8.0858      8.9291      9.7327      10.418      10.903      11.120    
  11.041      10.685      10.107      9.3846      8.5904      7.7819      6.9992      6.2710      5.6200      5.0648    
  4.6185      4.2877      4.4467      4.1418      3.9570      3.8926      3.9504      4.1331      4.4418      4.8753    
  5.4298      6.1000      6.8777      7.7449      8.6648      9.5746      10.388      11.009      11.362      11.407    
  11.155      10.660      9.9943      9.2267      8.4121      7.5912      6.7977      6.0629      5.4142      4.8719    
  5.1143      4.5870      4.1903      3.9247      3.7905      3.7894      3.9233      4.1938      4.6011      5.1457    
  5.8284      6.6470      7.5871      8.6099      9.6443      10.591      11.341      11.806      11.944      11.768    
  11.331      10.705      9.9516      9.1183      8.2433      7.3654      6.5266      5.7663      6.1008      5.3310    
  4.6998      4.2153      3.8782      3.6874      3.6432      3.7468      3.9997      4.4041      4.9649      5.6887    
  6.5780      7.6179      8.7625      9.9266      10.994      11.842      12.378      12.558      12.413      12.019    
  11.442      10.713      9.8594      8.9212      7.9446      6.9859      7.4132      6.3966      5.5080      4.7777    
  4.2153      3.8199      3.5880      3.5179      3.6095      3.8648      4.2889      4.8915      5.6840      6.6702    
  7.8295      9.1016      10.381      11.532      12.414      12.909      13.019      12.852      12.518      12.055    
  11.425      10.589      9.5864      8.5018      9.0023      7.7809      6.6342      5.6337      4.8160      4.1903    
  3.7528      3.4968      3.4180      3.5156      3.7928      4.2584      4.9268      5.8123      6.9151      8.2016    
  9.5888      10.946      12.097      12.831      13.093      13.019      12.816      12.614      12.384      11.971    
  11.240      10.198      10.716      9.4137      8.0641      6.7974      5.7000      4.8123      4.1419      3.6806    
  3.4181      3.3476      3.4684      3.7860      4.3134      5.0691      6.0667      7.2964      8.7028      10.172    
  11.523      12.451      12.785      12.631      12.299      12.107      12.168      12.328      12.273      11.744    
  12.069      11.101      9.7091      8.2440      6.8758      5.7029      4.7674      4.0732      3.6072      3.3553    
  3.3095      3.4698      3.8451      4.4529      5.3137      6.4357      7.7914      9.2942      10.783      11.912    
  12.334      12.024      11.316      10.727      10.660      11.159      11.882      12.315      12.145      12.222    
  11.333      9.8703      8.3094      6.8646      5.6429      4.6847      3.9885      3.5365      3.3117      3.3057    
  3.5205      3.9693      4.6734      5.6525      6.9033      8.3719      9.9318      11.280      11.910      11.558    
  10.421      9.1120      8.3534      8.5831      9.7042      11.138      10.265      11.856      12.234      11.411    
  9.8893      8.2572      6.7659      5.5247      4.5694      3.8926      3.4721      3.2893      3.3367      3.6197    
  4.1557      4.9686      6.0733      7.4488      9.0067      10.541      11.517      11.394      10.070      8.0333    
  6.1892      5.4261      6.1465      8.0439      6.4880      9.4690      11.559      12.150      11.344      9.7679    
  8.0930      6.5871      5.3562      4.4285      3.7906      3.4171      3.2893      3.4020      3.7644      4.3983    
  5.3282      6.5598      8.0479      9.6619      11.021      11.413      10.359      7.9914      5.1171      2.9116    
  2.3583      3.7407      1.7906      5.3449      8.9381      11.345      12.005      11.146      9.5171      7.8290    
  6.3405      5.1477      4.2698      3.6874      3.3738      3.3117      3.4990      3.9495      4.6885      5.7383    
  7.0915      8.6734      10.284      11.312      10.979      8.9398      5.6037      2.0895     -.22364     -.35213    
 -2.2306     0.65901      4.8457      8.7901      11.261      11.814      10.829      9.1547      7.4833      6.0417    
  4.9115      4.1016      3.5880      3.3441      3.3553      3.6237      4.1675      5.0139      6.1810      7.6442    
  9.2965      10.820      11.411      10.319      7.3837      3.3012     -.55154     -2.6896     -.50134E-01 0.65911    
  3.3568      6.9514      10.083      11.758      11.731      10.467      8.7675      7.1524      5.7869      4.7310    
  3.9833      3.5179      3.3102      3.3477      3.6340      4.1875      5.0345      6.1911      7.6319      9.2519    
  10.757      11.416      10.556      8.0744      4.6397      1.5038     0.55932     -.62074     0.55931      3.6034    
  7.2787      10.229      11.589      11.280      9.8855      8.2112      6.6726      5.4040      4.4480      3.7950    
  3.4181      3.2952      3.4181      3.7950      4.4480      5.4040      6.6726      8.2111      9.8855      11.280    
  11.589      10.229      7.2787      3.6034      3.3568     0.65909     -.50155E-01  1.5038      4.6397      8.0745    
  10.556      11.416      10.757      9.2519      7.6319      6.1911      5.0344      4.1875      3.6340      3.3477    
  3.3102      3.5180      3.9833      4.7311      5.7870      7.1524      8.7675      10.467      11.731      11.758    
  10.083      6.9514      7.1960      3.9669      1.7907      1.5515      3.3012      6.2392      9.1319      10.921    
  11.173      10.164      8.6005      7.0582      5.7311      4.6952      3.9607      3.5070      3.3096      3.3548    
  3.6433      4.1909      5.0237      6.1643      7.6050      9.2702      10.966      12.117      11.977      10.212    
  10.628      7.9832      5.3229      3.7407      3.8805      5.6038      8.0729      10.197      11.172      10.809    
  9.5171      7.9610      6.5159      5.3128      4.4008      3.7771      3.4191      3.3057      3.4276      3.7894    
  4.4089      5.3116      6.5158      8.0040      9.6882      11.357      12.433      12.262      12.581      11.258    
  9.1578      7.1634      6.1465      6.5132      7.9914      9.7915      11.036      11.198      10.312      8.8573    
  7.3591      6.0271      4.9530      4.1626      3.6438      3.3742      3.3368      3.5264      3.9504      4.6271    
  5.5797      6.8205      8.3233      9.9921      11.615      12.661      12.766      12.864      11.958      10.478    
  9.1412      8.5831      9.0048      10.070      11.108      11.492      10.961      9.7148      8.2295      6.8184    
  5.6105      4.6649      3.9891      3.5657      3.3742      3.4020      3.6474      4.1192      4.8344      5.8124    
  7.0587      8.5400      10.157      11.715      11.639      12.704      13.017      12.558      11.676      10.906    
  10.660      10.989      11.558      11.860      11.520      10.499      9.0961      7.6611      6.3594      5.2807    
  4.4578      3.8856      3.5451      3.4190      3.4990      3.7857      4.2877      5.0194      5.9949      7.2133    
  8.6362      10.167      10.017      11.378      12.446      12.958      12.901      12.526      12.184      12.107    
  12.250      12.334      12.033      11.189      9.9225      8.5228      7.1776      5.9997      5.0485      4.3375    
  3.8547      3.5822      3.5068      3.6236      3.9346      4.4467      5.1706      6.1146      7.2720      8.6026    
  8.4397      9.7161      10.946      11.982      12.641      12.895      12.894      12.836      12.816      12.753    
  12.451      11.749      10.656      9.3578      8.0319      6.8028      5.7537      4.9211      4.3068      3.8964    
  3.6750      3.6338      3.7703      4.0865      4.5870      5.2779      6.1622      7.2291      7.0869      8.1586    
  9.2846      10.377      11.340      12.072      12.528      12.767      12.871      12.852      12.630      12.097    
  11.221      10.102      8.8729      7.6578      6.5573      5.6319      4.9027      4.3659      4.0086      3.8200    
  3.7948      3.9322      4.2332      4.6997      5.3336      6.1336      6.0305      6.8557      7.7802      8.7543    
  9.7116      10.584      11.318      11.872      12.242      12.433      12.413      12.124      11.532      10.674    
  9.6328      8.5158      7.4303      6.4573      5.6410      4.9944      4.5130      4.1876      4.0117      3.9831    
  4.1015      4.3666      4.7777      5.3336      5.2780      5.8603      6.5524      7.3320      8.1625      8.9963    
  9.7841      10.485      11.067      11.501      11.749      11.768      11.518      10.994      10.231      9.3094    
  8.3260      7.3721      6.5132      5.7840      5.1949      4.7443      4.4279      4.2434      4.1908      4.2697    
  4.4789      4.8159      4.8123      5.1707      5.6354      6.1985      6.8446      7.5482      8.2761      8.9932    
  9.6660      10.261      10.741      11.056      11.155      11.002      10.591      9.9592      9.1774      8.3306    
  7.4960      6.7289      6.0596      5.5002      5.0540      4.7223      4.5067      4.4088      4.4285      4.5639    
  4.6169      4.7675      5.0195      5.3711      5.8174      6.3485      6.9475      7.5923      8.2580      8.9176    
  9.5382      10.076      10.477      10.685      10.658      10.388      9.9027      9.2629      8.5410      7.8039    
  7.1008      6.4618      5.9029      5.4336      5.0611      4.7911      4.6271      4.5695      4.6847      4.6349    
  4.6848      4.8345      5.0842      5.4317      5.8708      6.3911      6.9788      7.6173      8.2853      8.9514    
  9.5693      10.079      10.418      10.537      10.418      10.079      9.5693      8.9514      8.2853      7.6174    
  6.9788      6.3911      5.8707      5.4316      5.0842      4.8345      5.0195      4.7675      4.6169      4.5695    
  4.6271      4.7912      5.0612      5.4336      5.9029      6.4618      7.1008      7.8038      8.5410      9.2630    
  9.9028      10.388      10.658      10.685      10.477      10.076      9.5382      8.9177      8.2581      7.5923    
  6.9475      6.3485      5.8174      5.3710      5.6354      5.1708      4.8124      4.5640      4.4286      4.4089    
  4.5068      4.7223      5.0541      5.5003      6.0596      6.7289      7.4960      8.3306      9.1774      9.9592    
  10.591      11.002      11.155      11.056      10.741      10.261      9.6661      8.9933      8.2762      7.5482    
  6.8446      6.1985      6.5524      5.8604      5.2780      4.8160      4.4790      4.2698      4.1908      4.2435    
  4.4279      4.7443      5.1950      5.7840      6.5132      7.3721      8.3260      9.3094      10.231      10.994    
  11.518      11.768      11.749      11.501      11.067      10.485      9.7841      8.9963      8.1625      7.3320    
  7.7803      6.8558      6.0306      5.3337      4.7777      4.3666      4.1015      3.9832      4.0117      4.1876    
  4.5130      4.9944      5.6410      6.4573      7.4303      8.5158      9.6328      10.674      11.532      12.124    
  12.413      12.433      12.242      11.872      11.318      10.584      9.7116      8.7543      9.2847      8.1587    
  7.0870      6.1337      5.3337      4.6998      4.2333      3.9323      3.7949      3.8200      4.0086      4.3659    
  4.9027      5.6318      6.5573      7.6578      8.8730      10.102      11.221      12.097      12.630      12.852    
  12.871      12.767      12.528      12.072      11.340      10.377      10.946      9.7162      8.4397      7.2292    
  6.1623      5.2779      4.5870      4.0865      3.7704      3.6338      3.6751      3.8964      4.3068      4.9211    
  5.7537      6.8028      8.0320      9.3579      10.656      11.749      12.451      12.753      12.816      12.836    
  12.894      12.895      12.641      11.982      12.445      11.378      10.017      8.6026      7.2720      6.1146    
  5.1706      4.4467      3.9346      3.6236      3.5068      3.5822      3.8547      4.3375      5.0485      5.9997    
  7.1776      8.5229      9.9226      11.189      12.033      12.334      12.250      12.106      12.184      12.525    
  12.901      12.958      13.017      12.704      11.639      10.167      8.6362      7.2133      5.9949      5.0194    
  4.2877      3.7857      3.4990      3.4190      3.5451      3.8856      4.4578      5.2807      6.3594      7.6611    
  9.0961      10.499      11.520      11.860      11.557      10.989      10.660      10.906      11.676      12.557    
  11.958      12.864      12.766      11.715      10.157      8.5400      7.0587      5.8124      4.8344      4.1192    
  3.6474      3.4020      3.3741      3.5657      3.9891      4.6649      5.6105      6.8184      8.2295      9.7148    
  10.961      11.491      11.108      10.070      9.0047      8.5830      9.1412      10.478      9.1577      11.258    
  12.581      12.661      11.615      9.9921      8.3233      6.8205      5.5796      4.6270      3.9504      3.5264    
  3.3367      3.3742      3.6438      4.1626      4.9530      6.0271      7.3592      8.8573      10.311      11.198    
  11.036      9.7915      7.9914      6.5131      6.1465      7.1634      5.3229      7.9832      10.628      12.262    
  12.433      11.357      9.6882      8.0040      6.5157      5.3116      4.4088      3.7894      3.4276      3.3057    
  3.4191      3.7771      4.4008      5.3128      6.5159      7.9610      9.5170      10.809      11.172      10.197    
  8.0728      5.6038      3.8805      3.7407      1.7907      3.9669      7.1960      10.212      11.977      12.117    
  10.966      9.2702      7.6050      6.1643      5.0236      4.1909      3.6433      3.3547      3.3096      3.5069    
  3.9607      4.6952      5.7311      7.0582      8.6005      10.164      11.173      10.921      9.1318      6.2392    
  3.3012      1.5515      4.8980      5.3450      7.1959      9.6523      11.682      12.533      12.048      10.640    
  8.9662      7.3914      6.0535      5.0047      4.2435      3.7469      3.4925      3.4684      3.6752      4.1258    
  4.8424      5.8432      7.1182      8.5973      10.117      11.222      11.307      10.135      8.0744      6.0007    
  5.0858      4.1192      4.8458      6.9514      9.5076      11.456      12.120      11.463      9.9911      8.3566    
  6.8609      5.6209      4.6742      4.0118      3.6095      3.4470      3.5157      3.8201      4.3774      5.2114    
  6.3367      7.7302      9.2977      10.813      11.691      11.355      9.7034      7.2787      6.9514      4.8458    
  4.1192      5.0858      7.2787      9.7034      11.355      11.691      10.813      9.2977      7.7302      6.3368    
  5.2114      4.3774      3.8201      3.5157      3.4470      3.6095      4.0119      4.6742      5.6209      6.8609    
  8.3566      9.9911      11.463      12.120      11.456      9.5076      9.6523      7.1960      5.3450      4.8980    
  6.0007      8.0745      10.135      11.307      11.223      10.117      8.5973      7.1182      5.8432      4.8424    