    2    2   15    1
  0.1529437E+02  0.3691622E-09  0.3691622E-09  0.3691622E-09  0.5000000E-15
  1.000000000000000E-004
  CAR 
 unknown system                          
      8    159      8
 
  0.4166667E-01  0.4166667E-01  0.4166667E-01  0.4629630E-02
    1       -4.383869   1.000000
    2        5.296448   1.000000
    3        6.718368   1.000000
    4        7.976715   1.000000
    5       11.405250   0.000000
    6       15.380859   0.000000
    7       16.352190   0.000000
    8       17.243368   0.000000
 
  0.1250000E+00  0.4166667E-01  0.4166667E-01  0.9259259E-02
    1       -3.823030   1.000000
    2        4.910898   1.000000
    3        6.844491   1.000000
    4        9.051192   0.622659
    5       12.434133   0.000000
    6       13.405490   0.000000
    7       13.822063   0.000000
    8       16.033836   0.000000
 
  0.2083333E+00  0.4166667E-01  0.4166667E-01  0.9259259E-02
    1       -2.892749   1.000000
    2        4.830230   1.000000
    3        6.930514   1.000000
    4        9.566465   0.000433
    5       11.421013   0.000000
    6       11.759305   0.000000
    7       13.813836   0.000000
    8       14.892945   0.000000
 
  0.2916667E+00  0.4166667E-01  0.4166667E-01  0.9259259E-02
    1       -1.600715   1.000000
    2        5.048701   1.000000
    3        6.930924   1.000000
    4        7.393454   1.000000
    5        9.847493   0.000000
    6       12.519799   0.000000
    7       13.169270   0.000000
    8       14.213920   0.000000
 
  0.3750000E+00  0.4166667E-01  0.4166667E-01  0.9259259E-02
    1        0.033532   1.000000
    2        4.333310   1.000000
    3        5.837041   1.000000
    4        7.397781   1.000000
    5        8.579932   0.999866
    6       11.227221   0.000000
    7       13.697549   0.000000
    8       14.453599   0.000000
 
  0.4583333E+00  0.4166667E-01  0.4166667E-01  0.4629630E-02
    1        1.662444   1.000000
    2        2.449650   1.000000
    3        6.605556   1.000000
    4        6.686018   1.000000
    5        8.446198   0.999998
    6       10.600050   0.000000
    7       13.549041   0.000000
    8       14.572308   0.000000
 
 -0.4166667E-01  0.4166667E-01  0.4166667E-01  0.2314815E-02
    1       -4.571269   1.000000
    2        5.733093   1.000000
    3        6.333147   1.000000
    4        7.680050   1.000000
    5       10.983132   0.000000
    6       16.015890   0.000000
    7       17.822973   0.000000
    8       18.093626   0.000000
 
  0.1250000E+00  0.1250000E+00  0.4166667E-01  0.4629630E-02
    1       -2.977168   1.000000
    2        4.810957   1.000000
    3        7.793541   1.000000
    4        9.437347   0.007802
    5       11.179353   0.000000
    6       11.235464   0.000000
    7       13.929081   0.000000
    8       15.034907   0.000000
 
  0.2083333E+00  0.1250000E+00  0.4166667E-01  0.9259259E-02
    1       -1.768253   1.000000
    2        4.992203   1.000000
    3        7.605652   1.000000
    4        8.166755   1.000000
    5        9.555793   0.000566
    6       11.612093   0.000000
    7       13.320468   0.000000
    8       14.138496   0.000000
 
  0.2916667E+00  0.1250000E+00  0.4166667E-01  0.9259259E-02
    1       -0.211023   1.000000
    2        4.947389   1.000000
    3        5.731827   1.000000
    4        6.896595   1.000000
    5        9.443459   0.006922
    6       11.855426   0.000000
    7       12.965394   0.000000
    8       14.208979   0.000000
 
  0.3750000E+00  0.1250000E+00  0.4166667E-01  0.9259259E-02
    1        1.586515   1.000000
    2        2.839637   1.000000
    3        5.533397   1.000000
    4        6.473190   1.000000
    5        9.378008   0.022833
    6       11.417083   0.000000
    7       12.876810   0.000000
    8       15.361175   0.000000
 
  0.4583333E+00  0.1250000E+00  0.4166667E-01  0.9259259E-02
    1        0.603201   1.000000
    2        3.831714   1.000000
    3        4.710997   1.000000
    4        7.370743   1.000000
    5        8.963297   0.824845
    6       12.046259   0.000000
    7       13.060441   0.000000
    8       15.300670   0.000000
 
 -0.4583333E+00  0.1250000E+00  0.4166667E-01  0.9259259E-02
    1       -1.099300   1.000000
    2        3.738267   1.000000
    3        6.562734   1.000000
    4        7.626555   1.000000
    5        9.633093   0.000072
    6       12.801494   0.000000
    7       13.486592   0.000000
    8       14.363338   0.000000
 
 -0.3750000E+00  0.1250000E+00  0.4166667E-01  0.9259259E-02
    1       -2.470814   1.000000
    2        3.407985   1.000000
    3        7.251468   1.000000
    4        9.316854   0.058669
    5       11.243767   0.000000
    6       11.876873   0.000000
    7       13.640458   0.000000
    8       15.429607   0.000000
 
 -0.2916667E+00  0.1250000E+00  0.4166667E-01  0.9259259E-02
    1       -3.483239   1.000000
    2        3.406605   1.000000
    3        7.140110   1.000000
    4        9.676854   0.000020
    5       12.485156   0.000000
    6       13.276525   0.000000
    7       14.202301   0.000000
    8       15.247022   0.000000
 
 -0.2083333E+00  0.1250000E+00  0.4166667E-01  0.4629630E-02
    1       -4.128235   1.000000
    2        3.740800   1.000000
    3        6.951801   1.000000
    4        8.716407   0.996316
    5       12.829184   0.000000
    6       14.112737   0.000000
    7       15.785954   0.000000
    8       16.532656   0.000000
 
 -0.1250000E+00  0.1250000E+00  0.4166667E-01  0.4629630E-02
    1       -4.400648   1.000000
    2        4.375634   1.000000
    3        6.360053   1.000000
    4        8.602392   0.999755
    5       11.983156   0.000000
    6       14.601116   0.000000
    7       16.971559   0.000000
    8       18.338743   0.000000
 
 -0.4166667E-01  0.1250000E+00  0.4166667E-01  0.4629630E-02
    1       -4.298660   1.000000
    2        5.018147   1.000000
    3        6.004651   1.000000
    4        8.849179   0.959151
    5       11.816504   0.000000
    6       14.588681   0.000000
    7       16.068776   0.000000
    8       17.449186   0.000000
 
  0.2083333E+00  0.2083333E+00  0.4166667E-01  0.4629630E-02
    1       -0.292748   1.000000
    2        5.272595   1.000000
    3        5.968188   1.000000
    4        6.210975   1.000000
    5       10.151237   0.000000
    6       12.308547   0.000000
    7       12.821786   0.000000
    8       13.016706   0.000000
 
  0.2916667E+00  0.2083333E+00  0.4166667E-01  0.9259259E-02
    1        1.473349   1.000000
    2        3.569582   1.000000
    3        4.501380   1.000000
    4        6.356800   1.000000
    5       10.144750   0.000000
    6       11.611943   0.000000
    7       13.101854   0.000000
    8       14.746338   0.000000
 
  0.3750000E+00  0.2083333E+00  0.4166667E-01  0.9259259E-02
    1        1.325156   1.000000
    2        3.119213   1.000000
    3        4.036306   1.000000
    4        7.303521   1.000000
    5        9.515931   0.001471
    6       11.491042   0.000000
    7       13.957727   0.000000
    8       15.949252   0.000000
 
  0.4583333E+00  0.2083333E+00  0.4166667E-01  0.9259259E-02
    1       -0.434699   1.000000
    2        2.491659   1.000000
    3        6.274018   1.000000
    4        7.989932   1.000000
    5        9.530815   0.001039
    6       11.810750   0.000000
    7       14.227872   0.000000
    8       15.451824   0.000000
 
 -0.4583333E+00  0.2083333E+00  0.4166667E-01  0.9259259E-02
    1       -1.881962   1.000000
    2        2.066558   1.000000
    3        7.714166   1.000000
    4        9.049360   0.627572
    5       10.760742   0.000000
    6       12.366431   0.000000
    7       12.690249   0.000000
    8       15.692499   0.000000
 
 -0.3750000E+00  0.2083333E+00  0.4166667E-01  0.9259259E-02
    1       -2.975168   1.000000
    2        1.985000   1.000000
    3        7.594315   1.000000
    4       10.224141   0.000000
    5       11.722265   0.000000
    6       12.792651   0.000000
    7       14.070800   0.000000
    8       15.227674   0.000000
 
 -0.2916667E+00  0.2083333E+00  0.4166667E-01  0.4629630E-02
    1       -3.702933   1.000000
    2        2.253244   1.000000
    3        7.340862   1.000000
    4        9.314138   0.060952
    5       12.765784   0.000000
    6       14.717505   0.000000
    7       14.804045   0.000000
    8       16.013945   0.000000
 
 -0.2083333E+00  0.2083333E+00  0.4166667E-01  0.4629630E-02
    1       -4.059924   1.000000
    2        2.860095   1.000000
    3        6.664524   1.000000
    4        9.257270   0.126163
    5       13.153489   0.000000
    6       13.714370   0.000000
    7       15.772848   0.000000
    8       18.077454   0.000000
 
 -0.1250000E+00  0.2083333E+00  0.4166667E-01  0.9259259E-02
    1       -4.043241   1.000000
    2        3.759215   1.000000
    3        5.964676   1.000000
    4        9.746213   0.000002
    5       13.038106   0.000000
    6       13.275556   0.000000
    7       15.538719   0.000000
    8       17.118287   0.000000
 
 -0.4166667E-01  0.2083333E+00  0.4166667E-01  0.4629630E-02
    1       -3.653128   1.000000
    2        4.644385   1.000000
    3        5.827682   1.000000
    4       10.140544   0.000000
    5       12.791137   0.000000
    6       13.128144   0.000000
    7       13.473991   0.000000
    8       15.546606   0.000000
 
  0.2916667E+00  0.2916667E+00  0.4166667E-01  0.4629630E-02
    1        2.110452   1.000000
    2        2.264928   1.000000
    3        3.879352   1.000000
    4        7.270118   1.000000
    5        9.966477   0.000000
    6       10.898746   0.000000
    7       15.171935   0.000000
    8       15.455532   0.000000
 
  0.3750000E+00  0.2916667E+00  0.4166667E-01  0.9259259E-02
    1        0.389745   1.000000
    2        1.368914   1.000000
    3        6.124758   1.000000
    4        8.234053   1.000000
    5        9.658764   0.000034
    6       11.016248   0.000000
    7       14.897233   0.000000
    8       16.039282   0.000000
 
  0.4583333E+00  0.2916667E+00  0.4166667E-01  0.9259259E-02
    1       -1.128900   1.000000
    2        0.852724   1.000000
    3        8.216627   1.000000
    4        8.910087   0.904943
    5       10.230276   0.000000
    6       11.943382   0.000000
    7       13.117266   0.000000
    8       14.945449   0.000000
 
 -0.4583333E+00  0.2916667E+00  0.4166667E-01  0.9259259E-02
    1       -2.300509   1.000000
    2        0.688842   1.000000
    3        8.195093   1.000000
    4       10.546225   0.000000
    5       11.057006   0.000000
    6       12.463133   0.000000
    7       13.629396   0.000000
    8       14.250884   0.000000
 
 -0.3750000E+00  0.2916667E+00  0.4166667E-01  0.4629630E-02
    1       -3.109650   1.000000
    2        0.882614   1.000000
    3        7.883597   1.000000
    4        9.957030   0.000000
    5       11.539531   0.000000
    6       13.677136   0.000000
    7       15.675424   0.000000
    8       15.695979   0.000000
 
 -0.2916667E+00  0.2916667E+00  0.4166667E-01  0.4629630E-02
    1       -3.550039   1.000000
    2        1.429179   1.000000
    3        7.135017   1.000000
    4        9.868579   0.000000
    5       11.802841   0.000000
    6       14.548202   0.000000
    7       15.775873   0.000000
    8       17.838920   0.000000
 
 -0.2083333E+00  0.2916667E+00  0.4166667E-01  0.9259259E-02
    1       -3.618414   1.000000
    2        2.314368   1.000000
    3        6.319294   1.000000
    4       10.399863   0.000000
    5       11.877583   0.000000
    6       14.602984   0.000000
    7       15.263830   0.000000
    8       16.384658   0.000000
 
 -0.1250000E+00  0.2916667E+00  0.4166667E-01  0.9259259E-02
    1       -3.314076   1.000000
    2        3.483253   1.000000
    3        5.785441   1.000000
    4       10.748152   0.000000
    5       12.022881   0.000000
    6       12.840787   0.000000
    7       14.412181   0.000000
    8       15.369956   0.000000
 
 -0.4166667E-01  0.2916667E+00  0.4166667E-01  0.4629630E-02
    1       -2.639753   1.000000
    2        4.615835   1.000000
    3        5.900475   1.000000
    4        9.184237   0.264905
    5       11.777662   0.000000
    6       12.620042   0.000000
    7       13.970755   0.000000
    8       14.080719   0.000000
 
  0.3750000E+00  0.3750000E+00  0.4166667E-01  0.4629630E-02
    1       -0.220131   1.000000
    2       -0.211289   1.000000
    3        8.448985   0.999998
    4        8.958350   0.833720
    5        9.881975   0.000000
    6       11.728280   0.000000
    7       13.657352   0.000000
    8       14.322828   0.000000
 
  0.4583333E+00  0.3750000E+00  0.4166667E-01  0.9259259E-02
    1       -1.462124   1.000000
    2       -0.463282   1.000000
    3        8.931777   0.876336
    4        9.774849   0.000001
    5       11.389569   0.000000
    6       12.339636   0.000000
    7       13.421500   0.000000
    8       13.502105   0.000000
 
 -0.4583333E+00  0.3750000E+00  0.4166667E-01  0.4629630E-02
    1       -2.350529   1.000000
    2       -0.348943   1.000000
    3        8.578881   0.999870
    4       10.402008   0.000000
    5       10.721383   0.000000
    6       12.583890   0.000000
    7       15.521760   0.000000
    8       15.574493   0.000000
 
 -0.3750000E+00  0.3750000E+00  0.4166667E-01  0.4629630E-02
    1       -2.873185   1.000000
    2        0.126763   1.000000
    3        7.765065   1.000000
    4       10.565049   0.000000
    5       10.573467   0.000000
    6       13.387564   0.000000
    7       17.509426   0.000000
    8       17.777281   0.000000
 
 -0.2916667E+00  0.3750000E+00  0.4166667E-01  0.9259259E-02
    1       -3.025744   1.000000
    2        0.956051   1.000000
    3        6.862917   1.000000
    4       10.586679   0.000000
    5       11.055387   0.000000
    6       14.224529   0.000000
    7       15.583152   0.000000
    8       16.392763   0.000000
 
 -0.2083333E+00  0.3750000E+00  0.4166667E-01  0.9259259E-02
    1       -2.807112   1.000000
    2        2.118839   1.000000
    3        6.195453   1.000000
    4       10.536370   0.000000
    5       11.263055   0.000000
    6       12.804681   0.000000
    7       14.610335   0.000000
    8       16.709671   0.000000
 
 -0.1250000E+00  0.3750000E+00  0.4166667E-01  0.9259259E-02
    1       -2.219242   1.000000
    2        3.552090   1.000000
    3        5.889275   1.000000
    4        8.734223   0.994672
    5       11.075561   0.000000
    6       13.162958   0.000000
    7       13.574634   0.000000
    8       15.084231   0.000000
 
 -0.4166667E-01  0.3750000E+00  0.4166667E-01  0.4629630E-02
    1       -1.267112   1.000000
    2        4.867139   1.000000
    3        6.246075   1.000000
    4        6.582182   1.000000
    5       10.230735   0.000000
    6       12.579062   0.000000
    7       13.096354   0.000000
    8       14.449886   0.000000
 
  0.4583333E+00  0.4583333E+00  0.4166667E-01  0.2314815E-02
    1       -1.428793   1.000000
    2       -1.428793   1.000000
    3        9.424332   0.010009
    4        9.424338   0.010008
    5       11.590140   0.000000
    6       11.590144   0.000000
    7       15.485873   0.000000
    8       15.485873   0.000000
 
 -0.4583333E+00  0.4583333E+00  0.4166667E-01  0.4629630E-02
    1       -2.031920   1.000000
    2       -1.030038   1.000000
    3        8.549359   0.999944
    4        9.487443   0.002783
    5       11.379841   0.000000
    6       12.322040   0.000000
    7       17.551469   0.000000
    8       17.607639   0.000000
 
 -0.3750000E+00  0.4583333E+00  0.4166667E-01  0.9259259E-02
    1       -2.267690   1.000000
    2       -0.270344   1.000000
    3        7.569363   1.000000
    4        9.443971   0.006853
    5       11.762016   0.000000
    6       13.459180   0.000000
    7       15.125972   0.000000
    8       16.370796   0.000000
 
 -0.2916667E+00  0.4583333E+00  0.4166667E-01  0.9259259E-02
    1       -2.134169   1.000000
    2        0.840415   1.000000
    3        6.805724   1.000000
    4        9.525095   0.001189
    5       11.061365   0.000000
    6       13.222454   0.000000
    7       14.390460   0.000000
    8       15.849721   0.000000
 
 -0.2083333E+00  0.4583333E+00  0.4166667E-01  0.9259259E-02
    1       -1.632486   1.000000
    2        2.275974   1.000000
    3        6.345695   1.000000
    4        8.374642   1.000000
    5       10.047206   0.000000
    6       12.786285   0.000000
    7       14.187628   0.000000
    8       16.288181   0.000000
 
 -0.1250000E+00  0.4583333E+00  0.4166667E-01  0.9259259E-02
    1       -0.768881   1.000000
    2        3.932382   1.000000
    3        5.938927   1.000000
    4        6.445989   1.000000
    5        9.976157   0.000000
    6       12.022420   0.000000
    7       13.436358   0.000000
    8       15.511038   0.000000
 
 -0.4166667E-01  0.4583333E+00  0.4166667E-01  0.4629630E-02
    1        0.438136   1.000000
    2        3.797153   1.000000
    3        5.811101   1.000000
    4        6.820415   1.000000
    5        8.846339   0.960881
    6       11.180959   0.000000
    7       12.697830   0.000000
    8       15.459700   0.000000
 
 -0.4583333E+00 -0.4583333E+00  0.4166667E-01  0.4629630E-02
    1       -1.348507   1.000000
    2       -1.346545   1.000000
    3        8.427675   0.999999
    4        8.435832   0.999998
    5       12.421869   0.000000
    6       12.753618   0.000000
    7       14.985935   0.000000
    8       16.322299   0.000000
 
 -0.3750000E+00 -0.4583333E+00  0.4166667E-01  0.9259259E-02
    1       -1.298048   1.000000
    2       -0.304088   1.000000
    3        7.576212   1.000000
    4        8.493726   0.999990
    5       10.966855   0.000000
    6       13.810542   0.000000
    7       14.292096   0.000000
    8       14.972926   0.000000
 
 -0.2916667E+00 -0.4583333E+00  0.4166667E-01  0.9259259E-02
    1       -0.882862   1.000000
    2        1.083594   1.000000
    3        6.979906   1.000000
    4        8.112598   1.000000
    5        9.073208   0.562297
    6       12.526145   0.000000
    7       14.913062   0.000000
    8       16.619925   0.000000
 
 -0.2083333E+00 -0.4583333E+00  0.4166667E-01  0.9259259E-02
    1       -0.108451   1.000000
    2        2.769994   1.000000
    3        5.657295   1.000000
    4        6.912860   1.000000
    5        9.301377   0.072614
    6       11.357618   0.000000
    7       14.671169   0.000000
    8       16.326827   0.000000
 
 -0.1250000E+00 -0.4583333E+00  0.4166667E-01  0.9259259E-02
    1        0.995979   1.000000
    2        3.387876   1.000000
    3        4.932042   1.000000
    4        6.965535   1.000000
    5        8.929990   0.878899
    6       11.362211   0.000000
    7       12.207974   0.000000
    8       16.562506   0.000000
 
 -0.4166667E-01 -0.4583333E+00  0.4166667E-01  0.4629630E-02
    1        1.424803   1.000000
    2        2.686460   1.000000
    3        6.714561   1.000000
    4        7.404974   1.000000
    5        7.783954   1.000000
    6       10.410252   0.000000
    7       12.667974   0.000000
    8       15.439765   0.000000
 
 -0.3750000E+00 -0.3750000E+00  0.4166667E-01  0.4629630E-02
    1        0.016103   1.000000
    2        0.034240   1.000000
    3        7.551406   1.000000
    4        7.831737   1.000000
    5        8.573348   0.999888
    6       12.436772   0.000000
    7       15.420357   0.000000
    8       16.223027   0.000000
 
 -0.2916667E+00 -0.3750000E+00  0.4166667E-01  0.9259259E-02
    1        0.708378   1.000000
    2        1.675360   1.000000
    3        5.505760   1.000000
    4        7.577769   1.000000
    5        8.490727   0.999990
    6       11.059444   0.000000
    7       15.946994   0.000000
    8       16.727359   0.000000
 
 -0.2083333E+00 -0.3750000E+00  0.4166667E-01  0.9259259E-02
    1        1.686487   1.000000
    2        3.064677   1.000000
    3        3.947789   1.000000
    4        7.446432   1.000000
    5        8.754077   0.992098
    6       10.586256   0.000000
    7       13.448861   0.000000
    8       16.513797   0.000000
 
 -0.1250000E+00 -0.3750000E+00  0.4166667E-01  0.9259259E-02
    1        1.154763   1.000000
    2        3.268744   1.000000
    3        5.950358   1.000000
    4        7.339475   1.000000
    5        8.441493   0.999998
    6       10.918528   0.000000
    7       11.741090   0.000000
    8       15.725328   0.000000
 
 -0.4166667E-01 -0.3750000E+00  0.4166667E-01  0.4629630E-02
    1       -0.376862   1.000000
    2        4.904349   1.000000
    3        6.827838   1.000000
    4        7.499221   1.000000
    5        8.248017   1.000000
    6       10.772589   0.000000
    7       12.880456   0.000000
    8       14.748967   0.000000
 
 -0.2916667E+00 -0.2916667E+00  0.4166667E-01  0.4629630E-02
    1        2.302013   1.000000
    2        2.669256   1.000000
    3        3.510930   1.000000
    4        7.758000   1.000000
    5        8.586198   0.999841
    6       10.248918   0.000000
    7       14.605253   0.000000
    8       15.490443   0.000000
 
 -0.2083333E+00 -0.2916667E+00  0.4166667E-01  0.9259259E-02
    1        1.007356   1.000000
    2        4.034830   1.000000
    3        4.954259   1.000000
    4        7.371321   1.000000
    5        9.005075   0.738450
    6       10.545445   0.000000
    7       12.504346   0.000000
    8       14.306477   0.000000
 
 -0.1250000E+00 -0.2916667E+00  0.4166667E-01  0.9259259E-02
    1       -0.624549   1.000000
    2        5.589072   1.000000
    3        6.927002   1.000000
    4        7.283067   1.000000
    5        8.767276   0.989831
    6       11.114001   0.000000
    7       11.875648   0.000000
    8       13.641387   0.000000
 
 -0.4166667E-01 -0.2916667E+00  0.4166667E-01  0.4629630E-02
    1       -1.936649   1.000000
    2        6.136761   1.000000
    3        7.214624   1.000000
    4        7.728785   1.000000
    5        9.867720   0.000000
    6       12.090065   0.000000
    7       12.145338   0.000000
    8       14.204840   0.000000
 
 -0.2083333E+00 -0.2083333E+00  0.4166667E-01  0.4629630E-02
    1       -0.706913   1.000000
    2        6.280255   1.000000
    3        6.461770   1.000000
    4        7.017549   1.000000
    5        9.392205   0.017915
    6       11.170406   0.000000
    7       12.216043   0.000000
    8       12.318229   0.000000
 
 -0.1250000E+00 -0.2083333E+00  0.4166667E-01  0.9259259E-02
    1       -2.104535   1.000000
    2        6.415431   1.000000
    3        7.860123   1.000000
    4        8.409227   0.999999
    5        9.568454   0.000411
    6       11.056900   0.000000
    7       12.401055   0.000000
    8       13.278636   0.000000
 
 -0.4166667E-01 -0.2083333E+00  0.4166667E-01  0.4629630E-02
    1       -3.146523   1.000000
    2        6.056412   1.000000
    3        6.964971   1.000000
    4        9.411022   0.012811
    5       11.327946   0.000000
    6       11.965970   0.000000
    7       12.761592   0.000000
    8       14.525458   0.000000
 
 -0.1250000E+00 -0.1250000E+00  0.4166667E-01  0.4629630E-02
    1       -3.231228   1.000000
    2        6.320737   1.000000
    3        7.601864   1.000000
    4        8.853347   0.956501
    5       11.555175   0.000000
    6       11.680973   0.000000
    7       12.546109   0.000000
    8       14.487812   0.000000
 
 -0.4166667E-01 -0.1250000E+00  0.4166667E-01  0.4629630E-02
    1       -3.993139   1.000000
    2        6.248553   1.000000
    3        6.814840   1.000000
    4        8.161684   1.000000
    5       11.547483   0.000000
    6       13.887942   0.000000
    7       14.113727   0.000000
    8       16.368939   0.000000
 
 -0.4166667E-01 -0.4166667E-01  0.4166667E-01  0.1157407E-02
    1       -4.469120   1.000000
    2        6.640587   1.000000
    3        6.640598   1.000000
    4        6.961410   1.000000
    5       10.864810   0.000000
    6       16.148590   0.000000
    7       16.540680   0.000000
    8       17.589172   0.000000
 
  0.1250000E+00  0.1250000E+00  0.1250000E+00  0.4629630E-02
    1       -2.554823   1.000000
    2        3.347726   1.000000
    3        8.090780   1.000000
    4        9.659057   0.000034
    5       10.853467   0.000000
    6       11.042014   0.000000
    7       14.683029   0.000000
    8       15.191787   0.000000
 
  0.2083333E+00  0.1250000E+00  0.1250000E+00  0.9259259E-02
    1       -1.265521   1.000000
    2        3.613718   1.000000
    3        7.268363   1.000000
    4        7.968676   1.000000
    5        9.800035   0.000000
    6       12.150226   0.000000
    7       14.042882   0.000000
    8       14.745244   0.000000
 
  0.2916667E+00  0.1250000E+00  0.1250000E+00  0.9259259E-02
    1        0.364131   1.000000
    2        4.076225   1.000000
    3        4.940762   1.000000
    4        6.575691   1.000000
    5       10.116960   0.000000
    6       12.897839   0.000000
    7       14.007483   0.000000
    8       14.099804   0.000000
 
  0.3750000E+00  0.1250000E+00  0.1250000E+00  0.4629630E-02
    1        1.988350   1.000000
    2        2.747136   1.000000
    3        5.040359   1.000000
    4        5.568206   1.000000
    5       10.461041   0.000000
    6       12.316803   0.000000
    7       13.904744   0.000000
    8       14.486509   0.000000
 
 -0.1250000E+00  0.1250000E+00  0.1250000E+00  0.2314815E-02
    1       -4.230361   1.000000
    2        4.105696   1.000000
    3        5.315920   1.000000
    4        9.850797   0.000000
    5       12.637002   0.000000
    6       13.226782   0.000000
    7       17.699820   0.000000
    8       18.103847   0.000000
 
  0.2083333E+00  0.2083333E+00  0.1250000E+00  0.4629630E-02
    1        0.283924   1.000000
    2        4.083218   1.000000
    3        5.611478   1.000000
    4        5.731229   1.000000
    5       10.927385   0.000000
    6       13.144746   0.000000
    7       13.897483   0.000000
    8       13.949668   0.000000
 
  0.2916667E+00  0.2083333E+00  0.1250000E+00  0.9259259E-02
    1        2.060433   1.000000
    2        3.267163   1.000000
    3        4.179301   1.000000
    4        5.264195   1.000000
    5       11.343435   0.000000
    6       12.975768   0.000000
    7       13.854040   0.000000
    8       14.853103   0.000000
 
  0.3750000E+00  0.2083333E+00  0.1250000E+00  0.9259259E-02
    1        1.096721   1.000000
    2        2.994520   1.000000
    3        4.618908   1.000000
    4        6.371568   1.000000
    5       10.849141   0.000000
    6       12.863670   0.000000
    7       14.237086   0.000000
    8       15.023873   0.000000
 
  0.4583333E+00  0.2083333E+00  0.1250000E+00  0.9259259E-02
    1       -0.598600   1.000000
    2        2.345752   1.000000
    3        7.007392   1.000000
    4        7.786966   1.000000
    5       10.311566   0.000000
    6       12.692325   0.000000
    7       13.201321   0.000000
    8       14.961546   0.000000
 
 -0.4583333E+00  0.2083333E+00  0.1250000E+00  0.4629630E-02
    1       -1.965649   1.000000
    2        1.994003   1.000000
    3        8.450705   0.999997
    4        9.553796   0.000595
    5       10.717739   0.000000
    6       11.298888   0.000000
    7       13.466730   0.000000
    8       14.614009   0.000000
 
 -0.2083333E+00  0.2083333E+00  0.1250000E+00  0.4629630E-02
    1       -3.890127   1.000000
    2        2.935799   1.000000
    3        5.270761   1.000000
    4       10.788318   0.000000
    5       11.770773   0.000000
    6       14.089546   0.000000
    7       16.875696   0.000000
    8       17.812763   0.000000
 
 -0.1250000E+00  0.2083333E+00  0.1250000E+00  0.4629630E-02
    1       -3.788475   1.000000
    2        3.541492   1.000000
    3        4.876445   1.000000
    4       11.064464   0.000000
    5       11.844835   0.000000
    6       13.895813   0.000000
    7       15.041066   0.000000
    8       17.636445   0.000000
 
  0.2916667E+00  0.2916667E+00  0.1250000E+00  0.4629630E-02
    1        1.949020   1.000000
    2        2.010516   1.000000
    3        4.524647   1.000000
    4        6.301797   1.000000
    5       11.411644   0.000000
    6       12.227716   0.000000
    7       14.710675   0.000000
    8       15.628287   0.000000
 
  0.3750000E+00  0.2916667E+00  0.1250000E+00  0.9259259E-02
    1        0.229309   1.000000
    2        1.213290   1.000000
    3        6.870901   1.000000
    4        7.681519   1.000000
    5       10.993705   0.000000
    6       12.060910   0.000000
    7       13.499894   0.000000
    8       14.465146   0.000000
 
  0.4583333E+00  0.2916667E+00  0.1250000E+00  0.4629630E-02
    1       -1.211166   1.000000
    2        0.774569   1.000000
    3        8.798765   0.982021
    4        9.324000   0.052986
    5       10.865199   0.000000
    6       11.694234   0.000000
    7       12.595219   0.000000
    8       13.744486   0.000000
 
 -0.2916667E+00  0.2916667E+00  0.1250000E+00  0.4629630E-02
    1       -3.381474   1.000000
    2        1.563713   1.000000
    3        5.686769   1.000000
    4       10.394102   0.000000
    5       11.496808   0.000000
    6       15.882627   0.000000
    7       16.007612   0.000000
    8       17.599554   0.000000
 
 -0.2083333E+00  0.2916667E+00  0.1250000E+00  0.9259259E-02
    1       -3.364982   1.000000
    2        2.459728   1.000000
    3        4.863826   1.000000
    4       10.410115   0.000000
    5       11.978011   0.000000
    6       14.553193   0.000000
    7       15.531776   0.000000
    8       17.558593   0.000000
 
 -0.1250000E+00  0.2916667E+00  0.1250000E+00  0.4629630E-02
    1       -2.976522   1.000000
    2        3.329301   1.000000
    3        4.734209   1.000000
    4       10.477123   0.000000
    5       11.274845   0.000000
    6       13.449538   0.000000
    7       15.311150   0.000000
    8       15.669921   0.000000
 