    2    2   15    1
  0.1529437E+02  0.3691622E-09  0.3691622E-09  0.3691622E-09  0.5000000E-15
  1.000000000000000E-004
  CAR 
 unknown system                          
      8    126      8
 
  0.0000000E+00  0.0000000E+00  0.0000000E+00  0.7513148E-03
    1       -4.608947   1.000000
    2        6.480790   1.000000
    3        6.480795   1.000000
    4        6.690719   1.000000
    5       10.625982   0.000000
    6       16.750932   0.000000
    7       17.722677   0.000000
    8       17.722685   0.000000
 
  0.9090909E-01 -0.1249769E-17  0.1249769E-17  0.6010518E-02
    1       -4.383438   1.000000
    2        5.738681   1.000000
    3        6.411400   1.000000
    4        7.822181   1.000000
    5       11.112465   0.000000
    6       15.504061   0.000000
    7       16.258195   0.000000
    8       17.566453   0.000000
 
  0.1818182E+00 -0.2499539E-17  0.2499539E-17  0.6010518E-02
    1       -3.708811   1.000000
    2        5.311637   1.000000
    3        6.352278   1.000000
    4        9.320043   0.063510
    5       12.383017   0.000000
    6       12.984238   0.000000
    7       13.645619   0.000000
    8       15.869398   0.000000
 
  0.2727273E+00 -0.2456599E-16  0.2456599E-16  0.6010518E-02
    1       -2.590936   1.000000
    2        5.291662   1.000000
    3        6.497564   1.000000
    4        9.057886   0.628457
    5       11.339379   0.000000
    6       12.093757   0.000000
    7       13.341547   0.000000
    8       14.672115   0.000000
 
  0.3636364E+00 -0.4999077E-17  0.4999077E-17  0.6010518E-02
    1       -1.042225   1.000000
    2        5.489722   1.000000
    3        6.392528   1.000000
    4        6.905665   1.000000
    5        9.521028   0.001604
    6       11.773546   0.000000
    7       13.775276   0.000000
    8       13.988103   0.000000
 
  0.4545455E+00 -0.5101859E-16 -0.4492561E-17  0.6010518E-02
    1        0.896406   1.000000
    2        3.369262   1.000000
    3        6.590282   1.000000
    4        7.417046   1.000000
    5        7.978320   1.000000
    6       10.498228   0.000000
    7       13.555108   0.000000
    8       14.511305   0.000000
 
  0.9090909E-01  0.9090909E-01  0.6302053E-17  0.6010518E-02
    1       -3.809330   1.000000
    2        5.596133   1.000000
    3        7.143484   1.000000
    4        8.412308   1.000000
    5       11.915923   0.000000
    6       13.517579   0.000000
    7       13.562946   0.000000
    8       16.147658   0.000000
 
  0.1818182E+00  0.9090909E-01 -0.1326486E-16  0.1202104E-01
    1       -2.790615   1.000000
    2        5.549369   1.000000
    3        7.544008   1.000000
    4        9.304699   0.078175
    5       10.859355   0.000000
    6       11.271881   0.000000
    7       13.348672   0.000000
    8       14.432481   0.000000
 
  0.2727273E+00  0.9090909E-01  0.1260411E-16  0.1202104E-01
    1       -1.337830   1.000000
    2        5.802454   1.000000
    3        6.890234   1.000000
    4        7.799310   1.000000
    5        9.172010   0.315895
    6       11.916007   0.000000
    7       12.488662   0.000000
    8       13.911775   0.000000
 
  0.3636364E+00  0.9090909E-01  0.3112467E-17  0.1202104E-01
    1        0.521077   1.000000
    2        4.013753   1.000000
    3        6.630712   1.000000
    4        6.865649   1.000000
    5        8.671888   0.998883
    6       10.800273   0.000000
    7       12.747983   0.000000
    8       15.116181   0.000000
 
  0.4545455E+00  0.9090909E-01 -0.2652972E-16  0.1202104E-01
    1        1.438851   1.000000
    2        2.924419   1.000000
    3        5.622754   1.000000
    4        7.326858   1.000000
    5        8.486210   0.999994
    6       11.101847   0.000000
    7       12.601872   0.000000
    8       15.548569   0.000000
 
 -0.4545455E+00  0.9090909E-01 -0.1715602E-16  0.1202104E-01
    1       -0.551493   1.000000
    2        4.501108   1.000000
    3        5.688869   1.000000
    4        6.994125   1.000000
    5        9.520667   0.001617
    6       12.253018   0.000000
    7       12.997112   0.000000
    8       14.937251   0.000000
 
 -0.3636364E+00  0.9090909E-01  0.3189586E-17  0.1202104E-01
    1       -2.192667   1.000000
    2        4.070160   1.000000
    3        6.479410   1.000000
    4        8.573713   0.999912
    5       11.163666   0.000000
    6       12.767858   0.000000
    7       13.336596   0.000000
    8       14.527653   0.000000
 
 -0.2727273E+00  0.9090909E-01  0.1302975E-17  0.1202104E-01
    1       -3.407659   1.000000
    2        3.968825   1.000000
    3        6.327617   1.000000
    4       10.139947   0.000000
    5       12.338140   0.000000
    6       12.987732   0.000000
    7       13.786144   0.000000
    8       15.099051   0.000000
 
 -0.1818182E+00  0.9090909E-01  0.7590381E-17  0.1202104E-01
    1       -4.181784   1.000000
    2        4.273419   1.000000
    3        6.445639   1.000000
    4        8.793382   0.986029
    5       12.253160   0.000000
    6       14.198732   0.000000
    7       15.782972   0.000000
    8       16.957808   0.000000
 
 -0.9090909E-01  0.9090909E-01  0.1699965E-18  0.3005259E-02
    1       -4.507969   1.000000
    2        4.958812   1.000000
    3        6.573284   1.000000
    4        7.825759   1.000000
    5       11.274066   0.000000
    6       15.440686   0.000000
    7       17.008052   0.000000
    8       18.751827   0.000000
 
  0.1818182E+00  0.1818182E+00  0.1260411E-16  0.6010518E-02
    1       -1.436422   1.000000
    2        5.810472   1.000000
    3        7.499323   1.000000
    4        7.688683   1.000000
    5        9.508807   0.002113
    6       11.447961   0.000000
    7       12.702401   0.000000
    8       12.957800   0.000000
 
  0.2727273E+00  0.1818182E+00  0.3086804E-16  0.1202104E-01
    1        0.330975   1.000000
    2        4.830493   1.000000
    3        5.799006   1.000000
    4        6.575900   1.000000
    5        9.672540   0.000029
    6       11.424017   0.000000
    7       12.226105   0.000000
    8       13.742913   0.000000
 
  0.3636364E+00  0.1818182E+00 -0.2652972E-16  0.1202104E-01
    1        2.034574   1.000000
    2        2.784892   1.000000
    3        4.436402   1.000000
    4        7.340898   1.000000
    5        9.035504   0.686529
    6       11.130836   0.000000
    7       12.789848   0.000000
    8       16.032306   0.000000
 
  0.4545455E+00  0.1818182E+00 -0.6607546E-18  0.1202104E-01
    1        0.131050   1.000000
    2        3.239185   1.000000
    3        5.258526   1.000000
    4        7.475254   1.000000
    5        9.285618   0.099827
    6       11.399747   0.000000
    7       13.995365   0.000000
    8       15.828762   0.000000
 
 -0.4545455E+00  0.1818182E+00 -0.2664766E-16  0.1202104E-01
    1       -1.597572   1.000000
    2        2.643135   1.000000
    3        6.926212   1.000000
    4        8.191119   1.000000
    5       10.489854   0.000000
    6       12.357313   0.000000
    7       13.498061   0.000000
    8       15.762091   0.000000
 
 -0.3636364E+00  0.1818182E+00  0.1518076E-16  0.1202104E-01
    1       -2.907226   1.000000
    2        2.437964   1.000000
    3        6.744462   1.000000
    4       10.531787   0.000000
    5       11.567398   0.000000
    6       12.406472   0.000000
    7       14.109460   0.000000
    8       16.216353   0.000000
 
 -0.2727273E+00  0.1818182E+00 -0.1322630E-16  0.1202104E-01
    1       -3.779259   1.000000
    2        2.652748   1.000000
    3        6.803479   1.000000
    4        9.481317   0.003834
    5       12.717320   0.000000
    6       14.132294   0.000000
    7       15.066463   0.000000
    8       16.186657   0.000000
 
 -0.1818182E+00  0.1818182E+00  0.3399929E-18  0.3005259E-02
    1       -4.205328   1.000000
    2        3.279353   1.000000
    3        6.850630   1.000000
    4        8.591255   0.999857
    5       12.961507   0.000000
    6       13.824626   0.000000
    7       15.720182   0.000000
    8       18.464935   0.000000
 
  0.2727273E+00  0.2727273E+00 -0.6379172E-17  0.6010518E-02
    1        2.232762   1.000000
    2        3.239908   1.000000
    3        3.527251   1.000000
    4        7.332363   1.000000
    5        9.477236   0.004176
    6       10.543691   0.000000
    7       14.003120   0.000000
    8       14.901882   0.000000
 
  0.3636364E+00  0.2727273E+00 -0.3602136E-16  0.1202104E-01
    1        0.999385   1.000000
    2        2.045048   1.000000
    3        5.058264   1.000000
    4        7.972029   1.000000
    5        9.061341   0.619185
    6       10.648017   0.000000
    7       15.396599   0.000000
    8       16.267752   0.000000
 
  0.4545455E+00  0.2727273E+00  0.2520821E-16  0.1202104E-01
    1       -0.808929   1.000000
    2        1.324957   1.000000
    3        7.462254   1.000000
    4        8.059608   1.000000
    5        9.612874   0.000161
    6       11.824703   0.000000
    7       14.246102   0.000000
    8       16.094780   0.000000
 
 -0.4545455E+00  0.2727273E+00  0.1937185E-16  0.1202104E-01
    1       -2.209612   1.000000
    2        1.018776   1.000000
    3        7.371822   1.000000
    4       10.146347   0.000000
    5       10.978421   0.000000
    6       12.525971   0.000000
    7       13.753356   0.000000
    8       15.223116   0.000000
 
 -0.3636364E+00  0.2727273E+00 -0.1702881E-16  0.1202104E-01
    1       -3.177553   1.000000
    2        1.142010   1.000000
    3        7.356129   1.000000
    4       10.156588   0.000000
    5       11.346209   0.000000
    6       13.986221   0.000000
    7       15.436397   0.000000
    8       15.918890   0.000000
 
 -0.2727273E+00  0.2727273E+00 -0.1434744E-16  0.3005259E-02
    1       -3.702342   1.000000
    2        1.691958   1.000000
    3        7.312415   1.000000
    4        9.243429   0.162505
    5       12.322288   0.000000
    6       14.362842   0.000000
    7       15.138094   0.000000
    8       18.194408   0.000000
 
  0.3636364E+00  0.3636364E+00  0.2520821E-16  0.6010518E-02
    1        0.160536   1.000000
    2        0.175910   1.000000
    3        7.622636   1.000000
    4        8.387203   1.000000
    5        8.943049   0.872814
    6       11.663232   0.000000
    7       14.806656   0.000000
    8       15.613730   0.000000
 
  0.4545455E+00  0.3636364E+00 -0.3979458E-16  0.1202104E-01
    1       -1.318415   1.000000
    2       -0.239281   1.000000
    3        8.176976   1.000000
    4        9.133383   0.418366
    5       10.883563   0.000000
    6       13.073003   0.000000
    7       13.563745   0.000000
    8       14.262907   0.000000
 
 -0.4545455E+00  0.3636364E+00 -0.1340671E-16  0.1202104E-01
    1       -2.379332   1.000000
    2       -0.211402   1.000000
    3        8.092902   1.000000
    4       10.092559   0.000000
    5       10.948652   0.000000
    6       12.905990   0.000000
    7       15.169276   0.000000
    8       15.888930   0.000000
 
 -0.3636364E+00  0.3636364E+00  0.6799859E-18  0.3005259E-02
    1       -3.001069   1.000000
    2        0.251677   1.000000
    3        7.957642   1.000000
    4        9.982029   0.000000
    5       10.972365   0.000000
    6       13.070011   0.000000
    7       17.365414   0.000000
    8       17.995622   0.000000
 
  0.4545455E+00  0.4545455E+00 -0.4928622E-16  0.6010518E-02
    1       -1.388994   1.000000
    2       -1.387918   1.000000
    3        8.999031   0.771544
    4        9.018167   0.728614
    5       11.784039   0.000000
    6       11.951341   0.000000
    7       15.068973   0.000000
    8       15.828798   0.000000
 
 -0.4545455E+00  0.4545455E+00 -0.2152036E-17  0.3005259E-02
    1       -2.104753   1.000000
    2       -1.017841   1.000000
    3        8.784882   0.988034
    4        9.791115   0.000001
    5       10.862763   0.000000
    6       11.895164   0.000000
    7       17.911664   0.000000
    8       17.961469   0.000000
 
  0.9090909E-01  0.9090909E-01  0.9090909E-01  0.6010518E-02
    1       -3.507836   1.000000
    2        3.936676   1.000000
    3        7.408996   1.000000
    4        9.160479   0.345438
    5       12.543144   0.000000
    6       13.077204   0.000000
    7       13.829605   0.000000
    8       15.591210   0.000000
 
  0.1818182E+00  0.9090909E-01  0.9090909E-01  0.1202104E-01
    1       -2.391272   1.000000
    2        3.967297   1.000000
    3        7.819638   1.000000
    4        9.207357   0.232957
    5       10.644112   0.000000
    6       11.279864   0.000000
    7       14.374944   0.000000
    8       15.062861   0.000000
 
  0.2727273E+00  0.9090909E-01  0.9090909E-01  0.1202104E-01
    1       -0.844426   1.000000
    2        4.373427   1.000000
    3        6.329842   1.000000
    4        7.788708   1.000000
    5        9.308432   0.074389
    6       12.763014   0.000000
    7       13.409278   0.000000
    8       14.176423   0.000000
 
  0.3636364E+00  0.9090909E-01  0.9090909E-01  0.1202104E-01
    1        1.090665   1.000000
    2        3.535909   1.000000
    3        5.324362   1.000000
    4        6.542483   1.000000
    5        9.533203   0.001210
    6       11.707479   0.000000
    7       13.768069   0.000000
    8       14.452748   0.000000
 
 -0.9090909E-01  0.9090909E-01  0.9090909E-01  0.3005259E-02
    1       -4.407097   1.000000
    2        4.666812   1.000000
    3        5.746556   1.000000
    4        8.827656   0.974752
    5       11.743272   0.000000
    6       14.316323   0.000000
    7       17.888233   0.000000
    8       17.999944   0.000000
 
  0.1818182E+00  0.1818182E+00  0.9090909E-01  0.6010518E-02
    1       -0.942399   1.000000
    2        4.310181   1.000000
    3        7.080039   1.000000
    4        7.211846   1.000000
    5       10.038704   0.000000
    6       12.024075   0.000000
    7       13.935223   0.000000
    8       14.024852   0.000000
 
  0.2727273E+00  0.1818182E+00  0.9090909E-01  0.1202104E-01
    1        0.908384   1.000000
    2        4.303803   1.000000
    3        5.084118   1.000000
    4        5.590833   1.000000
    5       10.690155   0.000000
    6       12.666651   0.000000
    7       13.212935   0.000000
    8       14.286213   0.000000
 
  0.3636364E+00  0.1818182E+00  0.9090909E-01  0.1202104E-01
    1        1.826188   1.000000
    2        3.207091   1.000000
    3        4.144830   1.000000
    4        6.318744   1.000000
    5       10.351137   0.000000
    6       12.417815   0.000000
    7       13.539811   0.000000
    8       15.281545   0.000000
 
  0.4545455E+00  0.1818182E+00  0.9090909E-01  0.1202104E-01
    1       -0.157579   1.000000
    2        3.004253   1.000000
    3        5.963416   1.000000
    4        7.678020   1.000000
    5        9.756002   0.000002
    6       12.688671   0.000000
    7       13.691557   0.000000
    8       14.919790   0.000000
 
 -0.4545455E+00  0.1818182E+00  0.9090909E-01  0.1202104E-01
    1       -1.794399   1.000000
    2        2.480696   1.000000
    3        8.164309   1.000000
    4        8.977853   0.814256
    5       10.388682   0.000000
    6       11.737569   0.000000
    7       13.281925   0.000000
    8       15.182989   0.000000
 
 -0.3636364E+00  0.1818182E+00  0.9090909E-01  0.6010518E-02
    1       -3.006709   1.000000
    2        2.361764   1.000000
    3        7.847138   1.000000
    4        9.773784   0.000001
    5       11.887053   0.000000
    6       12.650084   0.000000
    7       14.144416   0.000000
    8       15.006297   0.000000
 
 -0.1818182E+00  0.1818182E+00  0.9090909E-01  0.6010518E-02
    1       -4.104811   1.000000
    2        3.310879   1.000000
    3        5.716686   1.000000
    4        9.800678   0.000000
    5       12.727661   0.000000
    6       13.204983   0.000000
    7       16.744731   0.000000
    8       18.373679   0.000000
 
 -0.9090909E-01  0.1818182E+00  0.9090909E-01  0.6010518E-02
    1       -3.980594   1.000000
    2        4.005801   1.000000
    3        5.287772   1.000000
    4       10.160230   0.000000
    5       12.795130   0.000000
    6       12.987858   0.000000
    7       15.281337   0.000000
    8       17.485193   0.000000
 
  0.2727273E+00  0.2727273E+00  0.9090909E-01  0.6010518E-02
    1        2.513569   1.000000
    2        2.849697   1.000000
    3        3.551728   1.000000
    4        6.240461   1.000000
    5       10.937586   0.000000
    6       11.884522   0.000000
    7       14.712858   0.000000
    8       14.969876   0.000000
 
  0.3636364E+00  0.2727273E+00  0.9090909E-01  0.1202104E-01
    1        0.718492   1.000000
    2        1.777022   1.000000
    3        5.779975   1.000000
    4        7.585567   1.000000
    5       10.423078   0.000000
    6       11.669048   0.000000
    7       14.401264   0.000000
    8       15.573587   0.000000
 
  0.4545455E+00  0.2727273E+00  0.9090909E-01  0.1202104E-01
    1       -1.002945   1.000000
    2        1.143807   1.000000
    3        8.376323   1.000000
    4        8.912434   0.912493
    5       10.391882   0.000000
    6       11.996717   0.000000
    7       12.589706   0.000000
    8       14.381774   0.000000
 
 -0.4545455E+00  0.2727273E+00  0.9090909E-01  0.6010518E-02
    1       -2.308052   1.000000
    2        0.929990   1.000000
    3        8.448780   0.999998
    4       10.360865   0.000000
    5       11.140912   0.000000
    6       12.298500   0.000000
    7       13.367963   0.000000
    8       13.970559   0.000000
 
 -0.2727273E+00  0.2727273E+00  0.9090909E-01  0.6010518E-02
    1       -3.602457   1.000000
    2        1.768373   1.000000
    3        6.142546   1.000000
    4       10.522747   0.000000
    5       11.216793   0.000000
    6       15.292583   0.000000
    7       15.478180   0.000000
    8       18.004766   0.000000
 
 -0.1818182E+00  0.2727273E+00  0.9090909E-01  0.1202104E-01
    1       -3.579085   1.000000
    2        2.757406   1.000000
    3        5.268782   1.000000
    4       11.085892   0.000000
    5       11.311488   0.000000
    6       14.404555   0.000000
    7       14.961906   0.000000
    8       17.306348   0.000000
 
 -0.9090909E-01  0.2727273E+00  0.9090909E-01  0.6010518E-02
    1       -3.107676   1.000000
    2        3.769031   1.000000
    3        5.153937   1.000000
    4       10.671714   0.000000
    5       11.701161   0.000000
    6       12.849046   0.000000
    7       14.558811   0.000000
    8       15.244059   0.000000
 
  0.3636364E+00  0.3636364E+00  0.9090909E-01  0.6010518E-02
    1       -0.023686   1.000000
    2       -0.018681   1.000000
    3        8.399094   1.000000
    4        8.952477   0.858392
    5       10.584553   0.000000
    6       11.490484   0.000000
    7       13.123669   0.000000
    8       13.674998   0.000000
 
  0.4545455E+00  0.3636364E+00  0.9090909E-01  0.6010518E-02
    1       -1.415350   1.000000
    2       -0.333334   1.000000
    3        9.193511   0.263942
    4       10.020551   0.000000
    5       11.318674   0.000000
    6       11.919413   0.000000
    7       13.006202   0.000000
    8       13.188802   0.000000
 
 -0.3636364E+00  0.3636364E+00  0.9090909E-01  0.6010518E-02
    1       -2.902230   1.000000
    2        0.340823   1.000000
    3        6.788600   1.000000
    4        9.851219   0.000000
    5       11.267886   0.000000
    6       14.254580   0.000000
    7       17.268101   0.000000
    8       17.803177   0.000000
 
 -0.2727273E+00  0.3636364E+00  0.9090909E-01  0.1202104E-01
    1       -2.979077   1.000000
    2        1.306766   1.000000
    3        5.767982   1.000000
    4        9.825220   0.000000
    5       11.852625   0.000000
    6       14.237808   0.000000
    7       16.442716   0.000000
    8       16.612356   0.000000
 
 -0.1818182E+00  0.3636364E+00  0.9090909E-01  0.1202104E-01
    1       -2.609154   1.000000
    2        2.627847   1.000000
    3        5.185482   1.000000
    4        9.967709   0.000000
    5       10.809471   0.000000
    6       13.558625   0.000000
    7       14.981287   0.000000
    8       16.403216   0.000000
 
 -0.9090909E-01  0.3636364E+00  0.9090909E-01  0.6010518E-02
    1       -1.796604   1.000000
    2        3.949048   1.000000
    3        5.386412   1.000000
    4        7.987429   1.000000
    5       10.615252   0.000000
    6       13.131090   0.000000
    7       14.238157   0.000000
    8       14.553395   0.000000
 
 -0.4545455E+00  0.4545455E+00  0.9090909E-01  0.6010518E-02
    1       -2.007451   1.000000
    2       -0.923438   1.000000
    3        7.627919   1.000000
    4        8.651510   0.999316
    5       12.130412   0.000000
    6       13.129617   0.000000
    7       17.532344   0.000000
    8       17.606770   0.000000
 
 -0.3636364E+00  0.4545455E+00  0.9090909E-01  0.1202104E-01
    1       -2.183410   1.000000
    2       -0.028141   1.000000
    3        6.502188   1.000000
    4        8.544753   0.999962
    5       12.487838   0.000000
    6       13.955300   0.000000
    7       15.548702   0.000000
    8       16.888426   0.000000
 
 -0.2727273E+00  0.4545455E+00  0.9090909E-01  0.1202104E-01
    1       -1.914972   1.000000
    2        1.276358   1.000000
    3        5.761818   1.000000
    4        8.742086   0.994779
    5       10.442673   0.000000
    6       14.291315   0.000000
    7       14.776409   0.000000
    8       17.071470   0.000000
 
 -0.1818182E+00  0.4545455E+00  0.9090909E-01  0.1202104E-01
    1       -1.205390   1.000000
    2        2.919988   1.000000
    3        5.479381   1.000000
    4        7.544483   1.000000
    5        9.417069   0.013482
    6       13.010321   0.000000
    7       15.028839   0.000000
    8       15.832717   0.000000
 
 -0.9090909E-01  0.4545455E+00  0.9090909E-01  0.6010518E-02
    1       -0.065690   1.000000
    2        4.343707   1.000000
    3        5.319045   1.000000
    4        5.983838   1.000000
    5        9.663220   0.000039
    6       11.895788   0.000000
    7       12.540632   0.000000
    8       16.375873   0.000000
 
 -0.4545455E+00 -0.4545455E+00  0.9090909E-01  0.6010518E-02
    1       -1.198686   1.000000
    2       -1.195512   1.000000
    3        7.430161   1.000000
    4        7.434170   1.000000
    5       12.834520   0.000000
    6       13.816819   0.000000
    7       15.138996   0.000000
    8       16.848457   0.000000
 
 -0.3636364E+00 -0.4545455E+00  0.9090909E-01  0.1202104E-01
    1       -1.029312   1.000000
    2        0.039988   1.000000
    3        6.576783   1.000000
    4        7.580729   1.000000
    5       10.274540   0.000000
    6       14.637373   0.000000
    7       15.067356   0.000000
    8       16.240691   0.000000
 
 -0.2727273E+00 -0.4545455E+00  0.9090909E-01  0.1202104E-01
    1       -0.423076   1.000000
    2        1.675254   1.000000
    3        6.103623   1.000000
    4        7.255976   1.000000
    5        8.260369   1.000000
    6       12.801437   0.000000
    7       16.042857   0.000000
    8       16.982492   0.000000
 
 -0.1818182E+00 -0.4545455E+00  0.9090909E-01  0.1202104E-01
    1        0.608035   1.000000
    2        3.543768   1.000000
    3        4.781382   1.000000
    4        6.211866   1.000000
    5        8.879733   0.943801
    6       11.457183   0.000000
    7       13.601857   0.000000
    8       17.268643   0.000000
 
 -0.9090909E-01 -0.4545455E+00  0.9090909E-01  0.6010518E-02
    1        1.842721   1.000000
    2        2.619175   1.000000
    3        5.730386   1.000000
    4        6.873144   1.000000
    5        8.696239   0.998043
    6       11.196180   0.000000
    7       11.410796   0.000000
    8       16.608258   0.000000
 
 -0.3636364E+00 -0.3636364E+00  0.9090909E-01  0.6010518E-02
    1        0.529252   1.000000
    2        0.556226   1.000000
    3        6.734596   1.000000
    4        7.019976   1.000000
    5        7.595422   1.000000
    6       12.722022   0.000000
    7       16.606249   0.000000
    8       17.546528   0.000000
 
 -0.2727273E+00 -0.3636364E+00  0.9090909E-01  0.1202104E-01
    1        1.458816   1.000000
    2        2.470428   1.000000
    3        4.528525   1.000000
    4        6.930511   1.000000
    5        7.883733   1.000000
    6       11.234924   0.000000
    7       15.089978   0.000000
    8       16.771171   0.000000
 
 -0.1818182E+00 -0.3636364E+00  0.9090909E-01  0.1202104E-01
    1        1.906797   1.000000
    2        3.015726   1.000000
    3        4.900085   1.000000
    4        7.144600   1.000000
    5        8.545963   0.999961
    6       10.569821   0.000000
    7       12.297135   0.000000
    8       15.744849   0.000000
 
 -0.9090909E-01 -0.3636364E+00  0.9090909E-01  0.6010518E-02
    1        0.136539   1.000000
    2        4.662893   1.000000
    3        7.055474   1.000000
    4        7.717079   1.000000
    5        7.953951   1.000000
    6       10.661086   0.000000
    7       11.557500   0.000000
    8       14.522897   0.000000
 
 -0.2727273E+00 -0.2727273E+00  0.9090909E-01  0.6010518E-02
    1        1.858537   1.000000
    2        3.792996   1.000000
    3        3.956601   1.000000
    4        7.628063   1.000000
    5        8.119386   1.000000
    6       10.297727   0.000000
    7       13.478536   0.000000
    8       14.499898   0.000000
 
 -0.1818182E+00 -0.2727273E+00  0.9090909E-01  0.1202104E-01
    1       -0.056861   1.000000
    2        5.471084   1.000000
    3        6.392354   1.000000
    4        7.638311   1.000000
    5        8.692536   0.998200
    6       10.567558   0.000000
    7       11.585407   0.000000
    8       13.158130   0.000000
 
 -0.9090909E-01 -0.2727273E+00  0.9090909E-01  0.6010518E-02
    1       -1.634851   1.000000
    2        6.955164   1.000000
    3        7.673342   1.000000
    4        7.837586   1.000000
    5        9.076848   0.576791
    6       11.406814   0.000000
    7       11.563387   0.000000
    8       13.033568   0.000000
 
 -0.1818182E+00 -0.1818182E+00  0.9090909E-01  0.6010518E-02
    1       -1.734064   1.000000
    2        7.307725   1.000000
    3        7.969909   1.000000
    4        8.182801   1.000000
    5        9.103157   0.503054
    6       10.650751   0.000000
    7       11.975223   0.000000
    8       12.161708   0.000000
 
 -0.9090909E-01 -0.1818182E+00  0.9090909E-01  0.6010518E-02
    1       -2.990668   1.000000
    2        6.951842   1.000000
    3        7.516562   1.000000
    4        8.806450   0.982384
    5       11.065494   0.000000
    6       11.454552   0.000000
    7       12.409899   0.000000
    8       13.822023   0.000000
 
 -0.9090909E-01 -0.9090909E-01  0.9090909E-01  0.1502630E-02
    1       -3.909950   1.000000
    2        7.054568   1.000000
    3        7.054573   1.000000
    4        7.338426   1.000000
    5       11.327526   0.000000
    6       13.736880   0.000000
    7       13.897054   0.000000
    8       16.046063   0.000000
 
  0.1818182E+00  0.1818182E+00  0.1818182E+00  0.6010518E-02
    1       -0.254211   1.000000
    2        2.921275   1.000000
    3        6.784803   1.000000
    4        6.860492   1.000000
    5       10.723641   0.000000
    6       12.608683   0.000000
    7       14.009543   0.000000
    8       14.548870   0.000000
 
  0.2727273E+00  0.1818182E+00  0.1818182E+00  0.1202104E-01
    1        1.667800   1.000000
    2        3.597539   1.000000
    3        4.349528   1.000000
    4        5.229805   1.000000
    5       11.669430   0.000000
    6       13.824678   0.000000
    7       14.001392   0.000000
    8       14.504812   0.000000
 
 -0.1818182E+00  0.1818182E+00  0.1818182E+00  0.3005259E-02
    1       -3.803713   1.000000
    2        3.106148   1.000000
    3        4.520665   1.000000
    4       11.120258   0.000000
    5       11.329874   0.000000
    6       14.111999   0.000000
    7       17.218108   0.000000
    8       18.381563   0.000000
 
  0.2727273E+00  0.2727273E+00  0.1818182E+00  0.6010518E-02
    1        2.554902   1.000000
    2        2.628460   1.000000
    3        4.179645   1.000000
    4        5.127963   1.000000
    5       12.390729   0.000000
    6       13.203760   0.000000
    7       14.478679   0.000000
    8       15.295848   0.000000
 
  0.3636364E+00  0.2727273E+00  0.1818182E+00  0.6010518E-02
    1        0.624239   1.000000
    2        1.686209   1.000000
    3        6.643298   1.000000
    4        6.667852   1.000000
    5       11.572190   0.000000
    6       12.524421   0.000000
    7       13.609866   0.000000
    8       14.252581   0.000000
 
 -0.2727273E+00  0.2727273E+00  0.1818182E+00  0.6010518E-02
    1       -3.303385   1.000000
    2        1.958157   1.000000
    3        4.549424   1.000000
    4        9.589605   0.000300
    5       12.382706   0.000000
    6       15.832950   0.000000
    7       16.570030   0.000000
    8       17.646152   0.000000
 
 -0.1818182E+00  0.2727273E+00  0.1818182E+00  0.6010518E-02
    1       -3.179738   1.000000
    2        2.632859   1.000000
    3        4.121732   1.000000
    4        9.686457   0.000019
    5       12.443320   0.000000
    6       14.554365   0.000000
    7       15.639642   0.000000
    8       17.986222   0.000000
 
 -0.3636364E+00  0.3636364E+00  0.1818182E+00  0.6010518E-02
    1       -2.606462   1.000000
    2        0.599300   1.000000
    3        5.133035   1.000000
    4        8.205710   1.000000
    5       13.204216   0.000000
    6       15.767449   0.000000
    7       17.108964   0.000000
    8       17.695558   0.000000
 
 -0.2727273E+00  0.3636364E+00  0.1818182E+00  0.1202104E-01
    1       -2.583325   1.000000
    2        1.587587   1.000000
    3        4.219723   1.000000
    4        8.230036   1.000000
    5       12.857633   0.000000
    6       14.817080   0.000000
    7       17.392733   0.000000
    8       18.089382   0.000000
 