   2   2   0   0
  0.2001288E+02  0.3839590E-09  0.3839590E-09  0.3839590E-09  0.5000000E-15
  1.000000000000000E-004
  CAR 
 unknown system                          
     14.34556185     -7.39701940  301      5.79355067      1.00000000
     -7.397  0.0000E+00  0.0000E+00
     -7.325  0.0000E+00  0.0000E+00
     -7.252  0.0000E+00  0.0000E+00
     -7.180  0.0000E+00  0.0000E+00
     -7.107  0.0000E+00  0.0000E+00
     -7.035  0.0000E+00  0.0000E+00
     -6.962  0.0000E+00  0.0000E+00
     -6.890  0.0000E+00  0.0000E+00
     -6.817  0.0000E+00  0.0000E+00
     -6.745  0.0000E+00  0.0000E+00
     -6.672  0.0000E+00  0.0000E+00
     -6.600  0.0000E+00  0.0000E+00
     -6.527  0.3064E-15  0.2220E-16
     -6.455  0.1680E-13  0.1240E-14
     -6.382  0.7251E-12  0.5379E-13
     -6.310  0.2415E-10  0.1804E-11
     -6.237  0.6207E-09  0.4679E-10
     -6.165  0.1231E-07  0.9391E-09
     -6.092  0.1886E-06  0.1461E-07
     -6.020  0.2230E-05  0.1763E-06
     -5.948  0.2038E-04  0.1653E-05
     -5.875  0.1438E-03  0.1208E-04
     -5.803  0.7844E-03  0.6893E-04
     -5.730  0.3307E-02  0.3086E-03
     -5.658  0.1078E-01  0.1090E-02
     -5.585  0.2715E-01  0.3058E-02
     -5.513  0.5291E-01  0.6892E-02
     -5.440  0.7972E-01  0.1267E-01
     -5.368  0.9290E-01  0.1940E-01
     -5.295  0.8374E-01  0.2547E-01
     -5.223  0.5837E-01  0.2970E-01
     -5.150  0.3147E-01  0.3198E-01
     -5.078  0.1312E-01  0.3293E-01
     -5.005  0.4228E-02  0.3324E-01
     -4.933  0.1054E-02  0.3332E-01
     -4.860  0.2029E-03  0.3333E-01
     -4.788  0.3021E-04  0.3333E-01
     -4.715  0.3474E-05  0.3333E-01
     -4.643  0.3086E-06  0.3333E-01
     -4.570  0.2117E-07  0.3333E-01
     -4.498  0.1125E-08  0.3333E-01
     -4.426  0.1615E-09  0.3333E-01
     -4.353  0.2868E-08  0.3333E-01
     -4.281  0.5485E-07  0.3333E-01
     -4.208  0.8104E-06  0.3333E-01
     -4.136  0.9246E-05  0.3333E-01
     -4.063  0.8149E-04  0.3334E-01
     -3.991  0.5549E-03  0.3338E-01
     -3.918  0.2920E-02  0.3359E-01
     -3.846  0.1188E-01  0.3445E-01
     -3.773  0.3734E-01  0.3716E-01
     -3.701  0.9077E-01  0.4374E-01
     -3.628  0.1706E+00  0.5611E-01
     -3.556  0.2481E+00  0.7409E-01
     -3.483  0.2790E+00  0.9430E-01
     -3.411  0.2426E+00  0.1119E+00
     -3.338  0.1632E+00  0.1237E+00
     -3.266  0.8487E-01  0.1299E+00
     -3.193  0.3414E-01  0.1323E+00
     -3.121  0.1062E-01  0.1331E+00
     -3.049  0.2552E-02  0.1333E+00
     -2.976  0.4743E-03  0.1333E+00
     -2.904  0.6810E-04  0.1333E+00
     -2.831  0.7555E-05  0.1333E+00
     -2.759  0.6474E-06  0.1333E+00
     -2.686  0.4285E-07  0.1333E+00
     -2.614  0.2189E-08  0.1333E+00
     -2.541  0.8633E-10  0.1333E+00
     -2.469  0.2627E-11  0.1333E+00
     -2.396  0.6158E-13  0.1333E+00
     -2.324  0.1225E-14  0.1333E+00
     -2.251  0.0000E+00  0.1333E+00
     -2.179  0.0000E+00  0.1333E+00
     -2.106  0.0000E+00  0.1333E+00
     -2.034  0.0000E+00  0.1333E+00
     -1.961  0.0000E+00  0.1333E+00
     -1.889  0.0000E+00  0.1333E+00
     -1.816  0.2068E-14  0.1333E+00
     -1.744  0.1089E-12  0.1333E+00
     -1.671  0.4465E-11  0.1333E+00
     -1.599  0.1412E-09  0.1333E+00
     -1.527  0.3447E-08  0.1333E+00
     -1.454  0.6495E-07  0.1333E+00
     -1.382  0.9448E-06  0.1333E+00
     -1.309  0.1061E-04  0.1333E+00
     -1.237  0.9210E-04  0.1333E+00
     -1.164  0.6175E-03  0.1334E+00
     -1.092  0.3200E-02  0.1336E+00
     -1.019  0.1281E-01  0.1345E+00
     -0.947  0.3967E-01  0.1374E+00
     -0.874  0.9497E-01  0.1443E+00
     -0.802  0.1758E+00  0.1570E+00
     -0.729  0.2517E+00  0.1753E+00
     -0.657  0.2787E+00  0.1955E+00
     -0.584  0.2386E+00  0.2128E+00
     -0.512  0.1580E+00  0.2242E+00
     -0.439  0.8094E-01  0.2301E+00
     -0.367  0.3206E-01  0.2324E+00
     -0.294  0.9817E-02  0.2331E+00
     -0.222  0.2324E-02  0.2333E+00
     -0.149  0.4252E-03  0.2333E+00
     -0.077  0.6012E-04  0.2333E+00
     -0.005  0.6567E-05  0.2333E+00
      0.068  0.5541E-06  0.2333E+00
      0.140  0.3610E-07  0.2333E+00
      0.213  0.1816E-08  0.2333E+00
      0.285  0.7051E-10  0.2333E+00
      0.358  0.2113E-11  0.2333E+00
      0.430  0.4871E-13  0.2333E+00
      0.503  0.9191E-15  0.2333E+00
      0.575  0.5106E-16  0.2333E+00
      0.648  0.3676E-14  0.2333E+00
      0.720  0.1747E-12  0.2333E+00
      0.793  0.6430E-11  0.2333E+00
      0.865  0.1827E-09  0.2333E+00
      0.938  0.4004E-08  0.2333E+00
      1.010  0.6777E-07  0.2333E+00
      1.083  0.8857E-06  0.2333E+00
      1.155  0.8940E-05  0.2333E+00
      1.228  0.6971E-04  0.2333E+00
      1.300  0.4200E-03  0.2334E+00
      1.372  0.1956E-02  0.2335E+00
      1.445  0.7040E-02  0.2340E+00
      1.517  0.1959E-01  0.2354E+00
      1.590  0.4219E-01  0.2385E+00
      1.662  0.7042E-01  0.2436E+00
      1.735  0.9184E-01  0.2503E+00
      1.807  0.9689E-01  0.2573E+00
      1.880  0.9366E-01  0.2641E+00
      1.952  0.1071E+00  0.2718E+00
      2.025  0.1561E+00  0.2831E+00
      2.097  0.2274E+00  0.2996E+00
      2.170  0.2765E+00  0.3197E+00
      2.242  0.2648E+00  0.3389E+00
      2.315  0.1969E+00  0.3531E+00
      2.387  0.1133E+00  0.3613E+00
      2.460  0.5046E-01  0.3650E+00
      2.532  0.1737E-01  0.3663E+00
      2.605  0.4624E-02  0.3666E+00
      2.677  0.9514E-03  0.3667E+00
      2.750  0.1516E-03  0.3667E+00
      2.822  0.2278E-04  0.3667E+00
      2.894  0.4210E-04  0.3667E+00
      2.967  0.2996E-03  0.3667E+00
      3.039  0.1719E-02  0.3668E+00
      3.112  0.7623E-02  0.3674E+00
      3.184  0.2614E-01  0.3693E+00
      3.257  0.6928E-01  0.3743E+00
      3.329  0.1420E+00  0.3846E+00
      3.402  0.2251E+00  0.4009E+00
      3.474  0.2760E+00  0.4209E+00
      3.547  0.2617E+00  0.4399E+00
      3.619  0.1919E+00  0.4538E+00
      3.692  0.1088E+00  0.4617E+00
      3.764  0.4773E-01  0.4651E+00
      3.837  0.1618E-01  0.4663E+00
      3.909  0.4243E-02  0.4666E+00
      3.982  0.8598E-03  0.4667E+00
      4.054  0.1347E-03  0.4667E+00
      4.127  0.1635E-04  0.4667E+00
      4.199  0.2307E-05  0.4667E+00
      4.271  0.8723E-05  0.4667E+00
      4.344  0.7310E-04  0.4667E+00
      4.416  0.4793E-03  0.4667E+00
      4.489  0.2429E-02  0.4669E+00
      4.561  0.9513E-02  0.4676E+00
      4.634  0.2881E-01  0.4697E+00
      4.706  0.6745E-01  0.4745E+00
      4.779  0.1221E+00  0.4834E+00
      4.851  0.1710E+00  0.4958E+00
      4.924  0.1852E+00  0.5092E+00
      4.996  0.1551E+00  0.5205E+00
      5.069  0.1005E+00  0.5277E+00
      5.141  0.5032E-01  0.5314E+00
      5.214  0.1949E-01  0.5328E+00
      5.286  0.5838E-02  0.5332E+00
      5.359  0.1352E-02  0.5333E+00
      5.431  0.2419E-03  0.5333E+00
      5.504  0.3345E-04  0.5333E+00
      5.576  0.3573E-05  0.5333E+00
      5.649  0.2948E-06  0.5333E+00
      5.721  0.1879E-07  0.5333E+00
      5.793  0.9241E-09  0.5333E+00
      5.866  0.3509E-10  0.5333E+00
      5.938  0.1028E-11  0.5333E+00
      6.011  0.2367E-13  0.5333E+00
      6.083  0.2247E-13  0.5333E+00
      6.156  0.1007E-11  0.5333E+00
      6.228  0.3541E-10  0.5333E+00
      6.301  0.9611E-09  0.5333E+00
      6.373  0.2013E-07  0.5333E+00
      6.446  0.3256E-06  0.5333E+00
      6.518  0.4066E-05  0.5333E+00
      6.591  0.3922E-04  0.5333E+00
      6.663  0.2922E-03  0.5334E+00
      6.736  0.1683E-02  0.5335E+00
      6.808  0.7489E-02  0.5340E+00
      6.881  0.2576E-01  0.5359E+00
      6.953  0.6852E-01  0.5409E+00
      7.026  0.1410E+00  0.5511E+00
      7.098  0.2243E+00  0.5673E+00
      7.171  0.2767E+00  0.5874E+00
      7.243  0.2664E+00  0.6067E+00
      7.315  0.2059E+00  0.6216E+00
      7.388  0.1410E+00  0.6318E+00
      7.460  0.1063E+00  0.6395E+00
      7.533  0.9990E-01  0.6468E+00
      7.605  0.9726E-01  0.6538E+00
      7.678  0.8092E-01  0.6597E+00
      7.750  0.5345E-01  0.6636E+00
      7.823  0.2748E-01  0.6656E+00
      7.895  0.1094E-01  0.6664E+00
      7.968  0.3369E-02  0.6666E+00
      8.040  0.8022E-03  0.6667E+00
      8.113  0.1476E-03  0.6667E+00
      8.185  0.2099E-04  0.6667E+00
      8.258  0.2308E-05  0.6667E+00
      8.330  0.2207E-06  0.6667E+00
      8.403  0.3950E-06  0.6667E+00
      8.475  0.4515E-05  0.6667E+00
      8.548  0.4119E-04  0.6667E+00
      8.620  0.2903E-03  0.6667E+00
      8.692  0.1581E-02  0.6668E+00
      8.765  0.6658E-02  0.6673E+00
      8.837  0.2167E-01  0.6689E+00
      8.910  0.5453E-01  0.6728E+00
      8.982  0.1061E+00  0.6805E+00
      9.055  0.1597E+00  0.6921E+00
      9.127  0.1858E+00  0.7055E+00
      9.200  0.1673E+00  0.7177E+00
      9.272  0.1164E+00  0.7261E+00
      9.345  0.6270E-01  0.7306E+00
      9.417  0.2611E-01  0.7325E+00
      9.490  0.8454E-02  0.7332E+00
      9.562  0.2462E-02  0.7333E+00
      9.635  0.2469E-02  0.7335E+00
      9.707  0.8959E-02  0.7342E+00
      9.780  0.2963E-01  0.7363E+00
      9.852  0.7623E-01  0.7418E+00
      9.925  0.1517E+00  0.7528E+00
      9.997  0.2335E+00  0.7697E+00
     10.070  0.2779E+00  0.7899E+00
     10.142  0.2558E+00  0.8084E+00
     10.214  0.1821E+00  0.8216E+00
     10.287  0.1003E+00  0.8289E+00
     10.359  0.4270E-01  0.8320E+00
     10.432  0.1406E-01  0.8330E+00
     10.504  0.3578E-02  0.8333E+00
     10.577  0.7052E-03  0.8333E+00
     10.649  0.1206E-03  0.8333E+00
     10.722  0.1268E-03  0.8333E+00
     10.794  0.7468E-03  0.8334E+00
     10.867  0.3763E-02  0.8337E+00
     10.939  0.1470E-01  0.8347E+00
     11.012  0.4453E-01  0.8380E+00
     11.084  0.1051E+00  0.8456E+00
     11.157  0.1952E+00  0.8597E+00
     11.229  0.2908E+00  0.8808E+00
     11.302  0.3606E+00  0.9069E+00
     11.374  0.3921E+00  0.9354E+00
     11.447  0.3899E+00  0.9636E+00
     11.519  0.3531E+00  0.9892E+00
     11.592  0.2783E+00  0.1009E+01
     11.664  0.1814E+00  0.1023E+01
     11.736  0.9454E-01  0.1029E+01
     11.809  0.3871E-01  0.1032E+01
     11.881  0.1252E-01  0.1033E+01
     11.954  0.4097E-02  0.1033E+01
     12.026  0.4810E-02  0.1034E+01
     12.099  0.1320E-01  0.1035E+01
     12.171  0.3148E-01  0.1037E+01
     12.244  0.5837E-01  0.1041E+01
     12.316  0.8374E-01  0.1047E+01
     12.389  0.9290E-01  0.1054E+01
     12.461  0.7972E-01  0.1060E+01
     12.534  0.5291E-01  0.1064E+01
     12.606  0.2715E-01  0.1066E+01
     12.679  0.1078E-01  0.1066E+01
     12.751  0.3307E-02  0.1067E+01
     12.824  0.7844E-03  0.1067E+01
     12.896  0.1438E-03  0.1067E+01
     12.969  0.2038E-04  0.1067E+01
     13.041  0.2230E-05  0.1067E+01
     13.113  0.1886E-06  0.1067E+01
     13.186  0.1231E-07  0.1067E+01
     13.258  0.6207E-09  0.1067E+01
     13.331  0.2415E-10  0.1067E+01
     13.403  0.7251E-12  0.1067E+01
     13.476  0.1680E-13  0.1067E+01
     13.548  0.3064E-15  0.1067E+01
     13.621  0.0000E+00  0.1067E+01
     13.693  0.0000E+00  0.1067E+01
     13.766  0.0000E+00  0.1067E+01
     13.838  0.0000E+00  0.1067E+01
     13.911  0.0000E+00  0.1067E+01
     13.983  0.0000E+00  0.1067E+01
     14.056  0.0000E+00  0.1067E+01
     14.128  0.0000E+00  0.1067E+01
     14.201  0.0000E+00  0.1067E+01
     14.273  0.0000E+00  0.1067E+01
     14.346  0.0000E+00  0.1067E+01
