       N       E                     dE             d eps       ncg     rms          rms(c)
DAV:   1     0.313057381225E+01    0.31306E+01   -0.27806E+03    32   0.552E+02
DAV:   2    -0.107443977806E+02   -0.13875E+02   -0.13875E+02    48   0.752E+01
DAV:   3    -0.108740245812E+02   -0.12963E+00   -0.12963E+00    40   0.922E+00
DAV:   4    -0.108742506424E+02   -0.22606E-03   -0.22606E-03    48   0.377E-01
DAV:   5    -0.108742511870E+02   -0.54460E-06   -0.54458E-06    40   0.198E-02    0.312E+00
DAV:   6    -0.107363919529E+02    0.13786E+00   -0.89412E-02    40   0.158E+00    0.185E+00
DAV:   7    -0.106740743864E+02    0.62318E-01   -0.16721E-01    40   0.230E+00    0.165E-01
DAV:   8    -0.106759301098E+02   -0.18557E-02   -0.48982E-03    32   0.528E-01    0.262E-02
DAV:   9    -0.106760526686E+02   -0.12256E-03   -0.12413E-04    32   0.890E-02
   1 F= -.10676053E+02 E0= -.10676053E+02  d E =-.106761E+02
       N       E                     dE             d eps       ncg     rms          rms(c)
DAV:   1    -0.106887009646E+02   -0.12771E-01   -0.36100E-01    40   0.335E+00    0.381E-01
DAV:   2    -0.106826430892E+02    0.60579E-02   -0.48770E-03    32   0.464E-01    0.219E-01
DAV:   3    -0.106794201654E+02    0.32229E-02   -0.63244E-03    40   0.404E-01    0.266E-02
DAV:   4    -0.106794125692E+02    0.75962E-05   -0.66245E-05    16   0.744E-02
   2 F= -.10679413E+02 E0= -.10679413E+02  d E =-.335990E-02
       N       E                     dE             d eps       ncg     rms          rms(c)
DAV:   1    -0.106843455996E+02   -0.49254E-02   -0.60024E-02    40   0.138E+00    0.156E-01
DAV:   2    -0.106833460457E+02    0.99955E-03   -0.79042E-04    32   0.186E-01    0.898E-02
DAV:   3    -0.106828283777E+02    0.51767E-03   -0.10498E-03    32   0.165E-01    0.108E-02
DAV:   4    -0.106828318751E+02   -0.34974E-05   -0.11836E-05    16   0.319E-02
   3 F= -.10682832E+02 E0= -.10682832E+02  d E =-.677921E-02
