unknown system                          
   1.00000000000000     
    -2.450000    2.450000    1.274000
     2.450000   -2.450000    1.274000
     2.450000    2.450000   -1.274000
   Si
     2
Direct
  0.250000  0.750000  0.500000
  0.000000  0.000000  0.000000
 
   36   36   36
 -.52554296928E+01 -.43293042193E+01 -.17848593026E+01 0.17569158539E+01 0.54925174511E+01
 0.86751407322E+01 0.10800012743E+02 0.11688658909E+02 0.11472105660E+02 0.10500255572E+02
 0.92099705763E+01 0.79100566716E+01 0.67173923607E+01 0.56999751175E+01 0.48882212692E+01
 0.42837131126E+01 0.38721261263E+01 0.36349119981E+01 0.35576294836E+01 0.36349107164E+01
 0.38721330847E+01 0.42837260222E+01 0.48882271540E+01 0.56999732664E+01 0.67173943933E+01
 0.79100636111E+01 0.92099716498E+01 0.10500249890E+02 0.11472103449E+02 0.11688661310E+02
 0.10800011661E+02 0.86751377409E+01 0.54925209850E+01 0.17569211689E+01 -.17848644411E+01
 -.43293151327E+01 -.43293151327E+01 -.48074757768E+01 -.34811144711E+01 -.68712716962E+00
 0.28980542379E+01 0.64773291022E+01 0.93619428424E+01 0.11131460422E+02 0.11690865628E+02
 0.11233492635E+02 0.10139267706E+02 0.88328753552E+01 0.75569112189E+01 0.64092910226E+01
 0.54478133054E+01 0.46943453972E+01 0.41451449942E+01 0.37838028224E+01 0.35921185582E+01
 0.35575214826E+01 0.36771793846E+01 0.39588226450E+01 0.44182703716E+01 0.50737636445E+01
 0.59369092461E+01 0.70004881235E+01 0.82260386591E+01 0.95370868246E+01 0.10793035558E+02
 0.11637638601E+02 0.11643798899E+02 0.10503925932E+02 0.81534518570E+01 0.48464858536E+01
 0.11500676513E+01 -.21654486036E+01 -.17848644411E+01 -.34811226913E+01 -.35142171861E+01
 -.18807519479E+01 0.10019096153E+01 0.44387295486E+01 0.76772688517E+01 0.10115658937E+02
 0.11432309678E+02 0.11616491706E+02 0.10914464582E+02 0.97207117629E+01 0.84180260559E+01
 0.71788971362E+01 0.60871916191E+01 0.51893941501E+01 0.44988711384E+01 0.40072219999E+01
 0.36967352940E+01 0.35501924118E+01 0.35572451428E+01 0.37175934388E+01 0.40409881920E+01
 0.45440959022E+01 0.52442546325E+01 0.61498791954E+01 0.72481615334E+01 0.84936343086E+01
 0.98035164476E+01 0.11012725480E+02 0.11742278573E+02 0.11590519933E+02 0.10300375175E+02
 0.78722166997E+01 0.46215284542E+01 0.11500676513E+01 0.17569211689E+01 -.68713006607E+00
 -.18807556972E+01 -.15203718591E+01 0.29328995164E+00 0.30925320110E+01 0.62015815135E+01
 0.89458160064E+01 0.10830658172E+02 0.11639301355E+02 0.11439396217E+02 0.10516418542E+02
 0.92612700751E+01 0.79787497666E+01 0.67888280747E+01 0.57621216695E+01 0.49334291254E+01
 0.43082186314E+01 0.38743700704E+01 0.36137067276E+01 0.35105404560E+01 0.35569311879E+01
 0.37549341183E+01 0.41158804207E+01 0.46567274470E+01 0.53933916980E+01 0.63308587794E+01
 0.74511614375E+01 0.87032561638E+01 0.10000276913E+02 0.11158326154E+02 0.11798738534E+02
 0.11556278578E+02 0.10227983393E+02 0.78722166997E+01 0.48464858536E+01 0.54925209850E+01
 0.28980569355E+01 0.10019095341E+01 0.29329100539E+00 0.95575026581E+00 0.28055714903E+01
 0.53585574992E+01 0.79926042474E+01 0.10135547963E+02 0.11410570673E+02 0.11703144048E+02
 0.11147637967E+02 0.10052001270E+02 0.87768050615E+01 0.75290300515E+01 0.63994493114E+01
 0.54445825803E+01 0.46879497667E+01 0.41281926574E+01 0.37505734540E+01 0.35372533087E+01
 0.34744803174E+01 0.35567281531E+01 0.37880900876E+01 0.41809809067E+01 0.47521189243E+01
 0.55155969657E+01 0.64729684853E+01 0.76018590961E+01 0.88473515734E+01 0.10120751332E+02
 0.11230670613E+02 0.11816411493E+02 0.11556278578E+02 0.10300375175E+02 0.81534518570E+01
 0.86751377409E+01 0.64773287763E+01 0.44387293452E+01 0.30925343719E+01 0.28055762861E+01
 0.36536168264E+01 0.53976449009E+01 0.75699813733E+01 0.96292365717E+01 0.11119852613E+02
 0.11783286358E+02 0.11597462561E+02 0.10747509341E+02 0.95455262537E+01 0.82819562250E+01
 0.70830232747E+01 0.60229035339E+01 0.51441112281E+01 0.44599989709E+01 0.39637770104E+01
 0.36392301042E+01 0.34695457937E+01 0.34431369859E+01 0.35567326725E+01 0.38160534421E+01
 0.42340867575E+01 0.48268337268E+01 0.56062924343E+01 0.65708048642E+01 0.76945945438E+01
 0.89207223079E+01 0.10161290614E+02 0.11230670613E+02 0.11798738534E+02 0.11590519933E+02
 0.10503925932E+02 0.10800011661E+02 0.93619411270E+01 0.76772652643E+01 0.62015789229E+01
 0.53585612418E+01 0.53976515373E+01 0.63078251238E+01 0.78246951590E+01 0.95250821861E+01
 0.10965529189E+02 0.11810505891E+02 0.11911590370E+02 0.11323756273E+02 0.10264279319E+02
 0.90244981603E+01 0.77922311302E+01 0.66545427330E+01 0.56702865135E+01 0.48689842226E+01
 0.42554603316E+01 0.38190340919E+01 0.35430737701E+01 0.34123094340E+01 0.34173665897E+01
 0.35569441736E+01 0.38379300543E+01 0.42733859846E+01 0.48781836241E+01 0.56620926577E+01
 0.66206629495E+01 0.77258959738E+01 0.89207223079E+01 0.10120751332E+02 0.11158326154E+02
 0.11742278573E+02 0.11643798899E+02 0.11688661310E+02 0.11131463521E+02 0.10115658868E+02
 0.89458107340E+01 0.79926003288E+01 0.75699852416E+01 0.78247016537E+01 0.86847491556E+01
 0.98881257144E+01 0.11076115247E+02 0.11909964304E+02 0.12168173659E+02 0.11797677304E+02
 0.10911454429E+02 0.97392499669E+01 0.85077184994E+01 0.73234376790E+01 0.62565351315E+01
 0.53513206668E+01 0.46260737719E+01 0.40790212240E+01 0.36971045868E+01 0.34641671514E+01
 0.33668004698E+01 0.33977331471E+01 0.35572651055E+01 0.38529740056E+01 0.42975251825E+01
 0.49043263533E+01 0.56809251103E+01 0.66206629495E+01 0.76945945438E+01 0.88473515734E+01
 0.10000276913E+02 0.11012725480E+02 0.11637638601E+02 0.11472103449E+02 0.11690868322E+02
 0.11432315671E+02 0.10830659813E+02 0.10135542846E+02 0.96292325366E+01 0.95250852017E+01
 0.98881306326E+01 0.10611677817E+02 0.11458266728E+02 0.12144385992E+02 0.12433355740E+02
 0.12204510000E+02 0.11481020724E+02 0.10413082438E+02 0.92131110863E+01 0.80136686789E+01
 0.68909120638E+01 0.59005978061E+01 0.50741593962E+01 0.44208379854E+01 0.39342423945E+01
 0.36002856825E+01 0.34039584612E+01 0.33338436974E+01 0.33845447315E+01 0.35575464983E+01
 0.38606406469E+01 0.43056662487E+01 0.49043263533E+01 0.56620926577E+01 0.65708048642E+01
 0.76018590961E+01 0.87032561638E+01 0.98035164476E+01 0.10793035558E+02 0.10500249890E+02
 0.11233487571E+02 0.11616493795E+02 0.11639308385E+02 0.11410573666E+02 0.11119849067E+02
 0.10965526026E+02 0.11076116964E+02 0.11458269461E+02 0.11993667416E+02 0.12484093385E+02
 0.12723243638E+02 0.12566544718E+02 0.11976203888E+02 0.11030278834E+02 0.98934121361E+01
 0.87101407227E+01 0.75607920313E+01 0.65086954495E+01 0.55965993003E+01 0.48453208094E+01
 0.42574115852E+01 0.38236943074E+01 0.35301566380E+01 0.33633819477E+01 0.33139169867E+01
 0.33779316307E+01 0.35576575113E+01 0.38606406469E+01 0.42975251825E+01 0.48781836241E+01
 0.56062924343E+01 0.64729684853E+01 0.74511614375E+01 0.84936343086E+01 0.95370868246E+01
 0.92099716498E+01 0.10139261880E+02 0.10914458217E+02 0.11439397059E+02 0.11703150307E+02
 0.11783289987E+02 0.11810504516E+02 0.11909962552E+02 0.12144386476E+02 0.12484094068E+02
 0.12816641765E+02 0.12990074359E+02 0.12870155048E+02 0.12389470435E+02 0.11572620568E+02
 0.10530661906E+02 0.93966192349E+01 0.82526279474E+01 0.71661446567E+01 0.61888281988E+01
 0.53524574402E+01 0.46697350653E+01 0.41387561072E+01 0.37491187733E+01 0.34877180552E+01
 0.33429740788E+01 0.33072523853E+01 0.33779316307E+01 0.35575464983E+01 0.38529740056E+01
 0.42733859846E+01 0.48268337268E+01 0.55155969657E+01 0.63308587794E+01 0.72481615334E+01
 0.82260386591E+01 0.79100636111E+01 0.88328786301E+01 0.97207075851E+01 0.10516412544E+02
 0.11147637417E+02 0.11597466798E+02 0.11911593792E+02 0.12168174265E+02 0.12433355443E+02
 0.12723243256E+02 0.12990073575E+02 0.13138356331E+02 0.13062696851E+02 0.12690666383E+02
 0.12014281043E+02 0.11099471204E+02 0.10051990747E+02 0.89496500465E+01 0.78610311675E+01
 0.68442692136E+01 0.59408997884E+01 0.51740945748E+01 0.45508744552E+01 0.40668289185E+01
 0.37115802101E+01 0.34735145952E+01 0.33429740788E+01 0.33139169867E+01 0.33845447315E+01
 0.35572651055E+01 0.38379300543E+01 0.42340867575E+01 0.47521189243E+01 0.53933916980E+01
 0.61498791954E+01 0.70004881235E+01 0.67173943933E+01 0.75569178269E+01 0.84180307975E+01
 0.92612685349E+01 0.10051996944E+02 0.10747507734E+02 0.11323758019E+02 0.11797679843E+02
 0.12204511905E+02 0.12566545537E+02 0.12870154225E+02 0.13062695310E+02 0.13070645134E+02
 0.12830303495E+02 0.12317669667E+02 0.11565558896E+02 0.10647131371E+02 0.96285647467E+01
 0.85763554297E+01 0.75524410827E+01 0.66065069682E+01 0.57719011505E+01 0.50655399470E+01
 0.44909213130E+01 0.40427345757E+01 0.37115802101E+01 0.34877180552E+01 0.33633819477E+01
 0.33338436974E+01 0.33977331471E+01 0.35569441736E+01 0.38160534421E+01 0.41809809067E+01
 0.46567274470E+01 0.52442546325E+01 0.59369092461E+01 0.56999732664E+01 0.64092909030E+01
 0.71789017740E+01 0.79787547685E+01 0.87768061479E+01 0.95455242366E+01 0.10264277245E+02
 0.10911453947E+02 0.11481022080E+02 0.11976206285E+02 0.12389471824E+02 0.12690665449E+02
 0.12830301826E+02 0.12756841503E+02 0.12439960674E+02 0.11889074643E+02 0.11144856097E+02
 0.10257400259E+02 0.92870392771E+01 0.82959959188E+01 0.73397252352E+01 0.64607805134E+01
 0.56863166391E+01 0.50291050856E+01 0.44909213130E+01 0.40668289185E+01 0.37491187733E+01
 0.35301566380E+01 0.34039584612E+01 0.33668004698E+01 0.34173665897E+01 0.35567326725E+01
 0.37880900876E+01 0.41158804207E+01 0.45440959022E+01 0.50737636445E+01 0.48882271540E+01
 0.54478115256E+01 0.60871894501E+01 0.67888297975E+01 0.75290340716E+01 0.82819591488E+01
 0.90244983565E+01 0.97392479845E+01 0.10413080466E+02 0.11030279112E+02 0.11572622781E+02
 0.12014282432E+02 0.12317668820E+02 0.12439959338E+02 0.12348009304E+02 0.12032095448E+02
 0.11504040177E+02 0.10796457346E+02 0.99585154406E+01 0.90479707013E+01 0.81223547148E+01
 0.72313065263E+01 0.64117029061E+01 0.56863166391E+01 0.50655399470E+01 0.45508744552E+01
 0.41387561072E+01 0.38236943074E+01 0.36002856825E+01 0.34641671514E+01 0.34123094340E+01
 0.34431369859E+01 0.35567281531E+01 0.37549341183E+01 0.40409881920E+01 0.44182703716E+01
 0.42837260222E+01 0.46943513552E+01 0.51893929293E+01 0.57621181339E+01 0.63994480566E+01
 0.70830254920E+01 0.77922347768E+01 0.85077202519E+01 0.92131095414E+01 0.98934095728E+01
 0.10530661475E+02 0.11099472779E+02 0.11565559821E+02 0.11889073990E+02 0.12032094728E+02
 0.11967647657E+02 0.11687009372E+02 0.11202981943E+02 0.10548456712E+02 0.97710038864E+01
 0.89250505755E+01 0.80635807260E+01 0.72313065263E+01 0.64607805134E+01 0.57719011505E+01
 0.51740945748E+01 0.46697350653E+01 0.42574115852E+01 0.39342423945E+01 0.36971045868E+01
 0.35430737701E+01 0.34695457937E+01 0.34744803174E+01 0.35569311879E+01 0.37175934388E+01
 0.39588226450E+01 0.38721330847E+01 0.41451527103E+01 0.44988757423E+01 0.49334286349E+01
 0.54445785825E+01 0.60229000203E+01 0.66545430033E+01 0.73234410490E+01 0.80136710764E+01
 0.87101397131E+01 0.93966168745E+01 0.10051990028E+02 0.10647132058E+02 0.11144856278E+02
 0.11504039773E+02 0.11687009369E+02 0.11667791293E+02 0.11438496429E+02 0.11011915808E+02
 0.10419750048E+02 0.97071449096E+01 0.89250505755E+01 0.81223547148E+01 0.73397252352E+01
 0.66065069682E+01 0.59408997884E+01 0.53524574402E+01 0.48453208094E+01 0.44208379854E+01
 0.40790212240E+01 0.38190340919E+01 0.36392301042E+01 0.35372533087E+01 0.35105404560E+01
 0.35572451428E+01 0.36771793846E+01 0.36349107164E+01 0.37838012669E+01 0.40072228177E+01
 0.43082207229E+01 0.46879497969E+01 0.51441075612E+01 0.56702819288E+01 0.62565339391E+01
 0.68909145261E+01 0.75607942229E+01 0.82526274101E+01 0.89496484216E+01 0.96285640441E+01
 0.10257399977E+02 0.10796456715E+02 0.11202981795E+02 0.11438497054E+02 0.11476578834E+02
 0.11308706991E+02 0.10946493572E+02 0.10419750048E+02 0.97710038864E+01 0.90479707013E+01
 0.82959959188E+01 0.75524410827E+01 0.68442692136E+01 0.61888281988E+01 0.55965993003E+01
 0.50741593962E+01 0.46260737719E+01 0.42554603316E+01 0.39637770104E+01 0.37505734540E+01
 0.36137067276E+01 0.35501924118E+01 0.35575214826E+01 0.35576294836E+01 0.35921114369E+01
 0.36967258419E+01 0.38743641328E+01 0.41281917690E+01 0.44599991150E+01 0.48689814060E+01
 0.53513162736E+01 0.59005959706E+01 0.65086967771E+01 0.71661460716E+01 0.78610309916E+01
 0.85763547633E+01 0.92870387232E+01 0.99585142756E+01 0.10548455406E+02 0.11011915859E+02
 0.11308707984E+02 0.11410961949E+02 0.11308706991E+02 0.11011915808E+02 0.10548456712E+02
 0.99585154406E+01 0.92870392771E+01 0.85763554297E+01 0.78610311675E+01 0.71661446567E+01
 0.65086954495E+01 0.59005978061E+01 0.53513206668E+01 0.48689842226E+01 0.44599989709E+01
 0.41281926574E+01 0.38743700704E+01 0.36967352940E+01 0.35921185582E+01 0.36349119981E+01
 0.35575177073E+01 0.35501811864E+01 0.36136919628E+01 0.37505627242E+01 0.39637736231E+01
 0.42554602942E+01 0.46260720639E+01 0.50741561936E+01 0.55965976140E+01 0.61888284611E+01
 0.68442696358E+01 0.75524411727E+01 0.82959961526E+01 0.90479702939E+01 0.97710020957E+01
 0.10419748360E+02 0.10946493699E+02 0.11308707984E+02 0.11476578834E+02 0.11438496429E+02
 0.11202981943E+02 0.10796457346E+02 0.10257400259E+02 0.96285647467E+01 0.89496500465E+01
 0.82526279474E+01 0.75607920313E+01 0.68909120638E+01 0.62565351315E+01 0.56702865135E+01
 0.51441112281E+01 0.46879497667E+01 0.43082186314E+01 0.40072219999E+01 0.37838028224E+01
 0.38721261263E+01 0.36771744151E+01 0.35572383382E+01 0.35105277101E+01 0.35372370607E+01
 0.36392178245E+01 0.38190295652E+01 0.40790210467E+01 0.44208374734E+01 0.48453193373E+01
 0.53524564046E+01 0.59408992095E+01 0.66065064896E+01 0.73397255128E+01 0.81223555763E+01
 0.89250502492E+01 0.97071428917E+01 0.10419748360E+02 0.11011915859E+02 0.11438497054E+02
 0.11667791293E+02 0.11687009372E+02 0.11504040177E+02 0.11144856097E+02 0.10647131371E+02
 0.10051990747E+02 0.93966192349E+01 0.87101407227E+01 0.80136686789E+01 0.73234376790E+01
 0.66545427330E+01 0.60229035339E+01 0.54445825803E+01 0.49334291254E+01 0.44988711384E+01
 0.41451449942E+01 0.42837131126E+01 0.39588087978E+01 0.37175834442E+01 0.35569228799E+01
 0.34744689652E+01 0.34695321636E+01 0.35430635391E+01 0.36971007208E+01 0.39342424377E+01
 0.42574122426E+01 0.46697353684E+01 0.51740943155E+01 0.57719000074E+01 0.64607794286E+01
 0.72313069055E+01 0.80635818113E+01 0.89250502492E+01 0.97710020957E+01 0.10548455406E+02
 0.11202981795E+02 0.11687009369E+02 0.11967647657E+02 0.12032095448E+02 0.11889074643E+02
 0.11565558896E+02 0.11099471204E+02 0.10530661906E+02 0.98934121361E+01 0.92131110863E+01
 0.85077184994E+01 0.77922311302E+01 0.70830232747E+01 0.63994493114E+01 0.57621216695E+01
 0.51893941501E+01 0.46943453972E+01 0.48882212692E+01 0.44182553563E+01 0.40409710256E+01
 0.37549218904E+01 0.35567205356E+01 0.34431297309E+01 0.34123017922E+01 0.34641618787E+01
 0.36002840417E+01 0.38236949946E+01 0.41387577835E+01 0.45508761671E+01 0.50655402770E+01
 0.56863152156E+01 0.64117016098E+01 0.72313069055E+01 0.81223555763E+01 0.90479702939E+01
 0.99585142756E+01 0.10796456715E+02 0.11504039773E+02 0.12032094728E+02 0.12348009304E+02
 0.12439960674E+02 0.12317669667E+02 0.12014281043E+02 0.11572620568E+02 0.11030278834E+02
 0.10413082438E+02 0.97392499669E+01 0.90244981603E+01 0.82819562250E+01 0.75290300515E+01
 0.67888280747E+01 0.60871916191E+01 0.54478133054E+01 0.56999751175E+01 0.50737591263E+01
 0.45440824419E+01 0.41158645768E+01 0.37880793596E+01 0.35567281659E+01 0.34173653559E+01
 0.33668006383E+01 0.34039595087E+01 0.35301579149E+01 0.37491202733E+01 0.40668313055E+01
 0.44909237944E+01 0.50291056316E+01 0.56863152156E+01 0.64607794286E+01 0.73397255128E+01
 0.82959961526E+01 0.92870387232E+01 0.10257399977E+02 0.11144856278E+02 0.11889073990E+02
 0.12439959338E+02 0.12756841503E+02 0.12830303495E+02 0.12690666383E+02 0.12389470435E+02
 0.11976203888E+02 0.11481020724E+02 0.10911454429E+02 0.10264279319E+02 0.95455262537E+01
 0.87768050615E+01 0.79787497666E+01 0.71788971362E+01 0.64092910226E+01 0.67173923607E+01
 0.59369106225E+01 0.52442523739E+01 0.46567188487E+01 0.41809708298E+01 0.38160477630E+01
 0.35569446622E+01 0.33977385620E+01 0.33338515092E+01 0.33633887297E+01 0.34877217612E+01
 0.37115822721E+01 0.40427372195E+01 0.44909237944E+01 0.50655402770E+01 0.57719000074E+01
 0.66065064896E+01 0.75524411727E+01 0.85763547633E+01 0.96285640441E+01 0.10647132058E+02
 0.11565559821E+02 0.12317668820E+02 0.12830301826E+02 0.13070645134E+02 0.13062696851E+02
 0.12870155048E+02 0.12566544718E+02 0.12204510000E+02 0.11797677304E+02 0.11323756273E+02
 0.10747509341E+02 0.10052001270E+02 0.92612700751E+01 0.84180260559E+01 0.75569112189E+01
 0.79100566716E+01 0.70004845806E+01 0.61498797689E+01 0.53933920921E+01 0.47521173336E+01
 0.42340853707E+01 0.38379315116E+01 0.35572711378E+01 0.33845558425E+01 0.33139303322E+01
 0.33429842474E+01 0.34735192408E+01 0.37115822721E+01 0.40668313055E+01 0.45508761671E+01
 0.51740943155E+01 0.59408992095E+01 0.68442696358E+01 0.78610309916E+01 0.89496484216E+01
 0.10051990028E+02 0.11099472779E+02 0.12014282432E+02 0.12690665449E+02 0.13062695310E+02
 0.13138356331E+02 0.12990074359E+02 0.12723243638E+02 0.12433355740E+02 0.12168173659E+02
 0.11911590370E+02 0.11597462561E+02 0.11147637967E+02 0.10516418542E+02 0.97207117629E+01
 0.88328753552E+01 0.92099705763E+01 0.82260332753E+01 0.72481576870E+01 0.63308585591E+01
 0.55155999294E+01 0.48268396268E+01 0.42733937379E+01 0.38529823338E+01 0.35575568691E+01
 0.33779460285E+01 0.33072677464E+01 0.33429842474E+01 0.34877217612E+01 0.37491202733E+01
 0.41387577835E+01 0.46697353684E+01 0.53524564046E+01 0.61888284611E+01 0.71661460716E+01
 0.82526274101E+01 0.93966168745E+01 0.10530661475E+02 0.11572622781E+02 0.12389471824E+02
 0.12870154225E+02 0.12990073575E+02 0.12816641765E+02 0.12484093385E+02 0.12144385992E+02
 0.11909964304E+02 0.11810505891E+02 0.11783286358E+02 0.11703144048E+02 0.11439396217E+02
 0.10914464582E+02 0.10139267706E+02 0.10500255572E+02 0.95370880208E+01 0.84936320412E+01
 0.74511585604E+01 0.64729677262E+01 0.56062975013E+01 0.48781957453E+01 0.42975398241E+01
 0.38606531691E+01 0.35576695230E+01 0.33779460285E+01 0.33139303322E+01 0.33633887297E+01
 0.35301579149E+01 0.38236949946E+01 0.42574122426E+01 0.48453193373E+01 0.55965976140E+01
 0.65086967771E+01 0.75607942229E+01 0.87101397131E+01 0.98934095728E+01 0.11030279112E+02
 0.11976206285E+02 0.12566545537E+02 0.12723243256E+02 0.12484094068E+02 0.11993667416E+02
 0.11458266728E+02 0.11076115247E+02 0.10965529189E+02 0.11119852613E+02 0.11410570673E+02
 0.11639301355E+02 0.11616491706E+02 0.11233492635E+02 0.11472105660E+02 0.10793039129E+02
 0.98035194338E+01 0.87032577326E+01 0.76018579411E+01 0.65708038640E+01 0.56620990916E+01
 0.49043419873E+01 0.43056834461E+01 0.38606531691E+01 0.35575568691E+01 0.33845558425E+01
 0.33338515092E+01 0.34039595087E+01 0.36002840417E+01 0.39342424377E+01 0.44208374734E+01
 0.50741561936E+01 0.59005959706E+01 0.68909145261E+01 0.80136710764E+01 0.92131095414E+01
 0.10413080466E+02 0.11481022080E+02 0.12204511905E+02 0.12433355443E+02 0.12144386476E+02
 0.11458269461E+02 0.10611677817E+02 0.98881257144E+01 0.95250821861E+01 0.96292365717E+01
 0.10135547963E+02 0.10830658172E+02 0.11432309678E+02 0.11690865628E+02 0.11688658909E+02
 0.11637637008E+02 0.11012725606E+02 0.10000280992E+02 0.88473565906E+01 0.76945949782E+01
 0.66206618892E+01 0.56809320167E+01 0.49043419873E+01 0.42975398241E+01 0.38529823338E+01
 0.35572711378E+01 0.33977385620E+01 0.33668006383E+01 0.34641618787E+01 0.36971007208E+01
 0.40790210467E+01 0.46260720639E+01 0.53513162736E+01 0.62565339391E+01 0.73234410490E+01
 0.85077202519E+01 0.97392479845E+01 0.10911453947E+02 0.11797679843E+02 0.12168174265E+02
 0.11909962552E+02 0.11076116964E+02 0.98881306326E+01 0.86847491556E+01 0.78246951590E+01
 0.75699813733E+01 0.79926042474E+01 0.89458160064E+01 0.10115658937E+02 0.11131460422E+02
 0.10800012743E+02 0.11643797537E+02 0.11742273172E+02 0.11158322763E+02 0.10120755911E+02
 0.89207293565E+01 0.77258970474E+01 0.66206618892E+01 0.56620990916E+01 0.48781957453E+01
 0.42733937379E+01 0.38379315116E+01 0.35569446622E+01 0.34173653559E+01 0.34123017922E+01
 0.35430635391E+01 0.38190295652E+01 0.42554602942E+01 0.48689814060E+01 0.56702819288E+01
 0.66545430033E+01 0.77922347768E+01 0.90244983565E+01 0.10264277245E+02 0.11323758019E+02
 0.11911593792E+02 0.11810504516E+02 0.10965526026E+02 0.95250852017E+01 0.78247016537E+01
 0.63078251238E+01 0.53976449009E+01 0.53585574992E+01 0.62015815135E+01 0.76772688517E+01
 0.93619428424E+01 0.86751407322E+01 0.10503931397E+02 0.11590519835E+02 0.11798730330E+02
 0.11230665016E+02 0.10161295321E+02 0.89207293565E+01 0.76945949782E+01 0.65708038640E+01
 0.56062975013E+01 0.48268396268E+01 0.42340853707E+01 0.38160477630E+01 0.35567281659E+01
 0.34431297309E+01 0.34695321636E+01 0.36392178245E+01 0.39637736231E+01 0.44599991150E+01
 0.51441075612E+01 0.60229000203E+01 0.70830254920E+01 0.82819591488E+01 0.95455242366E+01
 0.10747507734E+02 0.11597466798E+02 0.11783289987E+02 0.11119849067E+02 0.96292325366E+01
 0.75699852416E+01 0.53976515373E+01 0.36536168264E+01 0.28055714903E+01 0.30925320110E+01
 0.44387295486E+01 0.64773291022E+01 0.54925174511E+01 0.81534556461E+01 0.10300383954E+02
 0.11556279329E+02 0.11816402258E+02 0.11230665016E+02 0.10120755911E+02 0.88473565906E+01
 0.76018579411E+01 0.64729677262E+01 0.55155999294E+01 0.47521173336E+01 0.41809708298E+01
 0.37880793596E+01 0.35567205356E+01 0.34744689652E+01 0.35372370607E+01 0.37505627242E+01
 0.41281917690E+01 0.46879497969E+01 0.54445785825E+01 0.63994480566E+01 0.75290340716E+01
 0.87768061479E+01 0.10051996944E+02 0.11147637417E+02 0.11703150307E+02 0.11410573666E+02
 0.10135542846E+02 0.79926003288E+01 0.53585612418E+01 0.28055762861E+01 0.95575026581E+00
 0.29328995164E+00 0.10019096153E+01 0.28980542379E+01 0.17569158539E+01 0.48464792140E+01
 0.78722208517E+01 0.10227993406E+02 0.11556279329E+02 0.11798730330E+02 0.11158322763E+02
 0.10000280992E+02 0.87032577326E+01 0.74511585604E+01 0.63308585591E+01 0.53933920921E+01
 0.46567188487E+01 0.41158645768E+01 0.37549218904E+01 0.35569228799E+01 0.35105277101E+01
 0.36136919628E+01 0.38743641328E+01 0.43082207229E+01 0.49334286349E+01 0.57621181339E+01
 0.67888297975E+01 0.79787547685E+01 0.92612685349E+01 0.10516412544E+02 0.11439397059E+02
 0.11639308385E+02 0.10830659813E+02 0.89458107340E+01 0.62015789229E+01 0.30925343719E+01
 0.29329100539E+00 -.15203718591E+01 -.18807519479E+01 -.68712716962E+00 -.17848593026E+01
 0.11500607857E+01 0.46215206266E+01 0.78722208517E+01 0.10300383954E+02 0.11590519835E+02
 0.11742273172E+02 0.11012725606E+02 0.98035194338E+01 0.84936320412E+01 0.72481576870E+01
 0.61498797689E+01 0.52442523739E+01 0.45440824419E+01 0.40409710256E+01 0.37175834442E+01
 0.35572383382E+01 0.35501811864E+01 0.36967258419E+01 0.40072228177E+01 0.44988757423E+01
 0.51893929293E+01 0.60871894501E+01 0.71789017740E+01 0.84180307975E+01 0.97207075851E+01
 0.10914458217E+02 0.11616493795E+02 0.11432315671E+02 0.10115658868E+02 0.76772652643E+01
 0.44387293452E+01 0.10019095341E+01 -.18807556972E+01 -.35142171861E+01 -.34811144711E+01
 -.43293042193E+01 -.21654426110E+01 0.11500607857E+01 0.48464792140E+01 0.81534556461E+01
 0.10503931397E+02 0.11643797537E+02 0.11637637008E+02 0.10793039129E+02 0.95370880208E+01
 0.82260332753E+01 0.70004845806E+01 0.59369106225E+01 0.50737591263E+01 0.44182553563E+01
 0.39588087978E+01 0.36771744151E+01 0.35575177073E+01 0.35921114369E+01 0.37838012669E+01
 0.41451527103E+01 0.46943513552E+01 0.54478115256E+01 0.64092909030E+01 0.75569178269E+01
 0.88328786301E+01 0.10139261880E+02 0.11233487571E+02 0.11690868322E+02 0.11131463521E+02
 0.93619411270E+01 0.64773287763E+01 0.28980569355E+01 -.68713006607E+00 -.34811226913E+01
 -.48074757768E+01 -.43293060096E+01 -.36443306598E+01 -.13868979413E+01 0.18890241372E+01
 0.54292384011E+01 0.85061889196E+01 0.10605224167E+02 0.11519464708E+02 0.11346631580E+02
 0.10409678667E+02 0.91321263281E+01 0.78327057054E+01 0.66334736832E+01 0.56047066761E+01
 0.47789794782E+01 0.41591178592E+01 0.37310554556E+01 0.34757864484E+01 0.33779104689E+01
 0.34307607529E+01 0.36383857527E+01 0.40143548075E+01 0.45774129838E+01 0.53438067942E+01
 0.63160541921E+01 0.74698365011E+01 0.87441778853E+01 0.10036300715E+02 0.11084524553E+02
 0.11466958947E+02 0.10825736151E+02 0.90018548705E+01 0.61278064337E+01 0.26510158343E+01
 -.73739749424E+00 -.32704162873E+01 -.36443401670E+01 -.43293159120E+01 -.32704232783E+01
 -.73740643590E+00 0.26510015561E+01 0.61277923043E+01 0.90018500280E+01 0.10825742564E+02
 0.11466969521E+02 0.11084532102E+02 0.10036304846E+02 0.87441813773E+01 0.74698391640E+01
 0.63160543245E+01 0.53438058525E+01 0.45774137319E+01 0.40143561334E+01 0.36383844076E+01
 0.34307577155E+01 0.33779102730E+01 0.34757898353E+01 0.37310580388E+01 0.41591172301E+01
 0.47789783252E+01 0.56047068977E+01 0.66334726264E+01 0.78327011443E+01 0.91321203334E+01
 0.10409672849E+02 0.11346623157E+02 0.11519452574E+02 0.10605215430E+02 0.85061925713E+01
 0.54292527529E+01 0.18890364122E+01 -.13868978436E+01 -.13138063903E+01 -.31922045399E+01
 -.34811316488E+01 -.21134149516E+01 0.55830589539E+00 0.38816736173E+01 0.71129567465E+01
 0.96279364259E+01 0.11064909818E+02 0.11371072299E+02 0.10760953148E+02 0.96141002174E+01
 0.83248286947E+01 0.70872416379E+01 0.59893702540E+01 0.50814175438E+01 0.43792495404E+01
 0.38755580167E+01 0.35526732695E+01 0.33927712372E+01 0.33845278004E+01 0.35265850334E+01
 0.38279586219E+01 0.43053650776E+01 0.49774198365E+01 0.58553857661E+01 0.69308831300E+01
 0.81638357804E+01 0.94766825139E+01 0.10725303974E+02 0.11555077584E+02 0.11559491733E+02
 0.10460031023E+02 0.82207157129E+01 0.51113323097E+01 0.16896376742E+01 0.20787050573E+01
 -.52595902306E+00 -.19654136493E+01 -.18807696070E+01 -.30487418764E+00 0.23501159257E+01
 0.54324720166E+01 0.82555649501E+01 0.10286471944E+02 0.11260379612E+02 0.11202882291E+02
 0.10373419512E+02 0.91571208934E+01 0.78865970399E+01 0.66971374691E+01 0.56640218129E+01
 0.48259148364E+01 0.41906115924E+01 0.37468792933E+01 0.34764572706E+01 0.33630172242E+01
 0.33977242087E+01 0.35818073488E+01 0.39262348040E+01 0.44484606329E+01 0.51660867669E+01
 0.60871417379E+01 0.71978683082E+01 0.84518991454E+01 0.97666874124E+01 0.10977923093E+02
 0.11718837839E+02 0.11612762861E+02 0.10430830163E+02 0.81941138612E+01 0.52188851286E+01
 0.57413481346E+01 0.30109824429E+01 0.88622934257E+00 -.10222927197E+00 0.29327535909E+00
 0.19535978987E+01 0.44357299820E+01 0.71221332108E+01 0.94112512880E+01 0.10877476729E+02
 0.11355893959E+02 0.10942910108E+02 0.99283486879E+01 0.86809420367E+01 0.74423298567E+01
 0.63115328833E+01 0.53500126570E+01 0.45849490282E+01 0.40169760952E+01 0.36319979963E+01
 0.34119772742E+01 0.33425276805E+01 0.34173668386E+01 0.36400387721E+01 0.40229702559E+01
 0.45837661103E+01 0.53384791717E+01 0.62916889964E+01 0.74247761605E+01 0.86866158026E+01
 0.99919326811E+01 0.11163967952E+02 0.11844058689E+02 0.11693877582E+02 0.10535041181E+02
 0.84365278197E+01 0.89183094280E+01 0.66148292653E+01 0.43770903294E+01 0.27629662686E+01
 0.21920105031E+01 0.28055612081E+01 0.44195085044E+01 0.65903968830E+01 0.87638986465E+01
 0.10442871774E+02 0.11315568776E+02 0.11312113800E+02 0.10586863457E+02 0.94429305913E+01
 0.81984490223E+01 0.70049010694E+01 0.59417862271E+01 0.50563632555E+01 0.43651706994E+01
 0.38629866954E+01 0.35339879987E+01 0.33610751823E+01 0.33320758757E+01 0.34431450943E+01
 0.36997481193E+01 0.41152324558E+01 0.47067909639E+01 0.54885008248E+01 0.64615017706E+01
 0.76031130830E+01 0.88591730276E+01 0.10143980945E+02 0.11279934031E+02 0.11931380475E+02
 0.11803083115E+02 0.10763939690E+02 0.11084174873E+02 0.95748539096E+01 0.77318357457E+01
 0.60195340675E+01 0.48980727797E+01 0.46743603235E+01 0.53976383582E+01 0.68446310707E+01
 0.85996662414E+01 0.10192979798E+02 0.11241190565E+02 0.11543774890E+02 0.11114360850E+02
 0.10148576995E+02 0.89427106446E+01 0.77230420984E+01 0.65868650303E+01 0.55982321940E+01
 0.47908390384E+01 0.41720663905E+01 0.37323549495E+01 0.34552377070E+01 0.33251034873E+01
 0.33320784907E+01 0.34744934295E+01 0.37592684176E+01 0.42001254248E+01 0.48133296780E+01
 0.56106845667E+01 0.65901151006E+01 0.77258957609E+01 0.89626196910E+01 0.10216605394E+02
 0.11321481761E+02 0.11974927908E+02 0.11925945445E+02 0.12035909310E+02 0.11443316811E+02
 0.10316612889E+02 0.89571870546E+01 0.77554739402E+01 0.70685047327E+01 0.70989068281E+01
 0.78246911794E+01 0.90098206147E+01 0.10289029625E+02 0.11289097627E+02 0.11739986297E+02
 0.11541990072E+02 0.10775749509E+02 0.96593484467E+01 0.84466908542E+01 0.72686354883E+01
 0.62000562615E+01 0.52898994676E+01 0.45598185114E+01 0.40099205362E+01 0.36278499225E+01
 0.33974243300E+01 0.33048727457E+01 0.33425352864E+01 0.35105556789E+01 0.38168095750E+01
 0.42748610807E+01 0.48995986588E+01 0.57003989582E+01 0.66723954829E+01 0.77879788719E+01
 0.89922674244E+01 0.10205825552E+02 0.11283541477E+02 0.11963157952E+02 0.11881336735E+02
 0.12099224608E+02 0.11778507992E+02 0.11042805186E+02 0.10147830711E+02 0.94028573566E+01
 0.90656412304E+01 0.92505288626E+01 0.98881235460E+01 0.10752958449E+02 0.11545027694E+02
 0.11990213130E+02 0.11923136175E+02 0.11328746893E+02 0.10335153973E+02 0.91603169572E+01
 0.79708255190E+01 0.68490846189E+01 0.58551892223E+01 0.50243484058E+01 0.43682976081E+01
 0.38818858011E+01 0.35513637096E+01 0.33615445561E+01 0.33006532731E+01 0.33630288788E+01
 0.35502079121E+01 0.38705151653E+01 0.43368553333E+01 0.49623810465E+01 0.57540493519E+01
 0.67047971632E+01 0.77863660122E+01 0.89460657589E+01 0.10110354104E+02 0.11161390776E+02
 0.10952448413E+02 0.11715157666E+02 0.12081418421E+02 0.12026912116E+02 0.11656800871E+02
 0.11173513661E+02 0.10805615058E+02 0.10722861058E+02 0.10971668170E+02 0.11458266333E+02